<LesHouchesEvents version="3.0">
<header>
<!--
#*********************************************************************
#                                                                    *
#                        MadGraph5_aMC@NLO                           *
#                                                                    *
#                           Going Beyond                             *
#                                                                    *
#                   http://madgraph.hep.uiuc.edu                     *
#                   http://madgraph.phys.ucl.ac.be                   *
#                   http://amcatnlo.cern.ch                          *
#                                                                    *
#                     The MadGraph5_aMC@NLO team                     *
#                                                                    *
#....................................................................*
#                                                                    *
# This file contains all the information necessary to reproduce      *
# the events generated:                                              *
#                                                                    *
# 1. software version                                                *
# 2. proc_card          : code generation info including model       *
# 3. param_card         : model primary parameters in the LH format  *
# 4. run_card           : running parameters (collider and cuts)     *
# 5. pythia_card        : present only if pythia has been run        *
# 6. pgs_card           : present only if pgs has been run           *
# 7. delphes_cards      : present only if delphes has been run       *
#                                                                    *
#                                                                    *
#*********************************************************************
-->
<MGVersion>
#5.2.2.3
</MGVersion>
<MG5ProcCard>
#************************************************************
#*                     MadGraph5_aMC@NLO                    *
#*                                                          *
#*                *                       *                 *
#*                  *        * *        *                   *
#*                    * * * * 5 * * * *                     *
#*                  *        * *        *                   *
#*                *                       *                 *
#*                                                          *
#*                                                          *
#*         VERSION 2.2.3                 2015-02-10         *
#*                                                          *
#*    The MadGraph5_aMC@NLO Development Team - Find us at   *
#*    https://server06.fynu.ucl.ac.be/projects/madgraph     *
#*                                                          *
#************************************************************
#*                                                          *
#*               Command File for MadGraph5_aMC@NLO         *
#*                                                          *
#*     run as ./bin/mg5_aMC  filename                       *
#*                                                          *
#************************************************************
set group_subprocesses Auto
set ignore_six_quark_processes False
set loop_optimized_output True
set gauge unitary
set complex_mass_scheme False
import model sm
define p = g u c d s u~ c~ d~ s~
define j = g u c d s u~ c~ d~ s~
define l+ = e+ mu+
define l- = e- mu-
define vl = ve vm vt
define vl~ = ve~ vm~ vt~
import model Zprime_UFO
generate p p > zph, zph > j j
add process p p > zph, zph > b b~
output Dijet_signal
</MG5ProcCard>
<MGProcCard>
#*********************************************************************
#                        MadGraph/MadEvent                           *
#                   http://madgraph.hep.uiuc.edu                     *
#                                                                    *
#                          proc_card.dat                             *
#*********************************************************************
#                                                                    *
#            This Files is generated by MADGRAPH 5                   *
#                                                                    *
# WARNING: This Files is generated for MADEVENT (compatibility issue)*
#          This files is NOT a valid MG4 proc_card.dat               *
#          Running this in MG4 will NEVER reproduce the result of MG5*
#                                                                    *
#*********************************************************************
#*********************************************************************
# Process(es) requested : mg2 input                                  *
#*********************************************************************
# Begin PROCESS # This is TAG. Do not modify this line
p p > zph , zph > j j           #Process
# Be carefull the coupling are here in MG5 convention
          
end_coup           # End the couplings input

done               # this tells MG there are no more procs
# End PROCESS  # This is TAG. Do not modify this line
#*********************************************************************
# Model information                                                  *
#*********************************************************************
# Begin MODEL  # This is TAG. Do not modify this line
Zprime_UFO
# End   MODEL  # This is TAG. Do not modify this line
#*********************************************************************
# Start multiparticle definitions                                    *
#*********************************************************************
# Begin MULTIPARTICLES # This is TAG. Do not modify this line

# End  MULTIPARTICLES # This is TAG. Do not modify this line
</MGProcCard>
<MGRunCard>
#*********************************************************************
#                       MadGraph5_aMC@NLO                            *
#                                                                    *
#                     run_card.dat MadEvent                          *
#                                                                    *
#  This file is used to set the parameters of the run.               *
#                                                                    *
#  Some notation/conventions:                                        *
#                                                                    *
#   Lines starting with a '# ' are info or comments                  *
#                                                                    *
#   mind the format:   value    = variable     ! comment             *
#*********************************************************************
#
#*******************                                                 
# Running parameters
#*******************                                                 
#                                                                    
#*********************************************************************
# Tag name for the run (one word)                                    *
#*********************************************************************
  tag_1     = run_tag ! name of the run 
#*********************************************************************
# Run to generate the grid pack                                      *
#*********************************************************************
  .false.     = gridpack  !True = setting up the grid pack
#*********************************************************************
# Number of events and rnd seed                                      *
# Warning: Do not generate more than 1M events in a single run       *
# If you want to run Pythia, avoid more than 50k events in a run.    *
#*********************************************************************
  2000 = nevents ! Number of unweighted events requested 
 3000 = iseed   ! rnd seed (0=assigned automatically=default))
#*********************************************************************
# Collider type and energy                                           *
# lpp: 0=No PDF, 1=proton, -1=antiproton, 2=photon from proton,      *
#                                         3=photon from electron     *
#*********************************************************************
        1     = lpp1    ! beam 1 type 
        1     = lpp2    ! beam 2 type
     4000     = ebeam1  ! beam 1 total energy in GeV
     4000     = ebeam2  ! beam 2 total energy in GeV
#*********************************************************************
# Beam polarization from -100 (left-handed) to 100 (right-handed)    *
#*********************************************************************
        0     = polbeam1 ! beam polarization for beam 1
        0     = polbeam2 ! beam polarization for beam 2
#*********************************************************************
# PDF CHOICE: this automatically fixes also alpha_s and its evol.    *
#*********************************************************************
 'nn23lo1'    = pdlabel     ! PDF set                                     
 230000    = lhaid     ! if pdlabel=lhapdf, this is the lhapdf number
#*********************************************************************
# Renormalization and factorization scales                           *
#*********************************************************************
 F        = fixed_ren_scale  ! if .true. use fixed ren scale
 F        = fixed_fac_scale  ! if .true. use fixed fac scale
 91.1880  = scale            ! fixed ren scale
 91.1880  = dsqrt_q2fact1    ! fixed fact scale for pdf1
 91.1880  = dsqrt_q2fact2    ! fixed fact scale for pdf2
 1        = scalefact        ! scale factor for event-by-event scales
#*********************************************************************
# Matching - Warning! ickkw > 1 is still beta
#*********************************************************************
 0        = ickkw            ! 0 no matching, 1 MLM, 2 CKKW matching
 1        = highestmult      ! for ickkw=2, highest mult group
 1        = ktscheme         ! for ickkw=1, 1 Durham kT, 2 Pythia pTE
 1        = alpsfact         ! scale factor for QCD emission vx
 F        = chcluster        ! cluster only according to channel diag
 T        = pdfwgt           ! for ickkw=1, perform pdf reweighting
 5        = asrwgtflavor     ! highest quark flavor for a_s reweight
 T        = clusinfo         ! include clustering tag in output
 3.0      = lhe_version       ! Change the way clustering information pass to shower.        
#*********************************************************************
#**********************************************************
#
#**********************************************************
# Automatic ptj and mjj cuts if xqcut > 0
# (turn off for VBF and single top processes)
#**********************************************************
   T  = auto_ptj_mjj  ! Automatic setting of ptj and mjj
#**********************************************************
#                                                                    
#**********************************
# BW cutoff (M+/-bwcutoff*Gamma)
#**********************************
  15  = bwcutoff      ! (M+/-bwcutoff*Gamma)
#**********************************************************
# Apply pt/E/eta/dr/mij cuts on decay products or not
# (note that etmiss/ptll/ptheavy/ht/sorted cuts always apply)
#**********************************************************
   T  = cut_decays    ! Cut decay products 
#*************************************************************
# Number of helicities to sum per event (0 = all helicities)
# 0 gives more stable result, but longer run time (needed for
# long decay chains e.g.).
# Use >=2 if most helicities contribute, e.g. pure QCD.
#*************************************************************
   0  = nhel          ! Number of helicities used per event
#*******************                                                 
# Standard Cuts
#*******************                                                 
#                                                                    
#*********************************************************************
# Minimum and maximum pt's (for max, -1 means no cut)                *
#*********************************************************************
 20  = ptj       ! minimum pt for the jets 
  0  = ptb       ! minimum pt for the b 
 10  = pta       ! minimum pt for the photons 
 10  = ptl       ! minimum pt for the charged leptons 
  0  = misset    ! minimum missing Et (sum of neutrino's momenta)
  0  = ptheavy   ! minimum pt for one heavy final state
 1.0 = ptonium   ! minimum pt for the quarkonium states
 -1  = ptjmax    ! maximum pt for the jets
 -1  = ptbmax    ! maximum pt for the b
 -1  = ptamax    ! maximum pt for the photons
 -1  = ptlmax    ! maximum pt for the charged leptons
 -1  = missetmax ! maximum missing Et (sum of neutrino's momenta)
#*********************************************************************
# Minimum and maximum E's (in the center of mass frame)              *
#*********************************************************************
  0  = ej     ! minimum E for the jets 
  0  = eb     ! minimum E for the b 
  0  = ea     ! minimum E for the photons 
  0  = el     ! minimum E for the charged leptons 
 -1   = ejmax ! maximum E for the jets
 -1   = ebmax ! maximum E for the b
 -1   = eamax ! maximum E for the photons
 -1   = elmax ! maximum E for the charged leptons
#*********************************************************************
# Maximum and minimum absolute rapidity (for max, -1 means no cut)   *
#*********************************************************************
   5  = etaj    ! max rap for the jets 
  -1  = etab    ! max rap for the b
 2.5  = etaa    ! max rap for the photons 
 2.5  = etal    ! max rap for the charged leptons 
 0.6  = etaonium ! max rap for the quarkonium states
   0  = etajmin ! min rap for the jets
   0  = etabmin ! min rap for the b
   0  = etaamin ! min rap for the photons
   0  = etalmin ! main rap for the charged leptons
#*********************************************************************
# Minimum and maximum DeltaR distance                                *
#*********************************************************************
 0.4 = drjj    ! min distance between jets 
 0   = drbb    ! min distance between b's 
 0.4 = drll    ! min distance between leptons 
 0.4 = draa    ! min distance between gammas 
 0   = drbj    ! min distance between b and jet 
 0.4 = draj    ! min distance between gamma and jet 
 0.4 = drjl    ! min distance between jet and lepton 
 0   = drab    ! min distance between gamma and b 
 0   = drbl    ! min distance between b and lepton 
 0.4 = dral    ! min distance between gamma and lepton 
 -1  = drjjmax ! max distance between jets
 -1  = drbbmax ! max distance between b's
 -1  = drllmax ! max distance between leptons
 -1  = draamax ! max distance between gammas
 -1  = drbjmax ! max distance between b and jet
 -1  = drajmax ! max distance between gamma and jet
 -1  = drjlmax ! max distance between jet and lepton
 -1  = drabmax ! max distance between gamma and b
 -1  = drblmax ! max distance between b and lepton
 -1  = dralmax ! maxdistance between gamma and lepton
#*********************************************************************
# Minimum and maximum invariant mass for pairs                       *
# WARNING: for four lepton final state mmll cut require to have      *
#          different lepton masses for each flavor!                  *           
#*********************************************************************
 0   = mmjj    ! min invariant mass of a jet pair 
 0   = mmbb    ! min invariant mass of a b pair 
 0   = mmaa    ! min invariant mass of gamma gamma pair
 0   = mmll    ! min invariant mass of l+l- (same flavour) lepton pair
 -1  = mmjjmax ! max invariant mass of a jet pair
 -1  = mmbbmax ! max invariant mass of a b pair
 -1  = mmaamax ! max invariant mass of gamma gamma pair
 -1  = mmllmax ! max invariant mass of l+l- (same flavour) lepton pair
#*********************************************************************
# Minimum and maximum invariant mass for all letpons                 *
#*********************************************************************
 0   = mmnl    ! min invariant mass for all letpons (l+- and vl) 
 -1  = mmnlmax ! max invariant mass for all letpons (l+- and vl) 
#*********************************************************************
# Minimum and maximum pt for 4-momenta sum of leptons                *
#*********************************************************************
 0   = ptllmin  ! Minimum pt for 4-momenta sum of leptons(l and vl)
 -1  = ptllmax  ! Maximum pt for 4-momenta sum of leptons(l and vl)
#*********************************************************************
# Inclusive cuts                                                     *
#*********************************************************************
 0  = xptj ! minimum pt for at least one jet  
 0  = xptb ! minimum pt for at least one b 
 0  = xpta ! minimum pt for at least one photon 
 0  = xptl ! minimum pt for at least one charged lepton 
#*********************************************************************
# Control the pt's of the jets sorted by pt                          *
#*********************************************************************
 0   = ptj1min ! minimum pt for the leading jet in pt
 0   = ptj2min ! minimum pt for the second jet in pt
 0   = ptj3min ! minimum pt for the third jet in pt
 0   = ptj4min ! minimum pt for the fourth jet in pt
 -1  = ptj1max ! maximum pt for the leading jet in pt 
 -1  = ptj2max ! maximum pt for the second jet in pt
 -1  = ptj3max ! maximum pt for the third jet in pt
 -1  = ptj4max ! maximum pt for the fourth jet in pt
 0   = cutuse  ! reject event if fails any (0) / all (1) jet pt cuts
#*********************************************************************
# Control the pt's of leptons sorted by pt                           *
#*********************************************************************
 0   = ptl1min ! minimum pt for the leading lepton in pt
 0   = ptl2min ! minimum pt for the second lepton in pt
 0   = ptl3min ! minimum pt for the third lepton in pt
 0   = ptl4min ! minimum pt for the fourth lepton in pt
 -1  = ptl1max ! maximum pt for the leading lepton in pt 
 -1  = ptl2max ! maximum pt for the second lepton in pt
 -1  = ptl3max ! maximum pt for the third lepton in pt
 -1  = ptl4max ! maximum pt for the fourth lepton in pt
#*********************************************************************
# Control the Ht(k)=Sum of k leading jets                            *
#*********************************************************************
 0   = htjmin ! minimum jet HT=Sum(jet pt)
 -1  = htjmax ! maximum jet HT=Sum(jet pt)
 0   = ihtmin  !inclusive Ht for all partons (including b)
 -1  = ihtmax  !inclusive Ht for all partons (including b)
 0   = ht2min ! minimum Ht for the two leading jets
 0   = ht3min ! minimum Ht for the three leading jets
 0   = ht4min ! minimum Ht for the four leading jets
 -1  = ht2max ! maximum Ht for the two leading jets
 -1  = ht3max ! maximum Ht for the three leading jets
 -1  = ht4max ! maximum Ht for the four leading jets
#***********************************************************************
# Photon-isolation cuts, according to hep-ph/9801442                   *
# When ptgmin=0, all the other parameters are ignored                  *
# When ptgmin>0, pta and draj are not going to be used                 *
#***********************************************************************
   0 = ptgmin ! Min photon transverse momentum
 0.4 = R0gamma ! Radius of isolation code
 1.0 = xn ! n parameter of eq.(3.4) in hep-ph/9801442
 1.0 = epsgamma ! epsilon_gamma parameter of eq.(3.4) in hep-ph/9801442
 .true. = isoEM ! isolate photons from EM energy (photons and leptons)
#*********************************************************************
# WBF cuts                                                           *
#*********************************************************************
 0   = xetamin ! minimum rapidity for two jets in the WBF case  
 0   = deltaeta ! minimum rapidity for two jets in the WBF case 
#*********************************************************************
# KT DURHAM CUT                                                      *
#*********************************************************************
 -1    =  ktdurham        
 0.4  =  dparameter 
#*********************************************************************
# maximal pdg code for quark to be considered as a light jet         *
# (otherwise b cuts are applied)                                     *
#*********************************************************************
 4 = maxjetflavor    ! Maximum jet pdg code
#*********************************************************************
# Jet measure cuts                                                   *
#*********************************************************************
 0   = xqcut   ! minimum kt jet measure between partons
#*********************************************************************
#
#*********************************************************************
# Store info for systematics studies                                 *
# WARNING: If use_syst is T, matched Pythia output is                *
#          meaningful ONLY if plotted taking matchscale              *
#          reweighting into account!                                 *
#*********************************************************************
   F  = use_syst      ! Enable systematics studies
#
#**************************************
# Parameter of the systematics study
#  will be used by SysCalc (if installed)
#**************************************                                  
#
0.5 1 2 = sys_scalefact  # factorization/renormalization scale factor
0.5 1 2 = sys_alpsfact  # \alpha_s emission scale factors
30 50 = sys_matchscale # variation of merging scale
# PDF sets and number of members (0 or none for all members).
CT10nlo.LHgrid = sys_pdf # matching scales
# MSTW2008nlo68cl.LHgrid 1  = sys_pdf
</MGRunCard>
<slha>
######################################################################
## PARAM_CARD AUTOMATICALY GENERATED BY MG5 FOLLOWING UFO MODEL   ####
######################################################################
##                                                                  ##
##  Width set on Auto will be computed following the information    ##
##        present in the decay.py files of the model.               ##
##        See  arXiv:1402.1178 for more details.                    ##
##                                                                  ##
######################################################################

###################################
## INFORMATION FOR CKMBLOCK
###################################
Block ckmblock 
    1 2.277360e-01 # cabi 

###################################
## INFORMATION FOR FRBLOCK
###################################
Block frblock 
    1 1.600000e+00 # gz 

###################################
## INFORMATION FOR MASS
###################################
Block mass 
    1 5.040000e-03 # MD 
    2 2.550000e-03 # MU 
    3 1.010000e-01 # MS 
    4 1.270000e+00 # MC 
    5 4.700000e+00 # MB 
    6 1.720000e+02 # MT 
   11 5.110000e-04 # Me 
   13 1.056600e-01 # MM 
   15 1.777000e+00 # MTA 
   23 9.118760e+01 # MZ 
   25 1.200000e+02 # MH 
  10030 3.100000e+03 # MZph 
  10031 3.000000e+02 # MZpl 
## Dependent parameters, given by model restrictions.
## Those values should be edited following the 
## analytical expression. MG5 ignores those values 
## but they are important for interfacing the output of MG5
## to external program such as Pythia.
  12 0.000000 # ve : 0.0 
  14 0.000000 # vm : 0.0 
  16 0.000000 # vt : 0.0 
  21 0.000000 # g : 0.0 
  22 0.000000 # a : 0.0 
  24 79.824360 # w+ : cmath.sqrt(MZ__exp__2/2. + cmath.sqrt(MZ__exp__4/4. - (aEW*cmath.pi*MZ__exp__2)/(Gf*sqrt__2))) 

###################################
## INFORMATION FOR SMINPUTS
###################################
Block sminputs 
    1 1.279000e+02 # aEWM1 
    2 1.166370e-05 # Gf 
    3 1.184000e-01 # aS 

###################################
## INFORMATION FOR YUKAWA
###################################
Block yukawa 
    1 5.040000e-03 # ymdo 
    2 2.550000e-03 # ymup 
    3 1.010000e-01 # yms 
    4 1.270000e+00 # ymc 
    5 4.700000e+00 # ymb 
    6 1.720000e+02 # ymt 
   11 5.110000e-04 # yme 
   13 1.056600e-01 # ymm 
   15 1.777000e+00 # ymtau 

###################################
## INFORMATION FOR DECAY
###################################
DECAY   6 1.508336e+00 # WT 
DECAY  23 2.495200e+00 # WZ 
DECAY  24 2.085000e+00 # WW 
DECAY  25 5.753088e-03 # WH 
## Dependent parameters, given by model restrictions.
## Those values should be edited following the 
## analytical expression. MG5 ignores those values 
## but they are important for interfacing the output of MG5
## to external program such as Pythia.
DECAY  1 0.000000 # d : 0.0 
DECAY  2 0.000000 # u : 0.0 
DECAY  3 0.000000 # s : 0.0 
DECAY  4 0.000000 # c : 0.0 
DECAY  5 0.000000 # b : 0.0 
DECAY  11 0.000000 # e- : 0.0 
DECAY  12 0.000000 # ve : 0.0 
DECAY  13 0.000000 # mu- : 0.0 
DECAY  14 0.000000 # vm : 0.0 
DECAY  15 0.000000 # ta- : 0.0 
DECAY  16 0.000000 # vt : 0.0 
DECAY  21 0.000000 # g : 0.0 
DECAY  22 0.000000 # a : 0.0 
DECAY  10030 0.308725 # zph : (gz__exp__2*MZph*(5 + cmath.sqrt(1 - (4*MT__exp__2)/MZph__exp__2)))/(144.*cmath.pi) 
DECAY  10031 0.132629 # zpl : (5*gz__exp__2*MZpl)/(144.*cmath.pi) 
#===========================================================
# QUANTUM NUMBERS OF NEW STATE(S) (NON SM PDG CODE)
#===========================================================

Block QNUMBERS 10030  # zph 
        1 0  # 3 times electric charge
        2 3  # number of spin states (2S+1)
        3 1  # colour rep (1: singlet, 3: triplet, 8: octet)
        4 0  # Particle/Antiparticle distinction (0=own anti)
Block QNUMBERS 10031  # zpl 
        1 0  # 3 times electric charge
        2 3  # number of spin states (2S+1)
        3 1  # colour rep (1: singlet, 3: triplet, 8: octet)
        4 0  # Particle/Antiparticle distinction (0=own anti)
</slha>
## END BANNER##
<MGGenerationInfo>
#  Number of Events        :         3938
#  Integrated weight (pb)  :  0.27945E-02
#  Max wgt                 :  0.11191E-05
#  Average wgt             :  0.70962E-06
</MGGenerationInfo>
</header>
<init>
     2212     2212  0.40000000000E+04  0.40000000000E+04 0 0  247000  247000 2   1
  0.27950835845E-02  0.11167331623E-04  0.11191000000E-05   0
</init>
<event>
 5   0  0.9797278E-06  0.3043798E+04  0.7818609E-02  0.8231334E-01
        2   -1    0    0  501    0  0.00000000000E+00  0.00000000000E+00  0.11107155269E+04  0.11107155269E+04  0.25500000920E-02 0.  1.
       -2   -1    0    0    0  501  0.00000000000E+00  0.00000000000E+00 -0.20853013131E+04  0.20853013131E+04  0.25500000920E-02 0. -1.
    10030    2    1    2    0    0  0.00000000000E+00  0.00000000000E+00 -0.97458578621E+03  0.31960168400E+04  0.30437979871E+04 0.  0.
        1    1    3    3  502    0 -0.12362165380E+04  0.16110878175E+03 -0.14038671074E+04  0.18775063845E+04  0.50400001928E-02 0. -1.
       -1    1    3    3    0  502  0.12362165380E+04 -0.16110878175E+03  0.42928132121E+03  0.13185104555E+04  0.50400001928E-02 0.  1.
</event>
<event>
 5   0  0.9797278E-06  0.3449017E+04  0.7818609E-02  0.8125980E-01
       -2   -1    0    0    0  501  0.00000000000E+00  0.00000000000E+00  0.10653235455E+04  0.10653235455E+04  0.25500000920E-02 0. -1.
        2   -1    0    0  501    0  0.00000000000E+00  0.00000000000E+00 -0.27915733906E+04  0.27915733906E+04  0.25500000920E-02 0.  1.
    10030    2    1    2    0    0  0.00000000000E+00  0.00000000000E+00 -0.17262498451E+04  0.38568969361E+04  0.34490165914E+04 0.  0.
        1    1    3    3  502    0  0.51159462185E+03 -0.57109570681E+03 -0.25904833959E+04  0.27015705780E+04  0.50400001928E-02 0.  1.
       -1    1    3    3    0  502 -0.51159462185E+03  0.57109570681E+03  0.86423355076E+03  0.11553263581E+04  0.50400001928E-02 0. -1.
</event>
<event>
 5   0  0.1007567E-05  0.2966583E+04  0.7818609E-02  0.8253338E-01
       -2   -1    0    0    0  501  0.00000000000E+00  0.00000000000E+00  0.12884778596E+04  0.12884778596E+04  0.25500000920E-02 0. -1.
        2   -1    0    0  501    0  0.00000000000E+00  0.00000000000E+00 -0.17075606470E+04  0.17075606470E+04  0.25500000920E-02 0.  1.
    10030    2    1    2    0    0  0.00000000000E+00  0.00000000000E+00 -0.41908278735E+03  0.29960385066E+04  0.29665832789E+04 0.  0.
        3    1    3    3  502    0  0.14716008758E+04 -0.29037579326E+02 -0.24138235179E+02  0.14720852500E+04  0.10100000352E+00 0.  1.
       -3    1    3    3    0  502 -0.14716008758E+04  0.29037579326E+02 -0.39494455218E+03  0.15239532566E+04  0.10100000352E+00 0. -1.
</event>
<event>
 5   0  0.9797278E-06  0.3284925E+04  0.7818609E-02  0.8166742E-01
       -2   -1    0    0    0  501  0.00000000000E+00  0.00000000000E+00  0.15446017386E+04  0.15446017386E+04  0.25500000920E-02 0.  1.
        2   -1    0    0  501    0  0.00000000000E+00  0.00000000000E+00 -0.17465230674E+04  0.17465230674E+04  0.25500000920E-02 0. -1.
    10030    2    1    2    0    0  0.00000000000E+00  0.00000000000E+00 -0.20192132885E+03  0.32911248060E+04  0.32849246971E+04 0.  0.
        1    1    3    3  502    0 -0.98901232369E+03  0.59991880560E+03 -0.12691951985E+04  0.17172374331E+04  0.50400001928E-02 0. -1.
       -1    1    3    3    0  502  0.98901232369E+03 -0.59991880560E+03  0.10672738697E+04  0.15738873729E+04  0.50400001928E-02 0.  1.
</event>
<event>
 5   0  0.1007567E-05  0.3088917E+04  0.7818609E-02  0.8218786E-01
        2   -1    0    0  501    0  0.00000000000E+00  0.00000000000E+00  0.15466417205E+04  0.15466417205E+04  0.25500000920E-02 0.  1.
       -2   -1    0    0    0  501  0.00000000000E+00  0.00000000000E+00 -0.15422784320E+04  0.15422784320E+04  0.25500000920E-02 0. -1.
    10030    2    1    2    0    0  0.00000000000E+00  0.00000000000E+00  0.43632884757E+01  0.30889201525E+04  0.30889170708E+04 0.  0.
        3    1    3    3  502    0  0.42338560876E+03 -0.11951050304E+03 -0.14782974663E+04  0.15423688090E+04  0.10100000352E+00 0. -1.
       -3    1    3    3    0  502 -0.42338560876E+03  0.11951050304E+03  0.14826607548E+04  0.15465513434E+04  0.10100000352E+00 0.  1.
</event>
<event>
 5   0  0.4250961E-06  0.3003985E+04  0.7818609E-02  0.8242594E-01
       -1   -1    0    0    0  501  0.00000000000E+00  0.00000000000E+00  0.10084987084E+04  0.10084987084E+04  0.50400001928E-02 0.  1.
        1   -1    0    0  501    0  0.00000000000E+00  0.00000000000E+00 -0.22369697403E+04  0.22369697403E+04  0.50400001928E-02 0. -1.
    10030    2    1    2    0    0  0.00000000000E+00  0.00000000000E+00 -0.12284710319E+04  0.32454684487E+04  0.30039847495E+04 0.  0.
        1    1    3    3  502    0 -0.10183851040E+04  0.10609662433E+04 -0.94410518128E+03  0.17475961155E+04  0.50400001928E-02 0.  1.
       -1    1    3    3    0  502  0.10183851040E+04 -0.10609662433E+04 -0.28436585058E+03  0.14978723332E+04  0.50400001928E-02 0. -1.
</event>
<event>
 5   0  0.3838525E-06  0.3028871E+04  0.7818609E-02  0.8235534E-01
       -1   -1    0    0    0  501  0.00000000000E+00  0.00000000000E+00  0.15445143455E+04  0.15445143455E+04  0.50400001928E-02 0. -1.
        1   -1    0    0  501    0  0.00000000000E+00  0.00000000000E+00 -0.14849424036E+04  0.14849424036E+04  0.50400001928E-02 0.  1.
    10030    2    1    2    0    0  0.00000000000E+00  0.00000000000E+00  0.59571941930E+02  0.30294567491E+04  0.30288709742E+04 0.  0.
        3    1    3    3  502    0 -0.10671440446E+04 -0.92125360720E+03 -0.52350291206E+03  0.15038483733E+04  0.10100000352E+00 0.  1.
       -3    1    3    3    0  502  0.10671440446E+04  0.92125360720E+03  0.58307485399E+03  0.15256083758E+04  0.10100000352E+00 0. -1.
</event>
<event>
 5   0  0.9797278E-06  0.3013805E+04  0.7818609E-02  0.8239800E-01
       -2   -1    0    0    0  501  0.00000000000E+00  0.00000000000E+00  0.97853476942E+03  0.97853476942E+03  0.25500000920E-02 0. -1.
        2   -1    0    0  501    0  0.00000000000E+00  0.00000000000E+00 -0.23205662080E+04  0.23205662080E+04  0.25500000920E-02 0.  1.
    10030    2    1    2    0    0  0.00000000000E+00  0.00000000000E+00 -0.13420314386E+04  0.32991009775E+04  0.30138047178E+04 0.  0.
        1    1    3    3  502    0  0.89397691615E+03  0.12128239410E+04 -0.64380104759E+03  0.16384799137E+04  0.50400001928E-02 0. -1.
       -1    1    3    3    0  502 -0.89397691615E+03 -0.12128239410E+04 -0.69823039102E+03  0.16606210638E+04  0.50400001928E-02 0.  1.
</event>
<event>
 5   0  0.3848286E-06  0.3052673E+04  0.7818609E-02  0.8228848E-01
        1   -1    0    0  501    0  0.00000000000E+00  0.00000000000E+00  0.25137794530E+04  0.25137794530E+04  0.50400001928E-02 0. -1.
       -1   -1    0    0    0  501  0.00000000000E+00  0.00000000000E+00 -0.92677310112E+03  0.92677310114E+03  0.50400001928E-02 0.  1.
    10030    2    1    2    0    0  0.00000000000E+00  0.00000000000E+00  0.15870063518E+04  0.34405525541E+04  0.30526730445E+04 0.  0.
        2    1    3    3  502    0  0.94071453679E+03 -0.11464903911E+04  0.38663663397E+03  0.15326029960E+04  0.25500000920E-02 0. -1.
       -2    1    3    3    0  502 -0.94071453679E+03  0.11464903911E+04  0.12003697179E+04  0.19079495581E+04  0.25500000920E-02 0.  1.
</event>
<event>
 5   0  0.9797278E-06  0.2182555E+04  0.7818609E-02  0.8525724E-01
        2   -1    0    0  501    0  0.00000000000E+00  0.00000000000E+00  0.15455872410E+04  0.15455872410E+04  0.25500000920E-02 0.  1.
       -2   -1    0    0    0  501  0.00000000000E+00  0.00000000000E+00 -0.77050769839E+03  0.77050769839E+03  0.25500000920E-02 0. -1.
    10030    2    1    2    0    0  0.00000000000E+00  0.00000000000E+00  0.77507954265E+03  0.23160949394E+04  0.21825552618E+04 0.  0.
        1    1    3    3  502    0  0.53303217298E+03  0.17417943254E+02 -0.62279540895E+03  0.81993951217E+03  0.50400001928E-02 0. -1.
       -1    1    3    3    0  502 -0.53303217298E+03 -0.17417943254E+02  0.13978749516E+04  0.14961554273E+04  0.50400001928E-02 0.  1.
</event>
<event>
 5   0  0.3493125E-06  0.1660174E+04  0.7818609E-02  0.8784410E-01
       -4   -1    0    0    0  501  0.00000000000E+00  0.00000000000E+00  0.59143979632E+03  0.59144115986E+03  0.12699999809E+01 0.  1.
        4   -1    0    0  501    0  0.00000000000E+00  0.00000000000E+00 -0.11650259756E+04  0.11650266678E+04  0.12699999809E+01 0. -1.
    10030    2    1    2    0    0  0.00000000000E+00  0.00000000000E+00 -0.57358617929E+03  0.17564678277E+04  0.16601741248E+04 0.  0.
        2    1    3    3  502    0 -0.53346080859E+03 -0.50776692919E+03  0.11834969513E+03  0.74593185950E+03  0.25500000920E-02 0.  1.
       -2    1    3    3    0  502  0.53346080859E+03  0.50776692919E+03 -0.69193587442E+03  0.10105359682E+04  0.25500000920E-02 0. -1.
</event>
<event>
 5   0  0.1001961E-05  0.2921716E+04  0.7818609E-02  0.8266445E-01
        2   -1    0    0  501    0  0.00000000000E+00  0.00000000000E+00  0.91326907744E+03  0.91326907745E+03  0.25500000920E-02 0.  1.
       -2   -1    0    0    0  501  0.00000000000E+00  0.00000000000E+00 -0.23367773315E+04  0.23367773315E+04  0.25500000920E-02 0. -1.
    10030    2    1    2    0    0  0.00000000000E+00  0.00000000000E+00 -0.14235082541E+04  0.32500464090E+04  0.29217162612E+04 0.  0.
        5    1    3    3  502    0 -0.30259414685E+03 -0.90647837424E+03 -0.19408252341E+04  0.21633517837E+04  0.46999998093E+01 0. -1.
       -5    1    3    3    0  502  0.30259414685E+03  0.90647837424E+03  0.51731698006E+03  0.10866946252E+04  0.46999998093E+01 0.  1.
</event>
<event>
 5   0  0.4139628E-06  0.1908809E+04  0.7818609E-02  0.8650484E-01
        1   -1    0    0  501    0  0.00000000000E+00  0.00000000000E+00  0.13978528124E+04  0.13978528124E+04  0.50400001928E-02 0.  1.
       -1   -1    0    0    0  501  0.00000000000E+00  0.00000000000E+00 -0.65163382532E+03  0.65163382534E+03  0.50400001928E-02 0. -1.
    10030    2    1    2    0    0  0.00000000000E+00  0.00000000000E+00  0.74621898710E+03  0.20494866378E+04  0.19088092366E+04 0.  0.
        5    1    3    3  502    0 -0.77732522359E+03 -0.49784906712E+03  0.63341871538E+03  0.11195220212E+04  0.46999998093E+01 0.  1.
       -5    1    3    3    0  502  0.77732522359E+03  0.49784906712E+03  0.11280027173E+03  0.92996461661E+03  0.46999998093E+01 0. -1.
</event>
<event>
 5   0  0.4250961E-06  0.2882871E+04  0.7818609E-02  0.8277992E-01
        1   -1    0    0  501    0  0.00000000000E+00  0.00000000000E+00  0.21832870876E+04  0.21832870876E+04  0.50400001928E-02 0.  1.
       -1   -1    0    0    0  501  0.00000000000E+00  0.00000000000E+00 -0.95165521410E+03  0.95165521411E+03  0.50400001928E-02 0. -1.
    10030    2    1    2    0    0  0.00000000000E+00  0.00000000000E+00  0.12316318735E+04  0.31349423017E+04  0.28828711666E+04 0.  0.
        1    1    3    3  502    0 -0.41890426922E+03  0.12996484069E+04  0.11178892391E+04  0.17647218248E+04  0.50400001928E-02 0. -1.
       -1    1    3    3    0  502  0.41890426922E+03 -0.12996484069E+04  0.11374263442E+03  0.13702204768E+04  0.50400001928E-02 0.  1.
</event>
<event>
 5   0  0.3838525E-06  0.1798168E+04  0.7818609E-02  0.8707274E-01
       -1   -1    0    0    0  501  0.00000000000E+00  0.00000000000E+00  0.77184073056E+03  0.77184073057E+03  0.50400001928E-02 0.  1.
        1   -1    0    0  501    0  0.00000000000E+00  0.00000000000E+00 -0.10473039062E+04  0.10473039062E+04  0.50400001928E-02 0. -1.
    10030    2    1    2    0    0  0.00000000000E+00  0.00000000000E+00 -0.27546317562E+03  0.18191446368E+04  0.17981677475E+04 0.  0.
        3    1    3    3  502    0  0.88411075974E+03  0.16064862518E+03 -0.16794612544E+03  0.91414754143E+03  0.10100000352E+00 0. -1.
       -3    1    3    3    0  502 -0.88411075974E+03 -0.16064862518E+03 -0.10751705018E+03  0.90499709532E+03  0.10100000352E+00 0.  1.
</event>
<event>
 5   0  0.3838525E-06  0.2975819E+04  0.7818609E-02  0.8250670E-01
        1   -1    0    0  501    0  0.00000000000E+00  0.00000000000E+00  0.18047412227E+04  0.18047412227E+04  0.50400001928E-02 0. -1.
       -1   -1    0    0    0  501  0.00000000000E+00  0.00000000000E+00 -0.12266991836E+04  0.12266991837E+04  0.50400001928E-02 0.  1.
    10030    2    1    2    0    0  0.00000000000E+00  0.00000000000E+00  0.57804203905E+03  0.30314404064E+04  0.29758189357E+04 0.  0.
        3    1    3    3  502    0  0.80157322653E+02 -0.71028904911E+03  0.16183793399E+04  0.17692053096E+04  0.10100000352E+00 0. -1.
       -3    1    3    3    0  502 -0.80157322653E+02  0.71028904911E+03 -0.10403373008E+04  0.12622350967E+04  0.10100000352E+00 0.  1.
</event>
<event>
 5   0  0.9797278E-06  0.1817638E+04  0.7818609E-02  0.8696976E-01
        2   -1    0    0  501    0  0.00000000000E+00  0.00000000000E+00  0.10117927364E+04  0.10117927364E+04  0.25500000920E-02 0. -1.
       -2   -1    0    0    0  501  0.00000000000E+00  0.00000000000E+00 -0.81632539795E+03  0.81632539796E+03  0.25500000920E-02 0.  1.
    10030    2    1    2    0    0  0.00000000000E+00  0.00000000000E+00  0.19546733846E+03  0.18281181344E+04  0.18176381468E+04 0.  0.
        1    1    3    3  502    0 -0.71178718613E+03 -0.53791527164E+03  0.27181620176E+03  0.93267244269E+03  0.50400001928E-02 0.  1.
       -1    1    3    3    0  502  0.71178718613E+03  0.53791527164E+03 -0.76348863299E+02  0.89544569168E+03  0.50400001928E-02 0. -1.
</event>
<event>
 5   0  0.3807334E-06  0.3086391E+04  0.7818609E-02  0.8219483E-01
       -1   -1    0    0    0  501  0.00000000000E+00  0.00000000000E+00  0.21416110400E+04  0.21416110400E+04  0.50400001928E-02 0. -1.
        1   -1    0    0  501    0  0.00000000000E+00  0.00000000000E+00 -0.11119909508E+04  0.11119909509E+04  0.50400001928E-02 0.  1.
    10030    2    1    2    0    0  0.00000000000E+00  0.00000000000E+00  0.10296200891E+04  0.32536019908E+04  0.30863908351E+04 0.  0.
        4    1    3    3  502    0 -0.14284343019E+04  0.38136401579E+03  0.48597495257E+02  0.14792654923E+04  0.12699999809E+01 0. -1.
       -4    1    3    3    0  502  0.14284343019E+04 -0.38136401579E+03  0.98102259388E+03  0.17743364985E+04  0.12699999809E+01 0.  1.
</event>
<event>
 5   0  0.4250961E-06  0.3117215E+04  0.7818609E-02  0.8211029E-01
        1   -1    0    0  501    0  0.00000000000E+00  0.00000000000E+00  0.20851256437E+04  0.20851256437E+04  0.50400001928E-02 0.  1.
       -1   -1    0    0    0  501  0.00000000000E+00  0.00000000000E+00 -0.11650409017E+04  0.11650409017E+04  0.50400001928E-02 0. -1.
    10030    2    1    2    0    0  0.00000000000E+00  0.00000000000E+00  0.92008474205E+03  0.32501665454E+04  0.31172145644E+04 0.  0.
        1    1    3    3  502    0  0.51721116716E+03  0.11328463470E+04  0.14372507109E+04  0.19017197068E+04  0.50400001928E-02 0.  1.
       -1    1    3    3    0  502 -0.51721116716E+03 -0.11328463470E+04 -0.51716596886E+03  0.13484468386E+04  0.50400001928E-02 0. -1.
</event>
<event>
 5   0  0.1119100E-05  0.3010288E+04  0.7818609E-02  0.8240799E-01
        2   -1    0    0  501    0  0.00000000000E+00  0.00000000000E+00  0.11918909040E+04  0.11918909040E+04  0.25500000920E-02 0. -1.
       -2   -1    0    0    0  501  0.00000000000E+00  0.00000000000E+00 -0.19007269893E+04  0.19007269893E+04  0.25500000920E-02 0.  1.
    10030    2    1    2    0    0  0.00000000000E+00  0.00000000000E+00 -0.70883608532E+03  0.30926178933E+04  0.30102884975E+04 0.  0.
        2    1    3    3  502    0  0.10767930136E+04 -0.32860709922E+03 -0.13807361177E+04  0.17815437256E+04  0.25500000920E-02 0.  1.
       -2    1    3    3    0  502 -0.10767930136E+04  0.32860709922E+03  0.67190003235E+03  0.13110741677E+04  0.25500000920E-02 0. -1.
</event>
<event>
 5   0  0.3838525E-06  0.3142321E+04  0.7818609E-02  0.8204218E-01
        1   -1    0    0  501    0  0.00000000000E+00  0.00000000000E+00  0.18264157390E+04  0.18264157390E+04  0.50400001928E-02 0. -1.
       -1   -1    0    0    0  501  0.00000000000E+00  0.00000000000E+00 -0.13515790662E+04  0.13515790662E+04  0.50400001928E-02 0.  1.
    10030    2    1    2    0    0  0.00000000000E+00  0.00000000000E+00  0.47483667276E+03  0.31779948052E+04  0.31423209760E+04 0.  0.
        3    1    3    3  502    0 -0.12445936490E+02 -0.72961435422E+02  0.18246515802E+04  0.18261521491E+04  0.10100000352E+00 0. -1.
       -3    1    3    3    0  502  0.12445936490E+02  0.72961435422E+02 -0.13498149074E+04  0.13518426561E+04  0.10100000352E+00 0.  1.
</event>
<event>
 5   0  0.1007567E-05  0.3113049E+04  0.7818609E-02  0.8212166E-01
       -2   -1    0    0    0  501  0.00000000000E+00  0.00000000000E+00  0.12951659018E+04  0.12951659018E+04  0.25500000920E-02 0.  1.
        2   -1    0    0  501    0  0.00000000000E+00  0.00000000000E+00 -0.18706237897E+04  0.18706237897E+04  0.25500000920E-02 0. -1.
    10030    2    1    2    0    0  0.00000000000E+00  0.00000000000E+00 -0.57545788790E+03  0.31657896915E+04  0.31130487613E+04 0.  0.
        3    1    3    3  502    0  0.26734161754E+03 -0.62631923563E+03  0.11356340231E+04  0.13241646310E+04  0.10100000352E+00 0.  1.
       -3    1    3    3    0  502 -0.26734161754E+03  0.62631923563E+03 -0.17110919110E+04  0.18416250605E+04  0.10100000352E+00 0. -1.
</event>
<event>
 5   0  0.4250961E-06  0.3068989E+04  0.7818609E-02  0.8224300E-01
        1   -1    0    0  501    0  0.00000000000E+00  0.00000000000E+00  0.15148426271E+04  0.15148426271E+04  0.50400001928E-02 0. -1.
       -1   -1    0    0    0  501  0.00000000000E+00  0.00000000000E+00 -0.15544018113E+04  0.15544018113E+04  0.50400001928E-02 0.  1.
    10030    2    1    2    0    0  0.00000000000E+00  0.00000000000E+00 -0.39559184238E+02  0.30692444384E+04  0.30689894906E+04 0.  0.
        1    1    3    3  502    0  0.48903153462E+03 -0.18689356222E+03  0.14227663417E+04  0.15160293891E+04  0.50400001928E-02 0. -1.
       -1    1    3    3    0  502 -0.48903153462E+03  0.18689356222E+03 -0.14623255259E+04  0.15532150493E+04  0.50400001928E-02 0.  1.
</event>
<event>
 5   0  0.1119100E-05  0.1867235E+04  0.7818609E-02  0.8671340E-01
        2   -1    0    0  501    0  0.00000000000E+00  0.00000000000E+00  0.21411347539E+04  0.21411347539E+04  0.25500000920E-02 0. -1.
       -2   -1    0    0    0  501  0.00000000000E+00  0.00000000000E+00 -0.40709310281E+03  0.40709310282E+03  0.25500000920E-02 0.  1.
    10030    2    1    2    0    0  0.00000000000E+00  0.00000000000E+00  0.17340416511E+04  0.25482278567E+04  0.18672345225E+04 0.  0.
        2    1    3    3  502    0  0.75596352450E+03 -0.39699617109E+03  0.35175697582E+03  0.92348242013E+03  0.25500000920E-02 0.  1.
       -2    1    3    3    0  502 -0.75596352450E+03  0.39699617109E+03  0.13822846753E+04  0.16247454366E+04  0.25500000920E-02 0. -1.
</event>
<event>
 5   0  0.3848286E-06  0.3111698E+04  0.7818609E-02  0.8212535E-01
       -1   -1    0    0    0  501  0.00000000000E+00  0.00000000000E+00  0.13711581692E+04  0.13711581692E+04  0.50400001928E-02 0. -1.
        1   -1    0    0  501    0  0.00000000000E+00  0.00000000000E+00 -0.17654171390E+04  0.17654171390E+04  0.50400001928E-02 0.  1.
    10030    2    1    2    0    0  0.00000000000E+00  0.00000000000E+00 -0.39425896986E+03  0.31365753082E+04  0.31116980137E+04 0.  0.
        2    1    3    3  502    0 -0.73166870638E+03 -0.94536496183E+03 -0.12008878808E+04  0.16944573495E+04  0.25500000920E-02 0.  1.
       -2    1    3    3    0  502  0.73166870638E+03  0.94536496183E+03  0.80662891092E+03  0.14421179587E+04  0.25500000920E-02 0. -1.
</event>
<event>
 5   0  0.1007567E-05  0.2992647E+04  0.7818609E-02  0.8245834E-01
       -2   -1    0    0    0  501  0.00000000000E+00  0.00000000000E+00  0.13111761114E+04  0.13111761115E+04  0.25500000920E-02 0.  1.
        2   -1    0    0  501    0  0.00000000000E+00  0.00000000000E+00 -0.17076146689E+04  0.17076146689E+04  0.25500000920E-02 0. -1.
    10030    2    1    2    0    0  0.00000000000E+00  0.00000000000E+00 -0.39643855747E+03  0.30187907804E+04  0.29926466958E+04 0.  0.
        3    1    3    3  502    0 -0.12229514871E+04  0.58961189144E+03  0.43634791942E+03  0.14260617235E+04  0.10100000352E+00 0.  1.
       -3    1    3    3    0  502  0.12229514871E+04 -0.58961189144E+03 -0.83278647690E+03  0.15927290569E+04  0.10100000352E+00 0. -1.
</event>
<event>
 5   0  0.1001961E-05  0.2754200E+04  0.7818609E-02  0.8317630E-01
       -2   -1    0    0    0  501  0.00000000000E+00  0.00000000000E+00  0.21117894176E+04  0.21117894176E+04  0.25500000920E-02 0.  1.
        2   -1    0    0  501    0  0.00000000000E+00  0.00000000000E+00 -0.89800861093E+03  0.89800861094E+03  0.25500000920E-02 0. -1.
    10030    2    1    2    0    0  0.00000000000E+00  0.00000000000E+00  0.12137808066E+04  0.30097980285E+04  0.27542004876E+04 0.  0.
        5    1    3    3  502    0  0.50732783246E+03 -0.12591567718E+04  0.35406371070E+03  0.14029399512E+04  0.46999998093E+01 0. -1.
       -5    1    3    3    0  502 -0.50732783246E+03  0.12591567718E+04  0.85971709593E+03  0.16068580773E+04  0.46999998093E+01 0.  1.
</event>
<event>
 5   0  0.3848286E-06  0.2881275E+04  0.7818609E-02  0.8278471E-01
       -1   -1    0    0    0  501  0.00000000000E+00  0.00000000000E+00  0.10008521712E+04  0.10008521712E+04  0.50400001928E-02 0.  1.
        1   -1    0    0  501    0  0.00000000000E+00  0.00000000000E+00 -0.20736687767E+04  0.20736687767E+04  0.50400001928E-02 0. -1.
    10030    2    1    2    0    0  0.00000000000E+00  0.00000000000E+00 -0.10728166055E+04  0.30745209479E+04  0.28812746468E+04 0.  0.
        2    1    3    3  502    0 -0.61606179707E+03 -0.11788860062E+04  0.53992364574E+02  0.13312473582E+04  0.25500000920E-02 0.  1.
       -2    1    3    3    0  502  0.61606179707E+03  0.11788860062E+04 -0.11268089701E+04  0.17432735897E+04  0.25500000920E-02 0. -1.
</event>
<event>
 5   0  0.1007567E-05  0.3154778E+04  0.7818609E-02  0.8200863E-01
        2   -1    0    0  501    0  0.00000000000E+00  0.00000000000E+00  0.15028262684E+04  0.15028262684E+04  0.25500000920E-02 0. -1.
       -2   -1    0    0    0  501  0.00000000000E+00  0.00000000000E+00 -0.16556512209E+04  0.16556512209E+04  0.25500000920E-02 0.  1.
    10030    2    1    2    0    0  0.00000000000E+00  0.00000000000E+00 -0.15282495252E+03  0.31584774893E+04  0.31547780562E+04 0.  0.
        3    1    3    3  502    0  0.95452928191E+03 -0.82497832889E+03  0.87150333640E+03  0.15333732320E+04  0.10100000352E+00 0. -1.
       -3    1    3    3    0  502 -0.95452928191E+03  0.82497832889E+03 -0.10243282889E+04  0.16251042572E+04  0.10100000352E+00 0.  1.
</event>
<event>
 5   0  0.9797278E-06  0.3171746E+04  0.7818609E-02  0.8196319E-01
        2   -1    0    0  501    0  0.00000000000E+00  0.00000000000E+00  0.15075067199E+04  0.15075067199E+04  0.25500000920E-02 0. -1.
       -2   -1    0    0    0  501  0.00000000000E+00  0.00000000000E+00 -0.16683129779E+04  0.16683129779E+04  0.25500000920E-02 0.  1.
    10030    2    1    2    0    0  0.00000000000E+00  0.00000000000E+00 -0.16080625803E+03  0.31758196979E+04  0.31717459073E+04 0.  0.
        1    1    3    3  502    0  0.70246912119E+03 -0.66966415867E+03 -0.13362389450E+04  0.16514985528E+04  0.50400001928E-02 0.  1.
       -1    1    3    3    0  502 -0.70246912119E+03  0.66966415867E+03  0.11754326870E+04  0.15243211451E+04  0.50400001928E-02 0. -1.
</event>
<event>
 5   0  0.4139628E-06  0.2901977E+04  0.7818609E-02  0.8272289E-01
        1   -1    0    0  501    0  0.00000000000E+00  0.00000000000E+00  0.15056813927E+04  0.15056813927E+04  0.50400001928E-02 0.  1.
       -1   -1    0    0    0  501  0.00000000000E+00  0.00000000000E+00 -0.13982825990E+04  0.13982825990E+04  0.50400001928E-02 0. -1.
    10030    2    1    2    0    0  0.00000000000E+00  0.00000000000E+00  0.10739879367E+03  0.29039639917E+04  0.29019773197E+04 0.  0.
        5    1    3    3  502    0  0.15378238210E+03 -0.14165080082E+04 -0.22071824729E+03  0.14418330670E+04  0.46999998093E+01 0. -1.
       -5    1    3    3    0  502 -0.15378238210E+03  0.14165080082E+04  0.32811704096E+03  0.14621309247E+04  0.46999998093E+01 0.  1.
</event>
<event>
 5   0  0.1007567E-05  0.2717016E+04  0.7818609E-02  0.8329505E-01
       -2   -1    0    0    0  501  0.00000000000E+00  0.00000000000E+00  0.17487126622E+04  0.17487126622E+04  0.25500000920E-02 0.  1.
        2   -1    0    0  501    0  0.00000000000E+00  0.00000000000E+00 -0.10553730934E+04  0.10553730934E+04  0.25500000920E-02 0. -1.
    10030    2    1    2    0    0  0.00000000000E+00  0.00000000000E+00  0.69333956883E+03  0.28040857557E+04  0.27170162251E+04 0.  0.
        3    1    3    3  502    0  0.13583069683E+04 -0.22423576127E+02  0.35348791602E+03  0.14037287323E+04  0.10100000352E+00 0. -1.
       -3    1    3    3    0  502 -0.13583069683E+04  0.22423576127E+02  0.33985165281E+03  0.14003570234E+04  0.10100000352E+00 0.  1.
</event>
<event>
 5   0  0.3807334E-06  0.3065733E+04  0.7818609E-02  0.8225206E-01
       -1   -1    0    0    0  501  0.00000000000E+00  0.00000000000E+00  0.15302774208E+04  0.15302774208E+04  0.50400001928E-02 0.  1.
        1   -1    0    0  501    0  0.00000000000E+00  0.00000000000E+00 -0.15354596718E+04  0.15354596718E+04  0.50400001928E-02 0. -1.
    10030    2    1    2    0    0  0.00000000000E+00  0.00000000000E+00 -0.51822510363E+01  0.30657370926E+04  0.30657327126E+04 0.  0.
        4    1    3    3  502    0 -0.95501150848E+03  0.92241806828E+03 -0.76860500010E+03  0.15341633984E+04  0.12699999809E+01 0. -1.
       -4    1    3    3    0  502  0.95501150848E+03 -0.92241806828E+03  0.76342274906E+03  0.15315736942E+04  0.12699999809E+01 0.  1.
</event>
<event>
 5   0  0.4250961E-06  0.2236175E+04  0.7818609E-02  0.8503520E-01
       -1   -1    0    0    0  501  0.00000000000E+00  0.00000000000E+00  0.97366628742E+03  0.97366628743E+03  0.50400001928E-02 0.  1.
        1   -1    0    0  501    0  0.00000000000E+00  0.00000000000E+00 -0.12839300363E+04  0.12839300363E+04  0.50400001928E-02 0. -1.
    10030    2    1    2    0    0  0.00000000000E+00  0.00000000000E+00 -0.31026374892E+03  0.22575963238E+04  0.22361747622E+04 0.  0.
        1    1    3    3  502    0  0.23115995786E+03 -0.26750271977E+03  0.91574927717E+03  0.98162588080E+03  0.50400001928E-02 0.  1.
       -1    1    3    3    0  502 -0.23115995786E+03  0.26750271977E+03 -0.12260130261E+04  0.12759704430E+04  0.50400001928E-02 0. -1.
</event>
<event>
 5   0  0.3838525E-06  0.3107453E+04  0.7818609E-02  0.8213695E-01
        1   -1    0    0  501    0  0.00000000000E+00  0.00000000000E+00  0.11222768444E+04  0.11222768444E+04  0.50400001928E-02 0. -1.
       -1   -1    0    0    0  501  0.00000000000E+00  0.00000000000E+00 -0.21510435431E+04  0.21510435431E+04  0.50400001928E-02 0.  1.
    10030    2    1    2    0    0  0.00000000000E+00  0.00000000000E+00 -0.10287666987E+04  0.32733203876E+04  0.31074532079E+04 0.  0.
        3    1    3    3  502    0  0.13024471979E+03  0.33702274162E+03  0.10774081062E+04  0.11363785694E+04  0.10100000352E+00 0. -1.
       -3    1    3    3    0  502 -0.13024471979E+03 -0.33702274162E+03 -0.21061748049E+04  0.21369418182E+04  0.10100000352E+00 0.  1.
</event>
<event>
 5   0  0.1108153E-05  0.3109033E+04  0.7818609E-02  0.8213263E-01
        2   -1    0    0  501    0  0.00000000000E+00  0.00000000000E+00  0.22075920114E+04  0.22075920114E+04  0.25500000920E-02 0. -1.
       -2   -1    0    0    0  501  0.00000000000E+00  0.00000000000E+00 -0.10946416449E+04  0.10946416449E+04  0.25500000920E-02 0.  1.
    10030    2    1    2    0    0  0.00000000000E+00  0.00000000000E+00  0.11129503665E+04  0.33022336563E+04  0.31090333872E+04 0.  0.
        4    1    3    3  502    0 -0.56723280030E+03 -0.14070966864E+04  0.19652606605E+03  0.15298033345E+04  0.12699999809E+01 0.  1.
       -4    1    3    3    0  502  0.56723280030E+03  0.14070966864E+04  0.91642430043E+03  0.17724303219E+04  0.12699999809E+01 0. -1.
</event>
<event>
 5   0  0.1108153E-05  0.3104406E+04  0.7818609E-02  0.8214530E-01
        2   -1    0    0  501    0  0.00000000000E+00  0.00000000000E+00  0.20987794702E+04  0.20987794702E+04  0.25500000920E-02 0. -1.
       -2   -1    0    0    0  501  0.00000000000E+00  0.00000000000E+00 -0.11479692474E+04  0.11479692474E+04  0.25500000920E-02 0.  1.
    10030    2    1    2    0    0  0.00000000000E+00  0.00000000000E+00  0.95081022276E+03  0.32467487176E+04  0.31044060874E+04 0.  0.
        4    1    3    3  502    0  0.14893672502E+04 -0.13632282833E+03  0.40987481079E+02  0.14961551744E+04  0.12699999809E+01 0.  1.
       -4    1    3    3    0  502 -0.14893672502E+04  0.13632282833E+03  0.90982274168E+03  0.17505935432E+04  0.12699999809E+01 0. -1.
</event>
<event>
 5   0  0.3848286E-06  0.2911399E+04  0.7818609E-02  0.8269494E-01
        1   -1    0    0  501    0  0.00000000000E+00  0.00000000000E+00  0.13045602967E+04  0.13045602967E+04  0.50400001928E-02 0.  1.
       -1   -1    0    0    0  501  0.00000000000E+00  0.00000000000E+00 -0.16243486747E+04  0.16243486747E+04  0.50400001928E-02 0. -1.
    10030    2    1    2    0    0  0.00000000000E+00  0.00000000000E+00 -0.31978837801E+03  0.29289089713E+04  0.29113988314E+04 0.  0.
        2    1    3    3  502    0  0.22486664418E+03 -0.14068349073E+04 -0.46054157809E+03  0.14972802040E+04  0.25500000920E-02 0. -1.
       -2    1    3    3    0  502 -0.22486664418E+03  0.14068349073E+04  0.14075320008E+03  0.14316287673E+04  0.25500000920E-02 0.  1.
</event>
<event>
 5   0  0.3838525E-06  0.2802221E+04  0.7818609E-02  0.8302579E-01
        1   -1    0    0  501    0  0.00000000000E+00  0.00000000000E+00  0.12679561335E+04  0.12679561335E+04  0.50400001928E-02 0.  1.
       -1   -1    0    0    0  501  0.00000000000E+00  0.00000000000E+00 -0.15482482366E+04  0.15482482366E+04  0.50400001928E-02 0. -1.
    10030    2    1    2    0    0  0.00000000000E+00  0.00000000000E+00 -0.28029210310E+03  0.28162043702E+04  0.28022211532E+04 0.  0.
        3    1    3    3  502    0 -0.80877182069E+03  0.17660411206E+03 -0.12761893829E+04  0.15211706747E+04  0.10100000352E+00 0. -1.
       -3    1    3    3    0  502  0.80877182069E+03 -0.17660411206E+03  0.99589727979E+03  0.12950336955E+04  0.10100000352E+00 0.  1.
</event>
<event>
 5   0  0.4139628E-06  0.2986052E+04  0.7818609E-02  0.8247725E-01
        1   -1    0    0  501    0  0.00000000000E+00  0.00000000000E+00  0.18556200440E+04  0.18556200441E+04  0.50400001928E-02 0.  1.
       -1   -1    0    0    0  501  0.00000000000E+00  0.00000000000E+00 -0.12012836240E+04  0.12012836240E+04  0.50400001928E-02 0. -1.
    10030    2    1    2    0    0  0.00000000000E+00  0.00000000000E+00  0.65433642004E+03  0.30569036681E+04  0.29860515544E+04 0.  0.
        5    1    3    3  502    0  0.74920099218E+03 -0.10110897743E+04  0.11496614050E+04  0.17045081679E+04  0.46999998093E+01 0.  1.
       -5    1    3    3    0  502 -0.74920099218E+03  0.10110897743E+04 -0.49532498491E+03  0.13523955002E+04  0.46999998093E+01 0. -1.
</event>
<event>
 5   0  0.1119100E-05  0.3099060E+04  0.7818609E-02  0.8215996E-01
       -2   -1    0    0    0  501  0.00000000000E+00  0.00000000000E+00  0.11181823730E+04  0.11181823730E+04  0.25500000920E-02 0.  1.
        2   -1    0    0  501    0  0.00000000000E+00  0.00000000000E+00 -0.21472736520E+04  0.21472736520E+04  0.25500000920E-02 0. -1.
    10030    2    1    2    0    0  0.00000000000E+00  0.00000000000E+00 -0.10290912790E+04  0.32654560249E+04  0.30990602108E+04 0.  0.
        2    1    3    3  502    0  0.60047926123E+03 -0.13338149381E+04  0.24184819916E+02  0.14629499437E+04  0.25500000920E-02 0.  1.
       -2    1    3    3    0  502 -0.60047926123E+03  0.13338149381E+04 -0.10532760989E+04  0.18025060812E+04  0.25500000920E-02 0. -1.
</event>
<event>
 5   0  0.1007567E-05  0.2102725E+04  0.7818609E-02  0.8560044E-01
        2   -1    0    0  501    0  0.00000000000E+00  0.00000000000E+00  0.18384282542E+04  0.18384282542E+04  0.25500000920E-02 0.  1.
       -2   -1    0    0    0  501  0.00000000000E+00  0.00000000000E+00 -0.60125427862E+03  0.60125427863E+03  0.25500000920E-02 0. -1.
    10030    2    1    2    0    0  0.00000000000E+00  0.00000000000E+00  0.12371739756E+04  0.24396825328E+04  0.21027247597E+04 0.  0.
        3    1    3    3  502    0  0.82419884406E+03 -0.35920091749E+03  0.12509316125E+04  0.15405060672E+04  0.10100000352E+00 0.  1.
       -3    1    3    3    0  502 -0.82419884406E+03  0.35920091749E+03 -0.13757636875E+02  0.89917646569E+03  0.10100000352E+00 0. -1.
</event>
<event>
 5   0  0.9797278E-06  0.1688015E+04  0.7818609E-02  0.8768229E-01
       -2   -1    0    0    0  501  0.00000000000E+00  0.00000000000E+00  0.24712379755E+03  0.24712379757E+03  0.25500000920E-02 0. -1.
        2   -1    0    0  501    0  0.00000000000E+00  0.00000000000E+00 -0.28825579522E+04  0.28825579522E+04  0.25500000920E-02 0.  1.
    10030    2    1    2    0    0  0.00000000000E+00  0.00000000000E+00 -0.26354341547E+04  0.31296817498E+04  0.16880150092E+04 0.  0.
        1    1    3    3  502    0  0.62378798092E+03  0.17843457836E+03 -0.31687075378E+03  0.72205084206E+03  0.50400001928E-02 0. -1.
       -1    1    3    3    0  502 -0.62378798092E+03 -0.17843457836E+03 -0.23185634009E+04  0.24076309077E+04  0.50400001928E-02 0.  1.
</event>
<event>
 5   0  0.1119100E-05  0.3013646E+04  0.7818609E-02  0.8239845E-01
       -2   -1    0    0    0  501  0.00000000000E+00  0.00000000000E+00  0.96894455788E+03  0.96894455788E+03  0.25500000920E-02 0. -1.
        2   -1    0    0  501    0  0.00000000000E+00  0.00000000000E+00 -0.23432879744E+04  0.23432879744E+04  0.25500000920E-02 0.  1.
    10030    2    1    2    0    0  0.00000000000E+00  0.00000000000E+00 -0.13743434165E+04  0.33122325323E+04  0.30136463829E+04 0.  0.
        2    1    3    3  502    0  0.58226521611E+03  0.52566206359E+03  0.72682656143E+03  0.10694064884E+04  0.25500000920E-02 0. -1.
       -2    1    3    3    0  502 -0.58226521611E+03 -0.52566206359E+03 -0.21011699780E+04  0.22428260439E+04  0.25500000920E-02 0.  1.
</event>
<event>
 5   0  0.1007567E-05  0.1685663E+04  0.7818609E-02  0.8769584E-01
       -2   -1    0    0    0  501  0.00000000000E+00  0.00000000000E+00  0.63432566257E+03  0.63432566257E+03  0.25500000920E-02 0.  1.
        2   -1    0    0  501    0  0.00000000000E+00  0.00000000000E+00 -0.11198737120E+04  0.11198737120E+04  0.25500000920E-02 0. -1.
    10030    2    1    2    0    0  0.00000000000E+00  0.00000000000E+00 -0.48554804947E+03  0.17541993746E+04  0.16856626405E+04 0.  0.
        3    1    3    3  502    0  0.33919274503E+03 -0.23770311263E+03  0.52110778582E+03  0.66566344550E+03  0.10100000352E+00 0.  1.
       -3    1    3    3    0  502 -0.33919274503E+03  0.23770311263E+03 -0.10066558353E+04  0.10885359291E+04  0.10100000352E+00 0. -1.
</event>
<event>
 5   0  0.3838525E-06  0.3086402E+04  0.7818609E-02  0.8219480E-01
       -1   -1    0    0    0  501  0.00000000000E+00  0.00000000000E+00  0.12631720739E+04  0.12631720740E+04  0.50400001928E-02 0.  1.
        1   -1    0    0  501    0  0.00000000000E+00  0.00000000000E+00 -0.18853087336E+04  0.18853087336E+04  0.50400001928E-02 0. -1.
    10030    2    1    2    0    0  0.00000000000E+00  0.00000000000E+00 -0.62213665964E+03  0.31484808076E+04  0.30864020108E+04 0.  0.
        3    1    3    3  502    0 -0.14052088990E+04  0.59752643662E+03 -0.53876043929E+03  0.16192321370E+04  0.10100000352E+00 0. -1.
       -3    1    3    3    0  502  0.14052088990E+04 -0.59752643662E+03 -0.83376220357E+02  0.15292486706E+04  0.10100000352E+00 0.  1.
</event>
<event>
 5   0  0.1001961E-05  0.2859158E+04  0.7818609E-02  0.8285134E-01
        2   -1    0    0  501    0  0.00000000000E+00  0.00000000000E+00  0.15536604323E+04  0.15536604323E+04  0.25500000920E-02 0. -1.
       -2   -1    0    0    0  501  0.00000000000E+00  0.00000000000E+00 -0.13154075505E+04  0.13154075505E+04  0.25500000920E-02 0.  1.
    10030    2    1    2    0    0  0.00000000000E+00  0.00000000000E+00  0.23825288176E+03  0.28690679829E+04  0.28591583822E+04 0.  0.
        5    1    3    3  502    0 -0.54521824212E+03 -0.29930230894E+03  0.14107666911E+04  0.15417942633E+04  0.46999998093E+01 0. -1.
       -5    1    3    3    0  502  0.54521824212E+03  0.29930230894E+03 -0.11725138093E+04  0.13272737196E+04  0.46999998093E+01 0.  1.
</event>
<event>
 5   0  0.4139628E-06  0.1734169E+04  0.7818609E-02  0.8742113E-01
       -1   -1    0    0    0  501  0.00000000000E+00  0.00000000000E+00  0.48566022348E+03  0.48566022351E+03  0.50400001928E-02 0. -1.
        1   -1    0    0  501    0  0.00000000000E+00  0.00000000000E+00 -0.15480696861E+04  0.15480696861E+04  0.50400001928E-02 0.  1.
    10030    2    1    2    0    0  0.00000000000E+00  0.00000000000E+00 -0.10624094626E+04  0.20337299096E+04  0.17341693917E+04 0.  0.
        5    1    3    3  502    0  0.55421591334E+03  0.54844293754E+03 -0.97602558403E+03  0.12492369531E+04  0.46999998093E+01 0.  1.
       -5    1    3    3    0  502 -0.55421591334E+03 -0.54844293754E+03 -0.86383878604E+02  0.78449295652E+03  0.46999998093E+01 0. -1.
</event>
<event>
 5   0  0.3838525E-06  0.3016423E+04  0.7818609E-02  0.8239057E-01
        1   -1    0    0  501    0  0.00000000000E+00  0.00000000000E+00  0.74825156074E+03  0.74825156076E+03  0.50400001928E-02 0. -1.
       -1   -1    0    0    0  501  0.00000000000E+00  0.00000000000E+00 -0.30400228296E+04  0.30400228296E+04  0.50400001928E-02 0.  1.
    10030    2    1    2    0    0  0.00000000000E+00  0.00000000000E+00 -0.22917712688E+04  0.37882743903E+04  0.30164229325E+04 0.  0.
        3    1    3    3  502    0  0.54052938619E+03 -0.13777333700E+04 -0.15106987110E+04  0.21148361312E+04  0.10100000352E+00 0.  1.
       -3    1    3    3    0  502 -0.54052938619E+03  0.13777333700E+04 -0.78107255776E+03  0.16734382591E+04  0.10100000352E+00 0. -1.
</event>
<event>
 5   0  0.1007567E-05  0.3068872E+04  0.7818609E-02  0.8224333E-01
       -2   -1    0    0    0  501  0.00000000000E+00  0.00000000000E+00  0.89364428435E+03  0.89364428435E+03  0.25500000920E-02 0. -1.
        2   -1    0    0  501    0  0.00000000000E+00  0.00000000000E+00 -0.26347106120E+04  0.26347106120E+04  0.25500000920E-02 0.  1.
    10030    2    1    2    0    0  0.00000000000E+00  0.00000000000E+00 -0.17410663276E+04  0.35283548963E+04  0.30688721572E+04 0.  0.
        3    1    3    3  502    0  0.79813865397E+03  0.23672537474E+03 -0.23524862991E+04  0.24954470565E+04  0.10100000352E+00 0.  1.
       -3    1    3    3    0  502 -0.79813865397E+03 -0.23672537474E+03  0.61141997144E+03  0.10329078399E+04  0.10100000352E+00 0. -1.
</event>
<event>
 5   0  0.4250961E-06  0.3050500E+04  0.7818609E-02  0.8229456E-01
        1   -1    0    0  501    0  0.00000000000E+00  0.00000000000E+00  0.23433721965E+04  0.23433721965E+04  0.50400001928E-02 0.  1.
       -1   -1    0    0    0  501  0.00000000000E+00  0.00000000000E+00 -0.99275195510E+03  0.99275195511E+03  0.50400001928E-02 0. -1.
    10030    2    1    2    0    0  0.00000000000E+00  0.00000000000E+00  0.13506202414E+04  0.33361241516E+04  0.30504998473E+04 0.  0.
        1    1    3    3  502    0  0.90834326881E+03 -0.22553542597E+03 -0.64179404600E+03  0.11348362524E+04  0.50400001928E-02 0. -1.
       -1    1    3    3    0  502 -0.90834326881E+03  0.22553542597E+03  0.19924142874E+04  0.22012878991E+04  0.50400001928E-02 0.  1.
</event>
<event>
 5   0  0.3838525E-06  0.3127297E+04  0.7818609E-02  0.8208286E-01
        1   -1    0    0  501    0  0.00000000000E+00  0.00000000000E+00  0.36440659005E+04  0.36440659005E+04  0.50400001928E-02 0. -1.
       -1   -1    0    0    0  501  0.00000000000E+00  0.00000000000E+00 -0.67095277156E+03  0.67095277158E+03  0.50400001928E-02 0.  1.
    10030    2    1    2    0    0  0.00000000000E+00  0.00000000000E+00  0.29731131289E+04  0.43150186720E+04  0.31272966701E+04 0.  0.
        3    1    3    3  502    0  0.65460597814E+03 -0.40156897813E+03 -0.39281397493E+03  0.86259460925E+03  0.10100000352E+00 0.  1.
       -3    1    3    3    0  502 -0.65460597814E+03  0.40156897813E+03  0.33659271038E+04  0.34524240628E+04  0.10100000352E+00 0. -1.
</event>
<event>
 5   0  0.3848286E-06  0.3107112E+04  0.7818609E-02  0.8213789E-01
        1   -1    0    0  501    0  0.00000000000E+00  0.00000000000E+00  0.11892376311E+04  0.11892376311E+04  0.50400001928E-02 0.  1.
       -1   -1    0    0    0  501  0.00000000000E+00  0.00000000000E+00 -0.20294824265E+04  0.20294824266E+04  0.50400001928E-02 0. -1.
    10030    2    1    2    0    0  0.00000000000E+00  0.00000000000E+00 -0.84024479547E+03  0.32187200576E+04  0.31071124043E+04 0.  0.
        2    1    3    3  502    0  0.91934556865E+03 -0.58711597340E+03 -0.15660370266E+04  0.19085003037E+04  0.25500000920E-02 0. -1.
       -2    1    3    3    0  502 -0.91934556865E+03  0.58711597340E+03  0.72579223109E+03  0.13102197539E+04  0.25500000920E-02 0.  1.
</event>
<event>
 5   0  0.4139628E-06  0.3015371E+04  0.7818609E-02  0.8239355E-01
       -1   -1    0    0    0  501  0.00000000000E+00  0.00000000000E+00  0.13478408402E+04  0.13478408402E+04  0.50400001928E-02 0. -1.
        1   -1    0    0  501    0  0.00000000000E+00  0.00000000000E+00 -0.16864870921E+04  0.16864870921E+04  0.50400001928E-02 0.  1.
    10030    2    1    2    0    0  0.00000000000E+00  0.00000000000E+00 -0.33864625189E+03  0.30343279322E+04  0.30153714060E+04 0.  0.
        5    1    3    3  502    0  0.32590078057E+03  0.31984804785E+03  0.12765745523E+04  0.13557945162E+04  0.46999998093E+01 0. -1.
       -5    1    3    3    0  502 -0.32590078057E+03 -0.31984804785E+03 -0.16152208042E+04  0.16785334161E+04  0.46999998093E+01 0.  1.
</event>
<event>
 5   0  0.1108153E-05  0.2033020E+04  0.7818609E-02  0.8591336E-01
       -2   -1    0    0    0  501  0.00000000000E+00  0.00000000000E+00  0.83056961244E+03  0.83056961244E+03  0.25500000920E-02 0.  1.
        2   -1    0    0  501    0  0.00000000000E+00  0.00000000000E+00 -0.12440772148E+04  0.12440772148E+04  0.25500000920E-02 0. -1.
    10030    2    1    2    0    0  0.00000000000E+00  0.00000000000E+00 -0.41350760232E+03  0.20746468272E+04  0.20330201476E+04 0.  0.
        4    1    3    3  502    0  0.84025521371E+03  0.30246951288E+03  0.28875445803E+03  0.93856133540E+03  0.12699999809E+01 0.  1.
       -4    1    3    3    0  502 -0.84025521371E+03 -0.30246951288E+03 -0.70226206035E+03  0.11360854918E+04  0.12699999809E+01 0. -1.
</event>
<event>
 5   0  0.9797278E-06  0.3037228E+04  0.7818609E-02  0.8233179E-01
        2   -1    0    0  501    0  0.00000000000E+00  0.00000000000E+00  0.16892409065E+04  0.16892409065E+04  0.25500000920E-02 0.  1.
       -2   -1    0    0    0  501  0.00000000000E+00  0.00000000000E+00 -0.13652220376E+04  0.13652220376E+04  0.25500000920E-02 0. -1.
    10030    2    1    2    0    0  0.00000000000E+00  0.00000000000E+00  0.32401886892E+03  0.30544629441E+04  0.30372282840E+04 0.  0.
        1    1    3    3  502    0 -0.57073798814E+02 -0.58260932956E+03 -0.12471905887E+04  0.13777428693E+04  0.50400001928E-02 0. -1.
       -1    1    3    3    0  502  0.57073798814E+02  0.58260932956E+03  0.15712094576E+04  0.16767200748E+04  0.50400001928E-02 0.  1.
</event>
<event>
 5   0  0.3807334E-06  0.3142913E+04  0.7818609E-02  0.8204058E-01
        1   -1    0    0  501    0  0.00000000000E+00  0.00000000000E+00  0.16369021955E+04  0.16369021955E+04  0.50400001928E-02 0. -1.
       -1   -1    0    0    0  501  0.00000000000E+00  0.00000000000E+00 -0.15086277840E+04  0.15086277840E+04  0.50400001928E-02 0.  1.
    10030    2    1    2    0    0  0.00000000000E+00  0.00000000000E+00  0.12827441150E+03  0.31455299796E+04  0.31429133822E+04 0.  0.
        4    1    3    3  502    0  0.55154269256E+02 -0.12514400488E+04 -0.88551013614E+03  0.15340384621E+04  0.12699999809E+01 0.  1.
       -4    1    3    3    0  502 -0.55154269256E+02  0.12514400488E+04  0.10137845476E+04  0.16114915175E+04  0.12699999809E+01 0. -1.
</event>
<event>
 5   0  0.1119100E-05  0.2813117E+04  0.7818609E-02  0.8299208E-01
       -2   -1    0    0    0  501  0.00000000000E+00  0.00000000000E+00  0.14249047488E+04  0.14249047488E+04  0.25500000920E-02 0.  1.
        2   -1    0    0  501    0  0.00000000000E+00  0.00000000000E+00 -0.13884484023E+04  0.13884484023E+04  0.25500000920E-02 0. -1.
    10030    2    1    2    0    0  0.00000000000E+00  0.00000000000E+00  0.36456346457E+02  0.28133531510E+04  0.28131169345E+04 0.  0.
        2    1    3    3  502    0  0.50853692452E+03  0.78041392145E+03 -0.10357820621E+04  0.13930183676E+04  0.25500000920E-02 0. -1.
       -2    1    3    3    0  502 -0.50853692452E+03 -0.78041392145E+03  0.10722384085E+04  0.14203347835E+04  0.25500000920E-02 0.  1.
</event>
<event>
 5   0  0.4139628E-06  0.2948785E+04  0.7818609E-02  0.8258509E-01
       -1   -1    0    0    0  501  0.00000000000E+00  0.00000000000E+00  0.13402238182E+04  0.13402238182E+04  0.50400001928E-02 0. -1.
        1   -1    0    0  501    0  0.00000000000E+00  0.00000000000E+00 -0.16219931281E+04  0.16219931281E+04  0.50400001928E-02 0.  1.
    10030    2    1    2    0    0  0.00000000000E+00  0.00000000000E+00 -0.28176930986E+03  0.29622169463E+04  0.29487853928E+04 0.  0.
        5    1    3    3  502    0  0.42313865398E+03 -0.32200490250E+03  0.12405439546E+04  0.13497054756E+04  0.46999998093E+01 0. -1.
       -5    1    3    3    0  502 -0.42313865398E+03  0.32200490250E+03 -0.15223132644E+04  0.16125114706E+04  0.46999998093E+01 0.  1.
</event>
<event>
 5   0  0.1119100E-05  0.3489207E+04  0.7818609E-02  0.8116353E-01
       -2   -1    0    0    0  501  0.00000000000E+00  0.00000000000E+00  0.27316227937E+04  0.27316227937E+04  0.25500000920E-02 0.  1.
        2   -1    0    0  501    0  0.00000000000E+00  0.00000000000E+00 -0.11142245544E+04  0.11142245544E+04  0.25500000920E-02 0. -1.
    10030    2    1    2    0    0  0.00000000000E+00  0.00000000000E+00  0.16173982393E+04  0.38458473481E+04  0.34892068956E+04 0.  0.
        2    1    3    3  502    0 -0.96107227901E+03  0.14534733829E+04  0.90349188951E+03  0.19627894423E+04  0.25500000920E-02 0.  1.
       -2    1    3    3    0  502  0.96107227901E+03 -0.14534733829E+04  0.71390634980E+03  0.18830579058E+04  0.25500000920E-02 0. -1.
</event>
<event>
 5   0  0.3807334E-06  0.3039531E+04  0.7818609E-02  0.8232532E-01
       -1   -1    0    0    0  501  0.00000000000E+00  0.00000000000E+00  0.15453178624E+04  0.15453178624E+04  0.50400001928E-02 0.  1.
        1   -1    0    0  501    0  0.00000000000E+00  0.00000000000E+00 -0.14946355589E+04  0.14946355589E+04  0.50400001928E-02 0. -1.
    10030    2    1    2    0    0  0.00000000000E+00  0.00000000000E+00  0.50682303509E+02  0.30399534214E+04  0.30395309027E+04 0.  0.
        4    1    3    3  502    0  0.63168004359E+03 -0.13722281070E+04 -0.14098217315E+03  0.15172037573E+04  0.12699999809E+01 0. -1.
       -4    1    3    3    0  502 -0.63168004359E+03  0.13722281070E+04  0.19166447666E+03  0.15227496641E+04  0.12699999809E+01 0.  1.
</event>
<event>
 5   0  0.3848286E-06  0.3115562E+04  0.7818609E-02  0.8211480E-01
        1   -1    0    0  501    0  0.00000000000E+00  0.00000000000E+00  0.21033760522E+04  0.21033760522E+04  0.50400001928E-02 0.  1.
       -1   -1    0    0    0  501  0.00000000000E+00  0.00000000000E+00 -0.11537080824E+04  0.11537080824E+04  0.50400001928E-02 0. -1.
    10030    2    1    2    0    0  0.00000000000E+00  0.00000000000E+00  0.94966796985E+03  0.32570841346E+04  0.31155621975E+04 0.  0.
        2    1    3    3  502    0 -0.23239135306E+03  0.11012241692E+04  0.16007813535E+04  0.19568345238E+04  0.25500000920E-02 0.  1.
       -2    1    3    3    0  502  0.23239135306E+03 -0.11012241692E+04 -0.65111338370E+03  0.13002496107E+04  0.25500000920E-02 0. -1.
</event>
<event>
 5   0  0.3848286E-06  0.2557292E+04  0.7818609E-02  0.8382854E-01
        1   -1    0    0  501    0  0.00000000000E+00  0.00000000000E+00  0.12521068469E+04  0.12521068470E+04  0.50400001928E-02 0.  1.
       -1   -1    0    0    0  501  0.00000000000E+00  0.00000000000E+00 -0.13057479556E+04  0.13057479556E+04  0.50400001928E-02 0. -1.
    10030    2    1    2    0    0  0.00000000000E+00  0.00000000000E+00 -0.53641108633E+02  0.25578548025E+04  0.25572922833E+04 0.  0.
        2    1    3    3  502    0  0.64300906980E+01  0.12074669123E+04 -0.44752960580E+03  0.12877501460E+04  0.25500000920E-02 0. -1.
       -2    1    3    3    0  502 -0.64300906980E+01 -0.12074669123E+04  0.39388849716E+03  0.12701046566E+04  0.25500000920E-02 0.  1.
</event>
<event>
 5   0  0.1108153E-05  0.3093722E+04  0.7818609E-02  0.8217463E-01
        2   -1    0    0  501    0  0.00000000000E+00  0.00000000000E+00  0.16634910061E+04  0.16634910061E+04  0.25500000920E-02 0. -1.
       -2   -1    0    0    0  501  0.00000000000E+00  0.00000000000E+00 -0.14384083924E+04  0.14384083924E+04  0.25500000920E-02 0.  1.
    10030    2    1    2    0    0  0.00000000000E+00  0.00000000000E+00  0.22508261372E+03  0.31018993985E+04  0.30937223042E+04 0.  0.
        4    1    3    3  502    0  0.13773687273E+04  0.22405219199E+03  0.78171363263E+03  0.15995067402E+04  0.12699999809E+01 0.  1.
       -4    1    3    3    0  502 -0.13773687273E+04 -0.22405219199E+03 -0.55663101891E+03  0.15023926583E+04  0.12699999809E+01 0. -1.
</event>
<event>
 5   0  0.3493125E-06  0.2276926E+04  0.7818609E-02  0.8487075E-01
       -3   -1    0    0    0  501  0.00000000000E+00  0.00000000000E+00  0.16307451291E+04  0.16307451322E+04  0.10100000352E+00 0.  1.
        3   -1    0    0  501    0  0.00000000000E+00  0.00000000000E+00 -0.79478902040E+03  0.79478902681E+03  0.10100000352E+00 0. -1.
    10030    2    1    2    0    0  0.00000000000E+00  0.00000000000E+00  0.83595610866E+03  0.24255341590E+04  0.22769262924E+04 0.  0.
        2    1    3    3  502    0 -0.69439774145E+03  0.71064302332E+03 -0.17408095059E+03  0.10087149782E+04  0.25500000920E-02 0.  1.
       -2    1    3    3    0  502  0.69439774145E+03 -0.71064302332E+03  0.10100370593E+04  0.14168191808E+04  0.25500000920E-02 0. -1.
</event>
<event>
 5   0  0.1001961E-05  0.2767528E+04  0.7818609E-02  0.8313421E-01
       -2   -1    0    0    0  501  0.00000000000E+00  0.00000000000E+00  0.10006601807E+04  0.10006601807E+04  0.25500000920E-02 0. -1.
        2   -1    0    0  501    0  0.00000000000E+00  0.00000000000E+00 -0.19135395782E+04  0.19135395782E+04  0.25500000920E-02 0.  1.
    10030    2    1    2    0    0  0.00000000000E+00  0.00000000000E+00 -0.91287939758E+03  0.29141997589E+04  0.27675280379E+04 0.  0.
        5    1    3    3  502    0  0.10762949694E+04 -0.49991128439E+02 -0.13707123910E+04  0.17434977840E+04  0.46999998093E+01 0.  1.
       -5    1    3    3    0  502 -0.10762949694E+04  0.49991128439E+02  0.45783299343E+03  0.11707019749E+04  0.46999998093E+01 0. -1.
</event>
<event>
 5   0  0.1001961E-05  0.3149887E+04  0.7818609E-02  0.8202179E-01
        2   -1    0    0  501    0  0.00000000000E+00  0.00000000000E+00  0.17289422568E+04  0.17289422568E+04  0.25500000920E-02 0.  1.
       -2   -1    0    0    0  501  0.00000000000E+00  0.00000000000E+00 -0.14346619621E+04  0.14346619622E+04  0.25500000920E-02 0. -1.
    10030    2    1    2    0    0  0.00000000000E+00  0.00000000000E+00  0.29428029466E+03  0.31636042190E+04  0.31498874206E+04 0.  0.
        5    1    3    3  502    0 -0.12118372377E+04 -0.94453675035E+03  0.49466201973E+03  0.16141287951E+04  0.46999998093E+01 0.  1.
       -5    1    3    3    0  502  0.12118372377E+04  0.94453675035E+03 -0.20038172507E+03  0.15494754239E+04  0.46999998093E+01 0. -1.
</event>
<event>
 5   0  0.1108153E-05  0.3074185E+04  0.7818609E-02  0.8222859E-01
       -2   -1    0    0    0  501  0.00000000000E+00  0.00000000000E+00  0.80169063878E+03  0.80169063878E+03  0.25500000920E-02 0.  1.
        2   -1    0    0  501    0  0.00000000000E+00  0.00000000000E+00 -0.29470877822E+04  0.29470877822E+04  0.25500000920E-02 0. -1.
    10030    2    1    2    0    0  0.00000000000E+00  0.00000000000E+00 -0.21453971434E+04  0.37487784210E+04  0.30741845661E+04 0.  0.
        4    1    3    3  502    0  0.77951506227E+03  0.12987988808E+04 -0.13909902111E+04  0.20565450749E+04  0.12699999809E+01 0. -1.
       -4    1    3    3    0  502 -0.77951506227E+03 -0.12987988808E+04 -0.75440693231E+03  0.16922333460E+04  0.12699999809E+01 0.  1.
</event>
<event>
 5   0  0.3807334E-06  0.3102471E+04  0.7818609E-02  0.8215060E-01
        1   -1    0    0  501    0  0.00000000000E+00  0.00000000000E+00  0.11478486500E+04  0.11478486500E+04  0.50400001928E-02 0. -1.
       -1   -1    0    0    0  501  0.00000000000E+00  0.00000000000E+00 -0.20963843175E+04  0.20963843175E+04  0.50400001928E-02 0.  1.
    10030    2    1    2    0    0  0.00000000000E+00  0.00000000000E+00 -0.94853566755E+03  0.32442329676E+04  0.31024712142E+04 0.  0.
        4    1    3    3  502    0 -0.41532416406E+03 -0.10373742696E+04 -0.15993922672E+04  0.19510757990E+04  0.12699999809E+01 0.  1.
       -4    1    3    3    0  502  0.41532416406E+03  0.10373742696E+04  0.65085659961E+03  0.12931571685E+04  0.12699999809E+01 0. -1.
</event>
<event>
 5   0  0.3848286E-06  0.1733176E+04  0.7818609E-02  0.8742666E-01
        1   -1    0    0  501    0  0.00000000000E+00  0.00000000000E+00  0.14870809799E+04  0.14870809799E+04  0.50400001928E-02 0. -1.
       -1   -1    0    0    0  501  0.00000000000E+00  0.00000000000E+00 -0.50499903140E+03  0.50499903143E+03  0.50400001928E-02 0.  1.
    10030    2    1    2    0    0  0.00000000000E+00  0.00000000000E+00  0.98208194854E+03  0.19920800114E+04  0.17331756455E+04 0.  0.
        2    1    3    3  502    0 -0.51741248468E+03  0.57790605172E+03  0.46952076266E+02  0.77710718784E+03  0.25500000920E-02 0.  1.
       -2    1    3    3    0  502  0.51741248468E+03 -0.57790605172E+03  0.93512987227E+03  0.12149728235E+04  0.25500000920E-02 0. -1.
</event>
<event>
 5   0  0.1119100E-05  0.3171540E+04  0.7818609E-02  0.8196374E-01
        2   -1    0    0  501    0  0.00000000000E+00  0.00000000000E+00  0.13519908537E+04  0.13519908537E+04  0.25500000920E-02 0.  1.
       -2   -1    0    0    0  501  0.00000000000E+00  0.00000000000E+00 -0.18599727252E+04  0.18599727252E+04  0.25500000920E-02 0. -1.
    10030    2    1    2    0    0  0.00000000000E+00  0.00000000000E+00 -0.50798187155E+03  0.32119635789E+04  0.31715397602E+04 0.  0.
        2    1    3    3  502    0  0.29294282839E+02 -0.15850896043E+04 -0.21749126098E+03  0.16002092542E+04  0.25500000920E-02 0.  1.
       -2    1    3    3    0  502 -0.29294282839E+02  0.15850896043E+04 -0.29049061057E+03  0.16117543247E+04  0.25500000920E-02 0. -1.
</event>
<event>
 5   0  0.3848286E-06  0.3171469E+04  0.7818609E-02  0.8196393E-01
        1   -1    0    0  501    0  0.00000000000E+00  0.00000000000E+00  0.24012305839E+04  0.24012305839E+04  0.50400001928E-02 0. -1.
       -1   -1    0    0    0  501  0.00000000000E+00  0.00000000000E+00 -0.10471936168E+04  0.10471936168E+04  0.50400001928E-02 0.  1.
    10030    2    1    2    0    0  0.00000000000E+00  0.00000000000E+00  0.13540369671E+04  0.34484242008E+04  0.31714686440E+04 0.  0.
        2    1    3    3  502    0 -0.28621559279E+03  0.51245285462E+03 -0.92472415112E+03  0.10952817215E+04  0.25500000920E-02 0.  1.
       -2    1    3    3    0  502  0.28621559279E+03 -0.51245285462E+03  0.22787611182E+04  0.23531424793E+04  0.25500000920E-02 0. -1.
</event>
<event>
 5   0  0.1007567E-05  0.3076353E+04  0.7818609E-02  0.8222258E-01
        2   -1    0    0  501    0  0.00000000000E+00  0.00000000000E+00  0.15703701713E+04  0.15703701713E+04  0.25500000920E-02 0. -1.
       -2   -1    0    0    0  501  0.00000000000E+00  0.00000000000E+00 -0.15066432717E+04  0.15066432717E+04  0.25500000920E-02 0.  1.
    10030    2    1    2    0    0  0.00000000000E+00  0.00000000000E+00  0.63726899594E+02  0.30770134430E+04  0.30763534600E+04 0.  0.
        3    1    3    3  502    0  0.32723751171E+03  0.13972401687E+04 -0.52199099029E+03  0.15270360448E+04  0.10100000352E+00 0.  1.
       -3    1    3    3    0  502 -0.32723751171E+03 -0.13972401687E+04  0.58571788988E+03  0.15499773982E+04  0.10100000352E+00 0. -1.
</event>
<event>
 5   0  0.1001961E-05  0.1609022E+04  0.7818609E-02  0.8815025E-01
        2   -1    0    0  501    0  0.00000000000E+00  0.00000000000E+00  0.93607940673E+03  0.93607940673E+03  0.25500000920E-02 0.  1.
       -2   -1    0    0    0  501  0.00000000000E+00  0.00000000000E+00 -0.69143465615E+03  0.69143465616E+03  0.25500000920E-02 0. -1.
    10030    2    1    2    0    0  0.00000000000E+00  0.00000000000E+00  0.24464475057E+03  0.16275140629E+04  0.16090217435E+04 0.  0.
        5    1    3    3  502    0 -0.23263189466E+03 -0.51081992782E+03 -0.46063552592E+03  0.72612793281E+03  0.46999998093E+01 0. -1.
       -5    1    3    3    0  502  0.23263189466E+03  0.51081992782E+03  0.70528027650E+03  0.90138613007E+03  0.46999998093E+01 0.  1.
</event>
<event>
 5   0  0.4139628E-06  0.3100840E+04  0.7818609E-02  0.8215507E-01
        1   -1    0    0  501    0  0.00000000000E+00  0.00000000000E+00  0.13837380547E+04  0.13837380547E+04  0.50400001928E-02 0. -1.
       -1   -1    0    0    0  501  0.00000000000E+00  0.00000000000E+00 -0.17371804165E+04  0.17371804165E+04  0.50400001928E-02 0.  1.
    10030    2    1    2    0    0  0.00000000000E+00  0.00000000000E+00 -0.35344236174E+03  0.31209184712E+04  0.31008403056E+04 0.  0.
        5    1    3    3  502    0 -0.92700673101E+03 -0.12426362975E+04 -0.15946041189E+03  0.15585044627E+04  0.46999998093E+01 0. -1.
       -5    1    3    3    0  502  0.92700673101E+03  0.12426362975E+04 -0.19398194985E+03  0.15624140085E+04  0.46999998093E+01 0.  1.
</event>
<event>
 5   0  0.3838525E-06  0.3124820E+04  0.7818609E-02  0.8208959E-01
        1   -1    0    0  501    0  0.00000000000E+00  0.00000000000E+00  0.24218881541E+04  0.24218881541E+04  0.50400001928E-02 0.  1.
       -1   -1    0    0    0  501  0.00000000000E+00  0.00000000000E+00 -0.10079430673E+04  0.10079430673E+04  0.50400001928E-02 0. -1.
    10030    2    1    2    0    0  0.00000000000E+00  0.00000000000E+00  0.14139450869E+04  0.34298312214E+04  0.31248202346E+04 0.  0.
        3    1    3    3  502    0 -0.91510714147E+03 -0.22418392188E+03 -0.66105792890E+03  0.11509461789E+04  0.10100000352E+00 0. -1.
       -3    1    3    3    0  502  0.91510714147E+03  0.22418392188E+03  0.20750030158E+04  0.22788850425E+04  0.10100000352E+00 0.  1.
</event>
<event>
 5   0  0.1007567E-05  0.3071623E+04  0.7818609E-02  0.8223569E-01
       -2   -1    0    0    0  501  0.00000000000E+00  0.00000000000E+00  0.93125210749E+03  0.93125210749E+03  0.25500000920E-02 0. -1.
        2   -1    0    0  501    0  0.00000000000E+00  0.00000000000E+00 -0.25328449515E+04  0.25328449515E+04  0.25500000920E-02 0.  1.
    10030    2    1    2    0    0  0.00000000000E+00  0.00000000000E+00 -0.16015928440E+04  0.34640970590E+04  0.30716231533E+04 0.  0.
        3    1    3    3  502    0  0.15195879666E+04  0.22236187568E+03 -0.81339506073E+03  0.17378733921E+04  0.10100000352E+00 0.  1.
       -3    1    3    3    0  502 -0.15195879666E+04 -0.22236187568E+03 -0.78819778324E+03  0.17262236668E+04  0.10100000352E+00 0. -1.
</event>
<event>
 5   0  0.9797278E-06  0.3036109E+04  0.7818609E-02  0.8233494E-01
       -2   -1    0    0    0  501  0.00000000000E+00  0.00000000000E+00  0.35387230441E+04  0.35387230441E+04  0.25500000920E-02 0.  1.
        2   -1    0    0  501    0  0.00000000000E+00  0.00000000000E+00 -0.65122045945E+03  0.65122045946E+03  0.25500000920E-02 0. -1.
    10030    2    1    2    0    0  0.00000000000E+00  0.00000000000E+00  0.28875025846E+04  0.41899435035E+04  0.30361085927E+04 0.  0.
        1    1    3    3  502    0 -0.10253716788E+04  0.25346749685E+03 -0.60968010308E+02  0.10579933601E+04  0.50400001928E-02 0. -1.
       -1    1    3    3    0  502  0.10253716788E+04 -0.25346749685E+03  0.29484705949E+04  0.31319501434E+04  0.50400001928E-02 0.  1.
</event>
<event>
 5   0  0.9797278E-06  0.3119243E+04  0.7818609E-02  0.8210477E-01
        2   -1    0    0  501    0  0.00000000000E+00  0.00000000000E+00  0.19387832109E+04  0.19387832109E+04  0.25500000920E-02 0. -1.
       -2   -1    0    0    0  501  0.00000000000E+00  0.00000000000E+00 -0.12546110520E+04  0.12546110520E+04  0.25500000920E-02 0.  1.
    10030    2    1    2    0    0  0.00000000000E+00  0.00000000000E+00  0.68417215892E+03  0.31933942628E+04  0.31192427566E+04 0.  0.
        1    1    3    3  502    0  0.49899674795E+03 -0.53902504876E+03 -0.10664374736E+04  0.12949265009E+04  0.50400001928E-02 0.  1.
       -1    1    3    3    0  502 -0.49899674795E+03  0.53902504876E+03  0.17506096325E+04  0.18984677619E+04  0.50400001928E-02 0. -1.
</event>
<event>
 5   0  0.1119100E-05  0.3067787E+04  0.7818609E-02  0.8224634E-01
       -2   -1    0    0    0  501  0.00000000000E+00  0.00000000000E+00  0.19844331883E+04  0.19844331883E+04  0.25500000920E-02 0. -1.
        2   -1    0    0  501    0  0.00000000000E+00  0.00000000000E+00 -0.11856431851E+04  0.11856431851E+04  0.25500000920E-02 0.  1.
    10030    2    1    2    0    0  0.00000000000E+00  0.00000000000E+00  0.79879000315E+03  0.31700763734E+04  0.30677872716E+04 0.  0.
        2    1    3    3  502    0  0.57812498006E+03 -0.64030904790E+03  0.17099922777E+04  0.19152800733E+04  0.25500000920E-02 0. -1.
       -2    1    3    3    0  502 -0.57812498006E+03  0.64030904790E+03 -0.91120227458E+03  0.12547963000E+04  0.25500000920E-02 0.  1.
</event>
<event>
 5   0  0.4250961E-06  0.2539549E+04  0.7818609E-02  0.8389030E-01
        1   -1    0    0  501    0  0.00000000000E+00  0.00000000000E+00  0.19805575983E+04  0.19805575983E+04  0.50400001928E-02 0. -1.
       -1   -1    0    0    0  501  0.00000000000E+00  0.00000000000E+00 -0.81407770005E+03  0.81407770007E+03  0.50400001928E-02 0.  1.
    10030    2    1    2    0    0  0.00000000000E+00  0.00000000000E+00  0.11664798982E+04  0.27946352983E+04  0.25395493887E+04 0.  0.
        1    1    3    3  502    0  0.60273022781E+03 -0.10296826567E+04  0.10508704703E+03  0.11977367776E+04  0.50400001928E-02 0. -1.
       -1    1    3    3    0  502 -0.60273022781E+03  0.10296826567E+04  0.10613928512E+04  0.15968985207E+04  0.50400001928E-02 0.  1.
</event>
<event>
 5   0  0.9797278E-06  0.2981579E+04  0.7818609E-02  0.8249011E-01
        2   -1    0    0  501    0  0.00000000000E+00  0.00000000000E+00  0.81825352241E+03  0.81825352241E+03  0.25500000920E-02 0. -1.
       -2   -1    0    0    0  501  0.00000000000E+00  0.00000000000E+00 -0.27160946879E+04  0.27160946879E+04  0.25500000920E-02 0.  1.
    10030    2    1    2    0    0  0.00000000000E+00  0.00000000000E+00 -0.18978411655E+04  0.35343482103E+04  0.29815794778E+04 0.  0.
        1    1    3    3  502    0  0.68480997933E+03 -0.83443452738E+03 -0.21677508710E+04  0.24216501661E+04  0.50400001928E-02 0.  1.
       -1    1    3    3    0  502 -0.68480997933E+03  0.83443452738E+03  0.26990970556E+03  0.11126980442E+04  0.50400001928E-02 0. -1.
</event>
<event>
 5   0  0.1108153E-05  0.3044899E+04  0.7818609E-02  0.8231025E-01
       -2   -1    0    0    0  501  0.00000000000E+00  0.00000000000E+00  0.16924557878E+04  0.16924557878E+04  0.25500000920E-02 0. -1.
        2   -1    0    0  501    0  0.00000000000E+00  0.00000000000E+00 -0.13695198634E+04  0.13695198634E+04  0.25500000920E-02 0.  1.
    10030    2    1    2    0    0  0.00000000000E+00  0.00000000000E+00  0.32293592442E+03  0.30619756512E+04  0.30448985660E+04 0.  0.
        4    1    3    3  502    0 -0.10079353828E+04 -0.33573875336E+03  0.12580865824E+04  0.16466443781E+04  0.12699999809E+01 0. -1.
       -4    1    3    3    0  502  0.10079353828E+04  0.33573875336E+03 -0.93515065794E+03  0.14153312730E+04  0.12699999809E+01 0.  1.
</event>
<event>
 5   0  0.1007567E-05  0.3045316E+04  0.7818609E-02  0.8230908E-01
        2   -1    0    0  501    0  0.00000000000E+00  0.00000000000E+00  0.21447839053E+04  0.21447839053E+04  0.25500000920E-02 0.  1.
       -2   -1    0    0    0  501  0.00000000000E+00  0.00000000000E+00 -0.10809888717E+04  0.10809888717E+04  0.25500000920E-02 0. -1.
    10030    2    1    2    0    0  0.00000000000E+00  0.00000000000E+00  0.10637950336E+04  0.32257727771E+04  0.30453160978E+04 0.  0.
        3    1    3    3  502    0  0.79879409004E+03 -0.41670824786E+03  0.18321414686E+04  0.20416807129E+04  0.10100000352E+00 0.  1.
       -3    1    3    3    0  502 -0.79879409004E+03  0.41670824786E+03 -0.76834643500E+03  0.11840920642E+04  0.10100000352E+00 0. -1.
</event>
<event>
 5   0  0.3838525E-06  0.3068286E+04  0.7818609E-02  0.8224496E-01
        1   -1    0    0  501    0  0.00000000000E+00  0.00000000000E+00  0.25884682667E+04  0.25884682667E+04  0.50400001928E-02 0. -1.
       -1   -1    0    0    0  501  0.00000000000E+00  0.00000000000E+00 -0.90926144730E+03  0.90926144732E+03  0.50400001928E-02 0.  1.
    10030    2    1    2    0    0  0.00000000000E+00  0.00000000000E+00  0.16792068194E+04  0.34977297140E+04  0.30682857771E+04 0.  0.
        3    1    3    3  502    0 -0.11872914522E+03 -0.11738172260E+03  0.25780809697E+04  0.25834814834E+04  0.10100000352E+00 0. -1.
       -3    1    3    3    0  502  0.11872914522E+03  0.11738172260E+03 -0.89887415033E+03  0.91424823055E+03  0.10100000352E+00 0.  1.
</event>
<event>
 5   0  0.3848286E-06  0.2905998E+04  0.7818609E-02  0.8271095E-01
        1   -1    0    0  501    0  0.00000000000E+00  0.00000000000E+00  0.15918014117E+04  0.15918014117E+04  0.50400001928E-02 0.  1.
       -1   -1    0    0    0  501  0.00000000000E+00  0.00000000000E+00 -0.13262998512E+04  0.13262998512E+04  0.50400001928E-02 0. -1.
    10030    2    1    2    0    0  0.00000000000E+00  0.00000000000E+00  0.26550156054E+03  0.29181012629E+04  0.29059979184E+04 0.  0.
        2    1    3    3  502    0  0.23351278629E+02 -0.10630666281E+04 -0.86160073527E+03  0.13685802004E+04  0.25500000920E-02 0. -1.
       -2    1    3    3    0  502 -0.23351278629E+02  0.10630666281E+04  0.11271022958E+04  0.15495210625E+04  0.25500000920E-02 0.  1.
</event>
<event>
 5   0  0.9797278E-06  0.2316488E+04  0.7818609E-02  0.8471448E-01
        2   -1    0    0  501    0  0.00000000000E+00  0.00000000000E+00  0.19581516610E+04  0.19581516610E+04  0.25500000920E-02 0. -1.
       -2   -1    0    0    0  501  0.00000000000E+00  0.00000000000E+00 -0.68509965954E+03  0.68509965955E+03  0.25500000920E-02 0.  1.
    10030    2    1    2    0    0  0.00000000000E+00  0.00000000000E+00  0.12730520015E+04  0.26432513206E+04  0.23164878902E+04 0.  0.
        1    1    3    3  502    0  0.10557438610E+04 -0.26578455120E+03  0.10876308593E+04  0.15388883695E+04  0.50400001928E-02 0.  1.
       -1    1    3    3    0  502 -0.10557438610E+04  0.26578455120E+03  0.18542114223E+03  0.11043629511E+04  0.50400001928E-02 0. -1.
</event>
<event>
 5   0  0.1108153E-05  0.3080809E+04  0.7818609E-02  0.8221024E-01
       -2   -1    0    0    0  501  0.00000000000E+00  0.00000000000E+00  0.11393817200E+04  0.11393817200E+04  0.25500000920E-02 0.  1.
        2   -1    0    0  501    0  0.00000000000E+00  0.00000000000E+00 -0.20825738979E+04  0.20825738979E+04  0.25500000920E-02 0. -1.
    10030    2    1    2    0    0  0.00000000000E+00  0.00000000000E+00 -0.94319217787E+03  0.32219556180E+04  0.30808093936E+04 0.  0.
        4    1    3    3  502    0 -0.14599101269E+04 -0.48219862769E+03 -0.37242593465E+03  0.15819468337E+04  0.12699999809E+01 0. -1.
       -4    1    3    3    0  502  0.14599101269E+04  0.48219862769E+03 -0.57076624322E+03  0.16400087842E+04  0.12699999809E+01 0.  1.
</event>
<event>
 5   0  0.1007567E-05  0.3092041E+04  0.7818609E-02  0.8217926E-01
        2   -1    0    0  501    0  0.00000000000E+00  0.00000000000E+00  0.21863828835E+04  0.21863828835E+04  0.25500000920E-02 0.  1.
       -2   -1    0    0    0  501  0.00000000000E+00  0.00000000000E+00 -0.10932116547E+04  0.10932116547E+04  0.25500000920E-02 0. -1.
    10030    2    1    2    0    0  0.00000000000E+00  0.00000000000E+00  0.10931712288E+04  0.32795945382E+04  0.30920409117E+04 0.  0.
        3    1    3    3  502    0  0.30947759915E+03  0.96268671845E+03 -0.69381040992E+03  0.12263421209E+04  0.10100000352E+00 0. -1.
       -3    1    3    3    0  502 -0.30947759915E+03 -0.96268671845E+03  0.17869816387E+04  0.20532524174E+04  0.10100000352E+00 0.  1.
</event>
<event>
 5   0  0.4250961E-06  0.3102281E+04  0.7818609E-02  0.8215112E-01
        1   -1    0    0  501    0  0.00000000000E+00  0.00000000000E+00  0.17664040311E+04  0.17664040311E+04  0.50400001928E-02 0.  1.
       -1   -1    0    0    0  501  0.00000000000E+00  0.00000000000E+00 -0.13621097183E+04  0.13621097183E+04  0.50400001928E-02 0. -1.
    10030    2    1    2    0    0  0.00000000000E+00  0.00000000000E+00  0.40429431284E+03  0.31285137494E+04  0.31022805142E+04 0.  0.
        1    1    3    3  502    0 -0.14439853625E+03 -0.12231972156E+04  0.11529740720E+04  0.16871311675E+04  0.50400001928E-02 0.  1.
       -1    1    3    3    0  502  0.14439853625E+03  0.12231972156E+04 -0.74867975918E+03  0.14413825819E+04  0.50400001928E-02 0. -1.
</event>
<event>
 5   0  0.1119100E-05  0.3080564E+04  0.7818609E-02  0.8221092E-01
       -2   -1    0    0    0  501  0.00000000000E+00  0.00000000000E+00  0.89991670524E+03  0.89991670524E+03  0.25500000920E-02 0. -1.
        2   -1    0    0  501    0  0.00000000000E+00  0.00000000000E+00 -0.26363199807E+04  0.26363199807E+04  0.25500000920E-02 0.  1.
    10030    2    1    2    0    0  0.00000000000E+00  0.00000000000E+00 -0.17364032755E+04  0.35362366860E+04  0.30805638387E+04 0.  0.
        2    1    3    3  502    0 -0.14546517227E+04 -0.66793403012E+02 -0.29195631016E+03  0.14851637890E+04  0.25500000920E-02 0. -1.
       -2    1    3    3    0  502  0.14546517227E+04  0.66793403012E+02 -0.14444469653E+04  0.20510728970E+04  0.25500000920E-02 0.  1.
</event>
<event>
 5   0  0.4250961E-06  0.3060351E+04  0.7818609E-02  0.8226704E-01
       -1   -1    0    0    0  501  0.00000000000E+00  0.00000000000E+00  0.10946440948E+04  0.10946440948E+04  0.50400001928E-02 0.  1.
        1   -1    0    0  501    0  0.00000000000E+00  0.00000000000E+00 -0.21389938954E+04  0.21389938954E+04  0.50400001928E-02 0. -1.
    10030    2    1    2    0    0  0.00000000000E+00  0.00000000000E+00 -0.10443498006E+04  0.32336379902E+04  0.30603509840E+04 0.  0.
        1    1    3    3  502    0 -0.58328495859E+03 -0.13755827034E+04 -0.87100129710E+03  0.17294774866E+04  0.50400001928E-02 0. -1.
       -1    1    3    3    0  502  0.58328495859E+03  0.13755827034E+04 -0.17334850354E+03  0.15041605036E+04  0.50400001928E-02 0.  1.
</event>
<event>
 5   0  0.3848286E-06  0.3132431E+04  0.7818609E-02  0.8206893E-01
        1   -1    0    0  501    0  0.00000000000E+00  0.00000000000E+00  0.16308441326E+04  0.16308441326E+04  0.50400001928E-02 0. -1.
       -1   -1    0    0    0  501  0.00000000000E+00  0.00000000000E+00 -0.15041479388E+04  0.15041479388E+04  0.50400001928E-02 0.  1.
    10030    2    1    2    0    0  0.00000000000E+00  0.00000000000E+00  0.12669619383E+03  0.31349920714E+04  0.31324309030E+04 0.  0.
        2    1    3    3  502    0  0.39656587764E+03 -0.24969900602E+03  0.15590320409E+04  0.16279419503E+04  0.25500000920E-02 0. -1.
       -2    1    3    3    0  502 -0.39656587764E+03  0.24969900602E+03 -0.14323358470E+04  0.15070501211E+04  0.25500000920E-02 0.  1.
</event>
<event>
 5   0  0.1001961E-05  0.2920454E+04  0.7818609E-02  0.8266818E-01
        2   -1    0    0  501    0  0.00000000000E+00  0.00000000000E+00  0.18619232196E+04  0.18619232196E+04  0.25500000920E-02 0. -1.
       -2   -1    0    0    0  501  0.00000000000E+00  0.00000000000E+00 -0.11451935262E+04  0.11451935262E+04  0.25500000920E-02 0.  1.
    10030    2    1    2    0    0  0.00000000000E+00  0.00000000000E+00  0.71672969346E+03  0.30071167458E+04  0.29204536753E+04 0.  0.
        5    1    3    3  502    0  0.68596963585E+02 -0.13519048246E+04 -0.20550595277E+03  0.13691628773E+04  0.46999998093E+01 0.  1.
       -5    1    3    3    0  502 -0.68596963585E+02  0.13519048246E+04  0.92223564623E+03  0.16379538685E+04  0.46999998093E+01 0. -1.
</event>
<event>
 5   0  0.4250961E-06  0.1800877E+04  0.7818609E-02  0.8705833E-01
        1   -1    0    0  501    0  0.00000000000E+00  0.00000000000E+00  0.22011498105E+04  0.22011498105E+04  0.50400001928E-02 0.  1.
       -1   -1    0    0    0  501  0.00000000000E+00  0.00000000000E+00 -0.36834830353E+03  0.36834830356E+03  0.50400001928E-02 0. -1.
    10030    2    1    2    0    0  0.00000000000E+00  0.00000000000E+00  0.18328015070E+04  0.25694981141E+04  0.18008773401E+04 0.  0.
        1    1    3    3  502    0  0.48806627009E+03  0.66107059881E+03  0.14417411612E+04  0.16594699746E+04  0.50400001928E-02 0.  1.
       -1    1    3    3    0  502 -0.48806627009E+03 -0.66107059881E+03  0.39106034577E+03  0.91002813949E+03  0.50400001928E-02 0. -1.
</event>
<event>
 5   0  0.1108153E-05  0.2882838E+04  0.7818609E-02  0.8278002E-01
       -2   -1    0    0    0  501  0.00000000000E+00  0.00000000000E+00  0.11646802527E+04  0.11646802527E+04  0.25500000920E-02 0. -1.
        2   -1    0    0  501    0  0.00000000000E+00  0.00000000000E+00 -0.17839138590E+04  0.17839138590E+04  0.25500000920E-02 0.  1.
    10030    2    1    2    0    0  0.00000000000E+00  0.00000000000E+00 -0.61923360638E+03  0.29485941117E+04  0.28828383542E+04 0.  0.
        4    1    3    3  502    0 -0.68179138259E+03  0.27229836830E+03  0.95912113076E+03  0.12078496790E+04  0.12699999809E+01 0. -1.
       -4    1    3    3    0  502  0.68179138259E+03 -0.27229836830E+03 -0.15783547371E+04  0.17407444327E+04  0.12699999809E+01 0.  1.
</event>
<event>
 5   0  0.3493125E-06  0.3065887E+04  0.7818609E-02  0.8225163E-01
        3   -1    0    0  501    0  0.00000000000E+00  0.00000000000E+00  0.12081528988E+04  0.12081529030E+04  0.10100000352E+00 0. -1.
       -3   -1    0    0    0  501  0.00000000000E+00  0.00000000000E+00 -0.19450483539E+04  0.19450483566E+04  0.10100000352E+00 0.  1.
    10030    2    1    2    0    0  0.00000000000E+00  0.00000000000E+00 -0.73689545511E+03  0.31532012596E+04  0.30658870286E+04 0.  0.
        2    1    3    3  502    0  0.47726379098E+02 -0.25067064679E+03  0.11861565241E+04  0.12132934023E+04  0.25500000920E-02 0. -1.
       -2    1    3    3    0  502 -0.47726379098E+02  0.25067064679E+03 -0.19230519792E+04  0.19399078573E+04  0.25500000920E-02 0.  1.
</event>
<event>
 5   0  0.1007567E-05  0.3255145E+04  0.7818609E-02  0.8174404E-01
        2   -1    0    0  501    0  0.00000000000E+00  0.00000000000E+00  0.22678840589E+04  0.22678840589E+04  0.25500000920E-02 0. -1.
       -2   -1    0    0    0  501  0.00000000000E+00  0.00000000000E+00 -0.11680453876E+04  0.11680453876E+04  0.25500000920E-02 0.  1.
    10030    2    1    2    0    0  0.00000000000E+00  0.00000000000E+00  0.10998386713E+04  0.34359294465E+04  0.32551445526E+04 0.  0.
        3    1    3    3  502    0 -0.12016392250E+03 -0.15866782533E+03 -0.11551511805E+04  0.11721728145E+04  0.10100000352E+00 0.  1.
       -3    1    3    3    0  502  0.12016392250E+03  0.15866782533E+03  0.22549898518E+04  0.22637566320E+04  0.10100000352E+00 0. -1.
</event>
<event>
 5   0  0.1007567E-05  0.3117150E+04  0.7818609E-02  0.8211047E-01
       -2   -1    0    0    0  501  0.00000000000E+00  0.00000000000E+00  0.12249904885E+04  0.12249904885E+04  0.25500000920E-02 0.  1.
        2   -1    0    0  501    0  0.00000000000E+00  0.00000000000E+00 -0.19830005467E+04  0.19830005467E+04  0.25500000920E-02 0. -1.
    10030    2    1    2    0    0  0.00000000000E+00  0.00000000000E+00 -0.75801005823E+03  0.32079910352E+04  0.31171504991E+04 0.  0.
        3    1    3    3  502    0  0.15372286776E+04  0.25214091879E+03 -0.43056236180E+03  0.16161779010E+04  0.10100000352E+00 0.  1.
       -3    1    3    3    0  502 -0.15372286776E+04 -0.25214091879E+03 -0.32744769643E+03  0.15918131342E+04  0.10100000352E+00 0. -1.
</event>
<event>
 5   0  0.3838525E-06  0.2976524E+04  0.7818609E-02  0.8250467E-01
        1   -1    0    0  501    0  0.00000000000E+00  0.00000000000E+00  0.14093648896E+04  0.14093648896E+04  0.50400001928E-02 0. -1.
       -1   -1    0    0    0  501  0.00000000000E+00  0.00000000000E+00 -0.15715755251E+04  0.15715755251E+04  0.50400001928E-02 0.  1.
    10030    2    1    2    0    0  0.00000000000E+00  0.00000000000E+00 -0.16221063545E+03  0.29809404147E+04  0.29765237217E+04 0.  0.
        3    1    3    3  502    0 -0.20293031658E+03  0.79133663252E+03 -0.13269483910E+04  0.15582639128E+04  0.10100000352E+00 0.  1.
       -3    1    3    3    0  502  0.20293031658E+03 -0.79133663252E+03  0.11647377556E+04  0.14226765018E+04  0.10100000352E+00 0. -1.
</event>
<event>
 5   0  0.1119100E-05  0.3035291E+04  0.7818609E-02  0.8233725E-01
       -2   -1    0    0    0  501  0.00000000000E+00  0.00000000000E+00  0.10698585277E+04  0.10698585277E+04  0.25500000920E-02 0.  1.
        2   -1    0    0  501    0  0.00000000000E+00  0.00000000000E+00 -0.21528527271E+04  0.21528527271E+04  0.25500000920E-02 0. -1.
    10030    2    1    2    0    0  0.00000000000E+00  0.00000000000E+00 -0.10829941994E+04  0.32227112548E+04  0.30352909903E+04 0.  0.
        2    1    3    3  502    0  0.72990709452E+03  0.10092798814E+04 -0.14621227789E+04  0.19207324817E+04  0.25500000920E-02 0. -1.
       -2    1    3    3    0  502 -0.72990709452E+03 -0.10092798814E+04  0.37912857958E+03  0.13019787731E+04  0.25500000920E-02 0.  1.
</event>
<event>
 5   0  0.1108153E-05  0.2354726E+04  0.7818609E-02  0.8456651E-01
        2   -1    0    0  501    0  0.00000000000E+00  0.00000000000E+00  0.11202491394E+04  0.11202491394E+04  0.25500000920E-02 0. -1.
       -2   -1    0    0    0  501  0.00000000000E+00  0.00000000000E+00 -0.12373888818E+04  0.12373888818E+04  0.25500000920E-02 0.  1.
    10030    2    1    2    0    0  0.00000000000E+00  0.00000000000E+00 -0.11713974235E+03  0.23576380212E+04  0.23547261666E+04 0.  0.
        4    1    3    3  502    0 -0.21517090387E+03  0.33684920059E+03  0.10502364075E+04  0.11237277368E+04  0.12699999809E+01 0. -1.
       -4    1    3    3    0  502  0.21517090387E+03 -0.33684920059E+03 -0.11673761499E+04  0.12339102844E+04  0.12699999809E+01 0.  1.
</event>
<event>
 5   0  0.9797278E-06  0.3096876E+04  0.7818609E-02  0.8216596E-01
       -2   -1    0    0    0  501  0.00000000000E+00  0.00000000000E+00  0.13731668019E+04  0.13731668019E+04  0.25500000920E-02 0.  1.
        2   -1    0    0  501    0  0.00000000000E+00  0.00000000000E+00 -0.17460810919E+04  0.17460810919E+04  0.25500000920E-02 0. -1.
    10030    2    1    2    0    0  0.00000000000E+00  0.00000000000E+00 -0.37291429000E+03  0.31192478938E+04  0.30968762254E+04 0.  0.
        1    1    3    3  502    0 -0.85434582154E+03 -0.12444770605E+04 -0.53395765676E+03  0.16011685471E+04  0.50400001928E-02 0. -1.
       -1    1    3    3    0  502  0.85434582154E+03  0.12444770605E+04  0.16104336676E+03  0.15180793467E+04  0.50400001928E-02 0.  1.
</event>
<event>
 5   0  0.3807334E-06  0.2850092E+04  0.7818609E-02  0.8287883E-01
       -1   -1    0    0    0  501  0.00000000000E+00  0.00000000000E+00  0.71739844008E+03  0.71739844010E+03  0.50400001928E-02 0. -1.
        1   -1    0    0  501    0  0.00000000000E+00  0.00000000000E+00 -0.28307218362E+04  0.28307218362E+04  0.50400001928E-02 0.  1.
    10030    2    1    2    0    0  0.00000000000E+00  0.00000000000E+00 -0.21133233961E+04  0.35481202763E+04  0.28500915281E+04 0.  0.
        4    1    3    3  502    0 -0.37349872699E+03  0.29300142092E+03 -0.27293944799E+04  0.27703694648E+04  0.12699999809E+01 0.  1.
       -4    1    3    3    0  502  0.37349872699E+03 -0.29300142092E+03  0.61607108374E+03  0.77775081154E+03  0.12699999809E+01 0. -1.
</event>
<event>
 5   0  0.3838525E-06  0.3121820E+04  0.7818609E-02  0.8209775E-01
       -1   -1    0    0    0  501  0.00000000000E+00  0.00000000000E+00  0.19620493616E+04  0.19620493616E+04  0.50400001928E-02 0. -1.
        1   -1    0    0  501    0  0.00000000000E+00  0.00000000000E+00 -0.12417834421E+04  0.12417834421E+04  0.50400001928E-02 0.  1.
    10030    2    1    2    0    0  0.00000000000E+00  0.00000000000E+00  0.72026591953E+03  0.32038328037E+04  0.31218202445E+04 0.  0.
        3    1    3    3  502    0  0.34730057698E+03  0.12004342486E+04 -0.59973490907E+03  0.13861248311E+04  0.10100000352E+00 0.  1.
       -3    1    3    3    0  502 -0.34730057698E+03 -0.12004342486E+04  0.13200008286E+04  0.18177079726E+04  0.10100000352E+00 0. -1.
</event>
<event>
 5   0  0.4250961E-06  0.3054697E+04  0.7818609E-02  0.8228282E-01
        1   -1    0    0  501    0  0.00000000000E+00  0.00000000000E+00  0.15736105795E+04  0.15736105795E+04  0.50400001928E-02 0.  1.
       -1   -1    0    0    0  501  0.00000000000E+00  0.00000000000E+00 -0.14824464501E+04  0.14824464501E+04  0.50400001928E-02 0. -1.
    10030    2    1    2    0    0  0.00000000000E+00  0.00000000000E+00  0.91164129438E+02  0.30560570296E+04  0.30546969849E+04 0.  0.
        1    1    3    3  502    0 -0.46270502227E+03 -0.13912399390E+04 -0.38256748316E+03  0.15152565409E+04  0.50400001928E-02 0.  1.
       -1    1    3    3    0  502  0.46270502227E+03  0.13912399390E+04  0.47373161259E+03  0.15408004888E+04  0.50400001928E-02 0. -1.
</event>
<event>
 5   0  0.3807334E-06  0.1717081E+04  0.7818609E-02  0.8751682E-01
       -1   -1    0    0    0  501  0.00000000000E+00  0.00000000000E+00  0.11741770261E+04  0.11741770261E+04  0.50400001928E-02 0.  1.
        1   -1    0    0  501    0  0.00000000000E+00  0.00000000000E+00 -0.62775207299E+03  0.62775207301E+03  0.50400001928E-02 0. -1.
    10030    2    1    2    0    0  0.00000000000E+00  0.00000000000E+00  0.54642495311E+03  0.18019290991E+04  0.17170813169E+04 0.  0.
        4    1    3    3  502    0 -0.73193173106E+03  0.28106331208E+03  0.64031212606E+03  0.10122854716E+04  0.12699999809E+01 0.  1.
       -4    1    3    3    0  502  0.73193173106E+03 -0.28106331208E+03 -0.93887172950E+02  0.78964362752E+03  0.12699999809E+01 0. -1.
</event>
<event>
 5   0  0.4250961E-06  0.3134204E+04  0.7818609E-02  0.8206413E-01
        1   -1    0    0  501    0  0.00000000000E+00  0.00000000000E+00  0.21367742955E+04  0.21367742955E+04  0.50400001928E-02 0.  1.
       -1   -1    0    0    0  501  0.00000000000E+00  0.00000000000E+00 -0.11493066384E+04  0.11493066384E+04  0.50400001928E-02 0. -1.
    10030    2    1    2    0    0  0.00000000000E+00  0.00000000000E+00  0.98746765715E+03  0.32860809339E+04  0.31342041303E+04 0.  0.
        1    1    3    3  502    0  0.53343636534E+03 -0.94910019161E+03  0.16755013446E+04  0.19981617265E+04  0.50400001928E-02 0.  1.
       -1    1    3    3    0  502 -0.53343636534E+03  0.94910019161E+03 -0.68803368745E+03  0.12879192074E+04  0.50400001928E-02 0. -1.
</event>
<event>
 5   0  0.1119100E-05  0.3102692E+04  0.7818609E-02  0.8215000E-01
       -2   -1    0    0    0  501  0.00000000000E+00  0.00000000000E+00  0.18005876857E+04  0.18005876857E+04  0.25500000920E-02 0.  1.
        2   -1    0    0  501    0  0.00000000000E+00  0.00000000000E+00 -0.13366047215E+04  0.13366047215E+04  0.25500000920E-02 0. -1.
    10030    2    1    2    0    0  0.00000000000E+00  0.00000000000E+00  0.46398296417E+03  0.31371924071E+04  0.31026917360E+04 0.  0.
        2    1    3    3  502    0 -0.24718364529E+02  0.66927404059E+01 -0.13363909949E+04  0.13366363311E+04  0.25500000920E-02 0. -1.
       -2    1    3    3    0  502  0.24718364529E+02 -0.66927404059E+01  0.18003739591E+04  0.18005560760E+04  0.25500000920E-02 0.  1.
</event>
<event>
 5   0  0.3807334E-06  0.3060654E+04  0.7818609E-02  0.8226620E-01
       -1   -1    0    0    0  501  0.00000000000E+00  0.00000000000E+00  0.12258129265E+04  0.12258129266E+04  0.50400001928E-02 0. -1.
        1   -1    0    0  501    0  0.00000000000E+00  0.00000000000E+00 -0.19104877672E+04  0.19104877672E+04  0.50400001928E-02 0.  1.
    10030    2    1    2    0    0  0.00000000000E+00  0.00000000000E+00 -0.68467484066E+03  0.31363006938E+04  0.30606539178E+04 0.  0.
        4    1    3    3  502    0  0.47832180407E+03 -0.30886238013E+03  0.11132321886E+04  0.12503900339E+04  0.12699999809E+01 0. -1.
       -4    1    3    3    0  502 -0.47832180407E+03  0.30886238013E+03 -0.17979070293E+04  0.18859106599E+04  0.12699999809E+01 0.  1.
</event>
<event>
 5   0  0.1108153E-05  0.1990872E+04  0.7818609E-02  0.8610900E-01
       -2   -1    0    0    0  501  0.00000000000E+00  0.00000000000E+00  0.13470281095E+04  0.13470281095E+04  0.25500000920E-02 0. -1.
        2   -1    0    0  501    0  0.00000000000E+00  0.00000000000E+00 -0.73561399235E+03  0.73561399235E+03  0.25500000920E-02 0.  1.
    10030    2    1    2    0    0  0.00000000000E+00  0.00000000000E+00  0.61141411710E+03  0.20826421018E+04  0.19908718948E+04 0.  0.
        4    1    3    3  502    0  0.50548659815E+02 -0.50086935981E+02  0.13443630629E+04  0.13462457152E+04  0.12699999809E+01 0. -1.
       -4    1    3    3    0  502 -0.50548659815E+02  0.50086935981E+02 -0.73294894575E+03  0.73639638656E+03  0.12699999809E+01 0.  1.
</event>
<event>
 5   0  0.4250961E-06  0.2937774E+04  0.7818609E-02  0.8261727E-01
       -1   -1    0    0    0  501  0.00000000000E+00  0.00000000000E+00  0.12300358692E+04  0.12300358693E+04  0.50400001928E-02 0. -1.
        1   -1    0    0  501    0  0.00000000000E+00  0.00000000000E+00 -0.17541185191E+04  0.17541185191E+04  0.50400001928E-02 0.  1.
    10030    2    1    2    0    0  0.00000000000E+00  0.00000000000E+00 -0.52408264986E+03  0.29841543884E+04  0.29377737812E+04 0.  0.
        1    1    3    3  502    0 -0.56933878388E+03  0.94868385506E+03 -0.12434630705E+04  0.16644362756E+04  0.50400001928E-02 0.  1.
       -1    1    3    3    0  502  0.56933878388E+03 -0.94868385506E+03  0.71938042064E+03  0.13197181128E+04  0.50400001928E-02 0. -1.
</event>
<event>
 5   0  0.3838525E-06  0.2890277E+04  0.7818609E-02  0.8275776E-01
       -1   -1    0    0    0  501  0.00000000000E+00  0.00000000000E+00  0.14512009549E+04  0.14512009549E+04  0.50400001928E-02 0. -1.
        1   -1    0    0  501    0  0.00000000000E+00  0.00000000000E+00 -0.14391014164E+04  0.14391014164E+04  0.50400001928E-02 0.  1.
    10030    2    1    2    0    0  0.00000000000E+00  0.00000000000E+00  0.12099538484E+02  0.28903023713E+04  0.28902770454E+04 0.  0.
        3    1    3    3  502    0  0.30525195263E+03 -0.43701391520E+03  0.13492910144E+04  0.14507743341E+04  0.10100000352E+00 0. -1.
       -3    1    3    3    0  502 -0.30525195263E+03  0.43701391520E+03 -0.13371914759E+04  0.14395280373E+04  0.10100000352E+00 0.  1.
</event>
<event>
 5   0  0.1119100E-05  0.1828611E+04  0.7818609E-02  0.8691231E-01
        2   -1    0    0  501    0  0.00000000000E+00  0.00000000000E+00  0.14111464896E+04  0.14111464896E+04  0.25500000920E-02 0. -1.
       -2   -1    0    0    0  501  0.00000000000E+00  0.00000000000E+00 -0.59239399705E+03  0.59239399706E+03  0.25500000920E-02 0.  1.
    10030    2    1    2    0    0  0.00000000000E+00  0.00000000000E+00  0.81875249251E+03  0.20035404866E+04  0.18286111773E+04 0.  0.
        2    1    3    3  502    0 -0.46976437599E+03 -0.22959375474E+03  0.12311689419E+04  0.13375981551E+04  0.25500000920E-02 0. -1.
       -2    1    3    3    0  502  0.46976437599E+03  0.22959375474E+03 -0.41241644936E+03  0.66594233150E+03  0.25500000920E-02 0.  1.
</event>
<event>
 5   0  0.1007567E-05  0.3157118E+04  0.7818609E-02  0.8200235E-01
       -2   -1    0    0    0  501  0.00000000000E+00  0.00000000000E+00  0.15502435329E+04  0.15502435329E+04  0.25500000920E-02 0.  1.
        2   -1    0    0  501    0  0.00000000000E+00  0.00000000000E+00 -0.16073914164E+04  0.16073914164E+04  0.25500000920E-02 0. -1.
    10030    2    1    2    0    0  0.00000000000E+00  0.00000000000E+00 -0.57147883515E+02  0.31576349493E+04  0.31571177666E+04 0.  0.
        3    1    3    3  502    0  0.97929049215E+03  0.12175192304E+04 -0.25329985325E+03  0.15828846358E+04  0.10100000352E+00 0.  1.
       -3    1    3    3    0  502 -0.97929049215E+03 -0.12175192304E+04  0.19615196974E+03  0.15747503135E+04  0.10100000352E+00 0. -1.
</event>
<event>
 5   0  0.1001961E-05  0.2182484E+04  0.7818609E-02  0.8525754E-01
       -2   -1    0    0    0  501  0.00000000000E+00  0.00000000000E+00  0.57798712100E+03  0.57798712101E+03  0.25500000920E-02 0.  1.
        2   -1    0    0  501    0  0.00000000000E+00  0.00000000000E+00 -0.20602688962E+04  0.20602688962E+04  0.25500000920E-02 0. -1.
    10030    2    1    2    0    0  0.00000000000E+00  0.00000000000E+00 -0.14822817752E+04  0.26382560172E+04  0.21824838032E+04 0.  0.
        5    1    3    3  502    0  0.55065050430E+03  0.13474389772E+03  0.38600322743E+03  0.68585164390E+03  0.46999998093E+01 0.  1.
       -5    1    3    3    0  502 -0.55065050430E+03 -0.13474389772E+03 -0.18682850026E+04  0.19524043733E+04  0.46999998093E+01 0. -1.
</event>
<event>
 5   0  0.3807334E-06  0.3114377E+04  0.7818609E-02  0.8211803E-01
        1   -1    0    0  501    0  0.00000000000E+00  0.00000000000E+00  0.86773631906E+03  0.86773631907E+03  0.50400001928E-02 0. -1.
       -1   -1    0    0    0  501  0.00000000000E+00  0.00000000000E+00 -0.27944379613E+04  0.27944379613E+04  0.50400001928E-02 0.  1.
    10030    2    1    2    0    0  0.00000000000E+00  0.00000000000E+00 -0.19267016422E+04  0.36621742803E+04  0.31143765414E+04 0.  0.
        4    1    3    3  502    0  0.15253194632E+04 -0.20651522735E+03 -0.68611496222E+03  0.16852309510E+04  0.12699999809E+01 0. -1.
       -4    1    3    3    0  502 -0.15253194632E+04  0.20651522735E+03 -0.12405866800E+04  0.19769433293E+04  0.12699999809E+01 0.  1.
</event>
<event>
 5   0  0.4250961E-06  0.2833346E+04  0.7818609E-02  0.8292990E-01
       -1   -1    0    0    0  501  0.00000000000E+00  0.00000000000E+00  0.17201536156E+04  0.17201536156E+04  0.50400001928E-02 0. -1.
        1   -1    0    0  501    0  0.00000000000E+00  0.00000000000E+00 -0.11667347966E+04  0.11667347966E+04  0.50400001928E-02 0.  1.
    10030    2    1    2    0    0  0.00000000000E+00  0.00000000000E+00  0.55341881898E+03  0.28868884123E+04  0.28333464870E+04 0.  0.
        1    1    3    3  502    0  0.53636590625E+03 -0.67064906249E+02 -0.10575311357E+04  0.11876692258E+04  0.50400001928E-02 0.  1.
       -1    1    3    3    0  502 -0.53636590625E+03  0.67064906249E+02  0.16109499547E+04  0.16992191864E+04  0.50400001928E-02 0. -1.
</event>
<event>
 5   0  0.3838525E-06  0.1778056E+04  0.7818609E-02  0.8718057E-01
        1   -1    0    0  501    0  0.00000000000E+00  0.00000000000E+00  0.18887372518E+04  0.18887372518E+04  0.50400001928E-02 0. -1.
       -1   -1    0    0    0  501  0.00000000000E+00  0.00000000000E+00 -0.41846510705E+03  0.41846510708E+03  0.50400001928E-02 0.  1.
    10030    2    1    2    0    0  0.00000000000E+00  0.00000000000E+00  0.14702721448E+04  0.23072023589E+04  0.17780558330E+04 0.  0.
        3    1    3    3  502    0  0.26478802824E+03 -0.73407671877E+03  0.12877809155E+04  0.15057758882E+04  0.10100000352E+00 0. -1.
       -3    1    3    3    0  502 -0.26478802824E+03  0.73407671877E+03  0.18249122923E+03  0.80142647067E+03  0.10100000352E+00 0.  1.
</event>
<event>
 5   0  0.1007567E-05  0.2843599E+04  0.7818609E-02  0.8289859E-01
       -2   -1    0    0    0  501  0.00000000000E+00  0.00000000000E+00  0.92628052380E+03  0.92628052380E+03  0.25500000920E-02 0.  1.
        2   -1    0    0  501    0  0.00000000000E+00  0.00000000000E+00 -0.21823994808E+04  0.21823994808E+04  0.25500000920E-02 0. -1.
    10030    2    1    2    0    0  0.00000000000E+00  0.00000000000E+00 -0.12561189570E+04  0.31086800046E+04  0.28435992222E+04 0.  0.
        3    1    3    3  502    0 -0.99804016815E+03  0.84531987874E+02 -0.17312287463E+04  0.20000957018E+04  0.10100000352E+00 0. -1.
       -3    1    3    3    0  502  0.99804016815E+03 -0.84531987874E+02  0.47510978932E+03  0.11085843028E+04  0.10100000352E+00 0.  1.
</event>
<event>
 5   0  0.1119100E-05  0.3090434E+04  0.7818609E-02  0.8218368E-01
        2   -1    0    0  501    0  0.00000000000E+00  0.00000000000E+00  0.19881130323E+04  0.19881130323E+04  0.25500000920E-02 0.  1.
       -2   -1    0    0    0  501  0.00000000000E+00  0.00000000000E+00 -0.12009861556E+04  0.12009861556E+04  0.25500000920E-02 0. -1.
    10030    2    1    2    0    0  0.00000000000E+00  0.00000000000E+00  0.78712687668E+03  0.31890991879E+04  0.30904344209E+04 0.  0.
        2    1    3    3  502    0  0.38807983459E+03 -0.12465996470E+04 -0.45930913597E+03  0.13840453462E+04  0.25500000920E-02 0. -1.
       -2    1    3    3    0  502 -0.38807983459E+03  0.12465996470E+04  0.12464360127E+04  0.18050538417E+04  0.25500000920E-02 0.  1.
</event>
<event>
 5   0  0.3848286E-06  0.3082257E+04  0.7818609E-02  0.8220624E-01
        1   -1    0    0  501    0  0.00000000000E+00  0.00000000000E+00  0.21075826229E+04  0.21075826229E+04  0.50400001928E-02 0. -1.
       -1   -1    0    0    0  501  0.00000000000E+00  0.00000000000E+00 -0.11269199383E+04  0.11269199384E+04  0.50400001928E-02 0.  1.
    10030    2    1    2    0    0  0.00000000000E+00  0.00000000000E+00  0.98066268455E+03  0.32345025612E+04  0.30822568871E+04 0.  0.
        2    1    3    3  502    0  0.95962096517E+02 -0.78569569464E+03 -0.89731165705E+03  0.11965344368E+04  0.25500000920E-02 0.  1.
       -2    1    3    3    0  502 -0.95962096517E+02  0.78569569464E+03  0.18779743416E+04  0.20379681244E+04  0.25500000920E-02 0. -1.
</event>
<event>
 5   0  0.3848286E-06  0.3030649E+04  0.7818609E-02  0.8235033E-01
       -1   -1    0    0    0  501  0.00000000000E+00  0.00000000000E+00  0.13888707923E+04  0.13888707923E+04  0.50400001928E-02 0.  1.
        1   -1    0    0  501    0  0.00000000000E+00  0.00000000000E+00 -0.16532910189E+04  0.16532910189E+04  0.50400001928E-02 0. -1.
    10030    2    1    2    0    0  0.00000000000E+00  0.00000000000E+00 -0.26442022661E+03  0.30421618112E+04  0.30306485163E+04 0.  0.
        2    1    3    3  502    0 -0.44525667507E+03 -0.61175059411E+03  0.11856809364E+04  0.14065317555E+04  0.25500000920E-02 0.  1.
       -2    1    3    3    0  502  0.44525667507E+03  0.61175059411E+03 -0.14501011631E+04  0.16356300557E+04  0.25500000920E-02 0. -1.
</event>
<event>
 5   0  0.9797278E-06  0.2188506E+04  0.7818609E-02  0.8523228E-01
        2   -1    0    0  501    0  0.00000000000E+00  0.00000000000E+00  0.90551082658E+03  0.90551082659E+03  0.25500000920E-02 0.  1.
       -2   -1    0    0    0  501  0.00000000000E+00  0.00000000000E+00 -0.13223356669E+04  0.13223356669E+04  0.25500000920E-02 0. -1.
    10030    2    1    2    0    0  0.00000000000E+00  0.00000000000E+00 -0.41682484032E+03  0.22278464935E+04  0.21885056662E+04 0.  0.
        1    1    3    3  502    0  0.54429996230E+03  0.81039983780E+03 -0.71164581726E+03  0.12080770320E+04  0.50400001928E-02 0. -1.
       -1    1    3    3    0  502 -0.54429996230E+03 -0.81039983780E+03  0.29482097694E+03  0.10197694615E+04  0.50400001928E-02 0.  1.
</event>
<event>
 5   0  0.3838525E-06  0.2843814E+04  0.7818609E-02  0.8289793E-01
        1   -1    0    0  501    0  0.00000000000E+00  0.00000000000E+00  0.26178032405E+04  0.26178032405E+04  0.50400001928E-02 0.  1.
       -1   -1    0    0    0  501  0.00000000000E+00  0.00000000000E+00 -0.77233461228E+03  0.77233461230E+03  0.50400001928E-02 0. -1.
    10030    2    1    2    0    0  0.00000000000E+00  0.00000000000E+00  0.18454686282E+04  0.33901378528E+04  0.28438143757E+04 0.  0.
        3    1    3    3  502    0 -0.95149017424E+03  0.10509095760E+04  0.79173482265E+03  0.16237575337E+04  0.10100000352E+00 0.  1.
       -3    1    3    3    0  502  0.95149017424E+03 -0.10509095760E+04  0.10537338056E+04  0.17663803191E+04  0.10100000352E+00 0. -1.
</event>
<event>
 5   0  0.9797278E-06  0.3018040E+04  0.7818609E-02  0.8238598E-01
       -2   -1    0    0    0  501  0.00000000000E+00  0.00000000000E+00  0.14537265970E+04  0.14537265970E+04  0.25500000920E-02 0. -1.
        2   -1    0    0  501    0  0.00000000000E+00  0.00000000000E+00 -0.15664165281E+04  0.15664165281E+04  0.25500000920E-02 0.  1.
    10030    2    1    2    0    0  0.00000000000E+00  0.00000000000E+00 -0.11268993112E+03  0.30201431251E+04  0.30180400057E+04 0.  0.
        1    1    3    3  502    0  0.29556702515E+03 -0.11779458711E+04 -0.95263926820E+03  0.15435147933E+04  0.50400001928E-02 0.  1.
       -1    1    3    3    0  502 -0.29556702515E+03  0.11779458711E+04  0.83994933708E+03  0.14766283319E+04  0.50400001928E-02 0. -1.
</event>
<event>
 5   0  0.3848286E-06  0.3221301E+04  0.7818609E-02  0.8183214E-01
        1   -1    0    0  501    0  0.00000000000E+00  0.00000000000E+00  0.18800348334E+04  0.18800348334E+04  0.50400001928E-02 0.  1.
       -1   -1    0    0    0  501  0.00000000000E+00  0.00000000000E+00 -0.13798653861E+04  0.13798653861E+04  0.50400001928E-02 0. -1.
    10030    2    1    2    0    0  0.00000000000E+00  0.00000000000E+00  0.50016944729E+03  0.32599002194E+04  0.32213009739E+04 0.  0.
        2    1    3    3  502    0  0.59132683398E+03  0.48003750676E+02  0.17654328797E+04  0.18624513517E+04  0.25500000920E-02 0.  1.
       -2    1    3    3    0  502 -0.59132683398E+03 -0.48003750676E+02 -0.12652634324E+04  0.13974488678E+04  0.25500000920E-02 0. -1.
</event>
<event>
 5   0  0.3807334E-06  0.2860991E+04  0.7818609E-02  0.8284579E-01
        1   -1    0    0  501    0  0.00000000000E+00  0.00000000000E+00  0.16873775521E+04  0.16873775521E+04  0.50400001928E-02 0.  1.
       -1   -1    0    0    0  501  0.00000000000E+00  0.00000000000E+00 -0.12127201806E+04  0.12127201806E+04  0.50400001928E-02 0. -1.
    10030    2    1    2    0    0  0.00000000000E+00  0.00000000000E+00  0.47465737151E+03  0.29000977327E+04  0.28609906045E+04 0.  0.
        4    1    3    3  502    0  0.12778752853E+03 -0.14193316062E+04  0.36346161179E+03  0.14706929717E+04  0.12699999809E+01 0.  1.
       -4    1    3    3    0  502 -0.12778752853E+03  0.14193316062E+04  0.11119575972E+03  0.14294047610E+04  0.12699999809E+01 0. -1.
</event>
<event>
 5   0  0.1108153E-05  0.3110978E+04  0.7818609E-02  0.8212732E-01
        2   -1    0    0  501    0  0.00000000000E+00  0.00000000000E+00  0.18523529757E+04  0.18523529757E+04  0.25500000920E-02 0. -1.
       -2   -1    0    0    0  501  0.00000000000E+00  0.00000000000E+00 -0.13062014038E+04  0.13062014038E+04  0.25500000920E-02 0.  1.
    10030    2    1    2    0    0  0.00000000000E+00  0.00000000000E+00  0.54615157194E+03  0.31585543795E+04  0.31109780180E+04 0.  0.
        4    1    3    3  502    0  0.14276631128E+04 -0.25508139752E+03  0.84404248092E+03  0.16780041137E+04  0.12699999809E+01 0. -1.
       -4    1    3    3    0  502 -0.14276631128E+04  0.25508139752E+03 -0.29789090899E+03  0.14805502658E+04  0.12699999809E+01 0.  1.
</event>
<event>
 5   0  0.1119100E-05  0.3040502E+04  0.7818609E-02  0.8232259E-01
        2   -1    0    0  501    0  0.00000000000E+00  0.00000000000E+00  0.27032000061E+04  0.27032000061E+04  0.25500000920E-02 0. -1.
       -2   -1    0    0    0  501  0.00000000000E+00  0.00000000000E+00 -0.85497302939E+03  0.85497302939E+03  0.25500000920E-02 0.  1.
    10030    2    1    2    0    0  0.00000000000E+00  0.00000000000E+00  0.18482269767E+04  0.35581730355E+04  0.30405019969E+04 0.  0.
        2    1    3    3  502    0  0.35446467785E+03 -0.42098354158E+03  0.25825355444E+04  0.26405230899E+04  0.25500000920E-02 0. -1.
       -2    1    3    3    0  502 -0.35446467785E+03  0.42098354158E+03 -0.73430856768E+03  0.91764994562E+03  0.25500000920E-02 0.  1.
</event>
<event>
 5   0  0.4139628E-06  0.2886051E+04  0.7818609E-02  0.8277040E-01
       -1   -1    0    0    0  501  0.00000000000E+00  0.00000000000E+00  0.93909400807E+03  0.93909400809E+03  0.50400001928E-02 0.  1.
        1   -1    0    0  501    0  0.00000000000E+00  0.00000000000E+00 -0.22173746395E+04  0.22173746395E+04  0.50400001928E-02 0. -1.
    10030    2    1    2    0    0  0.00000000000E+00  0.00000000000E+00 -0.12782806314E+04  0.31564686475E+04  0.28860514462E+04 0.  0.
        5    1    3    3  502    0  0.10913311630E+04 -0.93737174647E+03 -0.51621893238E+03  0.15284546361E+04  0.46999998093E+01 0.  1.
       -5    1    3    3    0  502 -0.10913311630E+04  0.93737174647E+03 -0.76206169900E+03  0.16280140115E+04  0.46999998093E+01 0. -1.
</event>
<event>
 5   0  0.1001961E-05  0.2523024E+04  0.7818609E-02  0.8394829E-01
        2   -1    0    0  501    0  0.00000000000E+00  0.00000000000E+00  0.17723263844E+04  0.17723263844E+04  0.25500000920E-02 0. -1.
       -2   -1    0    0    0  501  0.00000000000E+00  0.00000000000E+00 -0.89792297892E+03  0.89792297892E+03  0.25500000920E-02 0.  1.
    10030    2    1    2    0    0  0.00000000000E+00  0.00000000000E+00  0.87440340544E+03  0.26702493633E+04  0.25230240480E+04 0.  0.
        5    1    3    3  502    0  0.40026339802E+02 -0.12360331975E+04  0.17365206189E+03  0.12488223660E+04  0.46999998093E+01 0.  1.
       -5    1    3    3    0  502 -0.40026339802E+02  0.12360331975E+04  0.70075134356E+03  0.14214269973E+04  0.46999998093E+01 0. -1.
</event>
<event>
 5   0  0.1119100E-05  0.3083193E+04  0.7818609E-02  0.8220366E-01
        2   -1    0    0  501    0  0.00000000000E+00  0.00000000000E+00  0.15797090207E+04  0.15797090207E+04  0.25500000920E-02 0.  1.
       -2   -1    0    0    0  501  0.00000000000E+00  0.00000000000E+00 -0.15044036050E+04  0.15044036050E+04  0.25500000920E-02 0. -1.
    10030    2    1    2    0    0  0.00000000000E+00  0.00000000000E+00  0.75305415756E+02  0.30841126257E+04  0.30831931147E+04 0.  0.
        2    1    3    3  502    0 -0.10400401189E+04  0.92218723548E+03 -0.62918483842E+03  0.15257740026E+04  0.25500000920E-02 0.  1.
       -2    1    3    3    0  502  0.10400401189E+04 -0.92218723548E+03  0.70449025418E+03  0.15583386231E+04  0.25500000920E-02 0. -1.
</event>
<event>
 5   0  0.1001961E-05  0.2945849E+04  0.7818609E-02  0.8259365E-01
       -2   -1    0    0    0  501  0.00000000000E+00  0.00000000000E+00  0.89014401078E+03  0.89014401078E+03  0.25500000920E-02 0.  1.
        2   -1    0    0  501    0  0.00000000000E+00  0.00000000000E+00 -0.24372538109E+04  0.24372538109E+04  0.25500000920E-02 0. -1.
    10030    2    1    2    0    0  0.00000000000E+00  0.00000000000E+00 -0.15471098001E+04  0.33273978217E+04  0.29458492035E+04 0.  0.
        5    1    3    3  502    0 -0.13176433100E+04  0.22380251886E+03 -0.74333806263E+02  0.13385884598E+04  0.46999998093E+01 0.  1.
       -5    1    3    3    0  502  0.13176433100E+04 -0.22380251886E+03 -0.14727759938E+04  0.19888093619E+04  0.46999998093E+01 0. -1.
</event>
<event>
 5   0  0.3838525E-06  0.3093707E+04  0.7818609E-02  0.8217467E-01
        1   -1    0    0  501    0  0.00000000000E+00  0.00000000000E+00  0.28236792775E+04  0.28236792775E+04  0.50400001928E-02 0.  1.
       -1   -1    0    0    0  501  0.00000000000E+00  0.00000000000E+00 -0.84738943386E+03  0.84738943388E+03  0.50400001928E-02 0. -1.
    10030    2    1    2    0    0  0.00000000000E+00  0.00000000000E+00  0.19762898436E+04  0.36710687114E+04  0.30937071512E+04 0.  0.
        3    1    3    3  502    0 -0.59808530828E+03 -0.34648165672E+03 -0.65394806599E+03  0.95152701362E+03  0.10100000352E+00 0. -1.
       -3    1    3    3    0  502  0.59808530828E+03  0.34648165672E+03  0.26302379096E+04  0.27195416977E+04  0.10100000352E+00 0.  1.
</event>
<event>
 5   0  0.9797278E-06  0.3152793E+04  0.7818609E-02  0.8201397E-01
        2   -1    0    0  501    0  0.00000000000E+00  0.00000000000E+00  0.16696198368E+04  0.16696198368E+04  0.25500000920E-02 0.  1.
       -2   -1    0    0    0  501  0.00000000000E+00  0.00000000000E+00 -0.14883785597E+04  0.14883785597E+04  0.25500000920E-02 0. -1.
    10030    2    1    2    0    0  0.00000000000E+00  0.00000000000E+00  0.18124127708E+03  0.31579983965E+04  0.31527932809E+04 0.  0.
        1    1    3    3  502    0  0.38638385857E+03  0.14246162361E+04  0.64488984054E+03  0.16108093658E+04  0.50400001928E-02 0. -1.
       -1    1    3    3    0  502 -0.38638385857E+03 -0.14246162361E+04 -0.46364856346E+03  0.15471890308E+04  0.50400001928E-02 0.  1.
</event>
<event>
 5   0  0.3838525E-06  0.3344722E+04  0.7818609E-02  0.8151608E-01
        1   -1    0    0  501    0  0.00000000000E+00  0.00000000000E+00  0.17227812774E+04  0.17227812774E+04  0.50400001928E-02 0.  1.
       -1   -1    0    0    0  501  0.00000000000E+00  0.00000000000E+00 -0.16234161779E+04  0.16234161779E+04  0.50400001928E-02 0. -1.
    10030    2    1    2    0    0  0.00000000000E+00  0.00000000000E+00  0.99365099507E+02  0.33461974552E+04  0.33447218100E+04 0.  0.
        3    1    3    3  502    0 -0.87476936136E+03  0.29529909051E+03  0.14447037085E+04  0.17145237834E+04  0.10100000352E+00 0.  1.
       -3    1    3    3    0  502  0.87476936136E+03 -0.29529909051E+03 -0.13453386090E+04  0.16316736718E+04  0.10100000352E+00 0. -1.
</event>
<event>
 5   0  0.1119100E-05  0.2892755E+04  0.7818609E-02  0.8275036E-01
        2   -1    0    0  501    0  0.00000000000E+00  0.00000000000E+00  0.19981644680E+04  0.19981644680E+04  0.25500000920E-02 0.  1.
       -2   -1    0    0    0  501  0.00000000000E+00  0.00000000000E+00 -0.10469650672E+04  0.10469650672E+04  0.25500000920E-02 0. -1.
    10030    2    1    2    0    0  0.00000000000E+00  0.00000000000E+00  0.95119940080E+03  0.30451295351E+04  0.28927553622E+04 0.  0.
        2    1    3    3  502    0 -0.11466722547E+04  0.70840552050E+03  0.10279406352E+04  0.16950981065E+04  0.25500000920E-02 0.  1.
       -2    1    3    3    0  502  0.11466722547E+04 -0.70840552050E+03 -0.76741234381E+02  0.13500314286E+04  0.25500000920E-02 0. -1.
</event>
<event>
 5   0  0.1007567E-05  0.3108456E+04  0.7818609E-02  0.8213421E-01
       -2   -1    0    0    0  501  0.00000000000E+00  0.00000000000E+00  0.11596722341E+04  0.11596722341E+04  0.25500000920E-02 0. -1.
        2   -1    0    0  501    0  0.00000000000E+00  0.00000000000E+00 -0.20830236352E+04  0.20830236352E+04  0.25500000920E-02 0.  1.
    10030    2    1    2    0    0  0.00000000000E+00  0.00000000000E+00 -0.92335140110E+03  0.32426958693E+04  0.31084559979E+04 0.  0.
        3    1    3    3  502    0 -0.85763744432E+03 -0.12605665952E+04 -0.77645943717E+03  0.17109819972E+04  0.10100000352E+00 0. -1.
       -3    1    3    3    0  502  0.85763744432E+03  0.12605665952E+04 -0.14689196393E+03  0.15317138721E+04  0.10100000352E+00 0.  1.
</event>
<event>
 5   0  0.9797278E-06  0.3026110E+04  0.7818609E-02  0.8236314E-01
       -2   -1    0    0    0  501  0.00000000000E+00  0.00000000000E+00  0.95448299890E+03  0.95448299890E+03  0.25500000920E-02 0.  1.
        2   -1    0    0  501    0  0.00000000000E+00  0.00000000000E+00 -0.23985080749E+04  0.23985080749E+04  0.25500000920E-02 0. -1.
    10030    2    1    2    0    0  0.00000000000E+00  0.00000000000E+00 -0.14440250760E+04  0.33529910738E+04  0.30261098329E+04 0.  0.
        1    1    3    3  502    0 -0.54267346005E+03 -0.13921468172E+04 -0.98600970099E+03  0.17901905975E+04  0.50400001928E-02 0.  1.
       -1    1    3    3    0  502  0.54267346005E+03  0.13921468172E+04 -0.45801537498E+03  0.15628004763E+04  0.50400001928E-02 0. -1.
</event>
<event>
 5   0  0.1001961E-05  0.1743754E+04  0.7818609E-02  0.8736796E-01
        2   -1    0    0  501    0  0.00000000000E+00  0.00000000000E+00  0.90544138233E+03  0.90544138234E+03  0.25500000920E-02 0.  1.
       -2   -1    0    0    0  501  0.00000000000E+00  0.00000000000E+00 -0.83955694543E+03  0.83955694543E+03  0.25500000920E-02 0. -1.
    10030    2    1    2    0    0  0.00000000000E+00  0.00000000000E+00  0.65884436907E+02  0.17449983278E+04  0.17437541125E+04 0.  0.
        5    1    3    3  502    0  0.20385583407E+03 -0.74154645792E+03 -0.37808088250E+03  0.85698050972E+03  0.46999998093E+01 0. -1.
       -5    1    3    3    0  502 -0.20385583407E+03  0.74154645792E+03  0.44396531941E+03  0.88801781805E+03  0.46999998093E+01 0.  1.
</event>
<event>
 5   0  0.3807334E-06  0.2223605E+04  0.7818609E-02  0.8508667E-01
        1   -1    0    0  501    0  0.00000000000E+00  0.00000000000E+00  0.19813440079E+04  0.19813440079E+04  0.50400001928E-02 0. -1.
       -1   -1    0    0    0  501  0.00000000000E+00  0.00000000000E+00 -0.62387196773E+03  0.62387196775E+03  0.50400001928E-02 0.  1.
    10030    2    1    2    0    0  0.00000000000E+00  0.00000000000E+00  0.13574720402E+04  0.26052159757E+04  0.22236051673E+04 0.  0.
        4    1    3    3  502    0 -0.10519830832E+04  0.35855275530E+03  0.71339070131E+03  0.13206651321E+04  0.12699999809E+01 0. -1.
       -4    1    3    3    0  502  0.10519830832E+04 -0.35855275530E+03  0.64408133887E+03  0.12845508435E+04  0.12699999809E+01 0.  1.
</event>
<event>
 5   0  0.4139628E-06  0.2990540E+04  0.7818609E-02  0.8246438E-01
        1   -1    0    0  501    0  0.00000000000E+00  0.00000000000E+00  0.14118086487E+04  0.14118086487E+04  0.50400001928E-02 0. -1.
       -1   -1    0    0    0  501  0.00000000000E+00  0.00000000000E+00 -0.15836648396E+04  0.15836648396E+04  0.50400001928E-02 0.  1.
    10030    2    1    2    0    0  0.00000000000E+00  0.00000000000E+00 -0.17185619096E+03  0.29954734883E+04  0.29905395615E+04 0.  0.
        5    1    3    3  502    0  0.10874610967E+04  0.99744096770E+03 -0.32788305096E+03  0.15116181747E+04  0.46999998093E+01 0.  1.
       -5    1    3    3    0  502 -0.10874610967E+04 -0.99744096770E+03  0.15602686000E+03  0.14838553137E+04  0.46999998093E+01 0. -1.
</event>
<event>
 5   0  0.1108153E-05  0.2740726E+04  0.7818609E-02  0.8321911E-01
       -2   -1    0    0    0  501  0.00000000000E+00  0.00000000000E+00  0.11958505461E+04  0.11958505461E+04  0.25500000920E-02 0.  1.
        2   -1    0    0  501    0  0.00000000000E+00  0.00000000000E+00 -0.15703422952E+04  0.15703422952E+04  0.25500000920E-02 0. -1.
    10030    2    1    2    0    0  0.00000000000E+00  0.00000000000E+00 -0.37449174909E+03  0.27661928414E+04  0.27407259559E+04 0.  0.
        4    1    3    3  502    0 -0.91556492186E+03 -0.82056242918E+03  0.42361452227E+03  0.13003971327E+04  0.12699999809E+01 0.  1.
       -4    1    3    3    0  502  0.91556492186E+03  0.82056242918E+03 -0.79810627136E+03  0.14657957087E+04  0.12699999809E+01 0. -1.
</event>
<event>
 5   0  0.3807334E-06  0.2684348E+04  0.7818609E-02  0.8340101E-01
        1   -1    0    0  501    0  0.00000000000E+00  0.00000000000E+00  0.13024500793E+04  0.13024500793E+04  0.50400001928E-02 0.  1.
       -1   -1    0    0    0  501  0.00000000000E+00  0.00000000000E+00 -0.13831097163E+04  0.13831097163E+04  0.50400001928E-02 0. -1.
    10030    2    1    2    0    0  0.00000000000E+00  0.00000000000E+00 -0.80659636992E+02  0.26855597957E+04  0.26843482336E+04 0.  0.
        4    1    3    3  502    0  0.66687371535E+03  0.82545074961E+03  0.78183197369E+03  0.13180866209E+04  0.12699999809E+01 0.  1.
       -4    1    3    3    0  502 -0.66687371535E+03 -0.82545074961E+03 -0.86249161068E+03  0.13674731747E+04  0.12699999809E+01 0. -1.
</event>
<event>
 5   0  0.4250961E-06  0.3068338E+04  0.7818609E-02  0.8224481E-01
        1   -1    0    0  501    0  0.00000000000E+00  0.00000000000E+00  0.14018805598E+04  0.14018805598E+04  0.50400001928E-02 0. -1.
       -1   -1    0    0    0  501  0.00000000000E+00  0.00000000000E+00 -0.16789413823E+04  0.16789413823E+04  0.50400001928E-02 0.  1.
    10030    2    1    2    0    0  0.00000000000E+00  0.00000000000E+00 -0.27706082244E+03  0.30808219421E+04  0.30683384982E+04 0.  0.
        1    1    3    3  502    0  0.13065699315E+04  0.22580281859E+02 -0.94556691351E+03  0.16129884199E+04  0.50400001928E-02 0.  1.
       -1    1    3    3    0  502 -0.13065699315E+04 -0.22580281859E+02  0.66850609106E+03  0.14678335222E+04  0.50400001928E-02 0. -1.
</event>
<event>
 5   0  0.9797278E-06  0.3309741E+04  0.7818609E-02  0.8160421E-01
       -2   -1    0    0    0  501  0.00000000000E+00  0.00000000000E+00  0.16627376756E+04  0.16627376756E+04  0.25500000920E-02 0.  1.
        2   -1    0    0  501    0  0.00000000000E+00  0.00000000000E+00 -0.16470408723E+04  0.16470408724E+04  0.25500000920E-02 0. -1.
    10030    2    1    2    0    0  0.00000000000E+00  0.00000000000E+00  0.15696803249E+02  0.33097785480E+04  0.33097413263E+04 0.  0.
        1    1    3    3  502    0 -0.65726895494E+03 -0.11610345277E+02  0.15265687544E+04  0.16620918871E+04  0.50400001928E-02 0.  1.
       -1    1    3    3    0  502  0.65726895494E+03  0.11610345277E+02 -0.15108719512E+04  0.16476866608E+04  0.50400001928E-02 0. -1.
</event>
<event>
 5   0  0.4139628E-06  0.3292743E+04  0.7818609E-02  0.8164744E-01
       -1   -1    0    0    0  501  0.00000000000E+00  0.00000000000E+00  0.15897563960E+04  0.15897563960E+04  0.50400001928E-02 0.  1.
        1   -1    0    0  501    0  0.00000000000E+00  0.00000000000E+00 -0.17050030856E+04  0.17050030856E+04  0.50400001928E-02 0. -1.
    10030    2    1    2    0    0  0.00000000000E+00  0.00000000000E+00 -0.11524668953E+03  0.32947594816E+04  0.32927432700E+04 0.  0.
        5    1    3    3  502    0  0.16418366545E+04 -0.10051783710E+03  0.11600191889E+02  0.16449583855E+04  0.46999998093E+01 0. -1.
       -5    1    3    3    0  502 -0.16418366545E+04  0.10051783710E+03 -0.12684688142E+03  0.16498010961E+04  0.46999998093E+01 0.  1.
</event>
<event>
 5   0  0.1108153E-05  0.2913320E+04  0.7818609E-02  0.8268925E-01
       -2   -1    0    0    0  501  0.00000000000E+00  0.00000000000E+00  0.24715788783E+04  0.24715788783E+04  0.25500000920E-02 0. -1.
        2   -1    0    0  501    0  0.00000000000E+00  0.00000000000E+00 -0.85850315281E+03  0.85850315281E+03  0.25500000920E-02 0.  1.
    10030    2    1    2    0    0  0.00000000000E+00  0.00000000000E+00  0.16130757255E+04  0.33300820311E+04  0.29133199340E+04 0.  0.
        4    1    3    3  502    0  0.83910410873E+03 -0.11441273623E+04  0.42961847653E+03  0.14824630770E+04  0.12699999809E+01 0.  1.
       -4    1    3    3    0  502 -0.83910410873E+03  0.11441273623E+04  0.11834572490E+04  0.18476189541E+04  0.12699999809E+01 0. -1.
</event>
<event>
 5   0  0.9797278E-06  0.3025359E+04  0.7818609E-02  0.8236526E-01
        2   -1    0    0  501    0  0.00000000000E+00  0.00000000000E+00  0.20011646190E+04  0.20011646190E+04  0.25500000920E-02 0. -1.
       -2   -1    0    0    0  501  0.00000000000E+00  0.00000000000E+00 -0.11434336797E+04  0.11434336797E+04  0.25500000920E-02 0.  1.
    10030    2    1    2    0    0  0.00000000000E+00  0.00000000000E+00  0.85773093931E+03  0.31445982987E+04  0.30253588376E+04 0.  0.
        1    1    3    3  502    0 -0.30926294168E+03 -0.14727286075E+04  0.58863078931E+03  0.16158772616E+04  0.50400001928E-02 0. -1.
       -1    1    3    3    0  502  0.30926294168E+03  0.14727286075E+04  0.26910015001E+03  0.15287210371E+04  0.50400001928E-02 0.  1.
</event>
<event>
 5   0  0.1007567E-05  0.2841081E+04  0.7818609E-02  0.8290627E-01
        2   -1    0    0  501    0  0.00000000000E+00  0.00000000000E+00  0.16927892641E+04  0.16927892641E+04  0.25500000920E-02 0. -1.
       -2   -1    0    0    0  501  0.00000000000E+00  0.00000000000E+00 -0.11920773331E+04  0.11920773331E+04  0.25500000920E-02 0.  1.
    10030    2    1    2    0    0  0.00000000000E+00  0.00000000000E+00  0.50071193106E+03  0.28848665972E+04  0.28410812811E+04 0.  0.
        3    1    3    3  502    0  0.58543064133E+03 -0.70266264716E+03  0.13540628953E+04  0.16339982149E+04  0.10100000352E+00 0. -1.
       -3    1    3    3    0  502 -0.58543064133E+03  0.70266264716E+03 -0.85335096425E+03  0.12508683823E+04  0.10100000352E+00 0.  1.
</event>
<event>
 5   0  0.1119100E-05  0.3077718E+04  0.7818609E-02  0.8221880E-01
        2   -1    0    0  501    0  0.00000000000E+00  0.00000000000E+00  0.17651524277E+04  0.17651524277E+04  0.25500000920E-02 0.  1.
       -2   -1    0    0    0  501  0.00000000000E+00  0.00000000000E+00 -0.13415764152E+04  0.13415764152E+04  0.25500000920E-02 0. -1.
    10030    2    1    2    0    0  0.00000000000E+00  0.00000000000E+00  0.42357601246E+03  0.31067288429E+04  0.30777178988E+04 0.  0.
        2    1    3    3  502    0  0.14447048176E+03 -0.26032192620E+01 -0.13347135513E+04  0.13425121082E+04  0.25500000920E-02 0. -1.
       -2    1    3    3    0  502 -0.14447048176E+03  0.26032192620E+01  0.17582895637E+04  0.17642167346E+04  0.25500000920E-02 0.  1.
</event>
<event>
 5   0  0.9797278E-06  0.2578253E+04  0.7818609E-02  0.8375626E-01
       -2   -1    0    0    0  501  0.00000000000E+00  0.00000000000E+00  0.70517366250E+03  0.70517366250E+03  0.25500000920E-02 0. -1.
        2   -1    0    0  501    0  0.00000000000E+00  0.00000000000E+00 -0.23566487378E+04  0.23566487378E+04  0.25500000920E-02 0.  1.
    10030    2    1    2    0    0  0.00000000000E+00  0.00000000000E+00 -0.16514750753E+04  0.30618224003E+04  0.25782526033E+04 0.  0.
        1    1    3    3  502    0 -0.12268170154E+04 -0.17672508423E+03 -0.40497532379E+03  0.13039619464E+04  0.50400001928E-02 0. -1.
       -1    1    3    3    0  502  0.12268170154E+04  0.17672508423E+03 -0.12464997515E+04  0.17578604539E+04  0.50400001928E-02 0.  1.
</event>
<event>
 5   0  0.1001961E-05  0.3143879E+04  0.7818609E-02  0.8203798E-01
        2   -1    0    0  501    0  0.00000000000E+00  0.00000000000E+00  0.15518060811E+04  0.15518060811E+04  0.25500000920E-02 0.  1.
       -2   -1    0    0    0  501  0.00000000000E+00  0.00000000000E+00 -0.15923338738E+04  0.15923338738E+04  0.25500000920E-02 0. -1.
    10030    2    1    2    0    0  0.00000000000E+00  0.00000000000E+00 -0.40527792730E+02  0.31441399548E+04  0.31438787435E+04 0.  0.
        5    1    3    3  502    0  0.43278925025E+03 -0.64167760765E+02  0.14896785108E+04  0.15526069020E+04  0.46999998093E+01 0.  1.
       -5    1    3    3    0  502 -0.43278925025E+03  0.64167760765E+02 -0.15302063036E+04  0.15915330528E+04  0.46999998093E+01 0. -1.
</event>
<event>
 5   0  0.1119100E-05  0.2982175E+04  0.7818609E-02  0.8248839E-01
        2   -1    0    0  501    0  0.00000000000E+00  0.00000000000E+00  0.93034329062E+03  0.93034329063E+03  0.25500000920E-02 0. -1.
       -2   -1    0    0    0  501  0.00000000000E+00  0.00000000000E+00 -0.23898088409E+04  0.23898088409E+04  0.25500000920E-02 0.  1.
    10030    2    1    2    0    0  0.00000000000E+00  0.00000000000E+00 -0.14594655502E+04  0.33201521315E+04  0.29821754616E+04 0.  0.
        2    1    3    3  502    0 -0.14793900635E+04  0.82148693569E+01 -0.52240120156E+03  0.15689376850E+04  0.25500000920E-02 0. -1.
       -2    1    3    3    0  502  0.14793900635E+04 -0.82148693569E+01 -0.93706434868E+03  0.17512144465E+04  0.25500000920E-02 0.  1.
</event>
<event>
 5   0  0.3838525E-06  0.3105203E+04  0.7818609E-02  0.8214311E-01
       -1   -1    0    0    0  501  0.00000000000E+00  0.00000000000E+00  0.12502252044E+04  0.12502252044E+04  0.50400001928E-02 0. -1.
        1   -1    0    0  501    0  0.00000000000E+00  0.00000000000E+00 -0.19281098012E+04  0.19281098012E+04  0.50400001928E-02 0.  1.
    10030    2    1    2    0    0  0.00000000000E+00  0.00000000000E+00 -0.67788459682E+03  0.31783350056E+04  0.31052030338E+04 0.  0.
        3    1    3    3  502    0  0.47581965894E+03  0.11540534319E+04  0.60601676190E+03  0.13876238674E+04  0.10100000352E+00 0. -1.
       -3    1    3    3    0  502 -0.47581965894E+03 -0.11540534319E+04 -0.12839013587E+04  0.17907111382E+04  0.10100000352E+00 0.  1.
</event>
<event>
 5   0  0.4250961E-06  0.3001547E+04  0.7818609E-02  0.8243289E-01
        1   -1    0    0  501    0  0.00000000000E+00  0.00000000000E+00  0.19479922427E+04  0.19479922427E+04  0.50400001928E-02 0.  1.
       -1   -1    0    0    0  501  0.00000000000E+00  0.00000000000E+00 -0.11562267069E+04  0.11562267069E+04  0.50400001928E-02 0. -1.
    10030    2    1    2    0    0  0.00000000000E+00  0.00000000000E+00  0.79176553583E+03  0.31042189496E+04  0.30015467052E+04 0.  0.
        1    1    3    3  502    0 -0.18379690435E+03 -0.13872006712E+04  0.95685149421E+03  0.16951907817E+04  0.50400001928E-02 0.  1.
       -1    1    3    3    0  502  0.18379690435E+03  0.13872006712E+04 -0.16508595838E+03  0.14090281679E+04  0.50400001928E-02 0. -1.
</event>
<event>
 5   0  0.1108153E-05  0.2942457E+04  0.7818609E-02  0.8260356E-01
       -2   -1    0    0    0  501  0.00000000000E+00  0.00000000000E+00  0.11395403537E+04  0.11395403537E+04  0.25500000920E-02 0. -1.
        2   -1    0    0  501    0  0.00000000000E+00  0.00000000000E+00 -0.18994613671E+04  0.18994613671E+04  0.25500000920E-02 0.  1.
    10030    2    1    2    0    0  0.00000000000E+00  0.00000000000E+00 -0.75992101333E+03  0.30390017208E+04  0.29424567138E+04 0.  0.
        4    1    3    3  502    0  0.57924139755E+03 -0.62689338555E+03  0.85768816584E+03  0.12100192214E+04  0.12699999809E+01 0. -1.
       -4    1    3    3    0  502 -0.57924139755E+03  0.62689338555E+03 -0.16176091792E+04  0.18289824994E+04  0.12699999809E+01 0.  1.
</event>
<event>
 5   0  0.1001961E-05  0.2957660E+04  0.7818609E-02  0.8255926E-01
        2   -1    0    0  501    0  0.00000000000E+00  0.00000000000E+00  0.27413271504E+04  0.27413271504E+04  0.25500000920E-02 0.  1.
       -2   -1    0    0    0  501  0.00000000000E+00  0.00000000000E+00 -0.79776598336E+03  0.79776598337E+03  0.25500000920E-02 0. -1.
    10030    2    1    2    0    0  0.00000000000E+00  0.00000000000E+00  0.19435611670E+04  0.35390931338E+04  0.29576595814E+04 0.  0.
        5    1    3    3  502    0  0.48802602904E+03 -0.27864262145E+02  0.26418514377E+04  0.26866981466E+04  0.46999998093E+01 0.  1.
       -5    1    3    3    0  502 -0.48802602904E+03  0.27864262145E+02 -0.69829027064E+03  0.85239498719E+03  0.46999998093E+01 0. -1.
</event>
<event>
 5   0  0.1001961E-05  0.2556628E+04  0.7818609E-02  0.8383085E-01
       -2   -1    0    0    0  501  0.00000000000E+00  0.00000000000E+00  0.58732165604E+03  0.58732165604E+03  0.25500000920E-02 0.  1.
        2   -1    0    0  501    0  0.00000000000E+00  0.00000000000E+00 -0.27822680724E+04  0.27822680724E+04  0.25500000920E-02 0. -1.
    10030    2    1    2    0    0  0.00000000000E+00  0.00000000000E+00 -0.21949464164E+04  0.33695897285E+04  0.25566276943E+04 0.  0.
        5    1    3    3  502    0 -0.10385123491E+04 -0.72656939854E+03 -0.13166438232E+04  0.18275623210E+04  0.46999998093E+01 0.  1.
       -5    1    3    3    0  502  0.10385123491E+04  0.72656939854E+03 -0.87830259322E+03  0.15420274075E+04  0.46999998093E+01 0. -1.
</event>
<event>
 5   0  0.3807334E-06  0.2160945E+04  0.7818609E-02  0.8534862E-01
       -1   -1    0    0    0  501  0.00000000000E+00  0.00000000000E+00  0.12447499972E+04  0.12447499972E+04  0.50400001928E-02 0.  1.
        1   -1    0    0  501    0  0.00000000000E+00  0.00000000000E+00 -0.93787533587E+03  0.93787533588E+03  0.50400001928E-02 0. -1.
    10030    2    1    2    0    0  0.00000000000E+00  0.00000000000E+00  0.30687466136E+03  0.21826253331E+04  0.21609445358E+04 0.  0.
        4    1    3    3  502    0  0.19908686619E+03  0.47871513522E+03 -0.80402653036E+03  0.95669432705E+03  0.12699999809E+01 0. -1.
       -4    1    3    3    0  502 -0.19908686619E+03 -0.47871513522E+03  0.11109011917E+04  0.12259310061E+04  0.12699999809E+01 0.  1.
</event>
<event>
 5   0  0.4139628E-06  0.2777850E+04  0.7818609E-02  0.8310178E-01
        1   -1    0    0  501    0  0.00000000000E+00  0.00000000000E+00  0.29115095979E+04  0.29115095979E+04  0.50400001928E-02 0. -1.
       -1   -1    0    0    0  501  0.00000000000E+00  0.00000000000E+00 -0.66258168127E+03  0.66258168129E+03  0.50400001928E-02 0.  1.
    10030    2    1    2    0    0  0.00000000000E+00  0.00000000000E+00  0.22489279166E+04  0.35740912792E+04  0.27778501936E+04 0.  0.
        5    1    3    3  502    0  0.83987237225E+03 -0.19976227898E+03 -0.27543288808E+03  0.90618758301E+03  0.46999998093E+01 0.  1.
       -5    1    3    3    0  502 -0.83987237225E+03  0.19976227898E+03  0.25243608047E+04  0.26679036962E+04  0.46999998093E+01 0. -1.
</event>
<event>
 5   0  0.9797278E-06  0.3018889E+04  0.7818609E-02  0.8238358E-01
       -2   -1    0    0    0  501  0.00000000000E+00  0.00000000000E+00  0.10496305258E+04  0.10496305258E+04  0.25500000920E-02 0.  1.
        2   -1    0    0  501    0  0.00000000000E+00  0.00000000000E+00 -0.21706898089E+04  0.21706898089E+04  0.25500000920E-02 0. -1.
    10030    2    1    2    0    0  0.00000000000E+00  0.00000000000E+00 -0.11210592831E+04  0.32203203346E+04  0.30188887263E+04 0.  0.
        1    1    3    3  502    0 -0.14713570664E+03  0.21542891789E+03  0.10253997346E+04  0.10580657591E+04  0.50400001928E-02 0.  1.
       -1    1    3    3    0  502  0.14713570664E+03 -0.21542891789E+03 -0.21464590177E+04  0.21622545755E+04  0.50400001928E-02 0. -1.
</event>
<event>
 5   0  0.1108153E-05  0.3084515E+04  0.7818609E-02  0.8220001E-01
        2   -1    0    0  501    0  0.00000000000E+00  0.00000000000E+00  0.16331251511E+04  0.16331251511E+04  0.25500000920E-02 0. -1.
       -2   -1    0    0    0  501  0.00000000000E+00  0.00000000000E+00 -0.14564454352E+04  0.14564454352E+04  0.25500000920E-02 0.  1.
    10030    2    1    2    0    0  0.00000000000E+00  0.00000000000E+00  0.17667971585E+03  0.30895705863E+04  0.30845146597E+04 0.  0.
        4    1    3    3  502    0 -0.57419739719E+03 -0.80901413061E+03 -0.10944214604E+04  0.14771480835E+04  0.12699999809E+01 0.  1.
       -4    1    3    3    0  502  0.57419739719E+03  0.80901413061E+03  0.12711011763E+04  0.16124225029E+04  0.12699999809E+01 0. -1.
</event>
<event>
 5   0  0.1108153E-05  0.3213557E+04  0.7818609E-02  0.8185246E-01
        2   -1    0    0  501    0  0.00000000000E+00  0.00000000000E+00  0.31423320019E+04  0.31423320019E+04  0.25500000920E-02 0. -1.
       -2   -1    0    0    0  501  0.00000000000E+00  0.00000000000E+00 -0.82159910924E+03  0.82159910924E+03  0.25500000920E-02 0.  1.
    10030    2    1    2    0    0  0.00000000000E+00  0.00000000000E+00  0.23207328926E+04  0.39639311111E+04  0.32135570159E+04 0.  0.
        4    1    3    3  502    0  0.96788315072E+03  0.70033039369E+03 -0.16498902450E+03  0.12060196702E+04  0.12699999809E+01 0.  1.
       -4    1    3    3    0  502 -0.96788315072E+03 -0.70033039369E+03  0.24857219171E+04  0.27579114409E+04  0.12699999809E+01 0. -1.
</event>
<event>
 5   0  0.1119100E-05  0.2957514E+04  0.7818609E-02  0.8255968E-01
       -2   -1    0    0    0  501  0.00000000000E+00  0.00000000000E+00  0.10410252561E+04  0.10410252561E+04  0.25500000920E-02 0. -1.
        2   -1    0    0  501    0  0.00000000000E+00  0.00000000000E+00 -0.21005464028E+04  0.21005464028E+04  0.25500000920E-02 0.  1.
    10030    2    1    2    0    0  0.00000000000E+00  0.00000000000E+00 -0.10595211467E+04  0.31415716589E+04  0.29575137240E+04 0.  0.
        2    1    3    3  502    0  0.76663148209E+03  0.23982579636E+03  0.78907112344E+03  0.11259988809E+04  0.25500000920E-02 0. -1.
       -2    1    3    3    0  502 -0.76663148209E+03 -0.23982579636E+03 -0.18485922702E+04  0.20155727780E+04  0.25500000920E-02 0.  1.
</event>
<event>
 5   0  0.3848286E-06  0.1997467E+04  0.7818609E-02  0.8607806E-01
       -1   -1    0    0    0  501  0.00000000000E+00  0.00000000000E+00  0.11026984393E+04  0.11026984393E+04  0.50400001928E-02 0. -1.
        1   -1    0    0  501    0  0.00000000000E+00  0.00000000000E+00 -0.90457043762E+03  0.90457043763E+03  0.50400001928E-02 0.  1.
    10030    2    1    2    0    0  0.00000000000E+00  0.00000000000E+00  0.19812800167E+03  0.20072688769E+04  0.19974668056E+04 0.  0.
        2    1    3    3  502    0  0.10879669150E+03  0.81461476447E+03  0.66932958662E+03  0.10599226529E+04  0.25500000920E-02 0.  1.
       -2    1    3    3    0  502 -0.10879669150E+03 -0.81461476447E+03 -0.47120158494E+03  0.94734622406E+03  0.25500000920E-02 0. -1.
</event>
<event>
 5   0  0.3838525E-06  0.3082382E+04  0.7818609E-02  0.8220590E-01
       -1   -1    0    0    0  501  0.00000000000E+00  0.00000000000E+00  0.11271482096E+04  0.11271482096E+04  0.50400001928E-02 0.  1.
        1   -1    0    0  501    0  0.00000000000E+00  0.00000000000E+00 -0.21073270165E+04  0.21073270165E+04  0.50400001928E-02 0. -1.
    10030    2    1    2    0    0  0.00000000000E+00  0.00000000000E+00 -0.98017880692E+03  0.32344752262E+04  0.30823821137E+04 0.  0.
        3    1    3    3  502    0 -0.14937187959E+04 -0.29884886276E+03 -0.24452666142E+03  0.15428220190E+04  0.10100000352E+00 0.  1.
       -3    1    3    3    0  502  0.14937187959E+04  0.29884886276E+03 -0.73565214550E+03  0.16916532072E+04  0.10100000352E+00 0. -1.
</event>
<event>
 5   0  0.1001961E-05  0.1667324E+04  0.7818609E-02  0.8780223E-01
       -2   -1    0    0    0  501  0.00000000000E+00  0.00000000000E+00  0.32391570790E+03  0.32391570791E+03  0.25500000920E-02 0.  1.
        2   -1    0    0  501    0  0.00000000000E+00  0.00000000000E+00 -0.21455973825E+04  0.21455973825E+04  0.25500000920E-02 0. -1.
    10030    2    1    2    0    0  0.00000000000E+00  0.00000000000E+00 -0.18216816746E+04  0.24695130904E+04  0.16673244376E+04 0.  0.
        5    1    3    3  502    0 -0.59900686517E+03 -0.46526474880E+03 -0.39842762278E+03  0.85676552895E+03  0.46999998093E+01 0.  1.
       -5    1    3    3    0  502  0.59900686517E+03  0.46526474880E+03 -0.14232540518E+04  0.16127475614E+04  0.46999998093E+01 0. -1.
</event>
<event>
 5   0  0.9797278E-06  0.3099740E+04  0.7818609E-02  0.8215809E-01
        2   -1    0    0  501    0  0.00000000000E+00  0.00000000000E+00  0.20913318557E+04  0.20913318557E+04  0.25500000920E-02 0.  1.
       -2   -1    0    0    0  501  0.00000000000E+00  0.00000000000E+00 -0.11485965331E+04  0.11485965331E+04  0.25500000920E-02 0. -1.
    10030    2    1    2    0    0  0.00000000000E+00  0.00000000000E+00  0.94273532261E+03  0.32399283888E+04  0.30997396788E+04 0.  0.
        1    1    3    3  502    0 -0.12971947944E+03 -0.11285577055E+03  0.20813322175E+04  0.20884222198E+04  0.50400001928E-02 0.  1.
       -1    1    3    3    0  502  0.12971947944E+03  0.11285577055E+03 -0.11385968949E+04  0.11515061691E+04  0.50400001928E-02 0. -1.
</event>
<event>
 5   0  0.3807334E-06  0.1666129E+04  0.7818609E-02  0.8780922E-01
       -1   -1    0    0    0  501  0.00000000000E+00  0.00000000000E+00  0.46176494637E+03  0.46176494640E+03  0.50400001928E-02 0. -1.
        1   -1    0    0  501    0  0.00000000000E+00  0.00000000000E+00 -0.15029209297E+04  0.15029209297E+04  0.50400001928E-02 0.  1.
    10030    2    1    2    0    0  0.00000000000E+00  0.00000000000E+00 -0.10411559833E+04  0.19646858761E+04  0.16661286896E+04 0.  0.
        4    1    3    3  502    0  0.14092618562E+03  0.21577122303E+03  0.41357530711E+03  0.48730232714E+03  0.12699999809E+01 0. -1.
       -4    1    3    3    0  502 -0.14092618562E+03 -0.21577122303E+03 -0.14547312905E+04  0.14773835490E+04  0.12699999809E+01 0.  1.
</event>
<event>
 5   0  0.3838525E-06  0.3095475E+04  0.7818609E-02  0.8216981E-01
        1   -1    0    0  501    0  0.00000000000E+00  0.00000000000E+00  0.26401364963E+04  0.26401364963E+04  0.50400001928E-02 0. -1.
       -1   -1    0    0    0  501  0.00000000000E+00  0.00000000000E+00 -0.90733626276E+03  0.90733626277E+03  0.50400001928E-02 0.  1.
    10030    2    1    2    0    0  0.00000000000E+00  0.00000000000E+00  0.17328002336E+04  0.35474727591E+04  0.30954751375E+04 0.  0.
        3    1    3    3  502    0 -0.77394917534E+03 -0.11450151925E+04  0.67932976795E+02  0.13837167400E+04  0.10100000352E+00 0.  1.
       -3    1    3    3    0  502  0.77394917534E+03  0.11450151925E+04  0.16648672568E+04  0.21637560191E+04  0.10100000352E+00 0. -1.
</event>
<event>
 5   0  0.1001961E-05  0.2573597E+04  0.7818609E-02  0.8377225E-01
       -2   -1    0    0    0  501  0.00000000000E+00  0.00000000000E+00  0.34785768807E+04  0.34785768807E+04  0.25500000920E-02 0. -1.
        2   -1    0    0  501    0  0.00000000000E+00  0.00000000000E+00 -0.47601392125E+03  0.47601392126E+03  0.25500000920E-02 0.  1.
    10030    2    1    2    0    0  0.00000000000E+00  0.00000000000E+00  0.30025629594E+04  0.39545908019E+04  0.25735974987E+04 0.  0.
        5    1    3    3  502    0  0.64100542538E+03 -0.80534015657E+03  0.31464370885E+03  0.10763287029E+04  0.46999998093E+01 0.  1.
       -5    1    3    3    0  502 -0.64100542538E+03  0.80534015657E+03  0.26879192506E+04  0.28782620990E+04  0.46999998093E+01 0. -1.
</event>
<event>
 5   0  0.1001961E-05  0.3097065E+04  0.7818609E-02  0.8216544E-01
        2   -1    0    0  501    0  0.00000000000E+00  0.00000000000E+00  0.26121362613E+04  0.26121362613E+04  0.25500000920E-02 0. -1.
       -2   -1    0    0    0  501  0.00000000000E+00  0.00000000000E+00 -0.91800455262E+03  0.91800455262E+03  0.25500000920E-02 0.  1.
    10030    2    1    2    0    0  0.00000000000E+00  0.00000000000E+00  0.16941317087E+04  0.35301408139E+04  0.30970650493E+04 0.  0.
        5    1    3    3  502    0  0.41392509231E+03  0.12505595104E+04 -0.80830509350E+02  0.13197684389E+04  0.46999998093E+01 0. -1.
       -5    1    3    3    0  502 -0.41392509231E+03 -0.12505595104E+04  0.17749622180E+04  0.22103723751E+04  0.46999998093E+01 0.  1.
</event>
<event>
 5   0  0.1119100E-05  0.2846894E+04  0.7818609E-02  0.8288856E-01
       -2   -1    0    0    0  501  0.00000000000E+00  0.00000000000E+00  0.97645209454E+03  0.97645209454E+03  0.25500000920E-02 0. -1.
        2   -1    0    0  501    0  0.00000000000E+00  0.00000000000E+00 -0.20750648348E+04  0.20750648348E+04  0.25500000920E-02 0.  1.
    10030    2    1    2    0    0  0.00000000000E+00  0.00000000000E+00 -0.10986127403E+04  0.30515169293E+04  0.28468940298E+04 0.  0.
        2    1    3    3  502    0 -0.84601695233E+03  0.10843210632E+04 -0.15590522597E+03  0.13841254608E+04  0.25500000920E-02 0. -1.
       -2    1    3    3    0  502  0.84601695233E+03 -0.10843210632E+04 -0.94270751430E+03  0.16673914685E+04  0.25500000920E-02 0.  1.
</event>
<event>
 5   0  0.9797278E-06  0.2995858E+04  0.7818609E-02  0.8244915E-01
        2   -1    0    0  501    0  0.00000000000E+00  0.00000000000E+00  0.13742037416E+04  0.13742037416E+04  0.25500000920E-02 0. -1.
       -2   -1    0    0    0  501  0.00000000000E+00  0.00000000000E+00 -0.16327935026E+04  0.16327935026E+04  0.25500000920E-02 0.  1.
    10030    2    1    2    0    0  0.00000000000E+00  0.00000000000E+00 -0.25858976100E+03  0.30069972443E+04  0.29958577674E+04 0.  0.
        1    1    3    3  502    0 -0.37186727469E+03  0.13224384607E+04  0.47013774161E+03  0.14519498092E+04  0.50400001928E-02 0.  1.
       -1    1    3    3    0  502  0.37186727469E+03 -0.13224384607E+04 -0.72872750261E+03  0.15550474351E+04  0.50400001928E-02 0. -1.
</event>
<event>
 5   0  0.4250961E-06  0.3106129E+04  0.7818609E-02  0.8214058E-01
        1   -1    0    0  501    0  0.00000000000E+00  0.00000000000E+00  0.14959909913E+04  0.14959909913E+04  0.50400001928E-02 0.  1.
       -1   -1    0    0    0  501  0.00000000000E+00  0.00000000000E+00 -0.16123149299E+04  0.16123149299E+04  0.50400001928E-02 0. -1.
    10030    2    1    2    0    0  0.00000000000E+00  0.00000000000E+00 -0.11632393864E+03  0.31083059212E+04  0.31061285294E+04 0.  0.
        1    1    3    3  502    0  0.24700459594E+03  0.72506076104E+03 -0.14101398438E+04  0.16047488142E+04  0.50400001928E-02 0. -1.
       -1    1    3    3    0  502 -0.24700459594E+03 -0.72506076104E+03  0.12938159051E+04  0.15035571070E+04  0.50400001928E-02 0.  1.
</event>
<event>
 5   0  0.4250961E-06  0.3144131E+04  0.7818609E-02  0.8203730E-01
       -1   -1    0    0    0  501  0.00000000000E+00  0.00000000000E+00  0.13942767847E+04  0.13942767847E+04  0.50400001928E-02 0. -1.
        1   -1    0    0  501    0  0.00000000000E+00  0.00000000000E+00 -0.17725248841E+04  0.17725248842E+04  0.50400001928E-02 0.  1.
    10030    2    1    2    0    0  0.00000000000E+00  0.00000000000E+00 -0.37824809944E+03  0.31668016689E+04  0.31441312290E+04 0.  0.
        1    1    3    3  502    0  0.74914238561E+03 -0.70974671527E+03  0.10053593640E+04  0.14407297333E+04  0.50400001928E-02 0. -1.
       -1    1    3    3    0  502 -0.74914238561E+03  0.70974671527E+03 -0.13836074634E+04  0.17260719355E+04  0.50400001928E-02 0.  1.
</event>
<event>
 5   0  0.3838525E-06  0.3040923E+04  0.7818609E-02  0.8232141E-01
       -1   -1    0    0    0  501  0.00000000000E+00  0.00000000000E+00  0.14013673246E+04  0.14013673246E+04  0.50400001928E-02 0. -1.
        1   -1    0    0  501    0  0.00000000000E+00  0.00000000000E+00 -0.16496769724E+04  0.16496769724E+04  0.50400001928E-02 0.  1.
    10030    2    1    2    0    0  0.00000000000E+00  0.00000000000E+00 -0.24830964774E+03  0.30510442970E+04  0.30409231528E+04 0.  0.
        3    1    3    3  502    0 -0.50898687462E+03 -0.81344228588E+03 -0.13075070521E+04  0.16218294277E+04  0.10100000352E+00 0.  1.
       -3    1    3    3    0  502  0.50898687462E+03  0.81344228588E+03  0.10591974044E+04  0.14292148693E+04  0.10100000352E+00 0. -1.
</event>
<event>
 5   0  0.9797278E-06  0.3131277E+04  0.7818609E-02  0.8207206E-01
        2   -1    0    0  501    0  0.00000000000E+00  0.00000000000E+00  0.18800019894E+04  0.18800019894E+04  0.25500000920E-02 0.  1.
       -2   -1    0    0    0  501  0.00000000000E+00  0.00000000000E+00 -0.13038407498E+04  0.13038407498E+04  0.25500000920E-02 0. -1.
    10030    2    1    2    0    0  0.00000000000E+00  0.00000000000E+00  0.57616123955E+03  0.31838427392E+04  0.31312765470E+04 0.  0.
        1    1    3    3  502    0  0.86521923121E+03  0.81596651962E+03 -0.74725545738E+03  0.14045627070E+04  0.50400001928E-02 0. -1.
       -1    1    3    3    0  502 -0.86521923121E+03 -0.81596651962E+03  0.13234166969E+04  0.17792800322E+04  0.50400001928E-02 0.  1.
</event>
<event>
 5   0  0.1108153E-05  0.2877229E+04  0.7818609E-02  0.8279685E-01
       -2   -1    0    0    0  501  0.00000000000E+00  0.00000000000E+00  0.15486342157E+04  0.15486342157E+04  0.25500000920E-02 0. -1.
        2   -1    0    0  501    0  0.00000000000E+00  0.00000000000E+00 -0.13364110288E+04  0.13364110289E+04  0.25500000920E-02 0.  1.
    10030    2    1    2    0    0  0.00000000000E+00  0.00000000000E+00  0.21222318687E+03  0.28850452446E+04  0.28772291153E+04 0.  0.
        4    1    3    3  502    0  0.46314155414E+02  0.44466184558E+02 -0.13349731454E+04  0.13365167992E+04  0.12699999809E+01 0.  1.
       -4    1    3    3    0  502 -0.46314155414E+02 -0.44466184558E+02  0.15471963323E+04  0.15485284454E+04  0.12699999809E+01 0. -1.
</event>
<event>
 5   0  0.3807334E-06  0.3068237E+04  0.7818609E-02  0.8224509E-01
       -1   -1    0    0    0  501  0.00000000000E+00  0.00000000000E+00  0.16860377319E+04  0.16860377319E+04  0.50400001928E-02 0. -1.
        1   -1    0    0  501    0  0.00000000000E+00  0.00000000000E+00 -0.13958881802E+04  0.13958881802E+04  0.50400001928E-02 0.  1.
    10030    2    1    2    0    0  0.00000000000E+00  0.00000000000E+00  0.29014955166E+03  0.30819259121E+04  0.30682373711E+04 0.  0.
        4    1    3    3  502    0 -0.97553678002E+03  0.68116024772E+03  0.11178307823E+04  0.16325435869E+04  0.12699999809E+01 0. -1.
       -4    1    3    3    0  502  0.97553678002E+03 -0.68116024772E+03 -0.82768123066E+03  0.14493823252E+04  0.12699999809E+01 0.  1.
</event>
<event>
 5   0  0.4139628E-06  0.3053059E+04  0.7818609E-02  0.8228740E-01
        1   -1    0    0  501    0  0.00000000000E+00  0.00000000000E+00  0.19267026355E+04  0.19267026355E+04  0.50400001928E-02 0. -1.
       -1   -1    0    0    0  501  0.00000000000E+00  0.00000000000E+00 -0.12094716604E+04  0.12094716604E+04  0.50400001928E-02 0.  1.
    10030    2    1    2    0    0  0.00000000000E+00  0.00000000000E+00  0.71723097510E+03  0.31361742959E+04  0.30530589484E+04 0.  0.
        5    1    3    3  502    0 -0.74365077852E+03 -0.10479483853E+04  0.12050987737E+04  0.17616746133E+04  0.46999998093E+01 0. -1.
       -5    1    3    3    0  502  0.74365077852E+03  0.10479483853E+04 -0.48786779860E+03  0.13744996826E+04  0.46999998093E+01 0.  1.
</event>
<event>
 5   0  0.9797278E-06  0.2186674E+04  0.7818609E-02  0.8523995E-01
       -2   -1    0    0    0  501  0.00000000000E+00  0.00000000000E+00  0.57367323234E+03  0.57367323234E+03  0.25500000920E-02 0. -1.
        2   -1    0    0  501    0  0.00000000000E+00  0.00000000000E+00 -0.20837407995E+04  0.20837407995E+04  0.25500000920E-02 0.  1.
    10030    2    1    2    0    0  0.00000000000E+00  0.00000000000E+00 -0.15100675671E+04  0.26574140318E+04  0.21866744795E+04 0.  0.
        1    1    3    3  502    0  0.45916765784E+03  0.93157208041E+03 -0.11702331982E+04  0.15646428402E+04  0.50400001928E-02 0. -1.
       -1    1    3    3    0  502 -0.45916765784E+03 -0.93157208041E+03 -0.33983436893E+03  0.10927711917E+04  0.50400001928E-02 0.  1.
</event>
<event>
 5   0  0.3838525E-06  0.2998600E+04  0.7818609E-02  0.8244131E-01
        1   -1    0    0  501    0  0.00000000000E+00  0.00000000000E+00  0.23072109330E+04  0.23072109330E+04  0.50400001928E-02 0. -1.
       -1   -1    0    0    0  501  0.00000000000E+00  0.00000000000E+00 -0.97429312194E+03  0.97429312195E+03  0.50400001928E-02 0.  1.
    10030    2    1    2    0    0  0.00000000000E+00  0.00000000000E+00  0.13329178110E+04  0.32815040549E+04  0.29985995017E+04 0.  0.
        3    1    3    3  502    0 -0.11791786017E+04  0.93970168794E+02 -0.34165087452E+03  0.12312667857E+04  0.10100000352E+00 0.  1.
       -3    1    3    3    0  502  0.11791786017E+04 -0.93970168794E+02  0.16745686856E+04  0.20502372692E+04  0.10100000352E+00 0. -1.
</event>
<event>
 5   0  0.1119100E-05  0.2670333E+04  0.7818609E-02  0.8344696E-01
        2   -1    0    0  501    0  0.00000000000E+00  0.00000000000E+00  0.16035696034E+04  0.16035696034E+04  0.25500000920E-02 0. -1.
       -2   -1    0    0    0  501  0.00000000000E+00  0.00000000000E+00 -0.11116882022E+04  0.11116882022E+04  0.25500000920E-02 0.  1.
    10030    2    1    2    0    0  0.00000000000E+00  0.00000000000E+00  0.49188140115E+03  0.27152578056E+04  0.26703328703E+04 0.  0.
        2    1    3    3  502    0  0.81743748902E+03 -0.93921536868E+03  0.73606645483E+03  0.14464174305E+04  0.25500000920E-02 0. -1.
       -2    1    3    3    0  502 -0.81743748902E+03  0.93921536868E+03 -0.24418505368E+03  0.12688403752E+04  0.25500000920E-02 0.  1.
</event>
<event>
 5   0  0.1119100E-05  0.3087248E+04  0.7818609E-02  0.8219246E-01
       -2   -1    0    0    0  501  0.00000000000E+00  0.00000000000E+00  0.14611620123E+04  0.14611620123E+04  0.25500000920E-02 0. -1.
        2   -1    0    0  501    0  0.00000000000E+00  0.00000000000E+00 -0.16307399684E+04  0.16307399684E+04  0.25500000920E-02 0.  1.
    10030    2    1    2    0    0  0.00000000000E+00  0.00000000000E+00 -0.16957795619E+03  0.30919019807E+04  0.30872481557E+04 0.  0.
        2    1    3    3  502    0  0.11951564645E+04 -0.76014067525E+03  0.52978291794E+03  0.15122442795E+04  0.25500000920E-02 0. -1.
       -2    1    3    3    0  502 -0.11951564645E+04  0.76014067525E+03 -0.69936087413E+03  0.15796577012E+04  0.25500000920E-02 0.  1.
</event>
<event>
 5   0  0.1108153E-05  0.3011098E+04  0.7818609E-02  0.8240569E-01
        2   -1    0    0  501    0  0.00000000000E+00  0.00000000000E+00  0.90139010507E+03  0.90139010507E+03  0.25500000920E-02 0.  1.
       -2   -1    0    0    0  501  0.00000000000E+00  0.00000000000E+00 -0.25146471482E+04  0.25146471482E+04  0.25500000920E-02 0. -1.
    10030    2    1    2    0    0  0.00000000000E+00  0.00000000000E+00 -0.16132570431E+04  0.34160372532E+04  0.30110981765E+04 0.  0.
        4    1    3    3  502    0 -0.97677873993E+03  0.44511182952E+03 -0.20042759578E+04  0.22736193559E+04  0.12699999809E+01 0. -1.
       -4    1    3    3    0  502  0.97677873993E+03 -0.44511182952E+03  0.39101891472E+03  0.11424178973E+04  0.12699999809E+01 0.  1.
</event>
<event>
 5   0  0.1007567E-05  0.3061031E+04  0.7818609E-02  0.8226515E-01
        2   -1    0    0  501    0  0.00000000000E+00  0.00000000000E+00  0.17057655452E+04  0.17057655452E+04  0.25500000920E-02 0. -1.
       -2   -1    0    0    0  501  0.00000000000E+00  0.00000000000E+00 -0.13732702547E+04  0.13732702547E+04  0.25500000920E-02 0.  1.
    10030    2    1    2    0    0  0.00000000000E+00  0.00000000000E+00  0.33249529051E+03  0.30790357999E+04  0.30610306007E+04 0.  0.
        3    1    3    3  502    0 -0.24151144808E+03  0.14208010597E+04 -0.35202438588E+03  0.14835513504E+04  0.10100000352E+00 0. -1.
       -3    1    3    3    0  502  0.24151144808E+03 -0.14208010597E+04  0.68451967639E+03  0.15954844495E+04  0.10100000352E+00 0.  1.
</event>
<event>
 5   0  0.9797278E-06  0.2341760E+04  0.7818609E-02  0.8461635E-01
       -2   -1    0    0    0  501  0.00000000000E+00  0.00000000000E+00  0.72518669093E+03  0.72518669094E+03  0.25500000920E-02 0.  1.
        2   -1    0    0  501    0  0.00000000000E+00  0.00000000000E+00 -0.18904928911E+04  0.18904928911E+04  0.25500000920E-02 0. -1.
    10030    2    1    2    0    0  0.00000000000E+00  0.00000000000E+00 -0.11653062001E+04  0.26156795820E+04  0.23417602643E+04 0.  0.
        1    1    3    3  502    0  0.72657010177E+03  0.91542929880E+03 -0.66199244671E+03  0.13431861053E+04  0.50400001928E-02 0.  1.
       -1    1    3    3    0  502 -0.72657010177E+03 -0.91542929880E+03 -0.50331375342E+03  0.12724934767E+04  0.50400001928E-02 0. -1.
</event>
<event>
 5   0  0.1001961E-05  0.3119456E+04  0.7818609E-02  0.8210419E-01
        2   -1    0    0  501    0  0.00000000000E+00  0.00000000000E+00  0.17671537678E+04  0.17671537678E+04  0.25500000920E-02 0. -1.
       -2   -1    0    0    0  501  0.00000000000E+00  0.00000000000E+00 -0.13766497348E+04  0.13766497348E+04  0.25500000920E-02 0.  1.
    10030    2    1    2    0    0  0.00000000000E+00  0.00000000000E+00  0.39050403308E+03  0.31438035026E+04  0.31194562127E+04 0.  0.
        5    1    3    3  502    0 -0.54556622122E+03 -0.14183307213E+04  0.54931319652E+03  0.16158810645E+04  0.46999998093E+01 0. -1.
       -5    1    3    3    0  502  0.54556622122E+03  0.14183307213E+04 -0.15880916344E+03  0.15279224381E+04  0.46999998093E+01 0.  1.
</event>
<event>
 5   0  0.3807334E-06  0.2980644E+04  0.7818609E-02  0.8249280E-01
        1   -1    0    0  501    0  0.00000000000E+00  0.00000000000E+00  0.17538823397E+04  0.17538823397E+04  0.50400001928E-02 0.  1.
       -1   -1    0    0    0  501  0.00000000000E+00  0.00000000000E+00 -0.12663674324E+04  0.12663674324E+04  0.50400001928E-02 0. -1.
    10030    2    1    2    0    0  0.00000000000E+00  0.00000000000E+00  0.48751490732E+03  0.30202497722E+04  0.29806438736E+04 0.  0.
        4    1    3    3  502    0  0.38512846295E+03 -0.40903029570E+02  0.17019981098E+04  0.17455074246E+04  0.12699999809E+01 0.  1.
       -4    1    3    3    0  502 -0.38512846295E+03  0.40903029570E+02 -0.12144832024E+04  0.12747423476E+04  0.12699999809E+01 0. -1.
</event>
<event>
 5   0  0.4139628E-06  0.3089233E+04  0.7818609E-02  0.8218699E-01
        1   -1    0    0  501    0  0.00000000000E+00  0.00000000000E+00  0.12648666767E+04  0.12648666767E+04  0.50400001928E-02 0.  1.
       -1   -1    0    0    0  501  0.00000000000E+00  0.00000000000E+00 -0.18862387616E+04  0.18862387616E+04  0.50400001928E-02 0. -1.
    10030    2    1    2    0    0  0.00000000000E+00  0.00000000000E+00 -0.62137208486E+03  0.31511054383E+04  0.30892332731E+04 0.  0.
        5    1    3    3  502    0  0.46650506042E+03  0.14420909235E+04 -0.61424561649E+03  0.16354121714E+04  0.46999998093E+01 0. -1.
       -5    1    3    3    0  502 -0.46650506042E+03 -0.14420909235E+04 -0.71264683707E+01  0.15156932670E+04  0.46999998093E+01 0.  1.
</event>
<event>
 5   0  0.1108153E-05  0.3077738E+04  0.7818609E-02  0.8221874E-01
        2   -1    0    0  501    0  0.00000000000E+00  0.00000000000E+00  0.10743889818E+04  0.10743889819E+04  0.25500000920E-02 0. -1.
       -2   -1    0    0    0  501  0.00000000000E+00  0.00000000000E+00 -0.22041535720E+04  0.22041535720E+04  0.25500000920E-02 0.  1.
    10030    2    1    2    0    0  0.00000000000E+00  0.00000000000E+00 -0.11297645901E+04  0.32785425538E+04  0.30777383333E+04 0.  0.
        4    1    3    3  502    0  0.12579897082E+03 -0.17616677484E+02 -0.21985586867E+04  0.22022256106E+04  0.12699999809E+01 0.  1.
       -4    1    3    3    0  502 -0.12579897082E+03  0.17616677484E+02  0.10687940966E+04  0.10763169432E+04  0.12699999809E+01 0. -1.
</event>
<event>
 5   0  0.1119100E-05  0.3098170E+04  0.7818609E-02  0.8216240E-01
        2   -1    0    0  501    0  0.00000000000E+00  0.00000000000E+00  0.23121912566E+04  0.23121912566E+04  0.25500000920E-02 0.  1.
       -2   -1    0    0    0  501  0.00000000000E+00  0.00000000000E+00 -0.10378311594E+04  0.10378311594E+04  0.25500000920E-02 0. -1.
    10030    2    1    2    0    0  0.00000000000E+00  0.00000000000E+00  0.12743600972E+04  0.33500224159E+04  0.30981698678E+04 0.  0.
        2    1    3    3  502    0 -0.12068648094E+04 -0.87577394547E+03  0.10910149992E+04  0.18476515906E+04  0.25500000920E-02 0.  1.
       -2    1    3    3    0  502  0.12068648094E+04  0.87577394547E+03  0.18334509807E+03  0.15023708253E+04  0.25500000920E-02 0. -1.
</event>
<event>
 5   0  0.4139628E-06  0.3344415E+04  0.7818609E-02  0.8151685E-01
        1   -1    0    0  501    0  0.00000000000E+00  0.00000000000E+00  0.99459202557E+03  0.99459202559E+03  0.50400001928E-02 0. -1.
       -1   -1    0    0    0  501  0.00000000000E+00  0.00000000000E+00 -0.28114819824E+04  0.28114819824E+04  0.50400001928E-02 0.  1.
    10030    2    1    2    0    0  0.00000000000E+00  0.00000000000E+00 -0.18168899568E+04  0.38060740080E+04  0.33444147827E+04 0.  0.
        5    1    3    3  502    0 -0.10780771905E+04  0.12179288249E+04 -0.13501659625E+04  0.21138995405E+04  0.46999998093E+01 0. -1.
       -5    1    3    3    0  502  0.10780771905E+04 -0.12179288249E+04 -0.46672399433E+03  0.16921744674E+04  0.46999998093E+01 0.  1.
</event>
<event>
 5   0  0.3848286E-06  0.1950772E+04  0.7818609E-02  0.8629989E-01
       -1   -1    0    0    0  501  0.00000000000E+00  0.00000000000E+00  0.57755000974E+03  0.57755000976E+03  0.50400001928E-02 0. -1.
        1   -1    0    0  501    0  0.00000000000E+00  0.00000000000E+00 -0.16472644083E+04  0.16472644083E+04  0.50400001928E-02 0.  1.
    10030    2    1    2    0    0  0.00000000000E+00  0.00000000000E+00 -0.10697143986E+04  0.22248144181E+04  0.19507717192E+04 0.  0.
        2    1    3    3  502    0 -0.46314868947E+03  0.83818193998E+03 -0.32357008437E+03  0.10108181204E+04  0.25500000920E-02 0. -1.
       -2    1    3    3    0  502  0.46314868947E+03 -0.83818193998E+03 -0.74614431418E+03  0.12139962976E+04  0.25500000920E-02 0.  1.
</event>
<event>
 5   0  0.1001961E-05  0.3115218E+04  0.7818609E-02  0.8211574E-01
        2   -1    0    0  501    0  0.00000000000E+00  0.00000000000E+00  0.18203815335E+04  0.18203815335E+04  0.25500000920E-02 0.  1.
       -2   -1    0    0    0  501  0.00000000000E+00  0.00000000000E+00 -0.13327673411E+04  0.13327673411E+04  0.25500000920E-02 0. -1.
    10030    2    1    2    0    0  0.00000000000E+00  0.00000000000E+00  0.48761419244E+03  0.31531488746E+04  0.31152175244E+04 0.  0.
        5    1    3    3  502    0  0.46961155655E+03 -0.13271073004E+04 -0.43092364938E+03  0.14722316673E+04  0.46999998093E+01 0. -1.
       -5    1    3    3    0  502 -0.46961155655E+03  0.13271073004E+04  0.91853784182E+03  0.16809172072E+04  0.46999998093E+01 0.  1.
</event>
<event>
 5   0  0.3848286E-06  0.1986459E+04  0.7818609E-02  0.8612978E-01
       -1   -1    0    0    0  501  0.00000000000E+00  0.00000000000E+00  0.77211131694E+03  0.77211131696E+03  0.50400001928E-02 0.  1.
        1   -1    0    0  501    0  0.00000000000E+00  0.00000000000E+00 -0.12776712857E+04  0.12776712857E+04  0.50400001928E-02 0. -1.
    10030    2    1    2    0    0  0.00000000000E+00  0.00000000000E+00 -0.50555996879E+03  0.20497826027E+04  0.19864586168E+04 0.  0.
        2    1    3    3  502    0 -0.87384362885E+02 -0.91763049605E+03  0.12890701417E+03  0.93075172439E+03  0.25500000920E-02 0.  1.
       -2    1    3    3    0  502  0.87384362885E+02  0.91763049605E+03 -0.63446698296E+03  0.11190308783E+04  0.25500000920E-02 0. -1.
</event>
<event>
 5   0  0.3838525E-06  0.2149667E+04  0.7818609E-02  0.8539675E-01
        1   -1    0    0  501    0  0.00000000000E+00  0.00000000000E+00  0.11182134457E+04  0.11182134457E+04  0.50400001928E-02 0. -1.
       -1   -1    0    0    0  501  0.00000000000E+00  0.00000000000E+00 -0.10331364490E+04  0.10331364490E+04  0.50400001928E-02 0.  1.
    10030    2    1    2    0    0  0.00000000000E+00  0.00000000000E+00  0.85076996707E+02  0.21513498947E+04  0.21496670147E+04 0.  0.
        3    1    3    3  502    0 -0.88434291047E+03  0.59325260425E+03 -0.10337009073E+03  0.10699048657E+04  0.10100000352E+00 0. -1.
       -3    1    3    3    0  502  0.88434291047E+03 -0.59325260425E+03  0.18844708743E+03  0.10814450290E+04  0.10100000352E+00 0.  1.
</event>
<event>
 5   0  0.4250961E-06  0.2996004E+04  0.7818609E-02  0.8244873E-01
        1   -1    0    0  501    0  0.00000000000E+00  0.00000000000E+00  0.18586776164E+04  0.18586776164E+04  0.50400001928E-02 0.  1.
       -1   -1    0    0    0  501  0.00000000000E+00  0.00000000000E+00 -0.12073150963E+04  0.12073150963E+04  0.50400001928E-02 0. -1.
    10030    2    1    2    0    0  0.00000000000E+00  0.00000000000E+00  0.65136252010E+03  0.30659927127E+04  0.29960037018E+04 0.  0.
        1    1    3    3  502    0  0.71567703054E+03 -0.45674613734E+03 -0.93732958946E+03  0.12646728452E+04  0.50400001928E-02 0. -1.
       -1    1    3    3    0  502 -0.71567703054E+03  0.45674613734E+03  0.15886921096E+04  0.18013198675E+04  0.50400001928E-02 0.  1.
</event>
<event>
 5   0  0.9797278E-06  0.2195687E+04  0.7818609E-02  0.8520225E-01
        2   -1    0    0  501    0  0.00000000000E+00  0.00000000000E+00  0.44254010913E+03  0.44254010914E+03  0.25500000920E-02 0.  1.
       -2   -1    0    0    0  501  0.00000000000E+00  0.00000000000E+00 -0.27235061469E+04  0.27235061469E+04  0.25500000920E-02 0. -1.
    10030    2    1    2    0    0  0.00000000000E+00  0.00000000000E+00 -0.22809660377E+04  0.31660462560E+04  0.21956873252E+04 0.  0.
        1    1    3    3  502    0 -0.50885741858E+02  0.42803132054E+03  0.31541840355E+03  0.53412446060E+03  0.50400001928E-02 0.  1.
       -1    1    3    3    0  502  0.50885741858E+02 -0.42803132054E+03 -0.25963844413E+04  0.26319217954E+04  0.50400001928E-02 0. -1.
</event>
<event>
 5   0  0.1007567E-05  0.3119977E+04  0.7818609E-02  0.8210277E-01
       -2   -1    0    0    0  501  0.00000000000E+00  0.00000000000E+00  0.12399700924E+04  0.12399700924E+04  0.25500000920E-02 0. -1.
        2   -1    0    0  501    0  0.00000000000E+00  0.00000000000E+00 -0.19625988557E+04  0.19625988557E+04  0.25500000920E-02 0.  1.
    10030    2    1    2    0    0  0.00000000000E+00  0.00000000000E+00 -0.72262876330E+03  0.32025689481E+04  0.31199768490E+04 0.  0.
        3    1    3    3  502    0 -0.72501352080E+03  0.98229482644E+03 -0.13581112861E+04  0.18262020718E+04  0.10100000352E+00 0.  1.
       -3    1    3    3    0  502  0.72501352080E+03 -0.98229482644E+03  0.63548252279E+03  0.13763668764E+04  0.10100000352E+00 0. -1.
</event>
<event>
 5   0  0.1001961E-05  0.1594079E+04  0.7818609E-02  0.8824194E-01
        2   -1    0    0  501    0  0.00000000000E+00  0.00000000000E+00  0.16741445539E+04  0.16741445539E+04  0.25500000920E-02 0.  1.
       -2   -1    0    0    0  501  0.00000000000E+00  0.00000000000E+00 -0.37946069191E+03  0.37946069192E+03  0.25500000920E-02 0. -1.
    10030    2    1    2    0    0  0.00000000000E+00  0.00000000000E+00  0.12946838620E+04  0.20536052458E+04  0.15940791082E+04 0.  0.
        5    1    3    3  502    0  0.12624913070E+03 -0.18568346852E+03  0.16325386204E+04  0.16479143274E+04  0.46999998093E+01 0.  1.
       -5    1    3    3    0  502 -0.12624913070E+03  0.18568346852E+03 -0.33785475841E+03  0.40569091838E+03  0.46999998093E+01 0. -1.
</event>
<event>
 5   0  0.1108153E-05  0.3153324E+04  0.7818609E-02  0.8201254E-01
       -2   -1    0    0    0  501  0.00000000000E+00  0.00000000000E+00  0.14515386730E+04  0.14515386730E+04  0.25500000920E-02 0. -1.
        2   -1    0    0  501    0  0.00000000000E+00  0.00000000000E+00 -0.17125713090E+04  0.17125713090E+04  0.25500000920E-02 0.  1.
    10030    2    1    2    0    0  0.00000000000E+00  0.00000000000E+00 -0.26103263597E+03  0.31641099820E+04  0.31533242683E+04 0.  0.
        4    1    3    3  502    0  0.55201592997E+03 -0.10665326390E+04  0.89456907879E+03  0.14974875314E+04  0.12699999809E+01 0. -1.
       -4    1    3    3    0  502 -0.55201592997E+03  0.10665326390E+04 -0.11556017148E+04  0.16666224507E+04  0.12699999809E+01 0.  1.
</event>
<event>
 5   0  0.9797278E-06  0.3045555E+04  0.7818609E-02  0.8230841E-01
       -2   -1    0    0    0  501  0.00000000000E+00  0.00000000000E+00  0.87132076444E+03  0.87132076444E+03  0.25500000920E-02 0.  1.
        2   -1    0    0  501    0  0.00000000000E+00  0.00000000000E+00 -0.26613056271E+04  0.26613056271E+04  0.25500000920E-02 0. -1.
    10030    2    1    2    0    0  0.00000000000E+00  0.00000000000E+00 -0.17899848626E+04  0.35326263915E+04  0.30455546972E+04 0.  0.
        1    1    3    3  502    0  0.12129166741E+04 -0.90262966869E+03 -0.68446080912E+03  0.16596366398E+04  0.50400001928E-02 0. -1.
       -1    1    3    3    0  502 -0.12129166741E+04  0.90262966869E+03 -0.11055240535E+04  0.18729897517E+04  0.50400001928E-02 0.  1.
</event>
<event>
 5   0  0.3848286E-06  0.3065108E+04  0.7818609E-02  0.8225380E-01
        1   -1    0    0  501    0  0.00000000000E+00  0.00000000000E+00  0.80038945056E+03  0.80038945058E+03  0.50400001928E-02 0.  1.
       -1   -1    0    0    0  501  0.00000000000E+00  0.00000000000E+00 -0.29344731401E+04  0.29344731401E+04  0.50400001928E-02 0. -1.
    10030    2    1    2    0    0  0.00000000000E+00  0.00000000000E+00 -0.21340836895E+04  0.37348625906E+04  0.30651077268E+04 0.  0.
        2    1    3    3  502    0 -0.12008230538E+04  0.58963100346E+03 -0.19781419639E+04  0.23880298064E+04  0.25500000920E-02 0. -1.
       -2    1    3    3    0  502  0.12008230538E+04 -0.58963100346E+03 -0.15594172554E+03  0.13468327842E+04  0.25500000920E-02 0.  1.
</event>
<event>
 5   0  0.3838525E-06  0.3146448E+04  0.7818609E-02  0.8203105E-01
       -1   -1    0    0    0  501  0.00000000000E+00  0.00000000000E+00  0.13709619191E+04  0.13709619191E+04  0.50400001928E-02 0. -1.
        1   -1    0    0  501    0  0.00000000000E+00  0.00000000000E+00 -0.18053268244E+04  0.18053268244E+04  0.50400001928E-02 0.  1.
    10030    2    1    2    0    0  0.00000000000E+00  0.00000000000E+00 -0.43436490526E+03  0.31762887435E+04  0.31464483646E+04 0.  0.
        3    1    3    3  502    0  0.86947408785E+03 -0.10711903455E+04  0.54603029884E+03  0.14837732452E+04  0.10100000352E+00 0. -1.
       -3    1    3    3    0  502 -0.86947408785E+03  0.10711903455E+04 -0.98039520410E+03  0.16925154983E+04  0.10100000352E+00 0.  1.
</event>
<event>
 5   0  0.1007567E-05  0.3129875E+04  0.7818609E-02  0.8207587E-01
        2   -1    0    0  501    0  0.00000000000E+00  0.00000000000E+00  0.12809180770E+04  0.12809180770E+04  0.25500000920E-02 0.  1.
       -2   -1    0    0    0  501  0.00000000000E+00  0.00000000000E+00 -0.19119327306E+04  0.19119327306E+04  0.25500000920E-02 0. -1.
    10030    2    1    2    0    0  0.00000000000E+00  0.00000000000E+00 -0.63101465357E+03  0.31928508076E+04  0.31298748836E+04 0.  0.
        3    1    3    3  502    0 -0.50896715616E+03 -0.68191677972E+03  0.10243006640E+04  0.13316343045E+04  0.10100000352E+00 0.  1.
       -3    1    3    3    0  502  0.50896715616E+03  0.68191677972E+03 -0.16553153176E+04  0.18612165031E+04  0.10100000352E+00 0. -1.
</event>
<event>
 5   0  0.1007567E-05  0.2983027E+04  0.7818609E-02  0.8248594E-01
       -2   -1    0    0    0  501  0.00000000000E+00  0.00000000000E+00  0.11158088502E+04  0.11158088502E+04  0.25500000920E-02 0.  1.
        2   -1    0    0  501    0  0.00000000000E+00  0.00000000000E+00 -0.19937213341E+04  0.19937213341E+04  0.25500000920E-02 0. -1.
    10030    2    1    2    0    0  0.00000000000E+00  0.00000000000E+00 -0.87791248390E+03  0.31095301842E+04  0.29830265901E+04 0.  0.
        3    1    3    3  502    0  0.11563395708E+04 -0.27350992808E+03 -0.13786757528E+04  0.18200757471E+04  0.10100000352E+00 0. -1.
       -3    1    3    3    0  502 -0.11563395708E+04  0.27350992808E+03  0.50076326891E+03  0.12894544371E+04  0.10100000352E+00 0.  1.
</event>
<event>
 5   0  0.3848286E-06  0.2729906E+04  0.7818609E-02  0.8325366E-01
        1   -1    0    0  501    0  0.00000000000E+00  0.00000000000E+00  0.19639323076E+04  0.19639323076E+04  0.50400001928E-02 0.  1.
       -1   -1    0    0    0  501  0.00000000000E+00  0.00000000000E+00 -0.94865596653E+03  0.94865596654E+03  0.50400001928E-02 0. -1.
    10030    2    1    2    0    0  0.00000000000E+00  0.00000000000E+00  0.10152763411E+04  0.29125882741E+04  0.27299055672E+04 0.  0.
        2    1    3    3  502    0  0.36387850283E+03 -0.83369247751E+03 -0.57812976131E+03  0.10778147952E+04  0.25500000920E-02 0. -1.
       -2    1    3    3    0  502 -0.36387850283E+03  0.83369247751E+03  0.15934061024E+04  0.18347734789E+04  0.25500000920E-02 0.  1.
</event>
<event>
 5   0  0.4250961E-06  0.3310687E+04  0.7818609E-02  0.8160181E-01
       -1   -1    0    0    0  501  0.00000000000E+00  0.00000000000E+00  0.15106939056E+04  0.15106939056E+04  0.50400001928E-02 0.  1.
        1   -1    0    0  501    0  0.00000000000E+00  0.00000000000E+00 -0.18138435433E+04  0.18138435433E+04  0.50400001928E-02 0. -1.
    10030    2    1    2    0    0  0.00000000000E+00  0.00000000000E+00 -0.30314963773E+03  0.33245374489E+04  0.33106871713E+04 0.  0.
        1    1    3    3  502    0 -0.16243294627E+04 -0.11363328980E+03  0.14767129033E+03  0.16349818158E+04  0.50400001928E-02 0.  1.
       -1    1    3    3    0  502  0.16243294627E+04  0.11363328980E+03 -0.45082092806E+03  0.16895556331E+04  0.50400001928E-02 0. -1.
</event>
<event>
 5   0  0.1001961E-05  0.2355796E+04  0.7818609E-02  0.8456241E-01
       -2   -1    0    0    0  501  0.00000000000E+00  0.00000000000E+00  0.83290007140E+03  0.83290007141E+03  0.25500000920E-02 0.  1.
        2   -1    0    0  501    0  0.00000000000E+00  0.00000000000E+00 -0.16657988167E+04  0.16657988167E+04  0.25500000920E-02 0. -1.
    10030    2    1    2    0    0  0.00000000000E+00  0.00000000000E+00 -0.83289874525E+03  0.24986988881E+04  0.23557962164E+04 0.  0.
        5    1    3    3  502    0  0.35262875188E+03 -0.95804118160E+03 -0.10396554446E+04  0.14570845809E+04  0.46999998093E+01 0. -1.
       -5    1    3    3    0  502 -0.35262875188E+03  0.95804118160E+03  0.20675669933E+03  0.10416143072E+04  0.46999998093E+01 0.  1.
</event>
<event>
 5   0  0.3807334E-06  0.3091845E+04  0.7818609E-02  0.8217980E-01
        1   -1    0    0  501    0  0.00000000000E+00  0.00000000000E+00  0.20556988276E+04  0.20556988276E+04  0.50400001928E-02 0.  1.
       -1   -1    0    0    0  501  0.00000000000E+00  0.00000000000E+00 -0.11625614296E+04  0.11625614296E+04  0.50400001928E-02 0. -1.
    10030    2    1    2    0    0  0.00000000000E+00  0.00000000000E+00  0.89313739802E+03  0.32182602573E+04  0.30918448654E+04 0.  0.
        4    1    3    3  502    0 -0.93063722613E+03 -0.99320078134E+03 -0.31643826859E+03  0.13973790572E+04  0.12699999809E+01 0. -1.
       -4    1    3    3    0  502  0.93063722613E+03  0.99320078134E+03  0.12095756666E+04  0.18208812001E+04  0.12699999809E+01 0.  1.
</event>
<event>
 5   0  0.4250961E-06  0.3043454E+04  0.7818609E-02  0.8231430E-01
        1   -1    0    0  501    0  0.00000000000E+00  0.00000000000E+00  0.21958489186E+04  0.21958489186E+04  0.50400001928E-02 0. -1.
       -1   -1    0    0    0  501  0.00000000000E+00  0.00000000000E+00 -0.10545590798E+04  0.10545590798E+04  0.50400001928E-02 0.  1.
    10030    2    1    2    0    0  0.00000000000E+00  0.00000000000E+00  0.11412898388E+04  0.32504079984E+04  0.30434535745E+04 0.  0.
        1    1    3    3  502    0  0.31048427217E+03 -0.14515493781E+04  0.21281502043E+03  0.14995620405E+04  0.50400001928E-02 0.  1.
       -1    1    3    3    0  502 -0.31048427217E+03  0.14515493781E+04  0.92847481839E+03  0.17508459580E+04  0.50400001928E-02 0. -1.
</event>
<event>
 5   0  0.1108153E-05  0.2782627E+04  0.7818609E-02  0.8308682E-01
        2   -1    0    0  501    0  0.00000000000E+00  0.00000000000E+00  0.28543927228E+04  0.28543927228E+04  0.25500000920E-02 0.  1.
       -2   -1    0    0    0  501  0.00000000000E+00  0.00000000000E+00 -0.67816638806E+03  0.67816638806E+03  0.25500000920E-02 0. -1.
    10030    2    1    2    0    0  0.00000000000E+00  0.00000000000E+00  0.21762263347E+04  0.35325591108E+04  0.27826269624E+04 0.  0.
        4    1    3    3  502    0 -0.41481934804E+03 -0.51057313367E+03  0.26444827042E+04  0.27250780543E+04  0.12699999809E+01 0.  1.
       -4    1    3    3    0  502  0.41481934804E+03  0.51057313367E+03 -0.46825636943E+03  0.80748105659E+03  0.12699999809E+01 0. -1.
</event>
<event>
 5   0  0.4250961E-06  0.3229640E+04  0.7818609E-02  0.8181033E-01
       -1   -1    0    0    0  501  0.00000000000E+00  0.00000000000E+00  0.12498406735E+04  0.12498406735E+04  0.50400001928E-02 0.  1.
        1   -1    0    0  501    0  0.00000000000E+00  0.00000000000E+00 -0.20863810381E+04  0.20863810381E+04  0.50400001928E-02 0. -1.
    10030    2    1    2    0    0  0.00000000000E+00  0.00000000000E+00 -0.83654036463E+03  0.33362217117E+04  0.32296401545E+04 0.  0.
        1    1    3    3  502    0 -0.52378839767E+03 -0.17271753429E+02 -0.19960897085E+04  0.20637409535E+04  0.50400001928E-02 0. -1.
       -1    1    3    3    0  502  0.52378839767E+03  0.17271753429E+02  0.11595493438E+04  0.12724807581E+04  0.50400001928E-02 0.  1.
</event>
<event>
 5   0  0.4250961E-06  0.3080622E+04  0.7818609E-02  0.8221076E-01
       -1   -1    0    0    0  501  0.00000000000E+00  0.00000000000E+00  0.16284141850E+04  0.16284141850E+04  0.50400001928E-02 0. -1.
        1   -1    0    0  501    0  0.00000000000E+00  0.00000000000E+00 -0.14569744185E+04  0.14569744186E+04  0.50400001928E-02 0.  1.
    10030    2    1    2    0    0  0.00000000000E+00  0.00000000000E+00  0.17143976650E+03  0.30853886036E+04  0.30806218920E+04 0.  0.
        1    1    3    3  502    0 -0.11478797759E+04 -0.85990526659E+02 -0.93935558491E+03  0.14857359340E+04  0.50400001928E-02 0.  1.
       -1    1    3    3    0  502  0.11478797759E+04  0.85990526659E+02  0.11107953514E+04  0.15996526696E+04  0.50400001928E-02 0. -1.
</event>
<event>
 5   0  0.4250961E-06  0.1950710E+04  0.7818609E-02  0.8630019E-01
        1   -1    0    0  501    0  0.00000000000E+00  0.00000000000E+00  0.10595008476E+04  0.10595008477E+04  0.50400001928E-02 0. -1.
       -1   -1    0    0    0  501  0.00000000000E+00  0.00000000000E+00 -0.89789194539E+03  0.89789194540E+03  0.50400001928E-02 0.  1.
    10030    2    1    2    0    0  0.00000000000E+00  0.00000000000E+00  0.16160890226E+03  0.19573927931E+04  0.19507098987E+04 0.  0.
        1    1    3    3  502    0 -0.29422400312E+03 -0.34419476464E+03  0.94763866888E+03  0.10502651317E+04  0.50400001928E-02 0. -1.
       -1    1    3    3    0  502  0.29422400312E+03  0.34419476464E+03 -0.78602976662E+03  0.90712766139E+03  0.50400001928E-02 0.  1.
</event>
<event>
 5   0  0.4139628E-06  0.3321390E+04  0.7818609E-02  0.8157474E-01
        1   -1    0    0  501    0  0.00000000000E+00  0.00000000000E+00  0.10871429135E+04  0.10871429135E+04  0.50400001928E-02 0. -1.
       -1   -1    0    0    0  501  0.00000000000E+00  0.00000000000E+00 -0.25368398888E+04  0.25368398888E+04  0.50400001928E-02 0.  1.
    10030    2    1    2    0    0  0.00000000000E+00  0.00000000000E+00 -0.14496969753E+04  0.36239828022E+04  0.33213897740E+04 0.  0.
        5    1    3    3  502    0 -0.25019499974E+03  0.94777478185E+03  0.73780561143E+03  0.12268878454E+04  0.46999998093E+01 0. -1.
       -5    1    3    3    0  502  0.25019499974E+03 -0.94777478185E+03 -0.21875025867E+04  0.23970949568E+04  0.46999998093E+01 0.  1.
</event>
<event>
 5   0  0.4139628E-06  0.1853640E+04  0.7818609E-02  0.8678283E-01
       -1   -1    0    0    0  501  0.00000000000E+00  0.00000000000E+00  0.74491275453E+03  0.74491275455E+03  0.50400001928E-02 0.  1.
        1   -1    0    0  501    0  0.00000000000E+00  0.00000000000E+00 -0.11531490671E+04  0.11531490671E+04  0.50400001928E-02 0. -1.
    10030    2    1    2    0    0  0.00000000000E+00  0.00000000000E+00 -0.40823631259E+03  0.18980618217E+04  0.18536401463E+04 0.  0.
        5    1    3    3  502    0 -0.17737618921E+03 -0.70719969523E+03  0.38176465656E+03  0.82301887246E+03  0.46999998093E+01 0.  1.
       -5    1    3    3    0  502  0.17737618921E+03  0.70719969523E+03 -0.79000096915E+03  0.10750429492E+04  0.46999998093E+01 0. -1.
</event>
<event>
 5   0  0.3848286E-06  0.1555269E+04  0.7818609E-02  0.8848509E-01
        1   -1    0    0  501    0  0.00000000000E+00  0.00000000000E+00  0.12324639004E+04  0.12324639004E+04  0.50400001928E-02 0.  1.
       -1   -1    0    0    0  501  0.00000000000E+00  0.00000000000E+00 -0.49065585685E+03  0.49065585687E+03  0.50400001928E-02 0. -1.
    10030    2    1    2    0    0  0.00000000000E+00  0.00000000000E+00  0.74180804356E+03  0.17231197573E+04  0.15552692772E+04 0.  0.
        2    1    3    3  502    0 -0.38400795727E+03  0.45543404720E+03 -0.18287318128E+03  0.62315718967E+03  0.25500000920E-02 0. -1.
       -2    1    3    3    0  502  0.38400795727E+03 -0.45543404720E+03  0.92468122484E+03  0.10999625676E+04  0.25500000920E-02 0.  1.
</event>
<event>
 5   0  0.3848286E-06  0.3163603E+04  0.7818609E-02  0.8198496E-01
       -1   -1    0    0    0  501  0.00000000000E+00  0.00000000000E+00  0.15583411088E+04  0.15583411088E+04  0.50400001928E-02 0.  1.
        1   -1    0    0  501    0  0.00000000000E+00  0.00000000000E+00 -0.16056152247E+04  0.16056152247E+04  0.50400001928E-02 0. -1.
    10030    2    1    2    0    0  0.00000000000E+00  0.00000000000E+00 -0.47274115889E+02  0.31639563335E+04  0.31636031417E+04 0.  0.
        2    1    3    3  502    0  0.77672106709E+03 -0.11716195981E+04 -0.74905113902E+03  0.15928169097E+04  0.25500000920E-02 0. -1.
       -2    1    3    3    0  502 -0.77672106709E+03  0.11716195981E+04  0.70177702313E+03  0.15711394238E+04  0.25500000920E-02 0.  1.
</event>
<event>
 5   0  0.3848286E-06  0.3129857E+04  0.7818609E-02  0.8207591E-01
       -1   -1    0    0    0  501  0.00000000000E+00  0.00000000000E+00  0.12515780727E+04  0.12515780727E+04  0.50400001928E-02 0. -1.
        1   -1    0    0  501    0  0.00000000000E+00  0.00000000000E+00 -0.19567306731E+04  0.19567306731E+04  0.50400001928E-02 0.  1.
    10030    2    1    2    0    0  0.00000000000E+00  0.00000000000E+00 -0.70515260035E+03  0.32083087458E+04  0.31298569965E+04 0.  0.
        2    1    3    3  502    0 -0.10029047327E+03  0.12125056445E+04  0.65635754980E+03  0.13824012985E+04  0.25500000920E-02 0. -1.
       -2    1    3    3    0  502  0.10029047327E+03 -0.12125056445E+04 -0.13615101501E+04  0.18259074473E+04  0.25500000920E-02 0.  1.
</event>
<event>
 5   0  0.1001961E-05  0.3055713E+04  0.7818609E-02  0.8227998E-01
        2   -1    0    0  501    0  0.00000000000E+00  0.00000000000E+00  0.23522818683E+04  0.23522818683E+04  0.25500000920E-02 0.  1.
       -2   -1    0    0    0  501  0.00000000000E+00  0.00000000000E+00 -0.99237499298E+03  0.99237499298E+03  0.25500000920E-02 0. -1.
    10030    2    1    2    0    0  0.00000000000E+00  0.00000000000E+00  0.13599068753E+04  0.33446568612E+04  0.30557131426E+04 0.  0.
        5    1    3    3  502    0 -0.12579216733E+04 -0.49895203207E+02  0.16275321295E+04  0.20576052561E+04  0.46999998093E+01 0.  1.
       -5    1    3    3    0  502  0.12579216733E+04  0.49895203207E+02 -0.26762525427E+03  0.12870516051E+04  0.46999998093E+01 0. -1.
</event>
<event>
 5   0  0.4250961E-06  0.3042721E+04  0.7818609E-02  0.8231636E-01
       -1   -1    0    0    0  501  0.00000000000E+00  0.00000000000E+00  0.20364617435E+04  0.20364617435E+04  0.50400001928E-02 0.  1.
        1   -1    0    0  501    0  0.00000000000E+00  0.00000000000E+00 -0.11365485482E+04  0.11365485482E+04  0.50400001928E-02 0. -1.
    10030    2    1    2    0    0  0.00000000000E+00  0.00000000000E+00  0.89991319532E+03  0.31730102918E+04  0.30427209127E+04 0.  0.
        1    1    3    3  502    0 -0.27864789772E+03 -0.93341111145E+03 -0.76868766603E+03  0.12408793986E+04  0.50400001928E-02 0. -1.
       -1    1    3    3    0  502  0.27864789772E+03  0.93341111145E+03  0.16686008614E+04  0.19321308932E+04  0.50400001928E-02 0.  1.
</event>
<event>
 5   0  0.3493125E-06  0.3063479E+04  0.7818609E-02  0.8225833E-01
       -3   -1    0    0    0  501  0.00000000000E+00  0.00000000000E+00  0.14420876211E+04  0.14420876246E+04  0.10100000352E+00 0. -1.
        3   -1    0    0  501    0  0.00000000000E+00  0.00000000000E+00 -0.16269645487E+04  0.16269645518E+04  0.10100000352E+00 0.  1.
    10030    2    1    2    0    0  0.00000000000E+00  0.00000000000E+00 -0.18487692757E+03  0.30690521764E+04  0.30634787062E+04 0.  0.
        1    1    3    3  502    0 -0.24118523925E+03  0.15115359747E+04 -0.15011162386E+03  0.15380002672E+04  0.50400001928E-02 0. -1.
       -1    1    3    3    0  502  0.24118523925E+03 -0.15115359747E+04 -0.34765303709E+02  0.15310519092E+04  0.50400001928E-02 0.  1.
</event>
<event>
 5   0  0.1007567E-05  0.3112840E+04  0.7818609E-02  0.8212223E-01
        2   -1    0    0  501    0  0.00000000000E+00  0.00000000000E+00  0.25401952033E+04  0.25401952033E+04  0.25500000920E-02 0. -1.
       -2   -1    0    0    0  501  0.00000000000E+00  0.00000000000E+00 -0.95364460546E+03  0.95364460546E+03  0.25500000920E-02 0.  1.
    10030    2    1    2    0    0  0.00000000000E+00  0.00000000000E+00  0.15865505978E+04  0.34938398088E+04  0.31128401517E+04 0.  0.
        3    1    3    3  502    0  0.12326264559E+03  0.11598210386E+04 -0.36342727374E+03  0.12216619479E+04  0.10100000352E+00 0.  1.
       -3    1    3    3    0  502 -0.12326264559E+03 -0.11598210386E+04  0.19499778716E+04  0.22721778608E+04  0.10100000352E+00 0. -1.
</event>
<event>
 5   0  0.3807334E-06  0.3160278E+04  0.7818609E-02  0.8199387E-01
       -1   -1    0    0    0  501  0.00000000000E+00  0.00000000000E+00  0.98669625535E+03  0.98669625536E+03  0.50400001928E-02 0.  1.
        1   -1    0    0  501    0  0.00000000000E+00  0.00000000000E+00 -0.25305045531E+04  0.25305045531E+04  0.50400001928E-02 0. -1.
    10030    2    1    2    0    0  0.00000000000E+00  0.00000000000E+00 -0.15438082978E+04  0.35172008085E+04  0.31602780680E+04 0.  0.
        4    1    3    3  502    0 -0.52875318778E+03  0.98996182036E+02 -0.24254568842E+04  0.24843958799E+04  0.12699999809E+01 0. -1.
       -4    1    3    3    0  502  0.52875318778E+03 -0.98996182036E+02  0.88164858648E+03  0.10328049286E+04  0.12699999809E+01 0.  1.
</event>
<event>
 5   0  0.1108153E-05  0.3067346E+04  0.7818609E-02  0.8224757E-01
       -2   -1    0    0    0  501  0.00000000000E+00  0.00000000000E+00  0.12570722272E+04  0.12570722272E+04  0.25500000920E-02 0.  1.
        2   -1    0    0  501    0  0.00000000000E+00  0.00000000000E+00 -0.18711354113E+04  0.18711354113E+04  0.25500000920E-02 0. -1.
    10030    2    1    2    0    0  0.00000000000E+00  0.00000000000E+00 -0.61406318406E+03  0.31282076385E+04  0.30673456661E+04 0.  0.
        4    1    3    3  502    0 -0.76594581331E+02  0.15316889514E+04 -0.32191472832E+03  0.15670253600E+04  0.12699999809E+01 0. -1.
       -4    1    3    3    0  502  0.76594581331E+02 -0.15316889514E+04 -0.29214845574E+03  0.15611822785E+04  0.12699999809E+01 0.  1.
</event>
<event>
 5   0  0.9797278E-06  0.1956585E+04  0.7818609E-02  0.8627192E-01
        2   -1    0    0  501    0  0.00000000000E+00  0.00000000000E+00  0.89138366145E+03  0.89138366146E+03  0.25500000920E-02 0. -1.
       -2   -1    0    0    0  501  0.00000000000E+00  0.00000000000E+00 -0.10736745548E+04  0.10736745548E+04  0.25500000920E-02 0.  1.
    10030    2    1    2    0    0  0.00000000000E+00  0.00000000000E+00 -0.18229089339E+03  0.19650582163E+04  0.19565847346E+04 0.  0.
        1    1    3    3  502    0  0.77126938338E+03  0.49556589250E+03 -0.43411217891E+03  0.10143448129E+04  0.50400001928E-02 0.  1.
       -1    1    3    3    0  502 -0.77126938338E+03 -0.49556589250E+03  0.25182128552E+03  0.95071340341E+03  0.50400001928E-02 0. -1.
</event>
<event>
 5   0  0.3838525E-06  0.3012905E+04  0.7818609E-02  0.8240055E-01
       -1   -1    0    0    0  501  0.00000000000E+00  0.00000000000E+00  0.96312382548E+03  0.96312382549E+03  0.50400001928E-02 0.  1.
        1   -1    0    0  501    0  0.00000000000E+00  0.00000000000E+00 -0.23562906926E+04  0.23562906926E+04  0.50400001928E-02 0. -1.
    10030    2    1    2    0    0  0.00000000000E+00  0.00000000000E+00 -0.13931668671E+04  0.33194145181E+04  0.30129053791E+04 0.  0.
        3    1    3    3  502    0  0.12104917838E+03  0.47116108236E+03 -0.22673744592E+04  0.23189723192E+04  0.10100000352E+00 0. -1.
       -3    1    3    3    0  502 -0.12104917838E+03 -0.47116108236E+03  0.87420759203E+03  0.10004421989E+04  0.10100000352E+00 0.  1.
</event>
<event>
 5   0  0.1007567E-05  0.2460547E+04  0.7818609E-02  0.8417177E-01
        2   -1    0    0  501    0  0.00000000000E+00  0.00000000000E+00  0.92616085311E+03  0.92616085311E+03  0.25500000920E-02 0.  1.
       -2   -1    0    0    0  501  0.00000000000E+00  0.00000000000E+00 -0.16342442303E+04  0.16342442303E+04  0.25500000920E-02 0. -1.
    10030    2    1    2    0    0  0.00000000000E+00  0.00000000000E+00 -0.70808337714E+03  0.25604050834E+04  0.24605471184E+04 0.  0.
        3    1    3    3  502    0 -0.12710343002E+03  0.10154381203E+04  0.35653535885E+03  0.10836915291E+04  0.10100000352E+00 0.  1.
       -3    1    3    3    0  502  0.12710343002E+03 -0.10154381203E+04 -0.10646187360E+04  0.14767135542E+04  0.10100000352E+00 0. -1.
</event>
<event>
 5   0  0.3807334E-06  0.3124077E+04  0.7818609E-02  0.8209161E-01
       -1   -1    0    0    0  501  0.00000000000E+00  0.00000000000E+00  0.11817286811E+04  0.11817286811E+04  0.50400001928E-02 0. -1.
        1   -1    0    0  501    0  0.00000000000E+00  0.00000000000E+00 -0.20647410680E+04  0.20647410680E+04  0.50400001928E-02 0.  1.
    10030    2    1    2    0    0  0.00000000000E+00  0.00000000000E+00 -0.88301238688E+03  0.32464697492E+04  0.31240766567E+04 0.  0.
        4    1    3    3  502    0  0.82864447738E+03 -0.38470790870E+03 -0.17581526426E+04  0.19813516025E+04  0.12699999809E+01 0.  1.
       -4    1    3    3    0  502 -0.82864447738E+03  0.38470790870E+03  0.87514025576E+03  0.12651181467E+04  0.12699999809E+01 0. -1.
</event>
<event>
 5   0  0.1119100E-05  0.1531122E+04  0.7818609E-02  0.8864017E-01
        2   -1    0    0  501    0  0.00000000000E+00  0.00000000000E+00  0.82656653566E+03  0.82656653566E+03  0.25500000920E-02 0.  1.
       -2   -1    0    0    0  501  0.00000000000E+00  0.00000000000E+00 -0.70905832739E+03  0.70905832740E+03  0.25500000920E-02 0. -1.
    10030    2    1    2    0    0  0.00000000000E+00  0.00000000000E+00  0.11750820827E+03  0.15356248631E+04  0.15311223142E+04 0.  0.
        2    1    3    3  502    0 -0.74434356588E+03 -0.39984965032E+02  0.23373131014E+03  0.78120193730E+03  0.25500000920E-02 0. -1.
       -2    1    3    3    0  502  0.74434356588E+03  0.39984965032E+02 -0.11622310187E+03  0.75442292576E+03  0.25500000920E-02 0.  1.
</event>
<event>
 5   0  0.3807334E-06  0.3101349E+04  0.7818609E-02  0.8215368E-01
       -1   -1    0    0    0  501  0.00000000000E+00  0.00000000000E+00  0.21335595292E+04  0.21335595292E+04  0.50400001928E-02 0. -1.
        1   -1    0    0  501    0  0.00000000000E+00  0.00000000000E+00 -0.11270324945E+04  0.11270324945E+04  0.50400001928E-02 0.  1.
    10030    2    1    2    0    0  0.00000000000E+00  0.00000000000E+00  0.10065270347E+04  0.32605920236E+04  0.31013486861E+04 0.  0.
        4    1    3    3  502    0  0.70274663352E+03 -0.12179677661E+04 -0.18397538437E+03  0.14181490983E+04  0.12699999809E+01 0.  1.
       -4    1    3    3    0  502 -0.70274663352E+03  0.12179677661E+04  0.11905024191E+04  0.18424429253E+04  0.12699999809E+01 0. -1.
</event>
<event>
 5   0  0.3807334E-06  0.3076142E+04  0.7818609E-02  0.8222316E-01
       -1   -1    0    0    0  501  0.00000000000E+00  0.00000000000E+00  0.97605252300E+03  0.97605252301E+03  0.50400001928E-02 0.  1.
        1   -1    0    0  501    0  0.00000000000E+00  0.00000000000E+00 -0.24237034520E+04  0.24237034520E+04  0.50400001928E-02 0. -1.
    10030    2    1    2    0    0  0.00000000000E+00  0.00000000000E+00 -0.14476509290E+04  0.33997559750E+04  0.30761416543E+04 0.  0.
        4    1    3    3  502    0 -0.12836509286E+04  0.24639325091E+03  0.17213158521E+03  0.13183702955E+04  0.12699999809E+01 0.  1.
       -4    1    3    3    0  502  0.12836509286E+04 -0.24639325091E+03 -0.16197825142E+04  0.20813856795E+04  0.12699999809E+01 0. -1.
</event>
<event>
 5   0  0.3848286E-06  0.1607841E+04  0.7818609E-02  0.8815745E-01
       -1   -1    0    0    0  501  0.00000000000E+00  0.00000000000E+00  0.11127072154E+04  0.11127072154E+04  0.50400001928E-02 0.  1.
        1   -1    0    0  501    0  0.00000000000E+00  0.00000000000E+00 -0.58082508208E+03  0.58082508210E+03  0.50400001928E-02 0. -1.
    10030    2    1    2    0    0  0.00000000000E+00  0.00000000000E+00  0.53188213332E+03  0.16935322975E+04  0.16078411112E+04 0.  0.
        2    1    3    3  502    0 -0.28398297923E+03 -0.47304914585E+03  0.88179622688E+03  0.10401857587E+04  0.25500000920E-02 0.  1.
       -2    1    3    3    0  502  0.28398297923E+03  0.47304914585E+03 -0.34991409356E+03  0.65334653880E+03  0.25500000920E-02 0. -1.
</event>
<event>
 5   0  0.1119100E-05  0.2264138E+04  0.7818609E-02  0.8492197E-01
        2   -1    0    0  501    0  0.00000000000E+00  0.00000000000E+00  0.79371162634E+03  0.79371162635E+03  0.25500000920E-02 0. -1.
       -2   -1    0    0    0  501  0.00000000000E+00  0.00000000000E+00 -0.16146676098E+04  0.16146676098E+04  0.25500000920E-02 0.  1.
    10030    2    1    2    0    0  0.00000000000E+00  0.00000000000E+00 -0.82095598348E+03  0.24083792362E+04  0.22641382066E+04 0.  0.
        2    1    3    3  502    0 -0.66095074064E+03 -0.24679533890E+03  0.53125802152E+03  0.88317546744E+03  0.25500000920E-02 0. -1.
       -2    1    3    3    0  502  0.66095074064E+03  0.24679533890E+03 -0.13522140050E+04  0.15252037687E+04  0.25500000920E-02 0.  1.
</event>
<event>
 5   0  0.9797278E-06  0.3027129E+04  0.7818609E-02  0.8236026E-01
        2   -1    0    0  501    0  0.00000000000E+00  0.00000000000E+00  0.15700503267E+04  0.15700503267E+04  0.25500000920E-02 0. -1.
       -2   -1    0    0    0  501  0.00000000000E+00  0.00000000000E+00 -0.14591105111E+04  0.14591105111E+04  0.25500000920E-02 0.  1.
    10030    2    1    2    0    0  0.00000000000E+00  0.00000000000E+00  0.11093981557E+03  0.30291608378E+04  0.30271286293E+04 0.  0.
        1    1    3    3  502    0  0.51413143060E+03 -0.12855128162E+03  0.14741735635E+04  0.15665389415E+04  0.50400001928E-02 0. -1.
       -1    1    3    3    0  502 -0.51413143060E+03  0.12855128162E+03 -0.13632337479E+04  0.14626218963E+04  0.50400001928E-02 0.  1.
</event>
<event>
 5   0  0.1001961E-05  0.2547555E+04  0.7818609E-02  0.8386237E-01
        2   -1    0    0  501    0  0.00000000000E+00  0.00000000000E+00  0.16850908479E+04  0.16850908479E+04  0.25500000920E-02 0. -1.
       -2   -1    0    0    0  501  0.00000000000E+00  0.00000000000E+00 -0.96286181862E+03  0.96286181862E+03  0.25500000920E-02 0.  1.
    10030    2    1    2    0    0  0.00000000000E+00  0.00000000000E+00  0.72222902932E+03  0.26479526666E+04  0.25475554074E+04 0.  0.
        5    1    3    3  502    0 -0.92223711083E+03  0.76497982462E+03 -0.88088448514E+02  0.12014562353E+04  0.46999998093E+01 0.  1.
       -5    1    3    3    0  502  0.92223711083E+03 -0.76497982462E+03  0.81031747784E+03  0.14464964312E+04  0.46999998093E+01 0. -1.
</event>
<event>
 5   0  0.9797278E-06  0.2220787E+04  0.7818609E-02  0.8509825E-01
       -2   -1    0    0    0  501  0.00000000000E+00  0.00000000000E+00  0.65067954471E+03  0.65067954471E+03  0.25500000920E-02 0.  1.
        2   -1    0    0  501    0  0.00000000000E+00  0.00000000000E+00 -0.18949021140E+04  0.18949021140E+04  0.25500000920E-02 0. -1.
    10030    2    1    2    0    0  0.00000000000E+00  0.00000000000E+00 -0.12442225693E+04  0.25455816588E+04  0.22207872882E+04 0.  0.
        1    1    3    3  502    0 -0.64145105059E+03 -0.34623465047E+03  0.33803200764E+03  0.80349456856E+03  0.50400001928E-02 0.  1.
       -1    1    3    3    0  502  0.64145105059E+03  0.34623465047E+03 -0.15822545770E+04  0.17420870902E+04  0.50400001928E-02 0. -1.
</event>
<event>
 5   0  0.4250961E-06  0.3154415E+04  0.7818609E-02  0.8200961E-01
       -1   -1    0    0    0  501  0.00000000000E+00  0.00000000000E+00  0.14958682654E+04  0.14958682654E+04  0.50400001928E-02 0. -1.
        1   -1    0    0  501    0  0.00000000000E+00  0.00000000000E+00 -0.16629694933E+04  0.16629694933E+04  0.50400001928E-02 0.  1.
    10030    2    1    2    0    0  0.00000000000E+00  0.00000000000E+00 -0.16710122789E+03  0.31588377587E+04  0.31544148689E+04 0.  0.
        1    1    3    3  502    0  0.28415543658E+03  0.13145681086E+04 -0.90856842448E+03  0.16230619847E+04  0.50400001928E-02 0.  1.
       -1    1    3    3    0  502 -0.28415543658E+03 -0.13145681086E+04  0.74146719660E+03  0.15357757740E+04  0.50400001928E-02 0. -1.
</event>
<event>
 5   0  0.1001961E-05  0.3156869E+04  0.7818609E-02  0.8200302E-01
        2   -1    0    0  501    0  0.00000000000E+00  0.00000000000E+00  0.22993390441E+04  0.22993390441E+04  0.25500000920E-02 0. -1.
       -2   -1    0    0    0  501  0.00000000000E+00  0.00000000000E+00 -0.10835531350E+04  0.10835531350E+04  0.25500000920E-02 0.  1.
    10030    2    1    2    0    0  0.00000000000E+00  0.00000000000E+00  0.12157859091E+04  0.33828921791E+04  0.31568693541E+04 0.  0.
        5    1    3    3  502    0  0.14652139810E+04  0.55794125681E+03  0.41239332728E+03  0.16211849995E+04  0.46999998093E+01 0. -1.
       -5    1    3    3    0  502 -0.14652139810E+04 -0.55794125681E+03  0.80339258183E+03  0.17617071796E+04  0.46999998093E+01 0.  1.
</event>
<event>
 5   0  0.3493125E-06  0.3124742E+04  0.7818609E-02  0.8208980E-01
       -3   -1    0    0    0  501  0.00000000000E+00  0.00000000000E+00  0.17800198953E+04  0.17800198982E+04  0.10100000352E+00 0.  1.
        3   -1    0    0  501    0  0.00000000000E+00  0.00000000000E+00 -0.13713347905E+04  0.13713347943E+04  0.10100000352E+00 0. -1.
    10030    2    1    2    0    0  0.00000000000E+00  0.00000000000E+00  0.40868510480E+03  0.31513546925E+04  0.31247420506E+04 0.  0.
        5    1    3    3  502    0  0.36938923196E+03 -0.12130980746E+04  0.11247630229E+04  0.16950425631E+04  0.46999998093E+01 0.  1.
       -5    1    3    3    0  502 -0.36938923196E+03  0.12130980746E+04 -0.71607791806E+03  0.14563121293E+04  0.46999998093E+01 0. -1.
</event>
<event>
 5   0  0.1108153E-05  0.3122845E+04  0.7818609E-02  0.8209496E-01
        2   -1    0    0  501    0  0.00000000000E+00  0.00000000000E+00  0.30412861861E+04  0.30412861861E+04  0.25500000920E-02 0. -1.
       -2   -1    0    0    0  501  0.00000000000E+00  0.00000000000E+00 -0.80164767728E+03  0.80164767728E+03  0.25500000920E-02 0.  1.
    10030    2    1    2    0    0  0.00000000000E+00  0.00000000000E+00  0.22396385088E+04  0.38429338634E+04  0.31228448614E+04 0.  0.
        4    1    3    3  502    0  0.31148332665E+03 -0.13700201690E+04  0.28151791162E+03  0.14329100020E+04  0.12699999809E+01 0.  1.
       -4    1    3    3    0  502 -0.31148332665E+03  0.13700201690E+04  0.19581205972E+04  0.24100238614E+04  0.12699999809E+01 0. -1.
</event>
<event>
 5   0  0.1108153E-05  0.2813402E+04  0.7818609E-02  0.8299120E-01
        2   -1    0    0  501    0  0.00000000000E+00  0.00000000000E+00  0.99252200976E+03  0.99252200976E+03  0.25500000920E-02 0. -1.
       -2   -1    0    0    0  501  0.00000000000E+00  0.00000000000E+00 -0.19937171023E+04  0.19937171023E+04  0.25500000920E-02 0.  1.
    10030    2    1    2    0    0  0.00000000000E+00  0.00000000000E+00 -0.10011950925E+04  0.29862391120E+04  0.28134022856E+04 0.  0.
        4    1    3    3  502    0  0.24343272619E+03  0.88761023402E+03 -0.16297626703E+04  0.18716942576E+04  0.12699999809E+01 0.  1.
       -4    1    3    3    0  502 -0.24343272619E+03 -0.88761023402E+03  0.62856757778E+03  0.11145448544E+04  0.12699999809E+01 0. -1.
</event>
<event>
 5   0  0.3848286E-06  0.3135215E+04  0.7818609E-02  0.8206139E-01
        1   -1    0    0  501    0  0.00000000000E+00  0.00000000000E+00  0.91507174135E+03  0.91507174137E+03  0.50400001928E-02 0.  1.
       -1   -1    0    0    0  501  0.00000000000E+00  0.00000000000E+00 -0.26854646953E+04  0.26854646953E+04  0.50400001928E-02 0. -1.
    10030    2    1    2    0    0  0.00000000000E+00  0.00000000000E+00 -0.17703929539E+04  0.36005364366E+04  0.31352147327E+04 0.  0.
        2    1    3    3  502    0  0.10991265032E+04  0.32107822642E+03 -0.21147130710E+04  0.24048246651E+04  0.25500000920E-02 0. -1.
       -2    1    3    3    0  502 -0.10991265032E+04 -0.32107822642E+03  0.34432011709E+03  0.11957117715E+04  0.25500000920E-02 0.  1.
</event>
<event>
 5   0  0.3838525E-06  0.3120896E+04  0.7818609E-02  0.8210027E-01
        1   -1    0    0  501    0  0.00000000000E+00  0.00000000000E+00  0.12063372369E+04  0.12063372369E+04  0.50400001928E-02 0. -1.
       -1   -1    0    0    0  501  0.00000000000E+00  0.00000000000E+00 -0.20185049595E+04  0.20185049595E+04  0.50400001928E-02 0.  1.
    10030    2    1    2    0    0  0.00000000000E+00  0.00000000000E+00 -0.81216772256E+03  0.32248421964E+04  0.31208958300E+04 0.  0.
        3    1    3    3  502    0  0.68998216209E+03 -0.29098157162E+03 -0.18207149216E+04  0.19686920772E+04  0.10100000352E+00 0.  1.
       -3    1    3    3    0  502 -0.68998216209E+03  0.29098157162E+03  0.10085471990E+04  0.12561501192E+04  0.10100000352E+00 0. -1.
</event>
<event>
 5   0  0.4139628E-06  0.2518569E+04  0.7818609E-02  0.8396400E-01
        1   -1    0    0  501    0  0.00000000000E+00  0.00000000000E+00  0.89416825261E+03  0.89416825262E+03  0.50400001928E-02 0.  1.
       -1   -1    0    0    0  501  0.00000000000E+00  0.00000000000E+00 -0.17734889859E+04  0.17734889859E+04  0.50400001928E-02 0. -1.
    10030    2    1    2    0    0  0.00000000000E+00  0.00000000000E+00 -0.87932073325E+03  0.26676572385E+04  0.25185690759E+04 0.  0.
        5    1    3    3  502    0  0.10915325792E+03  0.11540082573E+04  0.81530556778E+02  0.11620321912E+04  0.46999998093E+01 0.  1.
       -5    1    3    3    0  502 -0.10915325792E+03 -0.11540082573E+04 -0.96085129003E+03  0.15056250473E+04  0.46999998093E+01 0. -1.
</event>
<event>
 5   0  0.1108153E-05  0.3146766E+04  0.7818609E-02  0.8203019E-01
       -2   -1    0    0    0  501  0.00000000000E+00  0.00000000000E+00  0.15134172510E+04  0.15134172510E+04  0.25500000920E-02 0.  1.
        2   -1    0    0  501    0  0.00000000000E+00  0.00000000000E+00 -0.16357250302E+04  0.16357250302E+04  0.25500000920E-02 0. -1.
    10030    2    1    2    0    0  0.00000000000E+00  0.00000000000E+00 -0.12230777922E+03  0.31491422812E+04  0.31467662631E+04 0.  0.
        4    1    3    3  502    0 -0.12164643265E+04 -0.93820865363E+03  0.27897319635E+03  0.15613611346E+04  0.12699999809E+01 0. -1.
       -4    1    3    3    0  502  0.12164643265E+04  0.93820865363E+03 -0.40128097556E+03  0.15877811466E+04  0.12699999809E+01 0.  1.
</event>
<event>
 5   0  0.1001961E-05  0.2245743E+04  0.7818609E-02  0.8499626E-01
        2   -1    0    0  501    0  0.00000000000E+00  0.00000000000E+00  0.14364109268E+04  0.14364109268E+04  0.25500000920E-02 0. -1.
       -2   -1    0    0    0  501  0.00000000000E+00  0.00000000000E+00 -0.87777174987E+03  0.87777174987E+03  0.25500000920E-02 0.  1.
    10030    2    1    2    0    0  0.00000000000E+00  0.00000000000E+00  0.55863917694E+03  0.23141826767E+04  0.22457434696E+04 0.  0.
        5    1    3    3  502    0 -0.67799380958E+03 -0.31554148363E+03  0.11424473893E+04  0.13654487032E+04  0.46999998093E+01 0. -1.
       -5    1    3    3    0  502  0.67799380958E+03  0.31554148363E+03 -0.58380821233E+03  0.94873397352E+03  0.46999998093E+01 0.  1.
</event>
<event>
 5   0  0.9797278E-06  0.3158512E+04  0.7818609E-02  0.8199861E-01
        2   -1    0    0  501    0  0.00000000000E+00  0.00000000000E+00  0.11383273200E+04  0.11383273200E+04  0.25500000920E-02 0. -1.
       -2   -1    0    0    0  501  0.00000000000E+00  0.00000000000E+00 -0.21909773888E+04  0.21909773888E+04  0.25500000920E-02 0.  1.
    10030    2    1    2    0    0  0.00000000000E+00  0.00000000000E+00 -0.10526500688E+04  0.33293047089E+04  0.31585119403E+04 0.  0.
        1    1    3    3  502    0  0.91131166428E+03 -0.37768600180E+03  0.77361499008E+03  0.12536410245E+04  0.50400001928E-02 0. -1.
       -1    1    3    3    0  502 -0.91131166428E+03  0.37768600180E+03 -0.18262650589E+04  0.20756636844E+04  0.50400001928E-02 0.  1.
</event>
<event>
 5   0  0.9797278E-06  0.3119615E+04  0.7818609E-02  0.8210375E-01
        2   -1    0    0  501    0  0.00000000000E+00  0.00000000000E+00  0.20017166231E+04  0.20017166231E+04  0.25500000920E-02 0. -1.
       -2   -1    0    0    0  501  0.00000000000E+00  0.00000000000E+00 -0.12154563142E+04  0.12154563142E+04  0.25500000920E-02 0.  1.
    10030    2    1    2    0    0  0.00000000000E+00  0.00000000000E+00  0.78626030889E+03  0.32171729373E+04  0.31196147896E+04 0.  0.
        1    1    3    3  502    0 -0.44697301003E+03  0.14466161215E+04  0.77970748080E+03  0.17030639537E+04  0.50400001928E-02 0. -1.
       -1    1    3    3    0  502  0.44697301003E+03 -0.14466161215E+04  0.65528280911E+01  0.15141089836E+04  0.50400001928E-02 0.  1.
</event>
<event>
 5   0  0.4139628E-06  0.3027650E+04  0.7818609E-02  0.8235879E-01
       -1   -1    0    0    0  501  0.00000000000E+00  0.00000000000E+00  0.28698587876E+04  0.28698587876E+04  0.50400001928E-02 0.  1.
        1   -1    0    0  501    0  0.00000000000E+00  0.00000000000E+00 -0.79852930238E+03  0.79852930239E+03  0.50400001928E-02 0. -1.
    10030    2    1    2    0    0  0.00000000000E+00  0.00000000000E+00  0.20713294853E+04  0.36683880900E+04  0.30276501354E+04 0.  0.
        5    1    3    3  502    0 -0.14062787505E+04  0.45432559969E+03  0.14331317547E+04  0.20586209926E+04  0.46999998093E+01 0.  1.
       -5    1    3    3    0  502  0.14062787505E+04 -0.45432559969E+03  0.63819773055E+03  0.16097670975E+04  0.46999998093E+01 0. -1.
</event>
<event>
 5   0  0.4139628E-06  0.3203491E+04  0.7818609E-02  0.8187896E-01
        1   -1    0    0  501    0  0.00000000000E+00  0.00000000000E+00  0.20849018634E+04  0.20849018634E+04  0.50400001928E-02 0. -1.
       -1   -1    0    0    0  501  0.00000000000E+00  0.00000000000E+00 -0.12305562245E+04  0.12305562245E+04  0.50400001928E-02 0.  1.
    10030    2    1    2    0    0  0.00000000000E+00  0.00000000000E+00  0.85434563886E+03  0.33154580879E+04  0.32034911990E+04 0.  0.
        5    1    3    3  502    0  0.64782227378E+03  0.41876095359E+03 -0.10256471527E+04  0.12833583313E+04  0.46999998093E+01 0.  1.
       -5    1    3    3    0  502 -0.64782227378E+03 -0.41876095359E+03  0.18799927916E+04  0.20320997566E+04  0.46999998093E+01 0. -1.
</event>
<event>
 5   0  0.1108153E-05  0.3081089E+04  0.7818609E-02  0.8220947E-01
        2   -1    0    0  501    0  0.00000000000E+00  0.00000000000E+00  0.19219084771E+04  0.19219084771E+04  0.25500000920E-02 0.  1.
       -2   -1    0    0    0  501  0.00000000000E+00  0.00000000000E+00 -0.12348547821E+04  0.12348547821E+04  0.25500000920E-02 0. -1.
    10030    2    1    2    0    0  0.00000000000E+00  0.00000000000E+00  0.68705369493E+03  0.31567632592E+04  0.30810893357E+04 0.  0.
        4    1    3    3  502    0 -0.13080321317E+04  0.33504170393E+03 -0.41635973972E+03  0.14129961241E+04  0.12699999809E+01 0. -1.
       -4    1    3    3    0  502  0.13080321317E+04 -0.33504170393E+03  0.11034134346E+04  0.17437671351E+04  0.12699999809E+01 0.  1.
</event>
<event>
 5   0  0.3807334E-06  0.3075879E+04  0.7818609E-02  0.8222389E-01
        1   -1    0    0  501    0  0.00000000000E+00  0.00000000000E+00  0.16772985985E+04  0.16772985986E+04  0.50400001928E-02 0. -1.
       -1   -1    0    0    0  501  0.00000000000E+00  0.00000000000E+00 -0.14101591976E+04  0.14101591976E+04  0.50400001928E-02 0.  1.
    10030    2    1    2    0    0  0.00000000000E+00  0.00000000000E+00  0.26713940097E+03  0.30874577961E+04  0.30758790911E+04 0.  0.
        4    1    3    3  502    0  0.74767635922E+03  0.10936350296E+03 -0.12109786006E+04  0.14273931126E+04  0.12699999809E+01 0.  1.
       -4    1    3    3    0  502 -0.74767635922E+03 -0.10936350296E+03  0.14781180016E+04  0.16600646835E+04  0.12699999809E+01 0. -1.
</event>
<event>
 5   0  0.1108153E-05  0.3180075E+04  0.7818609E-02  0.8194099E-01
        2   -1    0    0  501    0  0.00000000000E+00  0.00000000000E+00  0.13393360390E+04  0.13393360390E+04  0.25500000920E-02 0. -1.
       -2   -1    0    0    0  501  0.00000000000E+00  0.00000000000E+00 -0.18876661434E+04  0.18876661434E+04  0.25500000920E-02 0.  1.
    10030    2    1    2    0    0  0.00000000000E+00  0.00000000000E+00 -0.54833010436E+03  0.32270021824E+04  0.31800750277E+04 0.  0.
        4    1    3    3  502    0  0.15374260939E+04 -0.10997520124E+03  0.12203749650E+03  0.15461786128E+04  0.12699999809E+01 0. -1.
       -4    1    3    3    0  502 -0.15374260939E+04  0.10997520124E+03 -0.67036760086E+03  0.16808235697E+04  0.12699999809E+01 0.  1.
</event>
<event>
 5   0  0.3838525E-06  0.1819652E+04  0.7818609E-02  0.8695918E-01
       -1   -1    0    0    0  501  0.00000000000E+00  0.00000000000E+00  0.71291696357E+03  0.71291696359E+03  0.50400001928E-02 0. -1.
        1   -1    0    0  501    0  0.00000000000E+00  0.00000000000E+00 -0.11611216607E+04  0.11611216607E+04  0.50400001928E-02 0.  1.
    10030    2    1    2    0    0  0.00000000000E+00  0.00000000000E+00 -0.44820469711E+03  0.18740386243E+04  0.18196519763E+04 0.  0.
        3    1    3    3  502    0  0.41924963235E+03  0.13516885466E+03  0.59577068372E+03  0.74093426921E+03  0.10100000352E+00 0. -1.
       -3    1    3    3    0  502 -0.41924963235E+03 -0.13516885466E+03 -0.10439753808E+04  0.11331043551E+04  0.10100000352E+00 0.  1.
</event>
<event>
 5   0  0.3807334E-06  0.1693097E+04  0.7818609E-02  0.8765311E-01
        1   -1    0    0  501    0  0.00000000000E+00  0.00000000000E+00  0.10874230036E+04  0.10874230036E+04  0.50400001928E-02 0. -1.
       -1   -1    0    0    0  501  0.00000000000E+00  0.00000000000E+00 -0.65903003433E+03  0.65903003435E+03  0.50400001928E-02 0.  1.
    10030    2    1    2    0    0  0.00000000000E+00  0.00000000000E+00  0.42839296922E+03  0.17464530379E+04  0.16930970668E+04 0.  0.
        4    1    3    3  502    0  0.40518511205E+03 -0.21029906828E+03 -0.52118109912E+03  0.69284343407E+03  0.12699999809E+01 0.  1.
       -4    1    3    3    0  502 -0.40518511205E+03  0.21029906828E+03  0.94957406834E+03  0.10536096038E+04  0.12699999809E+01 0. -1.
</event>
<event>
 5   0  0.3848286E-06  0.2266468E+04  0.7818609E-02  0.8491261E-01
       -1   -1    0    0    0  501  0.00000000000E+00  0.00000000000E+00  0.65223526653E+03  0.65223526655E+03  0.50400001928E-02 0.  1.
        1   -1    0    0  501    0  0.00000000000E+00  0.00000000000E+00 -0.19689511934E+04  0.19689511934E+04  0.50400001928E-02 0. -1.
    10030    2    1    2    0    0  0.00000000000E+00  0.00000000000E+00 -0.13167159268E+04  0.26211864599E+04  0.22664680950E+04 0.  0.
        2    1    3    3  502    0  0.11693293459E+03 -0.78608959582E+03 -0.15926333684E+04  0.17799132591E+04  0.25500000920E-02 0. -1.
       -2    1    3    3    0  502 -0.11693293459E+03  0.78608959582E+03  0.27591744155E+03  0.84127320082E+03  0.25500000920E-02 0.  1.
</event>
<event>
 5   0  0.9797278E-06  0.3089763E+04  0.7818609E-02  0.8218553E-01
        2   -1    0    0  501    0  0.00000000000E+00  0.00000000000E+00  0.85691760242E+03  0.85691760242E+03  0.25500000920E-02 0.  1.
       -2   -1    0    0    0  501  0.00000000000E+00  0.00000000000E+00 -0.27851665822E+04  0.27851665822E+04  0.25500000920E-02 0. -1.
    10030    2    1    2    0    0  0.00000000000E+00  0.00000000000E+00 -0.19282489797E+04  0.36420841846E+04  0.30897626251E+04 0.  0.
        1    1    3    3  502    0  0.46381545815E+03  0.14523898645E+03 -0.26927003404E+04  0.27362116631E+04  0.50400001928E-02 0. -1.
       -1    1    3    3    0  502 -0.46381545815E+03 -0.14523898645E+03  0.76445136060E+03  0.90587252148E+03  0.50400001928E-02 0.  1.
</event>
<event>
 5   0  0.4250961E-06  0.3105874E+04  0.7818609E-02  0.8214128E-01
        1   -1    0    0  501    0  0.00000000000E+00  0.00000000000E+00  0.28716705399E+04  0.28716705399E+04  0.50400001928E-02 0.  1.
       -1   -1    0    0    0  501  0.00000000000E+00  0.00000000000E+00 -0.83979433678E+03  0.83979433680E+03  0.50400001928E-02 0. -1.
    10030    2    1    2    0    0  0.00000000000E+00  0.00000000000E+00  0.20318762032E+04  0.37114648767E+04  0.31058735690E+04 0.  0.
        1    1    3    3  502    0 -0.44625331178E+03 -0.13098749130E+04  0.17375225027E+03  0.13946699073E+04  0.50400001928E-02 0. -1.
       -1    1    3    3    0  502  0.44625331178E+03  0.13098749130E+04  0.18581239529E+04  0.23167949694E+04  0.50400001928E-02 0.  1.
</event>
<event>
 5   0  0.9797278E-06  0.3048344E+04  0.7818609E-02  0.8230059E-01
       -2   -1    0    0    0  501  0.00000000000E+00  0.00000000000E+00  0.26802124606E+04  0.26802124606E+04  0.25500000920E-02 0.  1.
        2   -1    0    0  501    0  0.00000000000E+00  0.00000000000E+00 -0.86675954950E+03  0.86675954950E+03  0.25500000920E-02 0. -1.
    10030    2    1    2    0    0  0.00000000000E+00  0.00000000000E+00  0.18134529111E+04  0.35469720101E+04  0.30483436453E+04 0.  0.
        1    1    3    3  502    0 -0.25183131167E+03 -0.72254020431E+01  0.26558172810E+04  0.26677399885E+04  0.50400001928E-02 0.  1.
       -1    1    3    3    0  502  0.25183131167E+03  0.72254020431E+01 -0.84236436996E+03  0.87923202158E+03  0.50400001928E-02 0. -1.
</event>
<event>
 5   0  0.1119100E-05  0.3085093E+04  0.7818609E-02  0.8219841E-01
       -2   -1    0    0    0  501  0.00000000000E+00  0.00000000000E+00  0.21392244368E+04  0.21392244368E+04  0.25500000920E-02 0. -1.
        2   -1    0    0  501    0  0.00000000000E+00  0.00000000000E+00 -0.11122956762E+04  0.11122956762E+04  0.25500000920E-02 0.  1.
    10030    2    1    2    0    0  0.00000000000E+00  0.00000000000E+00  0.10269287606E+04  0.32515201130E+04  0.30850932508E+04 0.  0.
        2    1    3    3  502    0 -0.12746751230E+04  0.82380329425E+03  0.22290868854E+03  0.15339937484E+04  0.25500000920E-02 0. -1.
       -2    1    3    3    0  502  0.12746751230E+04 -0.82380329425E+03  0.80402007204E+03  0.17175263646E+04  0.25500000920E-02 0.  1.
</event>
<event>
 5   0  0.1108153E-05  0.3094899E+04  0.7818609E-02  0.8217139E-01
        2   -1    0    0  501    0  0.00000000000E+00  0.00000000000E+00  0.16261038471E+04  0.16261038471E+04  0.25500000920E-02 0.  1.
       -2   -1    0    0    0  501  0.00000000000E+00  0.00000000000E+00 -0.14725996835E+04  0.14725996835E+04  0.25500000920E-02 0. -1.
    10030    2    1    2    0    0  0.00000000000E+00  0.00000000000E+00  0.15350416360E+03  0.30987035306E+04  0.30948990359E+04 0.  0.
        4    1    3    3  502    0  0.61480673506E+03 -0.92538842464E+03  0.11552332721E+04  0.16027777712E+04  0.12699999809E+01 0.  1.
       -4    1    3    3    0  502 -0.61480673506E+03  0.92538842464E+03 -0.10017291085E+04  0.14959257594E+04  0.12699999809E+01 0. -1.
</event>
<event>
 5   0  0.3807334E-06  0.2981875E+04  0.7818609E-02  0.8248925E-01
       -1   -1    0    0    0  501  0.00000000000E+00  0.00000000000E+00  0.20388826088E+04  0.20388826088E+04  0.50400001928E-02 0. -1.
        1   -1    0    0  501    0  0.00000000000E+00  0.00000000000E+00 -0.10902517300E+04  0.10902517300E+04  0.50400001928E-02 0.  1.
    10030    2    1    2    0    0  0.00000000000E+00  0.00000000000E+00  0.94863087882E+03  0.31291343388E+04  0.29818754444E+04 0.  0.
        4    1    3    3  502    0  0.14739533478E+04  0.22008820461E+03  0.52025391568E+03  0.15784939148E+04  0.12699999809E+01 0.  1.
       -4    1    3    3    0  502 -0.14739533478E+04 -0.22008820461E+03  0.42837696314E+03  0.15506404241E+04  0.12699999809E+01 0. -1.
</event>
<event>
 5   0  0.4250961E-06  0.3145160E+04  0.7818609E-02  0.8203452E-01
        1   -1    0    0  501    0  0.00000000000E+00  0.00000000000E+00  0.15152238581E+04  0.15152238582E+04  0.50400001928E-02 0.  1.
       -1   -1    0    0    0  501  0.00000000000E+00  0.00000000000E+00 -0.16321072964E+04  0.16321072965E+04  0.50400001928E-02 0. -1.
    10030    2    1    2    0    0  0.00000000000E+00  0.00000000000E+00 -0.11688343830E+03  0.31473311546E+04  0.31451600370E+04 0.  0.
        1    1    3    3  502    0  0.12658024159E+04 -0.82727901827E+03 -0.49043589244E+03  0.15897086823E+04  0.50400001928E-02 0. -1.
       -1    1    3    3    0  502 -0.12658024159E+04  0.82727901827E+03  0.37355245414E+03  0.15576224723E+04  0.50400001928E-02 0.  1.
</event>
<event>
 5   0  0.1108153E-05  0.3157936E+04  0.7818609E-02  0.8200015E-01
       -2   -1    0    0    0  501  0.00000000000E+00  0.00000000000E+00  0.14234564784E+04  0.14234564784E+04  0.25500000920E-02 0.  1.
        2   -1    0    0  501    0  0.00000000000E+00  0.00000000000E+00 -0.17514691650E+04  0.17514691650E+04  0.25500000920E-02 0. -1.
    10030    2    1    2    0    0  0.00000000000E+00  0.00000000000E+00 -0.32801268668E+03  0.31749256434E+04  0.31579361169E+04 0.  0.
        4    1    3    3  502    0 -0.86712859041E+03  0.17675267258E+02  0.11625291996E+04  0.14504137893E+04  0.12699999809E+01 0.  1.
       -4    1    3    3    0  502  0.86712859041E+03 -0.17675267258E+02 -0.14905418863E+04  0.17245118541E+04  0.12699999809E+01 0. -1.
</event>
<event>
 5   0  0.1001961E-05  0.3155697E+04  0.7818609E-02  0.8200616E-01
       -2   -1    0    0    0  501  0.00000000000E+00  0.00000000000E+00  0.10041130634E+04  0.10041130634E+04  0.25500000920E-02 0.  1.
        2   -1    0    0  501    0  0.00000000000E+00  0.00000000000E+00 -0.24794084344E+04  0.24794084344E+04  0.25500000920E-02 0. -1.
    10030    2    1    2    0    0  0.00000000000E+00  0.00000000000E+00 -0.14752953710E+04  0.34835214978E+04  0.31556973229E+04 0.  0.
        5    1    3    3  502    0  0.12058622154E+04 -0.99283313968E+03 -0.49139761975E+03  0.16374721483E+04  0.46999998093E+01 0. -1.
       -5    1    3    3    0  502 -0.12058622154E+04  0.99283313968E+03 -0.98389775125E+03  0.18460493495E+04  0.46999998093E+01 0.  1.
</event>
<event>
 5   0  0.3848286E-06  0.3014157E+04  0.7818609E-02  0.8239700E-01
        1   -1    0    0  501    0  0.00000000000E+00  0.00000000000E+00  0.99969227992E+03  0.99969227993E+03  0.50400001928E-02 0. -1.
       -1   -1    0    0    0  501  0.00000000000E+00  0.00000000000E+00 -0.22719851269E+04  0.22719851269E+04  0.50400001928E-02 0.  1.
    10030    2    1    2    0    0  0.00000000000E+00  0.00000000000E+00 -0.12722928470E+04  0.32716774069E+04  0.30141572564E+04 0.  0.
        2    1    3    3  502    0  0.12555243258E+04  0.79006543817E+03 -0.92484255872E+03  0.17481071157E+04  0.25500000920E-02 0. -1.
       -2    1    3    3    0  502 -0.12555243258E+04 -0.79006543817E+03 -0.34745028828E+03  0.15235702912E+04  0.25500000920E-02 0.  1.
</event>
<event>
 5   0  0.3838525E-06  0.1993012E+04  0.7818609E-02  0.8609895E-01
        1   -1    0    0  501    0  0.00000000000E+00  0.00000000000E+00  0.93427707051E+03  0.93427707052E+03  0.50400001928E-02 0.  1.
       -1   -1    0    0    0  501  0.00000000000E+00  0.00000000000E+00 -0.10628800255E+04  0.10628800256E+04  0.50400001928E-02 0. -1.
    10030    2    1    2    0    0  0.00000000000E+00  0.00000000000E+00 -0.12860295504E+03  0.19971570961E+04  0.19930122294E+04 0.  0.
        3    1    3    3  502    0  0.32909374511E+03 -0.39923925131E+03  0.78913265976E+03  0.94362335588E+03  0.10100000352E+00 0.  1.
       -3    1    3    3    0  502 -0.32909374511E+03  0.39923925131E+03 -0.91773561480E+03  0.10535337402E+04  0.10100000352E+00 0. -1.
</event>
<event>
 5   0  0.1119100E-05  0.2948577E+04  0.7818609E-02  0.8258569E-01
        2   -1    0    0  501    0  0.00000000000E+00  0.00000000000E+00  0.12785814859E+04  0.12785814859E+04  0.25500000920E-02 0.  1.
       -2   -1    0    0    0  501  0.00000000000E+00  0.00000000000E+00 -0.16999513371E+04  0.16999513371E+04  0.25500000920E-02 0. -1.
    10030    2    1    2    0    0  0.00000000000E+00  0.00000000000E+00 -0.42136985114E+03  0.29785328230E+04  0.29485768137E+04 0.  0.
        2    1    3    3  502    0 -0.10990823119E+04  0.73633522867E+03  0.44658262711E+03  0.13962834742E+04  0.25500000920E-02 0.  1.
       -2    1    3    3    0  502  0.10990823119E+04 -0.73633522867E+03 -0.86795247825E+03  0.15822493488E+04  0.25500000920E-02 0. -1.
</event>
<event>
 5   0  0.1108153E-05  0.3281424E+04  0.7818609E-02  0.8167638E-01
       -2   -1    0    0    0  501  0.00000000000E+00  0.00000000000E+00  0.17726373259E+04  0.17726373259E+04  0.25500000920E-02 0.  1.
        2   -1    0    0  501    0  0.00000000000E+00  0.00000000000E+00 -0.15186049152E+04  0.15186049152E+04  0.25500000920E-02 0. -1.
    10030    2    1    2    0    0  0.00000000000E+00  0.00000000000E+00  0.25403241067E+03  0.32912422411E+04  0.32814239323E+04 0.  0.
        4    1    3    3  502    0  0.50118474170E+03  0.11475568083E+04  0.11903114676E+04  0.17276908799E+04  0.12699999809E+01 0.  1.
       -4    1    3    3    0  502 -0.50118474170E+03 -0.11475568083E+04 -0.93627905696E+03  0.15635513612E+04  0.12699999809E+01 0. -1.
</event>
<event>
 5   0  0.4250961E-06  0.2941001E+04  0.7818609E-02  0.8260782E-01
        1   -1    0    0  501    0  0.00000000000E+00  0.00000000000E+00  0.16029850257E+04  0.16029850258E+04  0.50400001928E-02 0.  1.
       -1   -1    0    0    0  501  0.00000000000E+00  0.00000000000E+00 -0.13489654150E+04  0.13489654150E+04  0.50400001928E-02 0. -1.
    10030    2    1    2    0    0  0.00000000000E+00  0.00000000000E+00  0.25401961072E+03  0.29519504408E+04  0.29410007552E+04 0.  0.
        1    1    3    3  502    0 -0.12451268864E+04 -0.70481557381E+03  0.46778142214E+03  0.15052991116E+04  0.50400001928E-02 0. -1.
       -1    1    3    3    0  502  0.12451268864E+04  0.70481557381E+03 -0.21376181142E+03  0.14466513292E+04  0.50400001928E-02 0.  1.
</event>
<event>
 5   0  0.4250961E-06  0.1963286E+04  0.7818609E-02  0.8623981E-01
       -1   -1    0    0    0  501  0.00000000000E+00  0.00000000000E+00  0.10430696041E+04  0.10430696041E+04  0.50400001928E-02 0.  1.
        1   -1    0    0  501    0  0.00000000000E+00  0.00000000000E+00 -0.92383369780E+03  0.92383369781E+03  0.50400001928E-02 0. -1.
    10030    2    1    2    0    0  0.00000000000E+00  0.00000000000E+00  0.11923590627E+03  0.19669033019E+04  0.19632858675E+04 0.  0.
        1    1    3    3  502    0 -0.42060927979E+03  0.45206642405E+03 -0.70490451437E+03  0.93710543292E+03  0.50400001928E-02 0. -1.
       -1    1    3    3    0  502  0.42060927979E+03 -0.45206642405E+03  0.82414042064E+03  0.10297978690E+04  0.50400001928E-02 0.  1.
</event>
<event>
 5   0  0.1007567E-05  0.3019084E+04  0.7818609E-02  0.8238302E-01
       -2   -1    0    0    0  501  0.00000000000E+00  0.00000000000E+00  0.98479485589E+03  0.98479485590E+03  0.25500000920E-02 0.  1.
        2   -1    0    0  501    0  0.00000000000E+00  0.00000000000E+00 -0.23139003884E+04  0.23139003884E+04  0.25500000920E-02 0. -1.
    10030    2    1    2    0    0  0.00000000000E+00  0.00000000000E+00 -0.13291055325E+04  0.32986952443E+04  0.30190840992E+04 0.  0.
        3    1    3    3  502    0 -0.14685738579E+04  0.29995995223E+03 -0.86010342559E+03  0.17281386119E+04  0.10100000352E+00 0. -1.
       -3    1    3    3    0  502  0.14685738579E+04 -0.29995995223E+03 -0.46900210693E+03  0.15705566324E+04  0.10100000352E+00 0.  1.
</event>
<event>
 5   0  0.3807334E-06  0.3299964E+04  0.7818609E-02  0.8162905E-01
       -1   -1    0    0    0  501  0.00000000000E+00  0.00000000000E+00  0.16028361168E+04  0.16028361168E+04  0.50400001928E-02 0. -1.
        1   -1    0    0  501    0  0.00000000000E+00  0.00000000000E+00 -0.16985141487E+04  0.16985141487E+04  0.50400001928E-02 0.  1.
    10030    2    1    2    0    0  0.00000000000E+00  0.00000000000E+00 -0.95678031951E+02  0.33013502655E+04  0.32999635285E+04 0.  0.
        4    1    3    3  502    0 -0.15884433751E+04  0.28653824851E+03  0.29462294186E+03  0.16407500768E+04  0.12699999809E+01 0. -1.
       -4    1    3    3    0  502  0.15884433751E+04 -0.28653824851E+03 -0.39030097382E+03  0.16606001887E+04  0.12699999809E+01 0.  1.
</event>
<event>
 5   0  0.4250961E-06  0.3135555E+04  0.7818609E-02  0.8206047E-01
        1   -1    0    0  501    0  0.00000000000E+00  0.00000000000E+00  0.14627710059E+04  0.14627710059E+04  0.50400001928E-02 0.  1.
       -1   -1    0    0    0  501  0.00000000000E+00  0.00000000000E+00 -0.16803218608E+04  0.16803218608E+04  0.50400001928E-02 0. -1.
    10030    2    1    2    0    0  0.00000000000E+00  0.00000000000E+00 -0.21755085487E+03  0.31430928667E+04  0.31355548782E+04 0.  0.
        1    1    3    3  502    0 -0.43296510535E+03  0.44833348027E+03  0.13332462447E+04  0.14717361316E+04  0.50400001928E-02 0.  1.
       -1    1    3    3    0  502  0.43296510535E+03 -0.44833348027E+03 -0.15507970996E+04  0.16713567351E+04  0.50400001928E-02 0. -1.
</event>
<event>
 5   0  0.4250961E-06  0.3002528E+04  0.7818609E-02  0.8243009E-01
       -1   -1    0    0    0  501  0.00000000000E+00  0.00000000000E+00  0.13567475930E+04  0.13567475930E+04  0.50400001928E-02 0. -1.
        1   -1    0    0  501    0  0.00000000000E+00  0.00000000000E+00 -0.16611735381E+04  0.16611735382E+04  0.50400001928E-02 0.  1.
    10030    2    1    2    0    0  0.00000000000E+00  0.00000000000E+00 -0.30442594515E+03  0.30179211312E+04  0.30025277347E+04 0.  0.
        1    1    3    3  502    0  0.76214979769E+03 -0.12732282684E+04  0.76573545317E+02  0.14858822448E+04  0.50400001928E-02 0.  1.
       -1    1    3    3    0  502 -0.76214979769E+03  0.12732282684E+04 -0.38099949046E+03  0.15320388864E+04  0.50400001928E-02 0. -1.
</event>
<event>
 5   0  0.3838525E-06  0.2700347E+04  0.7818609E-02  0.8334892E-01
        1   -1    0    0  501    0  0.00000000000E+00  0.00000000000E+00  0.26561900842E+04  0.26561900842E+04  0.50400001928E-02 0.  1.
       -1   -1    0    0    0  501  0.00000000000E+00  0.00000000000E+00 -0.68630941668E+03  0.68630941670E+03  0.50400001928E-02 0. -1.
    10030    2    1    2    0    0  0.00000000000E+00  0.00000000000E+00  0.19698806675E+04  0.33424995009E+04  0.27003468424E+04 0.  0.
        3    1    3    3  502    0  0.23019249852E+03 -0.12332086321E+04  0.36705906697E+03  0.13071053843E+04  0.10100000352E+00 0. -1.
       -3    1    3    3    0  502 -0.23019249852E+03  0.12332086321E+04  0.16028216005E+04  0.20353941166E+04  0.10100000352E+00 0.  1.
</event>
<event>
 5   0  0.1001961E-05  0.2881210E+04  0.7818609E-02  0.8278490E-01
        2   -1    0    0  501    0  0.00000000000E+00  0.00000000000E+00  0.13295406282E+04  0.13295406282E+04  0.25500000920E-02 0.  1.
       -2   -1    0    0    0  501  0.00000000000E+00  0.00000000000E+00 -0.15609477556E+04  0.15609477556E+04  0.25500000920E-02 0. -1.
    10030    2    1    2    0    0  0.00000000000E+00  0.00000000000E+00 -0.23140712744E+03  0.28904883838E+04  0.28812104815E+04 0.  0.
        5    1    3    3  502    0  0.85896276737E+02 -0.12362630716E+04 -0.85264153078E+03  0.15042420758E+04  0.46999998093E+01 0. -1.
       -5    1    3    3    0  502 -0.85896276737E+02  0.12362630716E+04  0.62123440334E+03  0.13862463080E+04  0.46999998093E+01 0.  1.
</event>
<event>
 5   0  0.3807334E-06  0.3026473E+04  0.7818609E-02  0.8236212E-01
        1   -1    0    0  501    0  0.00000000000E+00  0.00000000000E+00  0.17014028363E+04  0.17014028363E+04  0.50400001928E-02 0. -1.
       -1   -1    0    0    0  501  0.00000000000E+00  0.00000000000E+00 -0.13458801117E+04  0.13458801117E+04  0.50400001928E-02 0.  1.
    10030    2    1    2    0    0  0.00000000000E+00  0.00000000000E+00  0.35552272458E+03  0.30472829480E+04  0.30264726924E+04 0.  0.
        4    1    3    3  502    0  0.85382107511E+03 -0.94676279223E+03 -0.64302016000E+03  0.14278819111E+04  0.12699999809E+01 0.  1.
       -4    1    3    3    0  502 -0.85382107511E+03  0.94676279223E+03  0.99854288457E+03  0.16194010369E+04  0.12699999809E+01 0. -1.
</event>
<event>
 5   0  0.4250961E-06  0.3109259E+04  0.7818609E-02  0.8213201E-01
        1   -1    0    0  501    0  0.00000000000E+00  0.00000000000E+00  0.19987049056E+04  0.19987049056E+04  0.50400001928E-02 0.  1.
       -1   -1    0    0    0  501  0.00000000000E+00  0.00000000000E+00 -0.12092196814E+04  0.12092196814E+04  0.50400001928E-02 0. -1.
    10030    2    1    2    0    0  0.00000000000E+00  0.00000000000E+00  0.78948522415E+03  0.32079245870E+04  0.31092592746E+04 0.  0.
        1    1    3    3  502    0  0.72855410113E+03  0.17401679753E+03  0.18002490589E+04  0.19498639948E+04  0.50400001928E-02 0.  1.
       -1    1    3    3    0  502 -0.72855410113E+03 -0.17401679753E+03 -0.10107638347E+04  0.12580605922E+04  0.50400001928E-02 0. -1.
</event>
<event>
 5   0  0.4250961E-06  0.3043779E+04  0.7818609E-02  0.8231339E-01
        1   -1    0    0  501    0  0.00000000000E+00  0.00000000000E+00  0.16389161786E+04  0.16389161786E+04  0.50400001928E-02 0. -1.
       -1   -1    0    0    0  501  0.00000000000E+00  0.00000000000E+00 -0.14132188505E+04  0.14132188505E+04  0.50400001928E-02 0.  1.
    10030    2    1    2    0    0  0.00000000000E+00  0.00000000000E+00  0.22569732806E+03  0.30521350291E+04  0.30437787292E+04 0.  0.
        1    1    3    3  502    0 -0.30065947010E+03 -0.10071414263E+04  0.12165143640E+04  0.16076806795E+04  0.50400001928E-02 0. -1.
       -1    1    3    3    0  502  0.30065947010E+03  0.10071414263E+04 -0.99081703594E+03  0.14444543496E+04  0.50400001928E-02 0.  1.
</event>
<event>
 5   0  0.1001961E-05  0.3019735E+04  0.7818609E-02  0.8238118E-01
        2   -1    0    0  501    0  0.00000000000E+00  0.00000000000E+00  0.17572207639E+04  0.17572207639E+04  0.25500000920E-02 0.  1.
       -2   -1    0    0    0  501  0.00000000000E+00  0.00000000000E+00 -0.12973329883E+04  0.12973329883E+04  0.25500000920E-02 0. -1.
    10030    2    1    2    0    0  0.00000000000E+00  0.00000000000E+00  0.45988777553E+03  0.30545537522E+04  0.30197353955E+04 0.  0.
        5    1    3    3  502    0 -0.70105299251E+03 -0.74851017273E+03 -0.89095561703E+03  0.13585163888E+04  0.46999998093E+01 0. -1.
       -5    1    3    3    0  502  0.70105299251E+03  0.74851017273E+03  0.13508433926E+04  0.16960373634E+04  0.46999998093E+01 0.  1.
</event>
<event>
 5   0  0.1108153E-05  0.1913669E+04  0.7818609E-02  0.8648082E-01
        2   -1    0    0  501    0  0.00000000000E+00  0.00000000000E+00  0.85231721465E+03  0.85231721466E+03  0.25500000920E-02 0. -1.
       -2   -1    0    0    0  501  0.00000000000E+00  0.00000000000E+00 -0.10741684484E+04  0.10741684485E+04  0.25500000920E-02 0.  1.
    10030    2    1    2    0    0  0.00000000000E+00  0.00000000000E+00 -0.22185123380E+03  0.19264856631E+04  0.19136689996E+04 0.  0.
        4    1    3    3  502    0  0.92679433596E+03  0.97757915545E+02 -0.32923346364E+03  0.98838283964E+03  0.12699999809E+01 0.  1.
       -4    1    3    3    0  502 -0.92679433596E+03 -0.97757915545E+02  0.10738222984E+03  0.93810282347E+03  0.12699999809E+01 0. -1.
</event>
<event>
 5   0  0.4139628E-06  0.2021510E+04  0.7818609E-02  0.8596630E-01
        1   -1    0    0  501    0  0.00000000000E+00  0.00000000000E+00  0.10056949204E+04  0.10056949204E+04  0.50400001928E-02 0.  1.
       -1   -1    0    0    0  501  0.00000000000E+00  0.00000000000E+00 -0.10158402283E+04  0.10158402284E+04  0.50400001928E-02 0. -1.
    10030    2    1    2    0    0  0.00000000000E+00  0.00000000000E+00 -0.10145307915E+02  0.20215351488E+04  0.20215096909E+04 0.  0.
        5    1    3    3  502    0 -0.56822089687E+03 -0.29269708597E+03 -0.78806188569E+03  0.10146970964E+04  0.46999998093E+01 0. -1.
       -5    1    3    3    0  502  0.56822089687E+03  0.29269708597E+03  0.77791657777E+03  0.10068380524E+04  0.46999998093E+01 0.  1.
</event>
<event>
 5   0  0.9797278E-06  0.2602564E+04  0.7818609E-02  0.8367331E-01
        2   -1    0    0  501    0  0.00000000000E+00  0.00000000000E+00  0.32746531645E+04  0.32746531645E+04  0.25500000920E-02 0. -1.
       -2   -1    0    0    0  501  0.00000000000E+00  0.00000000000E+00 -0.51710343585E+03  0.51710343585E+03  0.25500000920E-02 0.  1.
    10030    2    1    2    0    0  0.00000000000E+00  0.00000000000E+00  0.27575497286E+04  0.37917566003E+04  0.26025636611E+04 0.  0.
        1    1    3    3  502    0  0.28998376429E+02  0.11242131716E+04  0.23326346668E+04  0.25895715186E+04  0.50400001928E-02 0. -1.
       -1    1    3    3    0  502 -0.28998376429E+02 -0.11242131716E+04  0.42491506180E+03  0.12021850817E+04  0.50400001928E-02 0.  1.
</event>
<event>
 5   0  0.3838525E-06  0.1538841E+04  0.7818609E-02  0.8859027E-01
       -1   -1    0    0    0  501  0.00000000000E+00  0.00000000000E+00  0.74963539969E+03  0.74963539971E+03  0.50400001928E-02 0.  1.
        1   -1    0    0  501    0  0.00000000000E+00  0.00000000000E+00 -0.78972808633E+03  0.78972808634E+03  0.50400001928E-02 0. -1.
    10030    2    1    2    0    0  0.00000000000E+00  0.00000000000E+00 -0.40092686639E+02  0.15393634860E+04  0.15388412909E+04 0.  0.
        3    1    3    3  502    0  0.45766167479E+03  0.46920465165E+03  0.38308036592E+03  0.75918231714E+03  0.10100000352E+00 0.  1.
       -3    1    3    3    0  502 -0.45766167479E+03 -0.46920465165E+03 -0.42317305256E+03  0.78018116891E+03  0.10100000352E+00 0. -1.
</event>
<event>
 5   0  0.1119100E-05  0.2797549E+04  0.7818609E-02  0.8304030E-01
       -2   -1    0    0    0  501  0.00000000000E+00  0.00000000000E+00  0.80720095577E+03  0.80720095578E+03  0.25500000920E-02 0. -1.
        2   -1    0    0  501    0  0.00000000000E+00  0.00000000000E+00 -0.24238940691E+04  0.24238940691E+04  0.25500000920E-02 0.  1.
    10030    2    1    2    0    0  0.00000000000E+00  0.00000000000E+00 -0.16166931133E+04  0.32310950249E+04  0.27975486479E+04 0.  0.
        2    1    3    3  502    0  0.11014948293E+04  0.78251014744E+03 -0.12263076060E+04  0.18246762273E+04  0.25500000920E-02 0. -1.
       -2    1    3    3    0  502 -0.11014948293E+04 -0.78251014744E+03 -0.39038550728E+03  0.14064187976E+04  0.25500000920E-02 0.  1.
</event>
<event>
 5   0  0.9797278E-06  0.3041602E+04  0.7818609E-02  0.8231950E-01
        2   -1    0    0  501    0  0.00000000000E+00  0.00000000000E+00  0.15003112032E+04  0.15003112032E+04  0.25500000920E-02 0.  1.
       -2   -1    0    0    0  501  0.00000000000E+00  0.00000000000E+00 -0.15415706811E+04  0.15415706811E+04  0.25500000920E-02 0. -1.
    10030    2    1    2    0    0  0.00000000000E+00  0.00000000000E+00 -0.41259477891E+02  0.30418818844E+04  0.30416020539E+04 0.  0.
        1    1    3    3  502    0 -0.13758777963E+04  0.63068108501E+03 -0.16909346250E+03  0.15229546745E+04  0.50400001928E-02 0. -1.
       -1    1    3    3    0  502  0.13758777963E+04 -0.63068108501E+03  0.12783398461E+03  0.15189272099E+04  0.50400001928E-02 0.  1.
</event>
<event>
 5   0  0.3807334E-06  0.3123606E+04  0.7818609E-02  0.8209289E-01
        1   -1    0    0  501    0  0.00000000000E+00  0.00000000000E+00  0.18713476070E+04  0.18713476070E+04  0.50400001928E-02 0. -1.
       -1   -1    0    0    0  501  0.00000000000E+00  0.00000000000E+00 -0.13034610598E+04  0.13034610598E+04  0.50400001928E-02 0.  1.
    10030    2    1    2    0    0  0.00000000000E+00  0.00000000000E+00  0.56788654722E+03  0.31748086668E+04  0.31236060796E+04 0.  0.
        4    1    3    3  502    0  0.94428663371E+03  0.11669086568E+04 -0.15425503126E+03  0.15090226265E+04  0.12699999809E+01 0.  1.
       -4    1    3    3    0  502 -0.94428663371E+03 -0.11669086568E+04  0.72214157848E+03  0.16657860403E+04  0.12699999809E+01 0. -1.
</event>
<event>
 5   0  0.9797278E-06  0.1637803E+04  0.7818609E-02  0.8797655E-01
       -2   -1    0    0    0  501  0.00000000000E+00  0.00000000000E+00  0.12867846698E+04  0.12867846698E+04  0.25500000920E-02 0. -1.
        2   -1    0    0  501    0  0.00000000000E+00  0.00000000000E+00 -0.52114345308E+03  0.52114345309E+03  0.25500000920E-02 0.  1.
    10030    2    1    2    0    0  0.00000000000E+00  0.00000000000E+00  0.76564121668E+03  0.18079281229E+04  0.16378026819E+04 0.  0.
        1    1    3    3  502    0  0.46786256190E+03 -0.34686842218E+03 -0.25263742629E+03  0.63485332819E+03  0.50400001928E-02 0.  1.
       -1    1    3    3    0  502 -0.46786256190E+03  0.34686842218E+03  0.10182786430E+04  0.11730747947E+04  0.50400001928E-02 0. -1.
</event>
<event>
 5   0  0.3848286E-06  0.2965154E+04  0.7818609E-02  0.8253752E-01
       -1   -1    0    0    0  501  0.00000000000E+00  0.00000000000E+00  0.14190605752E+04  0.14190605752E+04  0.50400001928E-02 0. -1.
        1   -1    0    0  501    0  0.00000000000E+00  0.00000000000E+00 -0.15489364640E+04  0.15489364640E+04  0.50400001928E-02 0.  1.
    10030    2    1    2    0    0  0.00000000000E+00  0.00000000000E+00 -0.12987588879E+03  0.29679970393E+04  0.29651540733E+04 0.  0.
        2    1    3    3  502    0  0.51127733053E+03 -0.93824923331E+03  0.96382105929E+03  0.14389812948E+04  0.25500000920E-02 0. -1.
       -2    1    3    3    0  502 -0.51127733053E+03  0.93824923331E+03 -0.10936969481E+04  0.15290157444E+04  0.25500000920E-02 0.  1.
</event>
<event>
 5   0  0.1108153E-05  0.3028176E+04  0.7818609E-02  0.8235731E-01
        2   -1    0    0  501    0  0.00000000000E+00  0.00000000000E+00  0.27910936368E+04  0.27910936368E+04  0.25500000920E-02 0. -1.
       -2   -1    0    0    0  501  0.00000000000E+00  0.00000000000E+00 -0.82134896857E+03  0.82134896857E+03  0.25500000920E-02 0.  1.
    10030    2    1    2    0    0  0.00000000000E+00  0.00000000000E+00  0.19697446683E+04  0.36124426054E+04  0.30281756090E+04 0.  0.
        4    1    3    3  502    0 -0.79268207636E+03 -0.35883306314E+03 -0.49329701619E+03  0.10002247750E+04  0.12699999809E+01 0.  1.
       -4    1    3    3    0  502  0.79268207636E+03  0.35883306314E+03  0.24630416845E+04  0.26122178304E+04  0.12699999809E+01 0. -1.
</event>
<event>
 5   0  0.1007567E-05  0.3103582E+04  0.7818609E-02  0.8214755E-01
       -2   -1    0    0    0  501  0.00000000000E+00  0.00000000000E+00  0.13150216493E+04  0.13150216493E+04  0.25500000920E-02 0. -1.
        2   -1    0    0  501    0  0.00000000000E+00  0.00000000000E+00 -0.18311910497E+04  0.18311910497E+04  0.25500000920E-02 0.  1.
    10030    2    1    2    0    0  0.00000000000E+00  0.00000000000E+00 -0.51616940035E+03  0.31462126990E+04  0.31035823652E+04 0.  0.
        3    1    3    3  502    0 -0.59107648864E+03 -0.13139197824E+04  0.32628741924E+03  0.14772339355E+04  0.10100000352E+00 0. -1.
       -3    1    3    3    0  502  0.59107648864E+03  0.13139197824E+04 -0.84245681960E+03  0.16689787635E+04  0.10100000352E+00 0.  1.
</event>
<event>
 5   0  0.3848286E-06  0.2959334E+04  0.7818609E-02  0.8255440E-01
       -1   -1    0    0    0  501  0.00000000000E+00  0.00000000000E+00  0.12454066990E+04  0.12454066990E+04  0.50400001928E-02 0. -1.
        1   -1    0    0  501    0  0.00000000000E+00  0.00000000000E+00 -0.17579911029E+04  0.17579911029E+04  0.50400001928E-02 0.  1.
    10030    2    1    2    0    0  0.00000000000E+00  0.00000000000E+00 -0.51258440386E+03  0.30033978019E+04  0.29593336388E+04 0.  0.
        2    1    3    3  502    0 -0.12495641109E+04  0.70321340247E+03 -0.62710127632E+03  0.15649842068E+04  0.25500000920E-02 0.  1.
       -2    1    3    3    0  502  0.12495641109E+04 -0.70321340247E+03  0.11451687246E+03  0.14384135952E+04  0.25500000920E-02 0. -1.
</event>
<event>
 5   0  0.3807334E-06  0.3105745E+04  0.7818609E-02  0.8214163E-01
       -1   -1    0    0    0  501  0.00000000000E+00  0.00000000000E+00  0.12891987803E+04  0.12891987803E+04  0.50400001928E-02 0.  1.
        1   -1    0    0  501    0  0.00000000000E+00  0.00000000000E+00 -0.18704739876E+04  0.18704739876E+04  0.50400001928E-02 0. -1.
    10030    2    1    2    0    0  0.00000000000E+00  0.00000000000E+00 -0.58127520734E+03  0.31596727679E+04  0.31057448597E+04 0.  0.
        4    1    3    3  502    0 -0.14983733447E+04 -0.40722832624E+03 -0.26897035996E+03  0.15758503283E+04  0.12699999809E+01 0. -1.
       -4    1    3    3    0  502  0.14983733447E+04  0.40722832624E+03 -0.31230484738E+03  0.15838224396E+04  0.12699999809E+01 0.  1.
</event>
<event>
 5   0  0.3838525E-06  0.2897551E+04  0.7818609E-02  0.8273606E-01
        1   -1    0    0  501    0  0.00000000000E+00  0.00000000000E+00  0.12354707704E+04  0.12354707704E+04  0.50400001928E-02 0.  1.
       -1   -1    0    0    0  501  0.00000000000E+00  0.00000000000E+00 -0.16989079229E+04  0.16989079230E+04  0.50400001928E-02 0. -1.
    10030    2    1    2    0    0  0.00000000000E+00  0.00000000000E+00 -0.46343715253E+03  0.29343786934E+04  0.28975514356E+04 0.  0.
        3    1    3    3  502    0  0.59594179860E+03  0.55999272325E+03 -0.14428333597E+04  0.16584651312E+04  0.10100000352E+00 0. -1.
       -3    1    3    3    0  502 -0.59594179860E+03 -0.55999272325E+03  0.97939620713E+03  0.12759135622E+04  0.10100000352E+00 0.  1.
</event>
<event>
 5   0  0.3838525E-06  0.2882166E+04  0.7818609E-02  0.8278204E-01
        1   -1    0    0  501    0  0.00000000000E+00  0.00000000000E+00  0.80454207131E+03  0.80454207132E+03  0.50400001928E-02 0.  1.
       -1   -1    0    0    0  501  0.00000000000E+00  0.00000000000E+00 -0.25812445470E+04  0.25812445470E+04  0.50400001928E-02 0. -1.
    10030    2    1    2    0    0  0.00000000000E+00  0.00000000000E+00 -0.17767024757E+04  0.33857866184E+04  0.28821657374E+04 0.  0.
        3    1    3    3  502    0  0.87791389093E+03  0.11363154970E+04 -0.10311391291E+04  0.17678217168E+04  0.10100000352E+00 0.  1.
       -3    1    3    3    0  502 -0.87791389093E+03 -0.11363154970E+04 -0.74556334667E+03  0.16179649016E+04  0.10100000352E+00 0. -1.
</event>
<event>
 5   0  0.1007567E-05  0.3196558E+04  0.7818609E-02  0.8189727E-01
       -2   -1    0    0    0  501  0.00000000000E+00  0.00000000000E+00  0.11950730027E+04  0.11950730027E+04  0.25500000920E-02 0.  1.
        2   -1    0    0  501    0  0.00000000000E+00  0.00000000000E+00 -0.21375225703E+04  0.21375225703E+04  0.25500000920E-02 0. -1.
    10030    2    1    2    0    0  0.00000000000E+00  0.00000000000E+00 -0.94244956762E+03  0.33325955730E+04  0.31965578465E+04 0.  0.
        3    1    3    3  502    0 -0.84111656339E+03  0.12341782952E+04 -0.10644962588E+04  0.18340734535E+04  0.10100000352E+00 0.  1.
       -3    1    3    3    0  502  0.84111656339E+03 -0.12341782952E+04  0.12204669123E+03  0.14985221195E+04  0.10100000352E+00 0. -1.
</event>
<event>
 5   0  0.1001961E-05  0.3093103E+04  0.7818609E-02  0.8217633E-01
       -2   -1    0    0    0  501  0.00000000000E+00  0.00000000000E+00  0.19306534024E+04  0.19306534024E+04  0.25500000920E-02 0. -1.
        2   -1    0    0  501    0  0.00000000000E+00  0.00000000000E+00 -0.12388659672E+04  0.12388659672E+04  0.25500000920E-02 0.  1.
    10030    2    1    2    0    0  0.00000000000E+00  0.00000000000E+00  0.69178743520E+03  0.31695193695E+04  0.30931025166E+04 0.  0.
        5    1    3    3  502    0  0.35316528193E+03  0.22079965627E+03 -0.11803055548E+04  0.12516475131E+04  0.46999998093E+01 0.  1.
       -5    1    3    3    0  502 -0.35316528193E+03 -0.22079965627E+03  0.18720929900E+04  0.19178718564E+04  0.46999998093E+01 0. -1.
</event>
<event>
 5   0  0.1119100E-05  0.3125083E+04  0.7818609E-02  0.8208888E-01
       -2   -1    0    0    0  501  0.00000000000E+00  0.00000000000E+00  0.90153117816E+03  0.90153117816E+03  0.25500000920E-02 0. -1.
        2   -1    0    0  501    0  0.00000000000E+00  0.00000000000E+00 -0.27082106214E+04  0.27082106214E+04  0.25500000920E-02 0.  1.
    10030    2    1    2    0    0  0.00000000000E+00  0.00000000000E+00 -0.18066794433E+04  0.36097417996E+04  0.31250832387E+04 0.  0.
        2    1    3    3  502    0 -0.57403265783E+03 -0.10079591427E+04  0.30594338520E+03  0.11996234745E+04  0.25500000920E-02 0. -1.
       -2    1    3    3    0  502  0.57403265783E+03  0.10079591427E+04 -0.21126228285E+04  0.24101183251E+04  0.25500000920E-02 0.  1.
</event>
<event>
 5   0  0.4250961E-06  0.2869962E+04  0.7818609E-02  0.8281871E-01
       -1   -1    0    0    0  501  0.00000000000E+00  0.00000000000E+00  0.78057481464E+03  0.78057481466E+03  0.50400001928E-02 0. -1.
        1   -1    0    0  501    0  0.00000000000E+00  0.00000000000E+00 -0.26380174680E+04  0.26380174680E+04  0.50400001928E-02 0.  1.
    10030    2    1    2    0    0  0.00000000000E+00  0.00000000000E+00 -0.18574426534E+04  0.34185922827E+04  0.28699616695E+04 0.  0.
        1    1    3    3  502    0  0.60729672336E+02 -0.73192547716E+03 -0.23971731956E+04  0.25071582174E+04  0.50400001928E-02 0.  1.
       -1    1    3    3    0  502 -0.60729672336E+02  0.73192547716E+03  0.53973054221E+03  0.91143406532E+03  0.50400001928E-02 0. -1.
</event>
<event>
 5   0  0.1119100E-05  0.2455915E+04  0.7818609E-02  0.8418862E-01
       -2   -1    0    0    0  501  0.00000000000E+00  0.00000000000E+00  0.79169326926E+03  0.79169326927E+03  0.25500000920E-02 0.  1.
        2   -1    0    0  501    0  0.00000000000E+00  0.00000000000E+00 -0.19046255068E+04  0.19046255068E+04  0.25500000920E-02 0. -1.
    10030    2    1    2    0    0  0.00000000000E+00  0.00000000000E+00 -0.11129322375E+04  0.26963187761E+04  0.24559146518E+04 0.  0.
        2    1    3    3  502    0  0.17741462793E+03  0.36551630589E+03 -0.18286907684E+04  0.18732826926E+04  0.25500000920E-02 0. -1.
       -2    1    3    3    0  502 -0.17741462793E+03 -0.36551630589E+03  0.71575853088E+03  0.82303608342E+03  0.25500000920E-02 0.  1.
</event>
<event>
 5   0  0.4250961E-06  0.3070206E+04  0.7818609E-02  0.8223962E-01
        1   -1    0    0  501    0  0.00000000000E+00  0.00000000000E+00  0.15361703696E+04  0.15361703696E+04  0.50400001928E-02 0.  1.
       -1   -1    0    0    0  501  0.00000000000E+00  0.00000000000E+00 -0.15340367476E+04  0.15340367476E+04  0.50400001928E-02 0. -1.
    10030    2    1    2    0    0  0.00000000000E+00  0.00000000000E+00  0.21336220247E+01  0.30702071172E+04  0.30702063759E+04 0.  0.
        1    1    3    3  502    0  0.95792143409E+03  0.53348043562E+03  0.10754631559E+04  0.15358502039E+04  0.50400001928E-02 0.  1.
       -1    1    3    3    0  502 -0.95792143409E+03 -0.53348043562E+03 -0.10733295339E+04  0.15343569133E+04  0.50400001928E-02 0. -1.
</event>
<event>
 5   0  0.4139628E-06  0.3064667E+04  0.7818609E-02  0.8225502E-01
       -1   -1    0    0    0  501  0.00000000000E+00  0.00000000000E+00  0.11197748095E+04  0.11197748095E+04  0.50400001928E-02 0. -1.
        1   -1    0    0  501    0  0.00000000000E+00  0.00000000000E+00 -0.20968912836E+04  0.20968912837E+04  0.50400001928E-02 0.  1.
    10030    2    1    2    0    0  0.00000000000E+00  0.00000000000E+00 -0.97711647417E+03  0.32166660931E+04  0.30646670538E+04 0.  0.
        5    1    3    3  502    0  0.11521337444E+04 -0.59357430322E+03  0.36947151162E+03  0.13476920666E+04  0.46999998093E+01 0. -1.
       -5    1    3    3    0  502 -0.11521337444E+04  0.59357430322E+03 -0.13465879858E+04  0.18689740266E+04  0.46999998093E+01 0.  1.
</event>
<event>
 5   0  0.1108153E-05  0.2736188E+04  0.7818609E-02  0.8323358E-01
        2   -1    0    0  501    0  0.00000000000E+00  0.00000000000E+00  0.24884169886E+04  0.24884169886E+04  0.25500000920E-02 0. -1.
       -2   -1    0    0    0  501  0.00000000000E+00  0.00000000000E+00 -0.75215754101E+03  0.75215754102E+03  0.25500000920E-02 0.  1.
    10030    2    1    2    0    0  0.00000000000E+00  0.00000000000E+00  0.17362594476E+04  0.32405745296E+04  0.27361882999E+04 0.  0.
        4    1    3    3  502    0  0.30533249948E+03  0.12094951346E+04  0.20281620638E+03  0.12638205736E+04  0.12699999809E+01 0.  1.
       -4    1    3    3    0  502 -0.30533249948E+03 -0.12094951346E+04  0.15334432412E+04  0.19767539560E+04  0.12699999809E+01 0. -1.
</event>
<event>
 5   0  0.3838525E-06  0.3112872E+04  0.7818609E-02  0.8212214E-01
        1   -1    0    0  501    0  0.00000000000E+00  0.00000000000E+00  0.18051926867E+04  0.18051926867E+04  0.50400001928E-02 0. -1.
       -1   -1    0    0    0  501  0.00000000000E+00  0.00000000000E+00 -0.13419579239E+04  0.13419579239E+04  0.50400001928E-02 0.  1.
    10030    2    1    2    0    0  0.00000000000E+00  0.00000000000E+00  0.46323476283E+03  0.31471506106E+04  0.31128717482E+04 0.  0.
        3    1    3    3  502    0  0.47954307256E+03  0.14327853957E+04 -0.14620507248E+03  0.15179629383E+04  0.10100000352E+00 0.  1.
       -3    1    3    3    0  502 -0.47954307256E+03 -0.14327853957E+04  0.60943983531E+03  0.16291876723E+04  0.10100000352E+00 0. -1.
</event>
<event>
 5   0  0.3493125E-06  0.2618094E+04  0.7818609E-02  0.8362081E-01
        3   -1    0    0  501    0  0.00000000000E+00  0.00000000000E+00  0.13660250677E+04  0.13660250714E+04  0.10100000352E+00 0.  1.
       -3   -1    0    0    0  501  0.00000000000E+00  0.00000000000E+00 -0.12544454762E+04  0.12544454803E+04  0.10100000352E+00 0. -1.
    10030    2    1    2    0    0  0.00000000000E+00  0.00000000000E+00  0.11157959149E+03  0.26204705517E+04  0.26180939455E+04 0.  0.
        1    1    3    3  502    0 -0.87313821075E+03  0.94937808961E+03 -0.16782940620E+03  0.13007135740E+04  0.50400001928E-02 0. -1.
       -1    1    3    3    0  502  0.87313821075E+03 -0.94937808961E+03  0.27940899769E+03  0.13197569777E+04  0.50400001928E-02 0.  1.
</event>
<event>
 5   0  0.4250961E-06  0.1770483E+04  0.7818609E-02  0.8722156E-01
       -1   -1    0    0    0  501  0.00000000000E+00  0.00000000000E+00  0.47601397745E+03  0.47601397747E+03  0.50400001928E-02 0. -1.
        1   -1    0    0  501    0  0.00000000000E+00  0.00000000000E+00 -0.16462803402E+04  0.16462803402E+04  0.50400001928E-02 0.  1.
    10030    2    1    2    0    0  0.00000000000E+00  0.00000000000E+00 -0.11702663628E+04  0.21222943177E+04  0.17704829316E+04 0.  0.
        1    1    3    3  502    0  0.18884132934E+03 -0.19180903209E+03 -0.15960372740E+04  0.16185755257E+04  0.50400001928E-02 0.  1.
       -1    1    3    3    0  502 -0.18884132934E+03  0.19180903209E+03  0.42577091126E+03  0.50371879194E+03  0.50400001928E-02 0. -1.
</event>
<event>
 5   0  0.3848286E-06  0.3099927E+04  0.7818609E-02  0.8215758E-01
       -1   -1    0    0    0  501  0.00000000000E+00  0.00000000000E+00  0.13371383152E+04  0.13371383152E+04  0.50400001928E-02 0. -1.
        1   -1    0    0  501    0  0.00000000000E+00  0.00000000000E+00 -0.17966631516E+04  0.17966631516E+04  0.50400001928E-02 0.  1.
    10030    2    1    2    0    0  0.00000000000E+00  0.00000000000E+00 -0.45952483643E+03  0.31338014669E+04  0.30999271860E+04 0.  0.
        2    1    3    3  502    0 -0.11059422075E+04 -0.23534025851E+03  0.84196082746E+03  0.14097486437E+04  0.25500000920E-02 0. -1.
       -2    1    3    3    0  502  0.11059422075E+04  0.23534025851E+03 -0.13014856639E+04  0.17240528231E+04  0.25500000920E-02 0.  1.
</event>
<event>
 5   0  0.3807334E-06  0.3097400E+04  0.7818609E-02  0.8216452E-01
        1   -1    0    0  501    0  0.00000000000E+00  0.00000000000E+00  0.18421218330E+04  0.18421218330E+04  0.50400001928E-02 0.  1.
       -1   -1    0    0    0  501  0.00000000000E+00  0.00000000000E+00 -0.13020155153E+04  0.13020155153E+04  0.50400001928E-02 0. -1.
    10030    2    1    2    0    0  0.00000000000E+00  0.00000000000E+00  0.54010631772E+03  0.31441373482E+04  0.30973996885E+04 0.  0.
        4    1    3    3  502    0  0.81669794488E+03 -0.33512947184E+03  0.15617168468E+04  0.17939532933E+04  0.12699999809E+01 0.  1.
       -4    1    3    3    0  502 -0.81669794488E+03  0.33512947184E+03 -0.10216105291E+04  0.13501840549E+04  0.12699999809E+01 0. -1.
</event>
<event>
 5   0  0.4139628E-06  0.2045321E+04  0.7818609E-02  0.8585720E-01
       -1   -1    0    0    0  501  0.00000000000E+00  0.00000000000E+00  0.11244097607E+04  0.11244097607E+04  0.50400001928E-02 0. -1.
        1   -1    0    0  501    0  0.00000000000E+00  0.00000000000E+00 -0.93011847017E+03  0.93011847019E+03  0.50400001928E-02 0.  1.
    10030    2    1    2    0    0  0.00000000000E+00  0.00000000000E+00  0.19429129051E+03  0.20545282309E+04  0.20453207929E+04 0.  0.
        5    1    3    3  502    0 -0.22258198138E+03  0.40097981104E+03 -0.82101762850E+03  0.94043584768E+03  0.46999998093E+01 0.  1.
       -5    1    3    3    0  502  0.22258198138E+03 -0.40097981104E+03  0.10153089190E+04  0.11140923832E+04  0.46999998093E+01 0. -1.
</event>
<event>
 5   0  0.9797278E-06  0.3210007E+04  0.7818609E-02  0.8186179E-01
        2   -1    0    0  501    0  0.00000000000E+00  0.00000000000E+00  0.23133003930E+04  0.23133003930E+04  0.25500000920E-02 0.  1.
       -2   -1    0    0    0  501  0.00000000000E+00  0.00000000000E+00 -0.11135764125E+04  0.11135764125E+04  0.25500000920E-02 0. -1.
    10030    2    1    2    0    0  0.00000000000E+00  0.00000000000E+00  0.11997239805E+04  0.34268768056E+04  0.32100073226E+04 0.  0.
        1    1    3    3  502    0 -0.32639261451E+03 -0.32987566994E+02  0.22771269865E+04  0.23006363535E+04  0.50400001928E-02 0.  1.
       -1    1    3    3    0  502  0.32639261451E+03  0.32987566994E+02 -0.10774030060E+04  0.11262404520E+04  0.50400001928E-02 0. -1.
</event>
<event>
 5   0  0.3848286E-06  0.3031261E+04  0.7818609E-02  0.8234860E-01
       -1   -1    0    0    0  501  0.00000000000E+00  0.00000000000E+00  0.15657231652E+04  0.15657231652E+04  0.50400001928E-02 0. -1.
        1   -1    0    0  501    0  0.00000000000E+00  0.00000000000E+00 -0.14671402875E+04  0.14671402875E+04  0.50400001928E-02 0.  1.
    10030    2    1    2    0    0  0.00000000000E+00  0.00000000000E+00  0.98582877736E+02  0.30328634527E+04  0.30312608167E+04 0.  0.
        2    1    3    3  502    0 -0.69649517570E+03 -0.77920316100E+03 -0.10489557166E+04  0.14807333289E+04  0.25500000920E-02 0.  1.
       -2    1    3    3    0  502  0.69649517570E+03  0.77920316100E+03  0.11475385943E+04  0.15521301238E+04  0.25500000920E-02 0. -1.
</event>
<event>
 5   0  0.1007567E-05  0.3039011E+04  0.7818609E-02  0.8232678E-01
       -2   -1    0    0    0  501  0.00000000000E+00  0.00000000000E+00  0.13483397727E+04  0.13483397727E+04  0.25500000920E-02 0.  1.
        2   -1    0    0  501    0  0.00000000000E+00  0.00000000000E+00 -0.17124004193E+04  0.17124004193E+04  0.25500000920E-02 0. -1.
    10030    2    1    2    0    0  0.00000000000E+00  0.00000000000E+00 -0.36406064657E+03  0.30607401920E+04  0.30390114130E+04 0.  0.
        3    1    3    3  502    0 -0.87207378154E+03 -0.70747723091E+03 -0.12130001303E+04  0.16529991043E+04  0.10100000352E+00 0. -1.
       -3    1    3    3    0  502  0.87207378154E+03  0.70747723091E+03  0.84893948370E+03  0.14077410877E+04  0.10100000352E+00 0.  1.
</event>
<event>
 5   0  0.3807334E-06  0.3123738E+04  0.7818609E-02  0.8209253E-01
        1   -1    0    0  501    0  0.00000000000E+00  0.00000000000E+00  0.28039781684E+04  0.28039781684E+04  0.50400001928E-02 0. -1.
       -1   -1    0    0    0  501  0.00000000000E+00  0.00000000000E+00 -0.86999071448E+03  0.86999071449E+03  0.50400001928E-02 0.  1.
    10030    2    1    2    0    0  0.00000000000E+00  0.00000000000E+00  0.19339874540E+04  0.36739688829E+04  0.31237381261E+04 0.  0.
        4    1    3    3  502    0 -0.79036802878E+03  0.17957538151E+02  0.25512698473E+04  0.26709518043E+04  0.12699999809E+01 0. -1.
       -4    1    3    3    0  502  0.79036802878E+03 -0.17957538151E+02 -0.61728239333E+03  0.10030170787E+04  0.12699999809E+01 0.  1.
</event>
<event>
 5   0  0.9797278E-06  0.1703215E+04  0.7818609E-02  0.8759533E-01
        2   -1    0    0  501    0  0.00000000000E+00  0.00000000000E+00  0.89838058478E+03  0.89838058478E+03  0.25500000920E-02 0. -1.
       -2   -1    0    0    0  501  0.00000000000E+00  0.00000000000E+00 -0.80726970977E+03  0.80726970977E+03  0.25500000920E-02 0.  1.
    10030    2    1    2    0    0  0.00000000000E+00  0.00000000000E+00  0.91110875011E+02  0.17056502946E+04  0.17032151173E+04 0.  0.
        1    1    3    3  502    0 -0.10114369829E+03 -0.83746892077E+03 -0.71449932157E+02  0.84657506093E+03  0.50400001928E-02 0.  1.
       -1    1    3    3    0  502  0.10114369829E+03  0.83746892077E+03  0.16256080717E+03  0.85907523362E+03  0.50400001928E-02 0. -1.
</event>
<event>
 5   0  0.3838525E-06  0.3044536E+04  0.7818609E-02  0.8231126E-01
       -1   -1    0    0    0  501  0.00000000000E+00  0.00000000000E+00  0.21579329759E+04  0.21579329759E+04  0.50400001928E-02 0.  1.
        1   -1    0    0  501    0  0.00000000000E+00  0.00000000000E+00 -0.10738516533E+04  0.10738516534E+04  0.50400001928E-02 0. -1.
    10030    2    1    2    0    0  0.00000000000E+00  0.00000000000E+00  0.10840813226E+04  0.32317846293E+04  0.30445360199E+04 0.  0.
        3    1    3    3  502    0  0.31429182112E+03 -0.10952362741E+04 -0.52948778919E+03  0.12564550028E+04  0.10100000352E+00 0. -1.
       -3    1    3    3    0  502 -0.31429182112E+03  0.10952362741E+04  0.16135691118E+04  0.19753296265E+04  0.10100000352E+00 0.  1.
</event>
<event>
 5   0  0.9797278E-06  0.3126876E+04  0.7818609E-02  0.8208401E-01
        2   -1    0    0  501    0  0.00000000000E+00  0.00000000000E+00  0.15417548837E+04  0.15417548837E+04  0.25500000920E-02 0. -1.
       -2   -1    0    0    0  501  0.00000000000E+00  0.00000000000E+00 -0.15854258337E+04  0.15854258337E+04  0.25500000920E-02 0.  1.
    10030    2    1    2    0    0  0.00000000000E+00  0.00000000000E+00 -0.43670950050E+02  0.31271807174E+04  0.31268757710E+04 0.  0.
        1    1    3    3  502    0  0.15429965749E+04 -0.15661814315E+03  0.17559286778E+03  0.15608332800E+04  0.50400001928E-02 0. -1.
       -1    1    3    3    0  502 -0.15429965749E+04  0.15661814315E+03 -0.21926381783E+03  0.15663474374E+04  0.50400001928E-02 0.  1.
</event>
<event>
 5   0  0.1108153E-05  0.3094912E+04  0.7818609E-02  0.8217136E-01
        2   -1    0    0  501    0  0.00000000000E+00  0.00000000000E+00  0.15415460351E+04  0.15415460351E+04  0.25500000920E-02 0. -1.
       -2   -1    0    0    0  501  0.00000000000E+00  0.00000000000E+00 -0.15533882288E+04  0.15533882288E+04  0.25500000920E-02 0.  1.
    10030    2    1    2    0    0  0.00000000000E+00  0.00000000000E+00 -0.11842193770E+02  0.30949342639E+04  0.30949116078E+04 0.  0.
        4    1    3    3  502    0 -0.63823543355E+03  0.13367497959E+04  0.44171301740E+03  0.15457543428E+04  0.12699999809E+01 0. -1.
       -4    1    3    3    0  502  0.63823543355E+03 -0.13367497959E+04 -0.45355521117E+03  0.15491799211E+04  0.12699999809E+01 0.  1.
</event>
<event>
 5   0  0.1001961E-05  0.2895758E+04  0.7818609E-02  0.8274141E-01
       -2   -1    0    0    0  501  0.00000000000E+00  0.00000000000E+00  0.10537683991E+04  0.10537683991E+04  0.25500000920E-02 0. -1.
        2   -1    0    0  501    0  0.00000000000E+00  0.00000000000E+00 -0.19893876253E+04  0.19893876253E+04  0.25500000920E-02 0.  1.
    10030    2    1    2    0    0  0.00000000000E+00  0.00000000000E+00 -0.93561922617E+03  0.30431560243E+04  0.28957581481E+04 0.  0.
        5    1    3    3  502    0 -0.47737642327E+03 -0.84257565186E+03  0.66331845175E+03  0.11738123517E+04  0.46999998093E+01 0. -1.
       -5    1    3    3    0  502  0.47737642327E+03  0.84257565186E+03 -0.15989376779E+04  0.18693436726E+04  0.46999998093E+01 0.  1.
</event>
<event>
 5   0  0.1119100E-05  0.3002851E+04  0.7818609E-02  0.8242917E-01
       -2   -1    0    0    0  501  0.00000000000E+00  0.00000000000E+00  0.10061376211E+04  0.10061376211E+04  0.25500000920E-02 0.  1.
        2   -1    0    0  501    0  0.00000000000E+00  0.00000000000E+00 -0.22405275936E+04  0.22405275936E+04  0.25500000920E-02 0. -1.
    10030    2    1    2    0    0  0.00000000000E+00  0.00000000000E+00 -0.12343899725E+04  0.32466652147E+04  0.30028513803E+04 0.  0.
        2    1    3    3  502    0 -0.82986461486E+03 -0.10861777351E+04 -0.12887738571E+04  0.18786685195E+04  0.25500000920E-02 0. -1.
       -2    1    3    3    0  502  0.82986461486E+03  0.10861777351E+04  0.54383884638E+02  0.13679966952E+04  0.25500000920E-02 0.  1.
</event>
<event>
 5   0  0.1007567E-05  0.1845477E+04  0.7818609E-02  0.8682482E-01
        2   -1    0    0  501    0  0.00000000000E+00  0.00000000000E+00  0.11951015905E+04  0.11951015905E+04  0.25500000920E-02 0. -1.
       -2   -1    0    0    0  501  0.00000000000E+00  0.00000000000E+00 -0.71244682911E+03  0.71244682911E+03  0.25500000920E-02 0.  1.
    10030    2    1    2    0    0  0.00000000000E+00  0.00000000000E+00  0.48265476135E+03  0.19075484196E+04  0.18454769991E+04 0.  0.
        3    1    3    3  502    0 -0.79903907229E+03  0.18043956298E+03 -0.19772327790E+03  0.84268403317E+03  0.10100000352E+00 0.  1.
       -3    1    3    3    0  502  0.79903907229E+03 -0.18043956298E+03  0.68037803925E+03  0.10648643864E+04  0.10100000352E+00 0. -1.
</event>
<event>
 5   0  0.1007567E-05  0.3097247E+04  0.7818609E-02  0.8216494E-01
       -2   -1    0    0    0  501  0.00000000000E+00  0.00000000000E+00  0.26994375296E+04  0.26994375296E+04  0.25500000920E-02 0. -1.
        2   -1    0    0  501    0  0.00000000000E+00  0.00000000000E+00 -0.88842016908E+03  0.88842016909E+03  0.25500000920E-02 0.  1.
    10030    2    1    2    0    0  0.00000000000E+00  0.00000000000E+00  0.18110173606E+04  0.35878576987E+04  0.30972470011E+04 0.  0.
        3    1    3    3  502    0 -0.55768167933E+03  0.51923403786E+03  0.24672573382E+04  0.25822415891E+04  0.10100000352E+00 0. -1.
       -3    1    3    3    0  502  0.55768167933E+03 -0.51923403786E+03 -0.65623997761E+03  0.10056161096E+04  0.10100000352E+00 0.  1.
</event>
<event>
 5   0  0.1108153E-05  0.3036942E+04  0.7818609E-02  0.8233260E-01
       -2   -1    0    0    0  501  0.00000000000E+00  0.00000000000E+00  0.11976931549E+04  0.11976931549E+04  0.25500000920E-02 0. -1.
        2   -1    0    0  501    0  0.00000000000E+00  0.00000000000E+00 -0.19251620888E+04  0.19251620888E+04  0.25500000920E-02 0.  1.
    10030    2    1    2    0    0  0.00000000000E+00  0.00000000000E+00 -0.72746893382E+03  0.31228552437E+04  0.30369415245E+04 0.  0.
        4    1    3    3  502    0 -0.20013764885E+03 -0.13717238334E+04 -0.10010006795E+04  0.17098787462E+04  0.12699999809E+01 0.  1.
       -4    1    3    3    0  502  0.20013764885E+03  0.13717238334E+04  0.27353174566E+03  0.14129764975E+04  0.12699999809E+01 0. -1.
</event>
<event>
 5   0  0.3493125E-06  0.3104152E+04  0.7818609E-02  0.8214599E-01
       -3   -1    0    0    0  501  0.00000000000E+00  0.00000000000E+00  0.15334075447E+04  0.15334075481E+04  0.10100000352E+00 0. -1.
        3   -1    0    0  501    0  0.00000000000E+00  0.00000000000E+00 -0.15709718508E+04  0.15709718540E+04  0.10100000352E+00 0.  1.
    10030    2    1    2    0    0  0.00000000000E+00  0.00000000000E+00 -0.37564306029E+02  0.31043794021E+04  0.31041521218E+04 0.  0.
        5    1    3    3  502    0 -0.14604597895E+04  0.42914554137E+03 -0.32180485997E+03  0.15558564042E+04  0.46999998093E+01 0. -1.
       -5    1    3    3    0  502  0.14604597895E+04 -0.42914554137E+03  0.28424055394E+03  0.15485229979E+04  0.46999998093E+01 0.  1.
</event>
<event>
 5   0  0.1001961E-05  0.1950934E+04  0.7818609E-02  0.8629910E-01
        2   -1    0    0  501    0  0.00000000000E+00  0.00000000000E+00  0.11848661571E+04  0.11848661571E+04  0.25500000920E-02 0.  1.
       -2   -1    0    0    0  501  0.00000000000E+00  0.00000000000E+00 -0.80307478272E+03  0.80307478272E+03  0.25500000920E-02 0. -1.
    10030    2    1    2    0    0  0.00000000000E+00  0.00000000000E+00  0.38179137440E+03  0.19879409398E+04  0.19509342702E+04 0.  0.
        5    1    3    3  502    0  0.70424209340E+03  0.61960730422E+03 -0.81845333882E+02  0.94158955296E+03  0.46999998093E+01 0. -1.
       -5    1    3    3    0  502 -0.70424209340E+03 -0.61960730422E+03  0.46363670828E+03  0.10463513869E+04  0.46999998093E+01 0.  1.
</event>
<event>
 5   0  0.1007567E-05  0.1801125E+04  0.7818609E-02  0.8705702E-01
        2   -1    0    0  501    0  0.00000000000E+00  0.00000000000E+00  0.60148917047E+03  0.60148917048E+03  0.25500000920E-02 0.  1.
       -2   -1    0    0    0  501  0.00000000000E+00  0.00000000000E+00 -0.13483408044E+04  0.13483408044E+04  0.25500000920E-02 0. -1.
    10030    2    1    2    0    0  0.00000000000E+00  0.00000000000E+00 -0.74685163392E+03  0.19498299749E+04  0.18011245287E+04 0.  0.
        3    1    3    3  502    0  0.83031145896E+03  0.31442696349E+03 -0.53664145659E+03  0.10374321652E+04  0.10100000352E+00 0. -1.
       -3    1    3    3    0  502 -0.83031145896E+03 -0.31442696349E+03 -0.21021017733E+03  0.91239780968E+03  0.10100000352E+00 0.  1.
</event>
<event>
 5   0  0.3807334E-06  0.3091973E+04  0.7818609E-02  0.8217944E-01
       -1   -1    0    0    0  501  0.00000000000E+00  0.00000000000E+00  0.98019227862E+03  0.98019227863E+03  0.50400001928E-02 0.  1.
        1   -1    0    0  501    0  0.00000000000E+00  0.00000000000E+00 -0.24383730663E+04  0.24383730663E+04  0.50400001928E-02 0. -1.
    10030    2    1    2    0    0  0.00000000000E+00  0.00000000000E+00 -0.14581807877E+04  0.34185653449E+04  0.30919731254E+04 0.  0.
        4    1    3    3  502    0  0.28924558347E+03 -0.25335781701E+03 -0.23846592658E+04  0.24154615745E+04  0.12699999809E+01 0. -1.
       -4    1    3    3    0  502 -0.28924558347E+03  0.25335781701E+03  0.92647847811E+03  0.10031037705E+04  0.12699999809E+01 0.  1.
</event>
<event>
 5   0  0.9797278E-06  0.3166666E+04  0.7818609E-02  0.8197677E-01
        2   -1    0    0  501    0  0.00000000000E+00  0.00000000000E+00  0.19471888695E+04  0.19471888695E+04  0.25500000920E-02 0. -1.
       -2   -1    0    0    0  501  0.00000000000E+00  0.00000000000E+00 -0.12874679243E+04  0.12874679243E+04  0.25500000920E-02 0.  1.
    10030    2    1    2    0    0  0.00000000000E+00  0.00000000000E+00  0.65972094518E+03  0.32346567939E+04  0.31666658884E+04 0.  0.
        1    1    3    3  502    0  0.14969873440E+04 -0.10432157069E+03 -0.18604712832E+03  0.15121070174E+04  0.50400001928E-02 0.  1.
       -1    1    3    3    0  502 -0.14969873440E+04  0.10432157069E+03  0.84576807350E+03  0.17225497765E+04  0.50400001928E-02 0. -1.
</event>
<event>
 5   0  0.1119100E-05  0.3138639E+04  0.7818609E-02  0.8205213E-01
        2   -1    0    0  501    0  0.00000000000E+00  0.00000000000E+00  0.15711780008E+04  0.15711780008E+04  0.25500000920E-02 0.  1.
       -2   -1    0    0    0  501  0.00000000000E+00  0.00000000000E+00 -0.15674632477E+04  0.15674632477E+04  0.25500000920E-02 0. -1.
    10030    2    1    2    0    0  0.00000000000E+00  0.00000000000E+00  0.37147531261E+01  0.31386412485E+04  0.31386390502E+04 0.  0.
        2    1    3    3  502    0  0.84488662317E+03 -0.12798504449E+04  0.33489395070E+03  0.15697147912E+04  0.25500000920E-02 0. -1.
       -2    1    3    3    0  502 -0.84488662317E+03  0.12798504449E+04 -0.33117919757E+03  0.15689264573E+04  0.25500000920E-02 0.  1.
</event>
<event>
 5   0  0.3848286E-06  0.2552908E+04  0.7818609E-02  0.8384376E-01
        1   -1    0    0  501    0  0.00000000000E+00  0.00000000000E+00  0.14045131214E+04  0.14045131215E+04  0.50400001928E-02 0. -1.
       -1   -1    0    0    0  501  0.00000000000E+00  0.00000000000E+00 -0.11600705402E+04  0.11600705402E+04  0.50400001928E-02 0.  1.
    10030    2    1    2    0    0  0.00000000000E+00  0.00000000000E+00  0.24444258126E+03  0.25645836616E+04  0.25529075937E+04 0.  0.
        2    1    3    3  502    0  0.10000387943E+04  0.57177339312E+03 -0.43014066329E+03  0.12296436042E+04  0.25500000920E-02 0.  1.
       -2    1    3    3    0  502 -0.10000387943E+04 -0.57177339312E+03  0.67458324456E+03  0.13349400574E+04  0.25500000920E-02 0. -1.
</event>
<event>
 5   0  0.1001961E-05  0.3053280E+04  0.7818609E-02  0.8228678E-01
        2   -1    0    0  501    0  0.00000000000E+00  0.00000000000E+00  0.14529644317E+04  0.14529644317E+04  0.25500000920E-02 0. -1.
       -2   -1    0    0    0  501  0.00000000000E+00  0.00000000000E+00 -0.16040513969E+04  0.16040513969E+04  0.25500000920E-02 0.  1.
    10030    2    1    2    0    0  0.00000000000E+00  0.00000000000E+00 -0.15108696521E+03  0.30570158285E+04  0.30532799585E+04 0.  0.
        5    1    3    3  502    0 -0.12839365903E+04 -0.39782208430E+03  0.64911827983E+03  0.14926929389E+04  0.46999998093E+01 0. -1.
       -5    1    3    3    0  502  0.12839365903E+04  0.39782208430E+03 -0.80020524504E+03  0.15643228896E+04  0.46999998093E+01 0.  1.
</event>
<event>
 5   0  0.3838525E-06  0.1827943E+04  0.7818609E-02  0.8691579E-01
       -1   -1    0    0    0  501  0.00000000000E+00  0.00000000000E+00  0.55502495207E+03  0.55502495209E+03  0.50400001928E-02 0.  1.
        1   -1    0    0  501    0  0.00000000000E+00  0.00000000000E+00 -0.15050565663E+04  0.15050565663E+04  0.50400001928E-02 0. -1.
    10030    2    1    2    0    0  0.00000000000E+00  0.00000000000E+00 -0.95003161422E+03  0.20600815184E+04  0.18279430501E+04 0.  0.
        3    1    3    3  502    0 -0.29620442110E+03  0.41514732288E+03  0.37976285961E+03  0.63584919479E+03  0.10100000352E+00 0.  1.
       -3    1    3    3    0  502  0.29620442110E+03 -0.41514732288E+03 -0.13297944738E+04  0.14242323236E+04  0.10100000352E+00 0. -1.
</event>
<event>
 5   0  0.3838525E-06  0.2990970E+04  0.7818609E-02  0.8246314E-01
       -1   -1    0    0    0  501  0.00000000000E+00  0.00000000000E+00  0.16860191150E+04  0.16860191150E+04  0.50400001928E-02 0.  1.
        1   -1    0    0  501    0  0.00000000000E+00  0.00000000000E+00 -0.13264828892E+04  0.13264828892E+04  0.50400001928E-02 0. -1.
    10030    2    1    2    0    0  0.00000000000E+00  0.00000000000E+00  0.35953622582E+03  0.30125020042E+04  0.29909700814E+04 0.  0.
        3    1    3    3  502    0  0.15593391641E+03 -0.48434655342E+03 -0.12366159991E+04  0.13372083269E+04  0.10100000352E+00 0. -1.
       -3    1    3    3    0  502 -0.15593391641E+03  0.48434655342E+03  0.15961522249E+04  0.16752936773E+04  0.10100000352E+00 0.  1.
</event>
<event>
 5   0  0.3807334E-06  0.2939707E+04  0.7818609E-02  0.8261160E-01
       -1   -1    0    0    0  501  0.00000000000E+00  0.00000000000E+00  0.92425649084E+03  0.92425649085E+03  0.50400001928E-02 0.  1.
        1   -1    0    0  501    0  0.00000000000E+00  0.00000000000E+00 -0.23375221655E+04  0.23375221655E+04  0.50400001928E-02 0. -1.
    10030    2    1    2    0    0  0.00000000000E+00  0.00000000000E+00 -0.14132656747E+04  0.32617786564E+04  0.29397074916E+04 0.  0.
        4    1    3    3  502    0  0.97463603787E+03 -0.22805879212E+03 -0.19009132146E+04  0.21483479423E+04  0.12699999809E+01 0. -1.
       -4    1    3    3    0  502 -0.97463603787E+03  0.22805879212E+03  0.48764753989E+03  0.11134307141E+04  0.12699999809E+01 0.  1.
</event>
<event>
 5   0  0.1108153E-05  0.3241800E+04  0.7818609E-02  0.8177864E-01
        2   -1    0    0  501    0  0.00000000000E+00  0.00000000000E+00  0.17626552566E+04  0.17626552566E+04  0.25500000920E-02 0.  1.
       -2   -1    0    0    0  501  0.00000000000E+00  0.00000000000E+00 -0.14905453550E+04  0.14905453551E+04  0.25500000920E-02 0. -1.
    10030    2    1    2    0    0  0.00000000000E+00  0.00000000000E+00  0.27210990153E+03  0.32532006116E+04  0.32418004906E+04 0.  0.
        4    1    3    3  502    0  0.70322011960E+03 -0.14200916685E+04  0.47804232012E+03  0.16552054121E+04  0.12699999809E+01 0.  1.
       -4    1    3    3    0  502 -0.70322011960E+03  0.14200916685E+04 -0.20593241859E+03  0.15979951995E+04  0.12699999809E+01 0. -1.
</event>
<event>
 5   0  0.1119100E-05  0.3271911E+04  0.7818609E-02  0.8170080E-01
        2   -1    0    0  501    0  0.00000000000E+00  0.00000000000E+00  0.30420054007E+04  0.30420054007E+04  0.25500000920E-02 0.  1.
       -2   -1    0    0    0  501  0.00000000000E+00  0.00000000000E+00 -0.87979796645E+03  0.87979796645E+03  0.25500000920E-02 0. -1.
    10030    2    1    2    0    0  0.00000000000E+00  0.00000000000E+00  0.21622074343E+04  0.39218033672E+04  0.32719108579E+04 0.  0.
        2    1    3    3  502    0  0.27334386100E+03  0.81223098979E+03 -0.58921505380E+03  0.10400050128E+04  0.25500000920E-02 0. -1.
       -2    1    3    3    0  502 -0.27334386100E+03 -0.81223098979E+03  0.27514224881E+04  0.28817983543E+04  0.25500000920E-02 0.  1.
</event>
<event>
 5   0  0.1108153E-05  0.1880697E+04  0.7818609E-02  0.8664525E-01
       -2   -1    0    0    0  501  0.00000000000E+00  0.00000000000E+00  0.95080669734E+03  0.95080669734E+03  0.25500000920E-02 0.  1.
        2   -1    0    0  501    0  0.00000000000E+00  0.00000000000E+00 -0.93000547445E+03  0.93000547446E+03  0.25500000920E-02 0. -1.
    10030    2    1    2    0    0  0.00000000000E+00  0.00000000000E+00  0.20801222885E+02  0.18808121718E+04  0.18806971406E+04 0.  0.
        4    1    3    3  502    0  0.76013909029E+03 -0.19031073430E+02 -0.54287838312E+03  0.93428698488E+03  0.12699999809E+01 0. -1.
       -4    1    3    3    0  502 -0.76013909029E+03  0.19031073430E+02  0.56367960601E+03  0.94652518692E+03  0.12699999809E+01 0.  1.
</event>
<event>
 5   0  0.9797278E-06  0.2723964E+04  0.7818609E-02  0.8327271E-01
       -2   -1    0    0    0  501  0.00000000000E+00  0.00000000000E+00  0.16160076550E+04  0.16160076550E+04  0.25500000920E-02 0. -1.
        2   -1    0    0  501    0  0.00000000000E+00  0.00000000000E+00 -0.11478871362E+04  0.11478871362E+04  0.25500000920E-02 0.  1.
    10030    2    1    2    0    0  0.00000000000E+00  0.00000000000E+00  0.46812051874E+03  0.27638947912E+04  0.27239635821E+04 0.  0.
        1    1    3    3  502    0  0.75548793735E+03 -0.10906814522E+04 -0.78096062661E+02  0.13290775180E+04  0.50400001928E-02 0. -1.
       -1    1    3    3    0  502 -0.75548793735E+03  0.10906814522E+04  0.54621658140E+03  0.14348172732E+04  0.50400001928E-02 0.  1.
</event>
<event>
 5   0  0.1007567E-05  0.2146159E+04  0.7818609E-02  0.8541178E-01
        2   -1    0    0  501    0  0.00000000000E+00  0.00000000000E+00  0.90410044715E+03  0.90410044716E+03  0.25500000920E-02 0.  1.
       -2   -1    0    0    0  501  0.00000000000E+00  0.00000000000E+00 -0.12736418216E+04  0.12736418216E+04  0.25500000920E-02 0. -1.
    10030    2    1    2    0    0  0.00000000000E+00  0.00000000000E+00 -0.36954137444E+03  0.21777422688E+04  0.21461594912E+04 0.  0.
        3    1    3    3  502    0 -0.15677292155E+03 -0.85831958028E+03 -0.81863108331E+03  0.11964309891E+04  0.10100000352E+00 0. -1.
       -3    1    3    3    0  502  0.15677292155E+03  0.85831958028E+03  0.44908970888E+03  0.98131127969E+03  0.10100000352E+00 0.  1.
</event>
<event>
 5   0  0.4250961E-06  0.3015059E+04  0.7818609E-02  0.8239444E-01
        1   -1    0    0  501    0  0.00000000000E+00  0.00000000000E+00  0.10500615628E+04  0.10500615629E+04  0.50400001928E-02 0.  1.
       -1   -1    0    0    0  501  0.00000000000E+00  0.00000000000E+00 -0.21642965978E+04  0.21642965978E+04  0.50400001928E-02 0. -1.
    10030    2    1    2    0    0  0.00000000000E+00  0.00000000000E+00 -0.11142350349E+04  0.32143581607E+04  0.30150586515E+04 0.  0.
        1    1    3    3  502    0 -0.98044185753E+03 -0.10725398654E+04 -0.98493732823E+03  0.17554798601E+04  0.50400001928E-02 0. -1.
       -1    1    3    3    0  502  0.98044185753E+03  0.10725398654E+04 -0.12929770672E+03  0.14588783005E+04  0.50400001928E-02 0.  1.
</event>
<event>
 5   0  0.1119100E-05  0.3050678E+04  0.7818609E-02  0.8229406E-01
       -2   -1    0    0    0  501  0.00000000000E+00  0.00000000000E+00  0.12523405229E+04  0.12523405229E+04  0.25500000920E-02 0. -1.
        2   -1    0    0  501    0  0.00000000000E+00  0.00000000000E+00 -0.18578480820E+04  0.18578480820E+04  0.25500000920E-02 0.  1.
    10030    2    1    2    0    0  0.00000000000E+00  0.00000000000E+00 -0.60550755911E+03  0.31101886049E+04  0.30506775893E+04 0.  0.
        2    1    3    3  502    0  0.12714775149E+04  0.29976027794E+03  0.50010246189E+03  0.13987901084E+04  0.25500000920E-02 0.  1.
       -2    1    3    3    0  502 -0.12714775149E+04 -0.29976027794E+03 -0.11056100210E+04  0.17113984964E+04  0.25500000920E-02 0. -1.
</event>
<event>
 5   0  0.3848286E-06  0.3030663E+04  0.7818609E-02  0.8235029E-01
        1   -1    0    0  501    0  0.00000000000E+00  0.00000000000E+00  0.12614890662E+04  0.12614890662E+04  0.50400001928E-02 0. -1.
       -1   -1    0    0    0  501  0.00000000000E+00  0.00000000000E+00 -0.18202530112E+04  0.18202530112E+04  0.50400001928E-02 0.  1.
    10030    2    1    2    0    0  0.00000000000E+00  0.00000000000E+00 -0.55876394501E+03  0.30817420774E+04  0.30306628129E+04 0.  0.
        2    1    3    3  502    0 -0.62391284574E+03 -0.89360498733E+03 -0.13499474308E+04  0.17349798784E+04  0.25500000920E-02 0.  1.
       -2    1    3    3    0  502  0.62391284574E+03  0.89360498733E+03  0.79118348582E+03  0.13467621990E+04  0.25500000920E-02 0. -1.
</event>
<event>
 5   0  0.1108153E-05  0.2755795E+04  0.7818609E-02  0.8317125E-01
       -2   -1    0    0    0  501  0.00000000000E+00  0.00000000000E+00  0.10025073439E+04  0.10025073439E+04  0.25500000920E-02 0. -1.
        2   -1    0    0  501    0  0.00000000000E+00  0.00000000000E+00 -0.18938534721E+04  0.18938534721E+04  0.25500000920E-02 0.  1.
    10030    2    1    2    0    0  0.00000000000E+00  0.00000000000E+00 -0.89134612825E+03  0.28963608160E+04  0.27557953582E+04 0.  0.
        4    1    3    3  502    0  0.60497016687E+03  0.27971368139E+03  0.82181364763E+03  0.10581152729E+04  0.12699999809E+01 0. -1.
       -4    1    3    3    0  502 -0.60497016687E+03 -0.27971368139E+03 -0.17131597759E+04  0.18382455432E+04  0.12699999809E+01 0.  1.
</event>
<event>
 5   0  0.1108153E-05  0.3099550E+04  0.7818609E-02  0.8215861E-01
        2   -1    0    0  501    0  0.00000000000E+00  0.00000000000E+00  0.11103819578E+04  0.11103819578E+04  0.25500000920E-02 0.  1.
       -2   -1    0    0    0  501  0.00000000000E+00  0.00000000000E+00 -0.21630422811E+04  0.21630422811E+04  0.25500000920E-02 0. -1.
    10030    2    1    2    0    0  0.00000000000E+00  0.00000000000E+00 -0.10526603233E+04  0.32734242389E+04  0.30995503692E+04 0.  0.
        4    1    3    3  502    0  0.91791196512E+03 -0.76257549912E+03 -0.15705942517E+04  0.19725241909E+04  0.12699999809E+01 0. -1.
       -4    1    3    3    0  502 -0.91791196512E+03  0.76257549912E+03  0.51793392840E+03  0.13009000479E+04  0.12699999809E+01 0.  1.
</event>
<event>
 5   0  0.4250961E-06  0.3053669E+04  0.7818609E-02  0.8228569E-01
       -1   -1    0    0    0  501  0.00000000000E+00  0.00000000000E+00  0.11726354750E+04  0.11726354750E+04  0.50400001928E-02 0. -1.
        1   -1    0    0  501    0  0.00000000000E+00  0.00000000000E+00 -0.19880201925E+04  0.19880201925E+04  0.50400001928E-02 0.  1.
    10030    2    1    2    0    0  0.00000000000E+00  0.00000000000E+00 -0.81538471752E+03  0.31606556676E+04  0.30536686152E+04 0.  0.
        1    1    3    3  502    0 -0.11678512007E+04  0.81703853011E+03  0.15902588559E+03  0.14341260819E+04  0.50400001928E-02 0. -1.
       -1    1    3    3    0  502  0.11678512007E+04 -0.81703853011E+03 -0.97441060311E+03  0.17265295856E+04  0.50400001928E-02 0.  1.
</event>
<event>
 5   0  0.3838525E-06  0.3113578E+04  0.7818609E-02  0.8212021E-01
        1   -1    0    0  501    0  0.00000000000E+00  0.00000000000E+00  0.19578220409E+04  0.19578220409E+04  0.50400001928E-02 0. -1.
       -1   -1    0    0    0  501  0.00000000000E+00  0.00000000000E+00 -0.12379023952E+04  0.12379023952E+04  0.50400001928E-02 0.  1.
    10030    2    1    2    0    0  0.00000000000E+00  0.00000000000E+00  0.71991964570E+03  0.31957244361E+04  0.31135783876E+04 0.  0.
        3    1    3    3  502    0  0.96352873828E+02 -0.30850514577E+03  0.19230080342E+04  0.19499792848E+04  0.10100000352E+00 0. -1.
       -3    1    3    3    0  502 -0.96352873828E+02  0.30850514577E+03 -0.12030883885E+04  0.12457451513E+04  0.10100000352E+00 0.  1.
</event>
<event>
 5   0  0.1007567E-05  0.3061042E+04  0.7818609E-02  0.8226512E-01
       -2   -1    0    0    0  501  0.00000000000E+00  0.00000000000E+00  0.10738029612E+04  0.10738029612E+04  0.25500000920E-02 0. -1.
        2   -1    0    0  501    0  0.00000000000E+00  0.00000000000E+00 -0.21814941685E+04  0.21814941685E+04  0.25500000920E-02 0.  1.
    10030    2    1    2    0    0  0.00000000000E+00  0.00000000000E+00 -0.11076912073E+04  0.32552971296E+04  0.30610422394E+04 0.  0.
        3    1    3    3  502    0  0.93067991762E+02  0.15236234563E+03  0.10626907599E+04  0.10775841483E+04  0.10100000352E+00 0. -1.
       -3    1    3    3    0  502 -0.93067991762E+02 -0.15236234563E+03 -0.21703819671E+04  0.21777129813E+04  0.10100000352E+00 0.  1.
</event>
<event>
 5   0  0.4139628E-06  0.1905085E+04  0.7818609E-02  0.8652329E-01
        1   -1    0    0  501    0  0.00000000000E+00  0.00000000000E+00  0.25426218247E+04  0.25426218247E+04  0.50400001928E-02 0. -1.
       -1   -1    0    0    0  501  0.00000000000E+00  0.00000000000E+00 -0.35685107731E+03  0.35685107734E+03  0.50400001928E-02 0.  1.
    10030    2    1    2    0    0  0.00000000000E+00  0.00000000000E+00  0.21857707474E+04  0.28994729021E+04  0.19050851292E+04 0.  0.
        5    1    3    3  502    0  0.94592598701E+03  0.46205117767E+02  0.12481285020E+04  0.15667666493E+04  0.46999998093E+01 0.  1.
       -5    1    3    3    0  502 -0.94592598701E+03 -0.46205117767E+02  0.93764224539E+03  0.13327062528E+04  0.46999998093E+01 0. -1.
</event>
<event>
 5   0  0.3807334E-06  0.3272027E+04  0.7818609E-02  0.8170050E-01
       -1   -1    0    0    0  501  0.00000000000E+00  0.00000000000E+00  0.24970552772E+04  0.24970552772E+04  0.50400001928E-02 0. -1.
        1   -1    0    0  501    0  0.00000000000E+00  0.00000000000E+00 -0.10718788360E+04  0.10718788360E+04  0.50400001928E-02 0.  1.
    10030    2    1    2    0    0  0.00000000000E+00  0.00000000000E+00  0.14251764412E+04  0.35689341132E+04  0.32720273250E+04 0.  0.
        4    1    3    3  502    0  0.85770999514E+02 -0.64300966827E+03 -0.92560188777E+03  0.11302913631E+04  0.12699999809E+01 0.  1.
       -4    1    3    3    0  502 -0.85770999514E+02  0.64300966827E+03  0.23507783290E+04  0.24386427502E+04  0.12699999809E+01 0. -1.
</event>
<event>
 5   0  0.1108153E-05  0.3121690E+04  0.7818609E-02  0.8209810E-01
       -2   -1    0    0    0  501  0.00000000000E+00  0.00000000000E+00  0.97849778143E+03  0.97849778143E+03  0.25500000920E-02 0.  1.
        2   -1    0    0  501    0  0.00000000000E+00  0.00000000000E+00 -0.24897734238E+04  0.24897734238E+04  0.25500000920E-02 0. -1.
    10030    2    1    2    0    0  0.00000000000E+00  0.00000000000E+00 -0.15112756423E+04  0.34682712052E+04  0.31216904212E+04 0.  0.
        4    1    3    3  502    0 -0.72156133229E+02  0.14989464157E+04 -0.12324588605E+04  0.19419071348E+04  0.12699999809E+01 0. -1.
       -4    1    3    3    0  502  0.72156133229E+02 -0.14989464157E+04 -0.27881678182E+03  0.15263640704E+04  0.12699999809E+01 0.  1.
</event>
<event>
 5   0  0.9797278E-06  0.3076970E+04  0.7818609E-02  0.8222087E-01
        2   -1    0    0  501    0  0.00000000000E+00  0.00000000000E+00  0.17182243693E+04  0.17182243693E+04  0.25500000920E-02 0.  1.
       -2   -1    0    0    0  501  0.00000000000E+00  0.00000000000E+00 -0.13775473607E+04  0.13775473607E+04  0.25500000920E-02 0. -1.
    10030    2    1    2    0    0  0.00000000000E+00  0.00000000000E+00  0.34067700862E+03  0.30957717300E+04  0.30769695774E+04 0.  0.
        1    1    3    3  502    0  0.77870486673E+03  0.11140071580E+04 -0.55485875441E+03  0.14680808748E+04  0.50400001928E-02 0. -1.
       -1    1    3    3    0  502 -0.77870486673E+03 -0.11140071580E+04  0.89553576303E+03  0.16276908553E+04  0.50400001928E-02 0.  1.
</event>
<event>
 5   0  0.3848286E-06  0.2650453E+04  0.7818609E-02  0.8351263E-01
       -1   -1    0    0    0  501  0.00000000000E+00  0.00000000000E+00  0.15540406421E+04  0.15540406421E+04  0.50400001928E-02 0.  1.
        1   -1    0    0  501    0  0.00000000000E+00  0.00000000000E+00 -0.11301028041E+04  0.11301028041E+04  0.50400001928E-02 0. -1.
    10030    2    1    2    0    0  0.00000000000E+00  0.00000000000E+00  0.42393783799E+03  0.26841434462E+04  0.26504533101E+04 0.  0.
        2    1    3    3  502    0  0.57412180412E+02  0.59579440529E+03 -0.98541304373E+03  0.11529553324E+04  0.25500000920E-02 0. -1.
       -2    1    3    3    0  502 -0.57412180412E+02 -0.59579440529E+03  0.14093508817E+04  0.15311881137E+04  0.25500000920E-02 0.  1.
</event>
<event>
 5   0  0.1119100E-05  0.3102952E+04  0.7818609E-02  0.8214928E-01
       -2   -1    0    0    0  501  0.00000000000E+00  0.00000000000E+00  0.12292758404E+04  0.12292758404E+04  0.25500000920E-02 0.  1.
        2   -1    0    0  501    0  0.00000000000E+00  0.00000000000E+00 -0.19581266290E+04  0.19581266290E+04  0.25500000920E-02 0. -1.
    10030    2    1    2    0    0  0.00000000000E+00  0.00000000000E+00 -0.72885078857E+03  0.31874024694E+04  0.31029519864E+04 0.  0.
        2    1    3    3  502    0  0.89269138810E+03 -0.66987389611E+03  0.74261096552E+03  0.13405595836E+04  0.25500000920E-02 0.  1.
       -2    1    3    3    0  502 -0.89269138810E+03  0.66987389611E+03 -0.14714617541E+04  0.18468428858E+04  0.25500000920E-02 0. -1.
</event>
<event>
 5   0  0.9797278E-06  0.3040214E+04  0.7818609E-02  0.8232340E-01
        2   -1    0    0  501    0  0.00000000000E+00  0.00000000000E+00  0.17201086596E+04  0.17201086596E+04  0.25500000920E-02 0.  1.
       -2   -1    0    0    0  501  0.00000000000E+00  0.00000000000E+00 -0.13433603023E+04  0.13433603023E+04  0.25500000920E-02 0. -1.
    10030    2    1    2    0    0  0.00000000000E+00  0.00000000000E+00  0.37674835729E+03  0.30634689618E+04  0.30402142614E+04 0.  0.
        1    1    3    3  502    0 -0.59661196799E+03  0.10573230815E+04  0.11101652963E+04  0.16450972385E+04  0.50400001928E-02 0.  1.
       -1    1    3    3    0  502  0.59661196799E+03 -0.10573230815E+04 -0.73341693900E+03  0.14183717233E+04  0.50400001928E-02 0. -1.
</event>
<event>
 5   0  0.1007567E-05  0.3061521E+04  0.7818609E-02  0.8226378E-01
        2   -1    0    0  501    0  0.00000000000E+00  0.00000000000E+00  0.31770978743E+04  0.31770978743E+04  0.25500000920E-02 0. -1.
       -2   -1    0    0    0  501  0.00000000000E+00  0.00000000000E+00 -0.73753731995E+03  0.73753731996E+03  0.25500000920E-02 0.  1.
    10030    2    1    2    0    0  0.00000000000E+00  0.00000000000E+00  0.24395605543E+04  0.39146351942E+04  0.30615213548E+04 0.  0.
        3    1    3    3  502    0  0.10746339784E+04 -0.10404980720E+03 -0.16776194183E+03  0.10926154992E+04  0.10100000352E+00 0.  1.
       -3    1    3    3    0  502 -0.10746339784E+04  0.10404980720E+03  0.26073224962E+04  0.28220196950E+04  0.10100000352E+00 0. -1.
</event>
<event>
 5   0  0.1119100E-05  0.2951344E+04  0.7818609E-02  0.8257763E-01
       -2   -1    0    0    0  501  0.00000000000E+00  0.00000000000E+00  0.98095589560E+03  0.98095589560E+03  0.25500000920E-02 0.  1.
        2   -1    0    0  501    0  0.00000000000E+00  0.00000000000E+00 -0.22198832778E+04  0.22198832778E+04  0.25500000920E-02 0. -1.
    10030    2    1    2    0    0  0.00000000000E+00  0.00000000000E+00 -0.12389273822E+04  0.32008391734E+04  0.29513438220E+04 0.  0.
        2    1    3    3  502    0  0.44750133324E+03  0.91069914260E+03 -0.17814758750E+04  0.20501918605E+04  0.25500000920E-02 0. -1.
       -2    1    3    3    0  502 -0.44750133324E+03 -0.91069914260E+03  0.54254849283E+03  0.11506473129E+04  0.25500000920E-02 0.  1.
</event>
<event>
 5   0  0.4139628E-06  0.1828115E+04  0.7818609E-02  0.8691489E-01
        1   -1    0    0  501    0  0.00000000000E+00  0.00000000000E+00  0.76240158459E+03  0.76240158460E+03  0.50400001928E-02 0. -1.
       -1   -1    0    0    0  501  0.00000000000E+00  0.00000000000E+00 -0.10958809753E+04  0.10958809753E+04  0.50400001928E-02 0.  1.
    10030    2    1    2    0    0  0.00000000000E+00  0.00000000000E+00 -0.33347939072E+03  0.18582825599E+04  0.18281153050E+04 0.  0.
        5    1    3    3  502    0  0.55184798511E+03  0.83102426211E+02  0.56911011060E+03  0.79708884066E+03  0.46999998093E+01 0. -1.
       -5    1    3    3    0  502 -0.55184798511E+03 -0.83102426211E+02 -0.90258950132E+03  0.10611937193E+04  0.46999998093E+01 0.  1.
</event>
<event>
 5   0  0.1108153E-05  0.3215885E+04  0.7818609E-02  0.8184635E-01
        2   -1    0    0  501    0  0.00000000000E+00  0.00000000000E+00  0.13269423555E+04  0.13269423555E+04  0.25500000920E-02 0. -1.
       -2   -1    0    0    0  501  0.00000000000E+00  0.00000000000E+00 -0.19484482561E+04  0.19484482561E+04  0.25500000920E-02 0.  1.
    10030    2    1    2    0    0  0.00000000000E+00  0.00000000000E+00 -0.62150590062E+03  0.32753906116E+04  0.32158846488E+04 0.  0.
        4    1    3    3  502    0 -0.12489386613E+04  0.64486946804E+03 -0.11060814639E+04  0.17886090205E+04  0.12699999809E+01 0.  1.
       -4    1    3    3    0  502  0.12489386613E+04 -0.64486946804E+03  0.48457556324E+03  0.14867815912E+04  0.12699999809E+01 0. -1.
</event>
<event>
 5   0  0.3838525E-06  0.2129474E+04  0.7818609E-02  0.8548370E-01
        1   -1    0    0  501    0  0.00000000000E+00  0.00000000000E+00  0.82843638714E+03  0.82843638716E+03  0.50400001928E-02 0. -1.
       -1   -1    0    0    0  501  0.00000000000E+00  0.00000000000E+00 -0.13684390897E+04  0.13684390897E+04  0.50400001928E-02 0.  1.
    10030    2    1    2    0    0  0.00000000000E+00  0.00000000000E+00 -0.54000270253E+03  0.21968754768E+04  0.21294738651E+04 0.  0.
        3    1    3    3  502    0  0.13892144596E+03  0.20493596848E+03  0.79832713270E+03  0.83583738869E+03  0.10100000352E+00 0. -1.
       -3    1    3    3    0  502 -0.13892144596E+03 -0.20493596848E+03 -0.13383298352E+04  0.13610380882E+04  0.10100000352E+00 0.  1.
</event>
<event>
 5   0  0.4250961E-06  0.3087257E+04  0.7818609E-02  0.8219244E-01
        1   -1    0    0  501    0  0.00000000000E+00  0.00000000000E+00  0.26246084824E+04  0.26246084824E+04  0.50400001928E-02 0.  1.
       -1   -1    0    0    0  501  0.00000000000E+00  0.00000000000E+00 -0.90786430480E+03  0.90786430481E+03  0.50400001928E-02 0. -1.
    10030    2    1    2    0    0  0.00000000000E+00  0.00000000000E+00  0.17167441776E+04  0.35324727872E+04  0.30872566173E+04 0.  0.
        1    1    3    3  502    0 -0.21298667673E+03 -0.35028941297E+03  0.25611803154E+04  0.25937830683E+04  0.50400001928E-02 0.  1.
       -1    1    3    3    0  502  0.21298667673E+03  0.35028941297E+03 -0.84443613788E+03  0.93868971885E+03  0.50400001928E-02 0. -1.
</event>
<event>
 5   0  0.1007567E-05  0.3056863E+04  0.7818609E-02  0.8227677E-01
        2   -1    0    0  501    0  0.00000000000E+00  0.00000000000E+00  0.18066484385E+04  0.18066484385E+04  0.25500000920E-02 0.  1.
       -2   -1    0    0    0  501  0.00000000000E+00  0.00000000000E+00 -0.12930585290E+04  0.12930585290E+04  0.25500000920E-02 0. -1.
    10030    2    1    2    0    0  0.00000000000E+00  0.00000000000E+00  0.51358990948E+03  0.30997069674E+04  0.30568625564E+04 0.  0.
        3    1    3    3  502    0 -0.27805414992E+03  0.13979379035E+04 -0.30280735401E+03  0.14571330743E+04  0.10100000352E+00 0. -1.
       -3    1    3    3    0  502  0.27805414992E+03 -0.13979379035E+04  0.81639726348E+03  0.16425738931E+04  0.10100000352E+00 0.  1.
</event>
<event>
 5   0  0.3493125E-06  0.2036768E+04  0.7818609E-02  0.8589621E-01
       -3   -1    0    0    0  501  0.00000000000E+00  0.00000000000E+00  0.48159308616E+03  0.48159309675E+03  0.10100000352E+00 0.  1.
        3   -1    0    0  501    0  0.00000000000E+00  0.00000000000E+00 -0.21534910733E+04  0.21534910757E+04  0.10100000352E+00 0. -1.
    10030    2    1    2    0    0  0.00000000000E+00  0.00000000000E+00 -0.16718979871E+04  0.26350841724E+04  0.20367684494E+04 0.  0.
        1    1    3    3  502    0  0.93417999373E+03 -0.36482433281E+03 -0.10649015552E+04  0.14628070196E+04  0.50400001928E-02 0. -1.
       -1    1    3    3    0  502 -0.93417999373E+03  0.36482433281E+03 -0.60699643199E+03  0.11722771528E+04  0.50400001928E-02 0.  1.
</event>
<event>
 5   0  0.3838525E-06  0.3127365E+04  0.7818609E-02  0.8208268E-01
       -1   -1    0    0    0  501  0.00000000000E+00  0.00000000000E+00  0.24724180863E+04  0.24724180863E+04  0.50400001928E-02 0.  1.
        1   -1    0    0  501    0  0.00000000000E+00  0.00000000000E+00 -0.98895217938E+03  0.98895217940E+03  0.50400001928E-02 0. -1.
    10030    2    1    2    0    0  0.00000000000E+00  0.00000000000E+00  0.14834659069E+04  0.34613702657E+04  0.31273651880E+04 0.  0.
        3    1    3    3  502    0  0.11407130726E+04 -0.73562378798E+03 -0.11754271212E+03  0.13624187942E+04  0.10100000352E+00 0. -1.
       -3    1    3    3    0  502 -0.11407130726E+04  0.73562378798E+03  0.16010086191E+04  0.20989514715E+04  0.10100000352E+00 0.  1.
</event>
<event>
 5   0  0.3807334E-06  0.1629081E+04  0.7818609E-02  0.8802879E-01
        1   -1    0    0  501    0  0.00000000000E+00  0.00000000000E+00  0.22402858154E+04  0.22402858154E+04  0.50400001928E-02 0. -1.
       -1   -1    0    0    0  501  0.00000000000E+00  0.00000000000E+00 -0.29615686893E+03  0.29615686897E+03  0.50400001928E-02 0.  1.
    10030    2    1    2    0    0  0.00000000000E+00  0.00000000000E+00  0.19441289465E+04  0.25364426844E+04  0.16290807625E+04 0.  0.
        4    1    3    3  502    0 -0.46616724515E+03 -0.34299302683E+03  0.79659004202E+02  0.58421167975E+03  0.12699999809E+01 0.  1.
       -4    1    3    3    0  502  0.46616724515E+03  0.34299302683E+03  0.18644699423E+04  0.19522310046E+04  0.12699999809E+01 0. -1.
</event>
<event>
 5   0  0.4139628E-06  0.3124608E+04  0.7818609E-02  0.8209017E-01
       -1   -1    0    0    0  501  0.00000000000E+00  0.00000000000E+00  0.22396867197E+04  0.22396867197E+04  0.50400001928E-02 0. -1.
        1   -1    0    0  501    0  0.00000000000E+00  0.00000000000E+00 -0.10897923869E+04  0.10897923869E+04  0.50400001928E-02 0.  1.
    10030    2    1    2    0    0  0.00000000000E+00  0.00000000000E+00  0.11498943329E+04  0.33294791066E+04  0.31246078386E+04 0.  0.
        5    1    3    3  502    0 -0.11036576889E+04  0.20479561106E+02 -0.60311501506E+03  0.12578750010E+04  0.46999998093E+01 0.  1.
       -5    1    3    3    0  502  0.11036576889E+04 -0.20479561106E+02  0.17530093479E+04  0.20716041057E+04  0.46999998093E+01 0. -1.
</event>
<event>
 5   0  0.3807334E-06  0.2151739E+04  0.7818609E-02  0.8538788E-01
       -1   -1    0    0    0  501  0.00000000000E+00  0.00000000000E+00  0.59174479599E+03  0.59174479601E+03  0.50400001928E-02 0.  1.
        1   -1    0    0  501    0  0.00000000000E+00  0.00000000000E+00 -0.19560718269E+04  0.19560718269E+04  0.50400001928E-02 0. -1.
    10030    2    1    2    0    0  0.00000000000E+00  0.00000000000E+00 -0.13643270309E+04  0.25478166229E+04  0.21517391330E+04 0.  0.
        4    1    3    3  502    0 -0.17491115623E+03 -0.51884727061E+03 -0.17787567750E+04  0.18611216189E+04  0.12699999809E+01 0. -1.
       -4    1    3    3    0  502  0.17491115623E+03  0.51884727061E+03  0.41442974412E+03  0.68669500399E+03  0.12699999809E+01 0.  1.
</event>
<event>
 5   0  0.1007567E-05  0.3163497E+04  0.7818609E-02  0.8198525E-01
       -2   -1    0    0    0  501  0.00000000000E+00  0.00000000000E+00  0.82708567992E+03  0.82708567993E+03  0.25500000920E-02 0. -1.
        2   -1    0    0  501    0  0.00000000000E+00  0.00000000000E+00 -0.30249919561E+04  0.30249919561E+04  0.25500000920E-02 0.  1.
    10030    2    1    2    0    0  0.00000000000E+00  0.00000000000E+00 -0.21979062762E+04  0.38520776361E+04  0.31634965015E+04 0.  0.
        3    1    3    3  502    0 -0.12061153422E+03 -0.11247623915E+03  0.81658824194E+03  0.83307527489E+03  0.10100000352E+00 0. -1.
       -3    1    3    3    0  502  0.12061153422E+03  0.11247623915E+03 -0.30144945181E+04  0.30190023612E+04  0.10100000352E+00 0.  1.
</event>
<event>
 5   0  0.3807334E-06  0.2749635E+04  0.7818609E-02  0.8319078E-01
       -1   -1    0    0    0  501  0.00000000000E+00  0.00000000000E+00  0.14482050515E+04  0.14482050515E+04  0.50400001928E-02 0.  1.
        1   -1    0    0  501    0  0.00000000000E+00  0.00000000000E+00 -0.13051485652E+04  0.13051485652E+04  0.50400001928E-02 0. -1.
    10030    2    1    2    0    0  0.00000000000E+00  0.00000000000E+00  0.14305648626E+03  0.27533536167E+04  0.27496346995E+04 0.  0.
        4    1    3    3  502    0  0.37390031058E+03  0.15043434623E+03  0.13877219230E+04  0.14450625188E+04  0.12699999809E+01 0.  1.
       -4    1    3    3    0  502 -0.37390031058E+03 -0.15043434623E+03 -0.12446654367E+04  0.13082910980E+04  0.12699999809E+01 0. -1.
</event>
<event>
 5   0  0.1007567E-05  0.3089713E+04  0.7818609E-02  0.8218567E-01
       -2   -1    0    0    0  501  0.00000000000E+00  0.00000000000E+00  0.13674665144E+04  0.13674665144E+04  0.25500000920E-02 0. -1.
        2   -1    0    0  501    0  0.00000000000E+00  0.00000000000E+00 -0.17452578600E+04  0.17452578600E+04  0.25500000920E-02 0.  1.
    10030    2    1    2    0    0  0.00000000000E+00  0.00000000000E+00 -0.37779134566E+03  0.31127243744E+04  0.30897130498E+04 0.  0.
        3    1    3    3  502    0  0.34282134845E+03  0.35522825170E+03 -0.16636518964E+04  0.17353533445E+04  0.10100000352E+00 0.  1.
       -3    1    3    3    0  502 -0.34282134845E+03 -0.35522825170E+03  0.12858605508E+04  0.13773710299E+04  0.10100000352E+00 0. -1.
</event>
<event>
 5   0  0.1108153E-05  0.2862709E+04  0.7818609E-02  0.8284060E-01
        2   -1    0    0  501    0  0.00000000000E+00  0.00000000000E+00  0.16785896585E+04  0.16785896585E+04  0.25500000920E-02 0. -1.
       -2   -1    0    0    0  501  0.00000000000E+00  0.00000000000E+00 -0.12205343322E+04  0.12205343322E+04  0.25500000920E-02 0.  1.
    10030    2    1    2    0    0  0.00000000000E+00  0.00000000000E+00  0.45805532628E+03  0.28991239907E+04  0.28627094214E+04 0.  0.
        4    1    3    3  502    0  0.10932729943E+04 -0.81607921868E+03  0.66759936359E+03  0.15188553764E+04  0.12699999809E+01 0. -1.
       -4    1    3    3    0  502 -0.10932729943E+04  0.81607921868E+03 -0.20954403731E+03  0.13802686143E+04  0.12699999809E+01 0.  1.
</event>
<event>
 5   0  0.3807334E-06  0.3045517E+04  0.7818609E-02  0.8230851E-01
       -1   -1    0    0    0  501  0.00000000000E+00  0.00000000000E+00  0.12249080973E+04  0.12249080973E+04  0.50400001928E-02 0.  1.
        1   -1    0    0  501    0  0.00000000000E+00  0.00000000000E+00 -0.18930347553E+04  0.18930347553E+04  0.50400001928E-02 0. -1.
    10030    2    1    2    0    0  0.00000000000E+00  0.00000000000E+00 -0.66812665800E+03  0.31179428526E+04  0.30455170991E+04 0.  0.
        4    1    3    3  502    0  0.65151555967E+03  0.93065991577E+03 -0.13721751374E+04  0.17814226405E+04  0.12699999809E+01 0. -1.
       -4    1    3    3    0  502 -0.65151555967E+03 -0.93065991577E+03  0.70404847941E+03  0.13365202122E+04  0.12699999809E+01 0.  1.
</event>
<event>
 5   0  0.4250961E-06  0.3180352E+04  0.7818609E-02  0.8194025E-01
       -1   -1    0    0    0  501  0.00000000000E+00  0.00000000000E+00  0.14081270787E+04  0.14081270787E+04  0.50400001928E-02 0. -1.
        1   -1    0    0  501    0  0.00000000000E+00  0.00000000000E+00 -0.17957610915E+04  0.17957610915E+04  0.50400001928E-02 0.  1.
    10030    2    1    2    0    0  0.00000000000E+00  0.00000000000E+00 -0.38763401275E+03  0.32038881702E+04  0.31803520684E+04 0.  0.
        1    1    3    3  502    0 -0.97457449217E+02 -0.13398343311E+04  0.66336526704E+03  0.14982347836E+04  0.50400001928E-02 0. -1.
       -1    1    3    3    0  502  0.97457449217E+02  0.13398343311E+04 -0.10509992798E+04  0.17056533866E+04  0.50400001928E-02 0.  1.
</event>
<event>
 5   0  0.1119100E-05  0.3010863E+04  0.7818609E-02  0.8240636E-01
        2   -1    0    0  501    0  0.00000000000E+00  0.00000000000E+00  0.21387232512E+04  0.21387232512E+04  0.25500000920E-02 0. -1.
       -2   -1    0    0    0  501  0.00000000000E+00  0.00000000000E+00 -0.10596617760E+04  0.10596617760E+04  0.25500000920E-02 0.  1.
    10030    2    1    2    0    0  0.00000000000E+00  0.00000000000E+00  0.10790614752E+04  0.31983850273E+04  0.30108625202E+04 0.  0.
        2    1    3    3  502    0 -0.93236504031E+03 -0.15220187433E+03  0.17846472676E+04  0.20192661658E+04  0.25500000920E-02 0. -1.
       -2    1    3    3    0  502  0.93236504031E+03  0.15220187433E+03 -0.70558579237E+03  0.11791188614E+04  0.25500000920E-02 0.  1.
</event>
<event>
 5   0  0.1007567E-05  0.3574033E+04  0.7818609E-02  0.8096466E-01
       -2   -1    0    0    0  501  0.00000000000E+00  0.00000000000E+00  0.20840352898E+04  0.20840352898E+04  0.25500000920E-02 0.  1.
        2   -1    0    0  501    0  0.00000000000E+00  0.00000000000E+00 -0.15323293644E+04  0.15323293644E+04  0.25500000920E-02 0. -1.
    10030    2    1    2    0    0  0.00000000000E+00  0.00000000000E+00  0.55170592538E+03  0.36163646542E+04  0.35740332796E+04 0.  0.
        3    1    3    3  502    0  0.91346801024E+02  0.13633432537E+04  0.14411791528E+04  0.19859623425E+04  0.10100000352E+00 0. -1.
       -3    1    3    3    0  502 -0.91346801024E+02 -0.13633432537E+04 -0.88947322737E+03  0.16304023116E+04  0.10100000352E+00 0.  1.
</event>
<event>
 5   0  0.3807334E-06  0.3053762E+04  0.7818609E-02  0.8228543E-01
       -1   -1    0    0    0  501  0.00000000000E+00  0.00000000000E+00  0.11119633697E+04  0.11119633697E+04  0.50400001928E-02 0.  1.
        1   -1    0    0  501    0  0.00000000000E+00  0.00000000000E+00 -0.20966206705E+04  0.20966206705E+04  0.50400001928E-02 0. -1.
    10030    2    1    2    0    0  0.00000000000E+00  0.00000000000E+00 -0.98465730084E+03  0.32085840403E+04  0.30537618675E+04 0.  0.
        4    1    3    3  502    0 -0.15117665494E+04  0.44057393584E+02 -0.27197072817E+03  0.15366680981E+04  0.12699999809E+01 0.  1.
       -4    1    3    3    0  502  0.15117665494E+04 -0.44057393584E+02 -0.71268657267E+03  0.16719159422E+04  0.12699999809E+01 0. -1.
</event>
<event>
 5   0  0.3848286E-06  0.2969118E+04  0.7818609E-02  0.8252605E-01
        1   -1    0    0  501    0  0.00000000000E+00  0.00000000000E+00  0.10618441386E+04  0.10618441387E+04  0.50400001928E-02 0. -1.
       -1   -1    0    0    0  501  0.00000000000E+00  0.00000000000E+00 -0.20755540628E+04  0.20755540628E+04  0.50400001928E-02 0.  1.
    10030    2    1    2    0    0  0.00000000000E+00  0.00000000000E+00 -0.10137099242E+04  0.31373982015E+04  0.29691176575E+04 0.  0.
        2    1    3    3  502    0 -0.92101128764E+01 -0.14549105036E+04 -0.19506270500E+03  0.14679573762E+04  0.25500000920E-02 0. -1.
       -2    1    3    3    0  502  0.92101128764E+01  0.14549105036E+04 -0.81864721917E+03  0.16694408252E+04  0.25500000920E-02 0.  1.
</event>
<event>
 5   0  0.4250961E-06  0.2028500E+04  0.7818609E-02  0.8593411E-01
        1   -1    0    0  501    0  0.00000000000E+00  0.00000000000E+00  0.18150418851E+04  0.18150418851E+04  0.50400001928E-02 0. -1.
       -1   -1    0    0    0  501  0.00000000000E+00  0.00000000000E+00 -0.56676538875E+03  0.56676538877E+03  0.50400001928E-02 0.  1.
    10030    2    1    2    0    0  0.00000000000E+00  0.00000000000E+00  0.12482764964E+04  0.23818072739E+04  0.20284998592E+04 0.  0.
        1    1    3    3  502    0 -0.24716085290E+02 -0.12652990616E+02 -0.56631903121E+03  0.56699931938E+03  0.50400001928E-02 0.  1.
       -1    1    3    3    0  502  0.24716085290E+02  0.12652990616E+02  0.18145955276E+04  0.18148079545E+04  0.50400001928E-02 0. -1.
</event>
<event>
 5   0  0.1119100E-05  0.3040403E+04  0.7818609E-02  0.8232287E-01
       -2   -1    0    0    0  501  0.00000000000E+00  0.00000000000E+00  0.15738794286E+04  0.15738794286E+04  0.25500000920E-02 0. -1.
        2   -1    0    0  501    0  0.00000000000E+00  0.00000000000E+00 -0.14683541164E+04  0.14683541164E+04  0.25500000920E-02 0.  1.
    10030    2    1    2    0    0  0.00000000000E+00  0.00000000000E+00  0.10552531219E+03  0.30422335451E+04  0.30404028271E+04 0.  0.
        2    1    3    3  502    0  0.11622546724E+03 -0.91583333885E+03 -0.11557531780E+04  0.14791972391E+04  0.25500000920E-02 0.  1.
       -2    1    3    3    0  502 -0.11622546724E+03  0.91583333885E+03  0.12612784902E+04  0.15630363059E+04  0.25500000920E-02 0. -1.
</event>
<event>
 5   0  0.4139628E-06  0.3028496E+04  0.7818609E-02  0.8235640E-01
       -1   -1    0    0    0  501  0.00000000000E+00  0.00000000000E+00  0.10379011505E+04  0.10379011505E+04  0.50400001928E-02 0. -1.
        1   -1    0    0  501    0  0.00000000000E+00  0.00000000000E+00 -0.22092146940E+04  0.22092146940E+04  0.50400001928E-02 0.  1.
    10030    2    1    2    0    0  0.00000000000E+00  0.00000000000E+00 -0.11713135435E+04  0.32471158445E+04  0.30284956481E+04 0.  0.
        5    1    3    3  502    0  0.11482980274E+04  0.18828757148E+03 -0.16245639687E+04  0.19983169788E+04  0.46999998093E+01 0.  1.
       -5    1    3    3    0  502 -0.11482980274E+04 -0.18828757148E+03  0.45325042512E+03  0.12487988658E+04  0.46999998093E+01 0. -1.
</event>
<event>
 5   0  0.3838525E-06  0.2840042E+04  0.7818609E-02  0.8290944E-01
       -1   -1    0    0    0  501  0.00000000000E+00  0.00000000000E+00  0.72825718794E+03  0.72825718796E+03  0.50400001928E-02 0.  1.
        1   -1    0    0  501    0  0.00000000000E+00  0.00000000000E+00 -0.27688834299E+04  0.27688834299E+04  0.50400001928E-02 0. -1.
    10030    2    1    2    0    0  0.00000000000E+00  0.00000000000E+00 -0.20406262420E+04  0.34971406179E+04  0.28400417324E+04 0.  0.
        3    1    3    3  502    0 -0.52131811652E+03  0.70171400225E+03 -0.23982832784E+04  0.25526335054E+04  0.10100000352E+00 0. -1.
       -3    1    3    3    0  502  0.52131811652E+03 -0.70171400225E+03  0.35765703640E+03  0.94450711244E+03  0.10100000352E+00 0.  1.
</event>
<event>
 5   0  0.1007567E-05  0.3166096E+04  0.7818609E-02  0.8197829E-01
        2   -1    0    0  501    0  0.00000000000E+00  0.00000000000E+00  0.19505803831E+04  0.19505803831E+04  0.25500000920E-02 0.  1.
       -2   -1    0    0    0  501  0.00000000000E+00  0.00000000000E+00 -0.12847665043E+04  0.12847665043E+04  0.25500000920E-02 0. -1.
    10030    2    1    2    0    0  0.00000000000E+00  0.00000000000E+00  0.66581387877E+03  0.32353468875E+04  0.31660956020E+04 0.  0.
        3    1    3    3  502    0 -0.38348377144E+03 -0.57567972379E+02 -0.12354818380E+04  0.12949089762E+04  0.10100000352E+00 0. -1.
       -3    1    3    3    0  502  0.38348377144E+03  0.57567972379E+02  0.19012957168E+04  0.19404379112E+04  0.10100000352E+00 0.  1.
</event>
<event>
 5   0  0.1007567E-05  0.2993545E+04  0.7818609E-02  0.8245577E-01
        2   -1    0    0  501    0  0.00000000000E+00  0.00000000000E+00  0.14576348514E+04  0.14576348514E+04  0.25500000920E-02 0.  1.
       -2   -1    0    0    0  501  0.00000000000E+00  0.00000000000E+00 -0.15369611311E+04  0.15369611311E+04  0.25500000920E-02 0. -1.
    10030    2    1    2    0    0  0.00000000000E+00  0.00000000000E+00 -0.79326279694E+02  0.29945959824E+04  0.29935451290E+04 0.  0.
        3    1    3    3  502    0  0.36941344293E+03  0.11210139932E+04 -0.96041518772E+03  0.15216885384E+04  0.10100000352E+00 0. -1.
       -3    1    3    3    0  502 -0.36941344293E+03 -0.11210139932E+04  0.88108890803E+03  0.14729074441E+04  0.10100000352E+00 0.  1.
</event>
<event>
 5   0  0.4250961E-06  0.3158841E+04  0.7818609E-02  0.8199773E-01
        1   -1    0    0  501    0  0.00000000000E+00  0.00000000000E+00  0.25727908177E+04  0.25727908177E+04  0.50400001928E-02 0. -1.
       -1   -1    0    0    0  501  0.00000000000E+00  0.00000000000E+00 -0.96959647967E+03  0.96959647968E+03  0.50400001928E-02 0.  1.
    10030    2    1    2    0    0  0.00000000000E+00  0.00000000000E+00  0.16031943380E+04  0.35423872974E+04  0.31588408759E+04 0.  0.
        1    1    3    3  502    0 -0.53636723345E+03  0.42466658176E+03 -0.79481711404E+03  0.10486971725E+04  0.50400001928E-02 0.  1.
       -1    1    3    3    0  502  0.53636723345E+03 -0.42466658176E+03  0.23980114520E+04  0.24936901249E+04  0.50400001928E-02 0. -1.
</event>
<event>
 5   0  0.9797278E-06  0.2956304E+04  0.7818609E-02  0.8256320E-01
       -2   -1    0    0    0  501  0.00000000000E+00  0.00000000000E+00  0.11392919779E+04  0.11392919779E+04  0.25500000920E-02 0. -1.
        2   -1    0    0  501    0  0.00000000000E+00  0.00000000000E+00 -0.19177991256E+04  0.19177991256E+04  0.25500000920E-02 0.  1.
    10030    2    1    2    0    0  0.00000000000E+00  0.00000000000E+00 -0.77850714765E+03  0.30570911035E+04  0.29563038809E+04 0.  0.
        1    1    3    3  502    0 -0.13108045295E+03  0.14153455998E+04 -0.80872800031E+03  0.16353673075E+04  0.50400001928E-02 0.  1.
       -1    1    3    3    0  502  0.13108045295E+03 -0.14153455998E+04  0.30220852660E+02  0.14217237960E+04  0.50400001928E-02 0. -1.
</event>
<event>
 5   0  0.3848286E-06  0.3116452E+04  0.7818609E-02  0.8211237E-01
       -1   -1    0    0    0  501  0.00000000000E+00  0.00000000000E+00  0.13517794050E+04  0.13517794051E+04  0.50400001928E-02 0.  1.
        1   -1    0    0  501    0  0.00000000000E+00  0.00000000000E+00 -0.17962011717E+04  0.17962011717E+04  0.50400001928E-02 0. -1.
    10030    2    1    2    0    0  0.00000000000E+00  0.00000000000E+00 -0.44442176664E+03  0.31479805767E+04  0.31164516690E+04 0.  0.
        2    1    3    3  502    0  0.32854733995E+03  0.73629081382E+03  0.11246959458E+04  0.13838383170E+04  0.25500000920E-02 0.  1.
       -2    1    3    3    0  502 -0.32854733995E+03 -0.73629081382E+03 -0.15691177124E+04  0.17641422597E+04  0.25500000920E-02 0. -1.
</event>
<event>
 5   0  0.4250961E-06  0.3142830E+04  0.7818609E-02  0.8204081E-01
        1   -1    0    0  501    0  0.00000000000E+00  0.00000000000E+00  0.16970052632E+04  0.16970052632E+04  0.50400001928E-02 0. -1.
       -1   -1    0    0    0  501  0.00000000000E+00  0.00000000000E+00 -0.14551195366E+04  0.14551195366E+04  0.50400001928E-02 0.  1.
    10030    2    1    2    0    0  0.00000000000E+00  0.00000000000E+00  0.24188572658E+03  0.31521247998E+04  0.31428302609E+04 0.  0.
        1    1    3    3  502    0  0.52576148382E+03 -0.14781940714E+04  0.32008977442E+02  0.15692378486E+04  0.50400001928E-02 0. -1.
       -1    1    3    3    0  502 -0.52576148382E+03  0.14781940714E+04  0.20987674914E+03  0.15828869513E+04  0.50400001928E-02 0.  1.
</event>
<event>
 5   0  0.1001961E-05  0.3100655E+04  0.7818609E-02  0.8215558E-01
       -2   -1    0    0    0  501  0.00000000000E+00  0.00000000000E+00  0.13670225828E+04  0.13670225828E+04  0.25500000920E-02 0. -1.
        2   -1    0    0  501    0  0.00000000000E+00  0.00000000000E+00 -0.17582124256E+04  0.17582124256E+04  0.25500000920E-02 0.  1.
    10030    2    1    2    0    0  0.00000000000E+00  0.00000000000E+00 -0.39118984278E+03  0.31252350084E+04  0.31006554734E+04 0.  0.
        5    1    3    3  502    0  0.11134061955E+04  0.10493547498E+04  0.56739919451E+02  0.15310324149E+04  0.46999998093E+01 0. -1.
       -5    1    3    3    0  502 -0.11134061955E+04 -0.10493547498E+04 -0.44792976223E+03  0.15942025935E+04  0.46999998093E+01 0.  1.
</event>
<event>
 5   0  0.9797278E-06  0.2250197E+04  0.7818609E-02  0.8497821E-01
       -2   -1    0    0    0  501  0.00000000000E+00  0.00000000000E+00  0.13623747328E+04  0.13623747328E+04  0.25500000920E-02 0. -1.
        2   -1    0    0  501    0  0.00000000000E+00  0.00000000000E+00 -0.92914720645E+03  0.92914720646E+03  0.25500000920E-02 0.  1.
    10030    2    1    2    0    0  0.00000000000E+00  0.00000000000E+00  0.43322752637E+03  0.22915219393E+04  0.22501970377E+04 0.  0.
        1    1    3    3  502    0 -0.98663449840E+03 -0.46379010099E+02 -0.33202705086E+03  0.10420367597E+04  0.50400001928E-02 0.  1.
       -1    1    3    3    0  502  0.98663449840E+03  0.46379010099E+02  0.76525457724E+03  0.12494851796E+04  0.50400001928E-02 0. -1.
</event>
<event>
 5   0  0.3848286E-06  0.2523695E+04  0.7818609E-02  0.8394592E-01
        1   -1    0    0  501    0  0.00000000000E+00  0.00000000000E+00  0.63032302132E+03  0.63032302134E+03  0.50400001928E-02 0. -1.
       -1   -1    0    0    0  501  0.00000000000E+00  0.00000000000E+00 -0.25260996040E+04  0.25260996040E+04  0.50400001928E-02 0.  1.
    10030    2    1    2    0    0  0.00000000000E+00  0.00000000000E+00 -0.18957765827E+04  0.31564226253E+04  0.25236946999E+04 0.  0.
        2    1    3    3  502    0 -0.12275316028E+04  0.22155935474E+03 -0.11863007731E+04  0.17214040513E+04  0.25500000920E-02 0.  1.
       -2    1    3    3    0  502  0.12275316028E+04 -0.22155935474E+03 -0.70947580957E+03  0.14350185741E+04  0.25500000920E-02 0. -1.
</event>
<event>
 5   0  0.3848286E-06  0.3082816E+04  0.7818609E-02  0.8220470E-01
       -1   -1    0    0    0  501  0.00000000000E+00  0.00000000000E+00  0.19474075241E+04  0.19474075241E+04  0.50400001928E-02 0. -1.
        1   -1    0    0  501    0  0.00000000000E+00  0.00000000000E+00 -0.12200517414E+04  0.12200517414E+04  0.50400001928E-02 0.  1.
    10030    2    1    2    0    0  0.00000000000E+00  0.00000000000E+00  0.72735578272E+03  0.31674592655E+04  0.30828155579E+04 0.  0.
        2    1    3    3  502    0 -0.66637680942E+03 -0.97967552805E+03 -0.64935252625E+03  0.13511035844E+04  0.25500000920E-02 0.  1.
       -2    1    3    3    0  502  0.66637680942E+03  0.97967552805E+03  0.13767083090E+04  0.18163556811E+04  0.25500000920E-02 0. -1.
</event>
<event>
 5   0  0.1119100E-05  0.1918145E+04  0.7818609E-02  0.8645877E-01
        2   -1    0    0  501    0  0.00000000000E+00  0.00000000000E+00  0.17942049492E+04  0.17942049492E+04  0.25500000920E-02 0. -1.
       -2   -1    0    0    0  501  0.00000000000E+00  0.00000000000E+00 -0.51266164024E+03  0.51266164024E+03  0.25500000920E-02 0.  1.
    10030    2    1    2    0    0  0.00000000000E+00  0.00000000000E+00  0.12815433089E+04  0.23068665894E+04  0.19181449916E+04 0.  0.
        2    1    3    3  502    0  0.51864102064E+03  0.21499823349E+03  0.15759140390E+04  0.16729368808E+04  0.25500000920E-02 0. -1.
       -2    1    3    3    0  502 -0.51864102064E+03 -0.21499823349E+03 -0.29437073012E+03  0.63392970860E+03  0.25500000920E-02 0.  1.
</event>
<event>
 5   0  0.3838525E-06  0.2947454E+04  0.7818609E-02  0.8258897E-01
       -1   -1    0    0    0  501  0.00000000000E+00  0.00000000000E+00  0.11819055016E+04  0.11819055016E+04  0.50400001928E-02 0.  1.
        1   -1    0    0  501    0  0.00000000000E+00  0.00000000000E+00 -0.18376011446E+04  0.18376011446E+04  0.50400001928E-02 0. -1.
    10030    2    1    2    0    0  0.00000000000E+00  0.00000000000E+00 -0.65569564302E+03  0.30195066463E+04  0.29474537504E+04 0.  0.
        3    1    3    3  502    0 -0.96051141813E+02  0.98025647922E+03  0.79519073229E+03  0.12658818657E+04  0.10100000352E+00 0.  1.
       -3    1    3    3    0  502  0.96051141813E+02 -0.98025647922E+03 -0.14508863753E+04  0.17536247806E+04  0.10100000352E+00 0. -1.
</event>
<event>
 5   0  0.1001961E-05  0.1704572E+04  0.7818609E-02  0.8758761E-01
       -2   -1    0    0    0  501  0.00000000000E+00  0.00000000000E+00  0.39132871757E+03  0.39132871758E+03  0.25500000920E-02 0. -1.
        2   -1    0    0  501    0  0.00000000000E+00  0.00000000000E+00 -0.18562187910E+04  0.18562187910E+04  0.25500000920E-02 0.  1.
    10030    2    1    2    0    0  0.00000000000E+00  0.00000000000E+00 -0.14648900735E+04  0.22475475086E+04  0.17045723441E+04 0.  0.
        5    1    3    3  502    0 -0.60008665774E+02  0.76716769689E+03 -0.24937977956E+03  0.80892501480E+03  0.46999998093E+01 0. -1.
       -5    1    3    3    0  502  0.60008665774E+02 -0.76716769689E+03 -0.12155102939E+04  0.14386224938E+04  0.46999998093E+01 0.  1.
</event>
<event>
 5   0  0.3838525E-06  0.1532701E+04  0.7818609E-02  0.8862993E-01
        1   -1    0    0  501    0  0.00000000000E+00  0.00000000000E+00  0.52886230522E+03  0.52886230525E+03  0.50400001928E-02 0.  1.
       -1   -1    0    0    0  501  0.00000000000E+00  0.00000000000E+00 -0.11104846152E+04  0.11104846152E+04  0.50400001928E-02 0. -1.
    10030    2    1    2    0    0  0.00000000000E+00  0.00000000000E+00 -0.58162231000E+03  0.16393469205E+04  0.15327014759E+04 0.  0.
        3    1    3    3  502    0 -0.21063320427E+02 -0.41313220367E+02 -0.11089825654E+04  0.11099517044E+04  0.10100000352E+00 0. -1.
       -3    1    3    3    0  502  0.21063320427E+02  0.41313220367E+02  0.52736025537E+03  0.52939521606E+03  0.10100000352E+00 0.  1.
</event>
<event>
 5   0  0.1119100E-05  0.1783746E+04  0.7818609E-02  0.8714991E-01
       -2   -1    0    0    0  501  0.00000000000E+00  0.00000000000E+00  0.98722449995E+03  0.98722449996E+03  0.25500000920E-02 0.  1.
        2   -1    0    0  501    0  0.00000000000E+00  0.00000000000E+00 -0.80573065259E+03  0.80573065260E+03  0.25500000920E-02 0. -1.
    10030    2    1    2    0    0  0.00000000000E+00  0.00000000000E+00  0.18149384736E+03  0.17929551526E+04  0.17837455431E+04 0.  0.
        2    1    3    3  502    0  0.88488564038E+03 -0.10559479010E+03  0.55007978282E+02  0.89285986242E+03  0.25500000920E-02 0. -1.
       -2    1    3    3    0  502 -0.88488564038E+03  0.10559479010E+03  0.12648586908E+03  0.90009529014E+03  0.25500000920E-02 0.  1.
</event>
<event>
 5   0  0.1108153E-05  0.3000878E+04  0.7818609E-02  0.8243480E-01
        2   -1    0    0  501    0  0.00000000000E+00  0.00000000000E+00  0.22068933961E+04  0.22068933961E+04  0.25500000920E-02 0.  1.
       -2   -1    0    0    0  501  0.00000000000E+00  0.00000000000E+00 -0.10201292662E+04  0.10201292662E+04  0.25500000920E-02 0. -1.
    10030    2    1    2    0    0  0.00000000000E+00  0.00000000000E+00  0.11867641299E+04  0.32270226623E+04  0.30008775655E+04 0.  0.
        4    1    3    3  502    0 -0.12708518853E+04 -0.77887180859E+03  0.40834169718E+03  0.15454612138E+04  0.12699999809E+01 0. -1.
       -4    1    3    3    0  502  0.12708518853E+04  0.77887180859E+03  0.77842243269E+03  0.16815614486E+04  0.12699999809E+01 0.  1.
</event>
<event>
 5   0  0.4250961E-06  0.3074188E+04  0.7818609E-02  0.8222858E-01
        1   -1    0    0  501    0  0.00000000000E+00  0.00000000000E+00  0.12523195731E+04  0.12523195731E+04  0.50400001928E-02 0.  1.
       -1   -1    0    0    0  501  0.00000000000E+00  0.00000000000E+00 -0.18866255468E+04  0.18866255468E+04  0.50400001928E-02 0. -1.
    10030    2    1    2    0    0  0.00000000000E+00  0.00000000000E+00 -0.63430597370E+03  0.31389451199E+04  0.30741880875E+04 0.  0.
        1    1    3    3  502    0 -0.10900311640E+03  0.13150521261E+04 -0.11220566758E+04  0.17321244059E+04  0.50400001928E-02 0. -1.
       -1    1    3    3    0  502  0.10900311640E+03 -0.13150521261E+04  0.48775070214E+03  0.14068207139E+04  0.50400001928E-02 0.  1.
</event>
<event>
 5   0  0.1007567E-05  0.3084329E+04  0.7818609E-02  0.8220052E-01
       -2   -1    0    0    0  501  0.00000000000E+00  0.00000000000E+00  0.13157599725E+04  0.13157599725E+04  0.25500000920E-02 0. -1.
        2   -1    0    0  501    0  0.00000000000E+00  0.00000000000E+00 -0.18075270450E+04  0.18075270450E+04  0.25500000920E-02 0.  1.
    10030    2    1    2    0    0  0.00000000000E+00  0.00000000000E+00 -0.49176707246E+03  0.31232870175E+04  0.30843292529E+04 0.  0.
        3    1    3    3  502    0  0.10758422294E+04 -0.82642526739E+03 -0.98853385826E+03  0.16785751173E+04  0.10100000352E+00 0.  1.
       -3    1    3    3    0  502 -0.10758422294E+04  0.82642526739E+03  0.49676678581E+03  0.14447119003E+04  0.10100000352E+00 0. -1.
</event>
<event>
 5   0  0.1119100E-05  0.3059072E+04  0.7818609E-02  0.8227061E-01
       -2   -1    0    0    0  501  0.00000000000E+00  0.00000000000E+00  0.15527302352E+04  0.15527302352E+04  0.25500000920E-02 0. -1.
        2   -1    0    0  501    0  0.00000000000E+00  0.00000000000E+00 -0.15066881160E+04  0.15066881160E+04  0.25500000920E-02 0.  1.
    10030    2    1    2    0    0  0.00000000000E+00  0.00000000000E+00  0.46042119153E+02  0.30594183512E+04  0.30590718807E+04 0.  0.
        2    1    3    3  502    0 -0.78362763130E+03  0.76031768995E+03 -0.10482328064E+04  0.15135875497E+04  0.25500000920E-02 0.  1.
       -2    1    3    3    0  502  0.78362763130E+03 -0.76031768995E+03  0.10942749256E+04  0.15458308015E+04  0.25500000920E-02 0. -1.
</event>
<event>
 5   0  0.3838525E-06  0.3120332E+04  0.7818609E-02  0.8210180E-01
        1   -1    0    0  501    0  0.00000000000E+00  0.00000000000E+00  0.12584200947E+04  0.12584200947E+04  0.50400001928E-02 0.  1.
       -1   -1    0    0    0  501  0.00000000000E+00  0.00000000000E+00 -0.19342654202E+04  0.19342654202E+04  0.50400001928E-02 0. -1.
    10030    2    1    2    0    0  0.00000000000E+00  0.00000000000E+00 -0.67584532547E+03  0.31926855150E+04  0.31203323370E+04 0.  0.
        3    1    3    3  502    0  0.62827560826E+03  0.13984613677E+04 -0.63393003005E+03  0.16590032339E+04  0.10100000352E+00 0. -1.
       -3    1    3    3    0  502 -0.62827560826E+03 -0.13984613677E+04 -0.41915295419E+02  0.15336822810E+04  0.10100000352E+00 0.  1.
</event>
<event>
 5   0  0.3838525E-06  0.2602487E+04  0.7818609E-02  0.8367357E-01
        1   -1    0    0  501    0  0.00000000000E+00  0.00000000000E+00  0.12678192638E+04  0.12678192638E+04  0.50400001928E-02 0. -1.
       -1   -1    0    0    0  501  0.00000000000E+00  0.00000000000E+00 -0.13355488445E+04  0.13355488445E+04  0.50400001928E-02 0.  1.
    10030    2    1    2    0    0  0.00000000000E+00  0.00000000000E+00 -0.67729580643E+02  0.26033681083E+04  0.26024869281E+04 0.  0.
        3    1    3    3  502    0  0.94200476681E+03 -0.25745943214E+03 -0.89414213863E+03  0.13240651473E+04  0.10100000352E+00 0.  1.
       -3    1    3    3    0  502 -0.94200476681E+03  0.25745943214E+03  0.82641255798E+03  0.12793029610E+04  0.10100000352E+00 0. -1.
</event>
<event>
 5   0  0.3807334E-06  0.2851601E+04  0.7818609E-02  0.8287425E-01
        1   -1    0    0  501    0  0.00000000000E+00  0.00000000000E+00  0.10719878888E+04  0.10719878888E+04  0.50400001928E-02 0. -1.
       -1   -1    0    0    0  501  0.00000000000E+00  0.00000000000E+00 -0.18963902030E+04  0.18963902030E+04  0.50400001928E-02 0.  1.
    10030    2    1    2    0    0  0.00000000000E+00  0.00000000000E+00 -0.82440231417E+03  0.29683780918E+04  0.28516011854E+04 0.  0.
        4    1    3    3  502    0 -0.11328055637E+04 -0.18059054551E+03  0.46926051533E+03  0.12393822793E+04  0.12699999809E+01 0. -1.
       -4    1    3    3    0  502  0.11328055637E+04  0.18059054551E+03 -0.12936628295E+04  0.17289958125E+04  0.12699999809E+01 0.  1.
</event>
<event>
 5   0  0.1007567E-05  0.3081540E+04  0.7818609E-02  0.8220822E-01
       -2   -1    0    0    0  501  0.00000000000E+00  0.00000000000E+00  0.11873090854E+04  0.11873090854E+04  0.25500000920E-02 0. -1.
        2   -1    0    0  501    0  0.00000000000E+00  0.00000000000E+00 -0.19994563965E+04  0.19994563965E+04  0.25500000920E-02 0.  1.
    10030    2    1    2    0    0  0.00000000000E+00  0.00000000000E+00 -0.81214731108E+03  0.31867654819E+04  0.30815403586E+04 0.  0.
        3    1    3    3  502    0  0.15014799185E+04 -0.32570860646E+03 -0.52598428750E+03  0.16239419703E+04  0.10100000352E+00 0.  1.
       -3    1    3    3    0  502 -0.15014799185E+04  0.32570860646E+03 -0.28616302358E+03  0.15628235116E+04  0.10100000352E+00 0. -1.
</event>
<event>
 5   0  0.1119100E-05  0.3070381E+04  0.7818609E-02  0.8223914E-01
       -2   -1    0    0    0  501  0.00000000000E+00  0.00000000000E+00  0.14451338708E+04  0.14451338708E+04  0.25500000920E-02 0.  1.
        2   -1    0    0  501    0  0.00000000000E+00  0.00000000000E+00 -0.16308587659E+04  0.16308587659E+04  0.25500000920E-02 0. -1.
    10030    2    1    2    0    0  0.00000000000E+00  0.00000000000E+00 -0.18572489509E+03  0.30759926367E+04  0.30703805895E+04 0.  0.
        2    1    3    3  502    0 -0.61514664238E+02 -0.12472884287E+04 -0.98740927548E+03  0.15920080263E+04  0.25500000920E-02 0. -1.
       -2    1    3    3    0  502  0.61514664238E+02  0.12472884287E+04  0.80168438038E+03  0.14839846105E+04  0.25500000920E-02 0.  1.
</event>
<event>
 5   0  0.1108153E-05  0.3173680E+04  0.7818609E-02  0.8195803E-01
        2   -1    0    0  501    0  0.00000000000E+00  0.00000000000E+00  0.16886822072E+04  0.16886822072E+04  0.25500000920E-02 0.  1.
       -2   -1    0    0    0  501  0.00000000000E+00  0.00000000000E+00 -0.14911395461E+04  0.14911395461E+04  0.25500000920E-02 0. -1.
    10030    2    1    2    0    0  0.00000000000E+00  0.00000000000E+00  0.19754266105E+03  0.31798217533E+04  0.31736797696E+04 0.  0.
        4    1    3    3  502    0 -0.49546939919E+03 -0.45929216343E+03  0.15373843319E+04  0.16792830058E+04  0.12699999809E+01 0.  1.
       -4    1    3    3    0  502  0.49546939919E+03  0.45929216343E+03 -0.13398416708E+04  0.15005387475E+04  0.12699999809E+01 0. -1.
</event>
<event>
 5   0  0.3848286E-06  0.3005305E+04  0.7818609E-02  0.8242218E-01
        1   -1    0    0  501    0  0.00000000000E+00  0.00000000000E+00  0.26765793325E+04  0.26765793325E+04  0.50400001928E-02 0. -1.
       -1   -1    0    0    0  501  0.00000000000E+00  0.00000000000E+00 -0.84360073524E+03  0.84360073526E+03  0.50400001928E-02 0.  1.
    10030    2    1    2    0    0  0.00000000000E+00  0.00000000000E+00  0.18329785973E+04  0.35201800678E+04  0.30053048384E+04 0.  0.
        2    1    3    3  502    0  0.10952037472E+04 -0.81259577455E+03  0.17736632995E+03  0.13752243292E+04  0.25500000920E-02 0. -1.
       -2    1    3    3    0  502 -0.10952037472E+04  0.81259577455E+03  0.16556122673E+04  0.21449557385E+04  0.25500000920E-02 0.  1.
</event>
<event>
 5   0  0.3493125E-06  0.3091652E+04  0.7818609E-02  0.8218033E-01
       -3   -1    0    0    0  501  0.00000000000E+00  0.00000000000E+00  0.91192690150E+03  0.91192690709E+03  0.10100000352E+00 0. -1.
        3   -1    0    0  501    0  0.00000000000E+00  0.00000000000E+00 -0.26203618753E+04  0.26203618772E+04  0.10100000352E+00 0.  1.
    10030    2    1    2    0    0  0.00000000000E+00  0.00000000000E+00 -0.17084349738E+04  0.35322887843E+04  0.30916523084E+04 0.  0.
        3    1    3    3  502    0 -0.79722534875E+03 -0.66402495594E+03  0.45499858857E+03  0.11329259131E+04  0.10100000352E+00 0. -1.
       -3    1    3    3    0  502  0.79722534875E+03  0.66402495594E+03 -0.21634335624E+04  0.23993628712E+04  0.10100000352E+00 0.  1.
</event>
<event>
 5   0  0.1007567E-05  0.3150048E+04  0.7818609E-02  0.8202135E-01
        2   -1    0    0  501    0  0.00000000000E+00  0.00000000000E+00  0.98073493468E+03  0.98073493468E+03  0.25500000920E-02 0.  1.
       -2   -1    0    0    0  501  0.00000000000E+00  0.00000000000E+00 -0.25294307991E+04  0.25294307991E+04  0.25500000920E-02 0. -1.
    10030    2    1    2    0    0  0.00000000000E+00  0.00000000000E+00 -0.15486958644E+04  0.35101657338E+04  0.31500483486E+04 0.  0.
        3    1    3    3  502    0  0.12273987673E+04  0.58137570259E+03  0.11445558928E+03  0.13629400331E+04  0.10100000352E+00 0.  1.
       -3    1    3    3    0  502 -0.12273987673E+04 -0.58137570259E+03 -0.16631514537E+04  0.21472257007E+04  0.10100000352E+00 0. -1.
</event>
<event>
 5   0  0.1119100E-05  0.3388044E+04  0.7818609E-02  0.8140847E-01
       -2   -1    0    0    0  501  0.00000000000E+00  0.00000000000E+00  0.10590050554E+04  0.10590050554E+04  0.25500000920E-02 0. -1.
        2   -1    0    0  501    0  0.00000000000E+00  0.00000000000E+00 -0.27098180667E+04  0.27098180667E+04  0.25500000920E-02 0.  1.
    10030    2    1    2    0    0  0.00000000000E+00  0.00000000000E+00 -0.16508130113E+04  0.37688231221E+04  0.33880442924E+04 0.  0.
        2    1    3    3  502    0  0.10850603244E+04 -0.83919023963E+03 -0.19311652769E+04  0.23687539957E+04  0.25500000920E-02 0.  1.
       -2    1    3    3    0  502 -0.10850603244E+04  0.83919023963E+03  0.28035226556E+03  0.14000691264E+04  0.25500000920E-02 0. -1.
</event>
<event>
 5   0  0.4250961E-06  0.3121842E+04  0.7818609E-02  0.8209769E-01
        1   -1    0    0  501    0  0.00000000000E+00  0.00000000000E+00  0.18988920523E+04  0.18988920523E+04  0.50400001928E-02 0.  1.
       -1   -1    0    0    0  501  0.00000000000E+00  0.00000000000E+00 -0.12831029629E+04  0.12831029629E+04  0.50400001928E-02 0. -1.
    10030    2    1    2    0    0  0.00000000000E+00  0.00000000000E+00  0.61578908939E+03  0.31819950153E+04  0.31218417760E+04 0.  0.
        1    1    3    3  502    0  0.78796564480E+03 -0.32113029893E+03  0.16417192603E+04  0.18491232128E+04  0.50400001928E-02 0.  1.
       -1    1    3    3    0  502 -0.78796564480E+03  0.32113029893E+03 -0.10259301709E+04  0.13328718025E+04  0.50400001928E-02 0. -1.
</event>
<event>
 5   0  0.3838525E-06  0.2107371E+04  0.7818609E-02  0.8558003E-01
        1   -1    0    0  501    0  0.00000000000E+00  0.00000000000E+00  0.21464672452E+04  0.21464672452E+04  0.50400001928E-02 0.  1.
       -1   -1    0    0    0  501  0.00000000000E+00  0.00000000000E+00 -0.51724656684E+03  0.51724656687E+03  0.50400001928E-02 0. -1.
    10030    2    1    2    0    0  0.00000000000E+00  0.00000000000E+00  0.16292206784E+04  0.26637138121E+04  0.21073706968E+04 0.  0.
        3    1    3    3  502    0  0.63462863834E+02 -0.10516377039E+04  0.83588941071E+03  0.13448719316E+04  0.10100000352E+00 0.  1.
       -3    1    3    3    0  502 -0.63462863834E+02  0.10516377039E+04  0.79333126765E+03  0.13188418805E+04  0.10100000352E+00 0. -1.
</event>
<event>
 5   0  0.3807334E-06  0.2554723E+04  0.7818609E-02  0.8383746E-01
       -1   -1    0    0    0  501  0.00000000000E+00  0.00000000000E+00  0.60394730362E+03  0.60394730364E+03  0.50400001928E-02 0. -1.
        1   -1    0    0  501    0  0.00000000000E+00  0.00000000000E+00 -0.27016465763E+04  0.27016465763E+04  0.50400001928E-02 0.  1.
    10030    2    1    2    0    0  0.00000000000E+00  0.00000000000E+00 -0.20976992727E+04  0.33055938800E+04  0.25547228148E+04 0.  0.
        4    1    3    3  502    0 -0.79982822907E+02 -0.12178543321E+04 -0.15365785357E+04  0.19623051840E+04  0.12699999809E+01 0.  1.
       -4    1    3    3    0  502  0.79982822907E+02  0.12178543321E+04 -0.56112073704E+03  0.13432886959E+04  0.12699999809E+01 0. -1.
</event>
<event>
 5   0  0.4250961E-06  0.3125627E+04  0.7818609E-02  0.8208740E-01
       -1   -1    0    0    0  501  0.00000000000E+00  0.00000000000E+00  0.10978229424E+04  0.10978229424E+04  0.50400001928E-02 0. -1.
        1   -1    0    0  501    0  0.00000000000E+00  0.00000000000E+00 -0.22247538204E+04  0.22247538204E+04  0.50400001928E-02 0.  1.
    10030    2    1    2    0    0  0.00000000000E+00  0.00000000000E+00 -0.11269308780E+04  0.33225767629E+04  0.31256268398E+04 0.  0.
        1    1    3    3  502    0  0.14852733745E+04 -0.33111166166E+03 -0.94186441216E+03  0.17896313867E+04  0.50400001928E-02 0.  1.
       -1    1    3    3    0  502 -0.14852733745E+04  0.33111166166E+03 -0.18506646586E+03  0.15329453761E+04  0.50400001928E-02 0. -1.
</event>
<event>
 5   0  0.1007567E-05  0.1582993E+04  0.7818609E-02  0.8831065E-01
       -2   -1    0    0    0  501  0.00000000000E+00  0.00000000000E+00  0.72893480861E+03  0.72893480861E+03  0.25500000920E-02 0.  1.
        2   -1    0    0  501    0  0.00000000000E+00  0.00000000000E+00 -0.85942736815E+03  0.85942736815E+03  0.25500000920E-02 0. -1.
    10030    2    1    2    0    0  0.00000000000E+00  0.00000000000E+00 -0.13049255954E+03  0.15883621768E+04  0.15829927658E+04 0.  0.
        3    1    3    3  502    0 -0.66481215785E+03  0.33037568348E+03  0.21017195150E+03  0.77155398830E+03  0.10100000352E+00 0.  1.
       -3    1    3    3    0  502  0.66481215785E+03 -0.33037568348E+03 -0.34066451103E+03  0.81680818847E+03  0.10100000352E+00 0. -1.
</event>
<event>
 5   0  0.3848286E-06  0.2995890E+04  0.7818609E-02  0.8244906E-01
       -1   -1    0    0    0  501  0.00000000000E+00  0.00000000000E+00  0.16906610163E+04  0.16906610163E+04  0.50400001928E-02 0.  1.
        1   -1    0    0  501    0  0.00000000000E+00  0.00000000000E+00 -0.13271962487E+04  0.13271962487E+04  0.50400001928E-02 0. -1.
    10030    2    1    2    0    0  0.00000000000E+00  0.00000000000E+00  0.36346476759E+03  0.30178572650E+04  0.29958898236E+04 0.  0.
        2    1    3    3  502    0  0.19494873748E+03 -0.36914619589E+03  0.16308792319E+04  0.16834610163E+04  0.25500000920E-02 0.  1.
       -2    1    3    3    0  502 -0.19494873748E+03  0.36914619589E+03 -0.12674144644E+04  0.13343962487E+04  0.25500000920E-02 0. -1.
</event>
<event>
 5   0  0.9797278E-06  0.2951347E+04  0.7818609E-02  0.8257762E-01
       -2   -1    0    0    0  501  0.00000000000E+00  0.00000000000E+00  0.15758308159E+04  0.15758308159E+04  0.25500000920E-02 0.  1.
        2   -1    0    0  501    0  0.00000000000E+00  0.00000000000E+00 -0.13818818006E+04  0.13818818006E+04  0.25500000920E-02 0. -1.
    10030    2    1    2    0    0  0.00000000000E+00  0.00000000000E+00  0.19394901527E+03  0.29577126165E+04  0.29513467606E+04 0.  0.
        1    1    3    3  502    0  0.17299598994E+03 -0.88080359084E+03  0.12707691187E+04  0.15558267034E+04  0.50400001928E-02 0.  1.
       -1    1    3    3    0  502 -0.17299598994E+03  0.88080359084E+03 -0.10768201034E+04  0.14018859131E+04  0.50400001928E-02 0. -1.
</event>
<event>
 5   0  0.3848286E-06  0.3090069E+04  0.7818609E-02  0.8218469E-01
       -1   -1    0    0    0  501  0.00000000000E+00  0.00000000000E+00  0.10070583731E+04  0.10070583731E+04  0.50400001928E-02 0. -1.
        1   -1    0    0  501    0  0.00000000000E+00  0.00000000000E+00 -0.23704011740E+04  0.23704011740E+04  0.50400001928E-02 0.  1.
    10030    2    1    2    0    0  0.00000000000E+00  0.00000000000E+00 -0.13633428009E+04  0.33774595472E+04  0.30900694814E+04 0.  0.
        2    1    3    3  502    0 -0.11919613399E+04 -0.65939638505E+03 -0.14785585069E+04  0.20104006284E+04  0.25500000920E-02 0.  1.
       -2    1    3    3    0  502  0.11919613399E+04  0.65939638505E+03  0.11521570600E+03  0.13670589187E+04  0.25500000920E-02 0. -1.
</event>
<event>
 5   0  0.3838525E-06  0.3159888E+04  0.7818609E-02  0.8199492E-01
        1   -1    0    0  501    0  0.00000000000E+00  0.00000000000E+00  0.28901346332E+04  0.28901346332E+04  0.50400001928E-02 0.  1.
       -1   -1    0    0    0  501  0.00000000000E+00  0.00000000000E+00 -0.86370483925E+03  0.86370483927E+03  0.50400001928E-02 0. -1.
    10030    2    1    2    0    0  0.00000000000E+00  0.00000000000E+00  0.20264297940E+04  0.37538394725E+04  0.31598881428E+04 0.  0.
        3    1    3    3  502    0 -0.14999286915E+04 -0.47931379254E+03  0.11667130941E+04  0.19597824485E+04  0.10100000352E+00 0.  1.
       -3    1    3    3    0  502  0.14999286915E+04  0.47931379254E+03  0.85971669981E+03  0.17940570240E+04  0.10100000352E+00 0. -1.
</event>
<event>
 5   0  0.9797278E-06  0.3160226E+04  0.7818609E-02  0.8199401E-01
        2   -1    0    0  501    0  0.00000000000E+00  0.00000000000E+00  0.20933034384E+04  0.20933034384E+04  0.25500000920E-02 0.  1.
       -2   -1    0    0    0  501  0.00000000000E+00  0.00000000000E+00 -0.11927353226E+04  0.11927353226E+04  0.25500000920E-02 0. -1.
    10030    2    1    2    0    0  0.00000000000E+00  0.00000000000E+00  0.90056811585E+03  0.32860387610E+04  0.31602259108E+04 0.  0.
        1    1    3    3  502    0 -0.13180299889E+04 -0.87111738511E+03  0.47795948218E+03  0.16506040764E+04  0.50400001928E-02 0. -1.
       -1    1    3    3    0  502  0.13180299889E+04  0.87111738511E+03  0.42260863367E+03  0.16354346846E+04  0.50400001928E-02 0.  1.
</event>
<event>
 5   0  0.3807334E-06  0.3016780E+04  0.7818609E-02  0.8238955E-01
        1   -1    0    0  501    0  0.00000000000E+00  0.00000000000E+00  0.25198409415E+04  0.25198409415E+04  0.50400001928E-02 0.  1.
       -1   -1    0    0    0  501  0.00000000000E+00  0.00000000000E+00 -0.90293038921E+03  0.90293038923E+03  0.50400001928E-02 0. -1.
    10030    2    1    2    0    0  0.00000000000E+00  0.00000000000E+00  0.16169105523E+04  0.34227713308E+04  0.30167803779E+04 0.  0.
        4    1    3    3  502    0 -0.21570162291E+03 -0.13325803295E+04  0.15720367864E+04  0.20721000930E+04  0.12699999809E+01 0.  1.
       -4    1    3    3    0  502  0.21570162291E+03  0.13325803295E+04  0.44873765919E+02  0.13506712378E+04  0.12699999809E+01 0. -1.
</event>
<event>
 5   0  0.1119100E-05  0.3066047E+04  0.7818609E-02  0.8225118E-01
        2   -1    0    0  501    0  0.00000000000E+00  0.00000000000E+00  0.18239485693E+04  0.18239485693E+04  0.25500000920E-02 0. -1.
       -2   -1    0    0    0  501  0.00000000000E+00  0.00000000000E+00 -0.12885014367E+04  0.12885014367E+04  0.25500000920E-02 0.  1.
    10030    2    1    2    0    0  0.00000000000E+00  0.00000000000E+00  0.53544713255E+03  0.31124500060E+04  0.30660465437E+04 0.  0.
        2    1    3    3  502    0 -0.68670705185E+03 -0.90266747047E+02  0.16560647041E+04  0.17950668414E+04  0.25500000920E-02 0. -1.
       -2    1    3    3    0  502  0.68670705185E+03  0.90266747047E+02 -0.11206175716E+04  0.13173831646E+04  0.25500000920E-02 0.  1.
</event>
<event>
 5   0  0.4139628E-06  0.3387485E+04  0.7818609E-02  0.8140985E-01
        1   -1    0    0  501    0  0.00000000000E+00  0.00000000000E+00  0.12493587747E+04  0.12493587748E+04  0.50400001928E-02 0. -1.
       -1   -1    0    0    0  501  0.00000000000E+00  0.00000000000E+00 -0.22961892266E+04  0.22961892266E+04  0.50400001928E-02 0.  1.
    10030    2    1    2    0    0  0.00000000000E+00  0.00000000000E+00 -0.10468304518E+04  0.35455480013E+04  0.33874852966E+04 0.  0.
        5    1    3    3  502    0  0.14918166920E+02 -0.10745059602E+04  0.84685380682E+03  0.13681992071E+04  0.46999998093E+01 0. -1.
       -5    1    3    3    0  502 -0.14918166920E+02  0.10745059602E+04 -0.18936842587E+04  0.21773487942E+04  0.46999998093E+01 0.  1.
</event>
<event>
 5   0  0.1007567E-05  0.3104434E+04  0.7818609E-02  0.8214522E-01
       -2   -1    0    0    0  501  0.00000000000E+00  0.00000000000E+00  0.27932246052E+04  0.27932246052E+04  0.25500000920E-02 0. -1.
        2   -1    0    0  501    0  0.00000000000E+00  0.00000000000E+00 -0.86257948257E+03  0.86257948258E+03  0.25500000920E-02 0.  1.
    10030    2    1    2    0    0  0.00000000000E+00  0.00000000000E+00  0.19306451226E+04  0.36558040878E+04  0.31044343991E+04 0.  0.
        3    1    3    3  502    0 -0.56254353308E+03  0.96521808250E+03 -0.30369709444E+03  0.11577275624E+04  0.10100000352E+00 0.  1.
       -3    1    3    3    0  502  0.56254353308E+03 -0.96521808250E+03  0.22343422170E+04  0.24980765253E+04  0.10100000352E+00 0. -1.
</event>
<event>
 5   0  0.3848286E-06  0.3112408E+04  0.7818609E-02  0.8212341E-01
        1   -1    0    0  501    0  0.00000000000E+00  0.00000000000E+00  0.21794701700E+04  0.21794701700E+04  0.50400001928E-02 0. -1.
       -1   -1    0    0    0  501  0.00000000000E+00  0.00000000000E+00 -0.11111742449E+04  0.11111742449E+04  0.50400001928E-02 0.  1.
    10030    2    1    2    0    0  0.00000000000E+00  0.00000000000E+00  0.10682959251E+04  0.32906444149E+04  0.31124081483E+04 0.  0.
        2    1    3    3  502    0 -0.12083671197E+04 -0.70690594700E+03 -0.18440746848E+03  0.14120457600E+04  0.25500000920E-02 0.  1.
       -2    1    3    3    0  502  0.12083671197E+04  0.70690594700E+03  0.12527033936E+04  0.18785986549E+04  0.25500000920E-02 0. -1.
</event>
<event>
 5   0  0.1119100E-05  0.3218841E+04  0.7818609E-02  0.8183859E-01
        2   -1    0    0  501    0  0.00000000000E+00  0.00000000000E+00  0.19009993928E+04  0.19009993928E+04  0.25500000920E-02 0. -1.
       -2   -1    0    0    0  501  0.00000000000E+00  0.00000000000E+00 -0.13625641914E+04  0.13625641914E+04  0.25500000920E-02 0.  1.
    10030    2    1    2    0    0  0.00000000000E+00  0.00000000000E+00  0.53843520131E+03  0.32635635842E+04  0.32188405990E+04 0.  0.
        2    1    3    3  502    0 -0.56206939688E+03 -0.45389584518E+03 -0.11889194689E+04  0.13912127619E+04  0.25500000920E-02 0.  1.
       -2    1    3    3    0  502  0.56206939688E+03  0.45389584518E+03  0.17273546702E+04  0.18723508223E+04  0.25500000920E-02 0. -1.
</event>
<event>
 5   0  0.9797278E-06  0.3129368E+04  0.7818609E-02  0.8207724E-01
       -2   -1    0    0    0  501  0.00000000000E+00  0.00000000000E+00  0.12621539259E+04  0.12621539259E+04  0.25500000920E-02 0. -1.
        2   -1    0    0  501    0  0.00000000000E+00  0.00000000000E+00 -0.19397287194E+04  0.19397287194E+04  0.25500000920E-02 0.  1.
    10030    2    1    2    0    0  0.00000000000E+00  0.00000000000E+00 -0.67757479350E+03  0.32018826453E+04  0.31293681269E+04 0.  0.
        1    1    3    3  502    0  0.11481523479E+04  0.94491243651E+03 -0.83702384679E+03  0.17063769358E+04  0.50400001928E-02 0.  1.
       -1    1    3    3    0  502 -0.11481523479E+04 -0.94491243651E+03  0.15944905330E+03  0.14955057096E+04  0.50400001928E-02 0. -1.
</event>
<event>
 5   0  0.3838525E-06  0.3023505E+04  0.7818609E-02  0.8237051E-01
        1   -1    0    0  501    0  0.00000000000E+00  0.00000000000E+00  0.18157984936E+04  0.18157984936E+04  0.50400001928E-02 0. -1.
       -1   -1    0    0    0  501  0.00000000000E+00  0.00000000000E+00 -0.12586173793E+04  0.12586173793E+04  0.50400001928E-02 0.  1.
    10030    2    1    2    0    0  0.00000000000E+00  0.00000000000E+00  0.55718111433E+03  0.30744158729E+04  0.30235049471E+04 0.  0.
        3    1    3    3  502    0  0.48041414549E+03  0.11409099959E+04 -0.60373116260E+03  0.13773034149E+04  0.10100000352E+00 0.  1.
       -3    1    3    3    0  502 -0.48041414549E+03 -0.11409099959E+04  0.11609122769E+04  0.16971124579E+04  0.10100000352E+00 0. -1.
</event>
<event>
 5   0  0.3807334E-06  0.2007655E+04  0.7818609E-02  0.8603050E-01
       -1   -1    0    0    0  501  0.00000000000E+00  0.00000000000E+00  0.11176455107E+04  0.11176455107E+04  0.50400001928E-02 0. -1.
        1   -1    0    0  501    0  0.00000000000E+00  0.00000000000E+00 -0.90160032299E+03  0.90160032300E+03  0.50400001928E-02 0.  1.
    10030    2    1    2    0    0  0.00000000000E+00  0.00000000000E+00  0.21604518771E+03  0.20192458337E+04  0.20076549041E+04 0.  0.
        4    1    3    3  502    0 -0.45705132239E+03 -0.40132054722E+03 -0.69515772003E+03  0.92368823828E+03  0.12699999809E+01 0.  1.
       -4    1    3    3    0  502  0.45705132239E+03  0.40132054722E+03  0.91120290774E+03  0.10955575954E+04  0.12699999809E+01 0. -1.
</event>
<event>
 5   0  0.1119100E-05  0.3176693E+04  0.7818609E-02  0.8195000E-01
        2   -1    0    0  501    0  0.00000000000E+00  0.00000000000E+00  0.19486728300E+04  0.19486728300E+04  0.25500000920E-02 0.  1.
       -2   -1    0    0    0  501  0.00000000000E+00  0.00000000000E+00 -0.12946476225E+04  0.12946476226E+04  0.25500000920E-02 0. -1.
    10030    2    1    2    0    0  0.00000000000E+00  0.00000000000E+00  0.65402520747E+03  0.32433204526E+04  0.31766930267E+04 0.  0.
        2    1    3    3  502    0 -0.10320639678E+04  0.34945511414E+03  0.15069199246E+04  0.18595920439E+04  0.25500000920E-02 0.  1.
       -2    1    3    3    0  502  0.10320639678E+04 -0.34945511414E+03 -0.85289471713E+03  0.13837284087E+04  0.25500000920E-02 0. -1.
</event>
<event>
 5   0  0.1108153E-05  0.3048315E+04  0.7818609E-02  0.8230067E-01
        2   -1    0    0  501    0  0.00000000000E+00  0.00000000000E+00  0.18277391380E+04  0.18277391380E+04  0.25500000920E-02 0.  1.
       -2   -1    0    0    0  501  0.00000000000E+00  0.00000000000E+00 -0.12709994563E+04  0.12709994563E+04  0.25500000920E-02 0. -1.
    10030    2    1    2    0    0  0.00000000000E+00  0.00000000000E+00  0.55673968171E+03  0.30987385942E+04  0.30483145839E+04 0.  0.
        4    1    3    3  502    0 -0.53700030041E+03  0.53803525003E+03 -0.10645437873E+04  0.13080926346E+04  0.12699999809E+01 0. -1.
       -4    1    3    3    0  502  0.53700030041E+03 -0.53803525003E+03  0.16212834690E+04  0.17906459596E+04  0.12699999809E+01 0.  1.
</event>
<event>
 5   0  0.1007567E-05  0.3078800E+04  0.7818609E-02  0.8221580E-01
       -2   -1    0    0    0  501  0.00000000000E+00  0.00000000000E+00  0.13391057258E+04  0.13391057258E+04  0.25500000920E-02 0.  1.
        2   -1    0    0  501    0  0.00000000000E+00  0.00000000000E+00 -0.17696529920E+04  0.17696529920E+04  0.25500000920E-02 0. -1.
    10030    2    1    2    0    0  0.00000000000E+00  0.00000000000E+00 -0.43054726627E+03  0.31087587178E+04  0.30788000612E+04 0.  0.
        3    1    3    3  502    0  0.11464658836E+04 -0.58235280852E+03  0.63926732554E+03  0.14360297837E+04  0.10100000352E+00 0.  1.
       -3    1    3    3    0  502 -0.11464658836E+04  0.58235280852E+03 -0.10698145918E+04  0.16727289341E+04  0.10100000352E+00 0. -1.
</event>
<event>
 5   0  0.1001961E-05  0.2639028E+04  0.7818609E-02  0.8355064E-01
       -2   -1    0    0    0  501  0.00000000000E+00  0.00000000000E+00  0.87972327167E+03  0.87972327167E+03  0.25500000920E-02 0.  1.
        2   -1    0    0  501    0  0.00000000000E+00  0.00000000000E+00 -0.19791645512E+04  0.19791645512E+04  0.25500000920E-02 0. -1.
    10030    2    1    2    0    0  0.00000000000E+00  0.00000000000E+00 -0.10994412796E+04  0.28588878229E+04  0.26390279378E+04 0.  0.
        5    1    3    3  502    0 -0.10767479857E+04 -0.60627856601E+03 -0.10510198925E+04  0.16222283528E+04  0.46999998093E+01 0. -1.
       -5    1    3    3    0  502  0.10767479857E+04  0.60627856601E+03 -0.48421387082E+02  0.12366594701E+04  0.46999998093E+01 0.  1.
</event>
<event>
 5   0  0.3807334E-06  0.3108426E+04  0.7818609E-02  0.8213429E-01
       -1   -1    0    0    0  501  0.00000000000E+00  0.00000000000E+00  0.99872961988E+03  0.99872961989E+03  0.50400001928E-02 0. -1.
        1   -1    0    0  501    0  0.00000000000E+00  0.00000000000E+00 -0.24186512403E+04  0.24186512403E+04  0.50400001928E-02 0.  1.
    10030    2    1    2    0    0  0.00000000000E+00  0.00000000000E+00 -0.14199216204E+04  0.34173808602E+04  0.31084263761E+04 0.  0.
        4    1    3    3  502    0 -0.35714833692E+03  0.50840199882E+03  0.85625866779E+03  0.10579262952E+04  0.12699999809E+01 0. -1.
       -4    1    3    3    0  502  0.35714833692E+03 -0.50840199882E+03 -0.22761802882E+04  0.23594545650E+04  0.12699999809E+01 0.  1.
</event>
<event>
 5   0  0.3838525E-06  0.3078996E+04  0.7818609E-02  0.8221526E-01
        1   -1    0    0  501    0  0.00000000000E+00  0.00000000000E+00  0.11846642846E+04  0.11846642846E+04  0.50400001928E-02 0.  1.
       -1   -1    0    0    0  501  0.00000000000E+00  0.00000000000E+00 -0.20006125360E+04  0.20006125360E+04  0.50400001928E-02 0. -1.
    10030    2    1    2    0    0  0.00000000000E+00  0.00000000000E+00 -0.81594825148E+03  0.31852768206E+04  0.30789960823E+04 0.  0.
        3    1    3    3  502    0  0.42787982680E+03  0.32036767748E+03  0.10855838241E+04  0.12100449761E+04  0.10100000352E+00 0.  1.
       -3    1    3    3    0  502 -0.42787982680E+03 -0.32036767748E+03 -0.19015320755E+04  0.19752318445E+04  0.10100000352E+00 0. -1.
</event>
<event>
 5   0  0.4250961E-06  0.3075341E+04  0.7818609E-02  0.8222538E-01
        1   -1    0    0  501    0  0.00000000000E+00  0.00000000000E+00  0.14541515125E+04  0.14541515125E+04  0.50400001928E-02 0. -1.
       -1   -1    0    0    0  501  0.00000000000E+00  0.00000000000E+00 -0.16259860818E+04  0.16259860818E+04  0.50400001928E-02 0.  1.
    10030    2    1    2    0    0  0.00000000000E+00  0.00000000000E+00 -0.17183456925E+03  0.30801375943E+04  0.30753407097E+04 0.  0.
        1    1    3    3  502    0 -0.11921869885E+04 -0.97026775757E+03 -0.44612406432E+02  0.15377644826E+04  0.50400001928E-02 0. -1.
       -1    1    3    3    0  502  0.11921869885E+04  0.97026775757E+03 -0.12722216282E+03  0.15423731117E+04  0.50400001928E-02 0.  1.
</event>
<event>
 5   0  0.1108153E-05  0.3038893E+04  0.7818609E-02  0.8232711E-01
        2   -1    0    0  501    0  0.00000000000E+00  0.00000000000E+00  0.11363791993E+04  0.11363791993E+04  0.25500000920E-02 0.  1.
       -2   -1    0    0    0  501  0.00000000000E+00  0.00000000000E+00 -0.20316434493E+04  0.20316434493E+04  0.25500000920E-02 0. -1.
    10030    2    1    2    0    0  0.00000000000E+00  0.00000000000E+00 -0.89526424995E+03  0.31680226486E+04  0.30388927959E+04 0.  0.
        4    1    3    3  502    0 -0.10016967975E+03 -0.12706857154E+04  0.41457879227E+03  0.13403556767E+04  0.12699999809E+01 0.  1.
       -4    1    3    3    0  502  0.10016967975E+03  0.12706857154E+04 -0.13098430422E+04  0.18276669719E+04  0.12699999809E+01 0. -1.
</event>
<event>
 5   0  0.1108153E-05  0.2984055E+04  0.7818609E-02  0.8248299E-01
       -2   -1    0    0    0  501  0.00000000000E+00  0.00000000000E+00  0.10710068738E+04  0.10710068738E+04  0.25500000920E-02 0. -1.
        2   -1    0    0  501    0  0.00000000000E+00  0.00000000000E+00 -0.20785538516E+04  0.20785538516E+04  0.25500000920E-02 0.  1.
    10030    2    1    2    0    0  0.00000000000E+00  0.00000000000E+00 -0.10075469778E+04  0.31495607254E+04  0.29840545991E+04 0.  0.
        4    1    3    3  502    0 -0.27719009108E+03  0.26858919136E+03  0.10174014920E+04  0.10881552780E+04  0.12699999809E+01 0. -1.
       -4    1    3    3    0  502  0.27719009108E+03 -0.26858919136E+03 -0.20249484698E+04  0.20614054474E+04  0.12699999809E+01 0.  1.
</event>
<event>
 5   0  0.3493125E-06  0.3105560E+04  0.7818609E-02  0.8214214E-01
        3   -1    0    0  501    0  0.00000000000E+00  0.00000000000E+00  0.14529199070E+04  0.14529199105E+04  0.10100000352E+00 0. -1.
       -3   -1    0    0    0  501  0.00000000000E+00  0.00000000000E+00 -0.16595032267E+04  0.16595032298E+04  0.10100000352E+00 0.  1.
    10030    2    1    2    0    0  0.00000000000E+00  0.00000000000E+00 -0.20658331975E+03  0.31124231403E+04  0.31055597138E+04 0.  0.
        2    1    3    3  502    0  0.12292494968E+04 -0.92067354278E+03  0.12619296472E+03  0.15409798059E+04  0.25500000920E-02 0. -1.
       -2    1    3    3    0  502 -0.12292494968E+04  0.92067354278E+03 -0.33277628448E+03  0.15714433344E+04  0.25500000920E-02 0.  1.
</event>
<event>
 5   0  0.1119100E-05  0.3109005E+04  0.7818609E-02  0.8213271E-01
       -2   -1    0    0    0  501  0.00000000000E+00  0.00000000000E+00  0.18214058893E+04  0.18214058893E+04  0.25500000920E-02 0. -1.
        2   -1    0    0  501    0  0.00000000000E+00  0.00000000000E+00 -0.13267106620E+04  0.13267106620E+04  0.25500000920E-02 0.  1.
    10030    2    1    2    0    0  0.00000000000E+00  0.00000000000E+00  0.49469522726E+03  0.31481165513E+04  0.31090053799E+04 0.  0.
        2    1    3    3  502    0  0.12653114652E+04 -0.88208101168E+03  0.44316758853E+03  0.16048294385E+04  0.25500000920E-02 0. -1.
       -2    1    3    3    0  502 -0.12653114652E+04  0.88208101168E+03  0.51527638733E+02  0.15432871128E+04  0.25500000920E-02 0.  1.
</event>
<event>
 5   0  0.3848286E-06  0.3102783E+04  0.7818609E-02  0.8214974E-01
        1   -1    0    0  501    0  0.00000000000E+00  0.00000000000E+00  0.21629449506E+04  0.21629449506E+04  0.50400001928E-02 0.  1.
       -1   -1    0    0    0  501  0.00000000000E+00  0.00000000000E+00 -0.11127495603E+04  0.11127495604E+04  0.50400001928E-02 0. -1.
    10030    2    1    2    0    0  0.00000000000E+00  0.00000000000E+00  0.10501953902E+04  0.32756945109E+04  0.31027832943E+04 0.  0.
        2    1    3    3  502    0  0.83649279300E+02  0.28472243090E+03 -0.10825063756E+04  0.11224455968E+04  0.25500000920E-02 0. -1.
       -2    1    3    3    0  502 -0.83649279300E+02 -0.28472243090E+03  0.21327017658E+04  0.21532489142E+04  0.25500000920E-02 0.  1.
</event>
<event>
 5   0  0.3838525E-06  0.1563007E+04  0.7818609E-02  0.8843602E-01
        1   -1    0    0  501    0  0.00000000000E+00  0.00000000000E+00  0.12648990476E+04  0.12648990476E+04  0.50400001928E-02 0.  1.
       -1   -1    0    0    0  501  0.00000000000E+00  0.00000000000E+00 -0.48284286215E+03  0.48284286218E+03  0.50400001928E-02 0. -1.
    10030    2    1    2    0    0  0.00000000000E+00  0.00000000000E+00  0.78205618540E+03  0.17477419097E+04  0.15630066877E+04 0.  0.
        3    1    3    3  502    0  0.49254600087E+03  0.10069077442E+03 -0.27802778122E+03  0.57449077656E+03  0.10100000352E+00 0. -1.
       -3    1    3    3    0  502 -0.49254600087E+03 -0.10069077442E+03  0.10600839666E+04  0.11732511332E+04  0.10100000352E+00 0.  1.
</event>
<event>
 5   0  0.1001961E-05  0.2995279E+04  0.7818609E-02  0.8245080E-01
       -2   -1    0    0    0  501  0.00000000000E+00  0.00000000000E+00  0.17793892856E+04  0.17793892856E+04  0.25500000920E-02 0. -1.
        2   -1    0    0  501    0  0.00000000000E+00  0.00000000000E+00 -0.12605025496E+04  0.12605025496E+04  0.25500000920E-02 0.  1.
    10030    2    1    2    0    0  0.00000000000E+00  0.00000000000E+00  0.51888673600E+03  0.30398918353E+04  0.29952794403E+04 0.  0.
        5    1    3    3  502    0  0.52329481837E+02  0.61127478864E+03 -0.11271069775E+04  0.12832721733E+04  0.46999998093E+01 0.  1.
       -5    1    3    3    0  502 -0.52329481837E+02 -0.61127478864E+03  0.16459937135E+04  0.17566196620E+04  0.46999998093E+01 0. -1.
</event>
<event>
 5   0  0.9797278E-06  0.3013431E+04  0.7818609E-02  0.8239906E-01
       -2   -1    0    0    0  501  0.00000000000E+00  0.00000000000E+00  0.87111769068E+03  0.87111769069E+03  0.25500000920E-02 0. -1.
        2   -1    0    0  501    0  0.00000000000E+00  0.00000000000E+00 -0.26060667938E+04  0.26060667938E+04  0.25500000920E-02 0.  1.
    10030    2    1    2    0    0  0.00000000000E+00  0.00000000000E+00 -0.17349491032E+04  0.34771844845E+04  0.30134305283E+04 0.  0.
        1    1    3    3  502    0 -0.74460055563E+03  0.54195193925E+03 -0.22434916464E+04  0.24251590998E+04  0.50400001928E-02 0.  1.
       -1    1    3    3    0  502  0.74460055563E+03 -0.54195193925E+03  0.50854254320E+03  0.10520253848E+04  0.50400001928E-02 0. -1.
</event>
<event>
 5   0  0.3807334E-06  0.3084159E+04  0.7818609E-02  0.8220099E-01
       -1   -1    0    0    0  501  0.00000000000E+00  0.00000000000E+00  0.21877398138E+04  0.21877398138E+04  0.50400001928E-02 0. -1.
        1   -1    0    0  501    0  0.00000000000E+00  0.00000000000E+00 -0.10869708999E+04  0.10869708999E+04  0.50400001928E-02 0.  1.
    10030    2    1    2    0    0  0.00000000000E+00  0.00000000000E+00  0.11007689139E+04  0.32747107137E+04  0.30841592139E+04 0.  0.
        4    1    3    3  502    0 -0.77399919097E+03  0.13337569807E+04  0.54502585209E+03  0.16355541029E+04  0.12699999809E+01 0.  1.
       -4    1    3    3    0  502  0.77399919097E+03 -0.13337569807E+04  0.55574306177E+03  0.16391566108E+04  0.12699999809E+01 0. -1.
</event>
<event>
 5   0  0.3807334E-06  0.3108042E+04  0.7818609E-02  0.8213534E-01
       -1   -1    0    0    0  501  0.00000000000E+00  0.00000000000E+00  0.12976494581E+04  0.12976494581E+04  0.50400001928E-02 0.  1.
        1   -1    0    0  501    0  0.00000000000E+00  0.00000000000E+00 -0.18610429710E+04  0.18610429710E+04  0.50400001928E-02 0. -1.
    10030    2    1    2    0    0  0.00000000000E+00  0.00000000000E+00 -0.56339351293E+03  0.31586924291E+04  0.31080420865E+04 0.  0.
        4    1    3    3  502    0 -0.13145092074E+03  0.28719803474E+03 -0.18280772711E+04  0.18551631135E+04  0.12699999809E+01 0. -1.
       -4    1    3    3    0  502  0.13145092074E+03 -0.28719803474E+03  0.12646837582E+04  0.13035293156E+04  0.12699999809E+01 0.  1.
</event>
<event>
 5   0  0.3838525E-06  0.3092009E+04  0.7818609E-02  0.8217934E-01
        1   -1    0    0  501    0  0.00000000000E+00  0.00000000000E+00  0.15796986796E+04  0.15796986796E+04  0.50400001928E-02 0. -1.
       -1   -1    0    0    0  501  0.00000000000E+00  0.00000000000E+00 -0.15130292345E+04  0.15130292345E+04  0.50400001928E-02 0.  1.
    10030    2    1    2    0    0  0.00000000000E+00  0.00000000000E+00  0.66669445059E+02  0.30927279141E+04  0.30920092392E+04 0.  0.
        3    1    3    3  502    0 -0.62612718358E+03  0.75448858287E+01  0.14471830217E+04  0.15768420605E+04  0.10100000352E+00 0. -1.
       -3    1    3    3    0  502  0.62612718358E+03 -0.75448858287E+01 -0.13805135767E+04  0.15158858535E+04  0.10100000352E+00 0.  1.
</event>
<event>
 5   0  0.1108153E-05  0.2845656E+04  0.7818609E-02  0.8289232E-01
       -2   -1    0    0    0  501  0.00000000000E+00  0.00000000000E+00  0.14660404806E+04  0.14660404806E+04  0.25500000920E-02 0.  1.
        2   -1    0    0  501    0  0.00000000000E+00  0.00000000000E+00 -0.13808894298E+04  0.13808894298E+04  0.25500000920E-02 0. -1.
    10030    2    1    2    0    0  0.00000000000E+00  0.00000000000E+00  0.85151050747E+02  0.28469299104E+04  0.28456562008E+04 0.  0.
        4    1    3    3  502    0  0.38463188505E+02 -0.13416702699E+04 -0.42973711055E+03  0.14093381876E+04  0.12699999809E+01 0. -1.
       -4    1    3    3    0  502 -0.38463188505E+02  0.13416702699E+04  0.51488816130E+03  0.14375917228E+04  0.12699999809E+01 0.  1.
</event>
<event>
 5   0  0.4139628E-06  0.2405397E+04  0.7818609E-02  0.8437486E-01
       -1   -1    0    0    0  501  0.00000000000E+00  0.00000000000E+00  0.80490013966E+03  0.80490013968E+03  0.50400001928E-02 0. -1.
        1   -1    0    0  501    0  0.00000000000E+00  0.00000000000E+00 -0.17970973753E+04  0.17970973753E+04  0.50400001928E-02 0.  1.
    10030    2    1    2    0    0  0.00000000000E+00  0.00000000000E+00 -0.99219723566E+03  0.26019975150E+04  0.24053972050E+04 0.  0.
        5    1    3    3  502    0  0.65474554371E+03 -0.40138545292E+03 -0.14973065385E+04  0.16827807252E+04  0.46999998093E+01 0.  1.
       -5    1    3    3    0  502 -0.65474554371E+03  0.40138545292E+03  0.50510930286E+03  0.91921678980E+03  0.46999998093E+01 0. -1.
</event>
<event>
 5   0  0.1007567E-05  0.1785737E+04  0.7818609E-02  0.8713922E-01
        2   -1    0    0  501    0  0.00000000000E+00  0.00000000000E+00  0.11672811400E+04  0.11672811400E+04  0.25500000920E-02 0. -1.
       -2   -1    0    0    0  501  0.00000000000E+00  0.00000000000E+00 -0.68296637207E+03  0.68296637208E+03  0.25500000920E-02 0.  1.
    10030    2    1    2    0    0  0.00000000000E+00  0.00000000000E+00  0.48431476791E+03  0.18502475121E+04  0.17857365599E+04 0.  0.
        3    1    3    3  502    0 -0.34739841469E+03 -0.68253364781E+03 -0.23341856639E+03  0.80063854283E+03  0.10100000352E+00 0.  1.
       -3    1    3    3    0  502  0.34739841469E+03  0.68253364781E+03  0.71773333431E+03  0.10496089692E+04  0.10100000352E+00 0. -1.
</event>
<event>
 5   0  0.1007567E-05  0.3068323E+04  0.7818609E-02  0.8224486E-01
       -2   -1    0    0    0  501  0.00000000000E+00  0.00000000000E+00  0.10348376136E+04  0.10348376136E+04  0.25500000920E-02 0.  1.
        2   -1    0    0  501    0  0.00000000000E+00  0.00000000000E+00 -0.22744155834E+04  0.22744155834E+04  0.25500000920E-02 0. -1.
    10030    2    1    2    0    0  0.00000000000E+00  0.00000000000E+00 -0.12395779697E+04  0.33092531970E+04  0.30683225350E+04 0.  0.
        3    1    3    3  502    0 -0.14064686780E+04  0.70242392501E+02 -0.12763268949E+04  0.19005521536E+04  0.10100000352E+00 0.  1.
       -3    1    3    3    0  502  0.14064686780E+04 -0.70242392501E+02  0.36748925137E+02  0.14087010433E+04  0.10100000352E+00 0. -1.
</event>
<event>
 5   0  0.3493125E-06  0.3101465E+04  0.7818609E-02  0.8215336E-01
        3   -1    0    0  501    0  0.00000000000E+00  0.00000000000E+00  0.23334016195E+04  0.23334016217E+04  0.10100000352E+00 0.  1.
       -3   -1    0    0    0  501  0.00000000000E+00  0.00000000000E+00 -0.10305863462E+04  0.10305863511E+04  0.10100000352E+00 0. -1.
    10030    2    1    2    0    0  0.00000000000E+00  0.00000000000E+00  0.13028152733E+04  0.33639879728E+04  0.31014653706E+04 0.  0.
        1    1    3    3  502    0 -0.14814083284E+04  0.40659535508E+03  0.42162304508E+03  0.15930023260E+04  0.50400001928E-02 0.  1.
       -1    1    3    3    0  502  0.14814083284E+04 -0.40659535508E+03  0.88119222824E+03  0.17709856469E+04  0.50400001928E-02 0. -1.
</event>
<event>
 5   0  0.4139628E-06  0.3060237E+04  0.7818609E-02  0.8226736E-01
       -1   -1    0    0    0  501  0.00000000000E+00  0.00000000000E+00  0.19087224124E+04  0.19087224124E+04  0.50400001928E-02 0.  1.
        1   -1    0    0  501    0  0.00000000000E+00  0.00000000000E+00 -0.12266121047E+04  0.12266121047E+04  0.50400001928E-02 0. -1.
    10030    2    1    2    0    0  0.00000000000E+00  0.00000000000E+00  0.68211030772E+03  0.31353345171E+04  0.30602366023E+04 0.  0.
        5    1    3    3  502    0 -0.16407529793E+02  0.46033501728E+03  0.18359927790E+04  0.18928996565E+04  0.46999998093E+01 0.  1.
       -5    1    3    3    0  502  0.16407529793E+02 -0.46033501728E+03 -0.11538824713E+04  0.12424348605E+04  0.46999998093E+01 0. -1.
</event>
<event>
 5   0  0.1007567E-05  0.1890214E+04  0.7818609E-02  0.8659743E-01
        2   -1    0    0  501    0  0.00000000000E+00  0.00000000000E+00  0.61176562436E+03  0.61176562436E+03  0.25500000920E-02 0. -1.
       -2   -1    0    0    0  501  0.00000000000E+00  0.00000000000E+00 -0.14600808272E+04  0.14600808272E+04  0.25500000920E-02 0.  1.
    10030    2    1    2    0    0  0.00000000000E+00  0.00000000000E+00 -0.84831520283E+03  0.20718464516E+04  0.18902140184E+04 0.  0.
        3    1    3    3  502    0  0.77595817724E+03 -0.21242848280E+02 -0.10150969096E+04  0.12778826619E+04  0.10100000352E+00 0.  1.
       -3    1    3    3    0  502 -0.77595817724E+03  0.21242848280E+02  0.16678170676E+03  0.79396378969E+03  0.10100000352E+00 0. -1.
</event>
<event>
 5   0  0.3493125E-06  0.2925860E+04  0.7818609E-02  0.8265225E-01
       -3   -1    0    0    0  501  0.00000000000E+00  0.00000000000E+00  0.98506027506E+03  0.98506028023E+03  0.10100000352E+00 0. -1.
        3   -1    0    0  501    0  0.00000000000E+00  0.00000000000E+00 -0.21726225502E+04  0.21726225526E+04  0.10100000352E+00 0.  1.
    10030    2    1    2    0    0  0.00000000000E+00  0.00000000000E+00 -0.11875622752E+04  0.31576828328E+04  0.29258599958E+04 0.  0.
        5    1    3    3  502    0 -0.10328269517E+04  0.99393833214E+03 -0.27821468243E+03  0.14601610937E+04  0.46999998093E+01 0. -1.
       -5    1    3    3    0  502  0.10328269517E+04 -0.99393833214E+03 -0.90934759273E+03  0.16975217391E+04  0.46999998093E+01 0.  1.
</event>
<event>
 5   0  0.1119100E-05  0.3097413E+04  0.7818609E-02  0.8216448E-01
        2   -1    0    0  501    0  0.00000000000E+00  0.00000000000E+00  0.16185683107E+04  0.16185683107E+04  0.25500000920E-02 0.  1.
       -2   -1    0    0    0  501  0.00000000000E+00  0.00000000000E+00 -0.14818605543E+04  0.14818605543E+04  0.25500000920E-02 0. -1.
    10030    2    1    2    0    0  0.00000000000E+00  0.00000000000E+00  0.13670775637E+03  0.31004288650E+04  0.30974134591E+04 0.  0.
        2    1    3    3  502    0 -0.10860531498E+03 -0.13834443161E+04  0.75661270728E+03  0.15805619504E+04  0.25500000920E-02 0.  1.
       -2    1    3    3    0  502  0.10860531498E+03  0.13834443161E+04 -0.61990495091E+03  0.15198669147E+04  0.25500000920E-02 0. -1.
</event>
<event>
 5   0  0.9797278E-06  0.2898709E+04  0.7818609E-02  0.8273262E-01
        2   -1    0    0  501    0  0.00000000000E+00  0.00000000000E+00  0.21635583486E+04  0.21635583486E+04  0.25500000920E-02 0.  1.
       -2   -1    0    0    0  501  0.00000000000E+00  0.00000000000E+00 -0.97091373047E+03  0.97091373047E+03  0.25500000920E-02 0. -1.
    10030    2    1    2    0    0  0.00000000000E+00  0.00000000000E+00  0.11926446182E+04  0.31344720791E+04  0.28987090281E+04 0.  0.
        1    1    3    3  502    0  0.69148372836E+03 -0.22175762141E+03 -0.76000927108E+03  0.10511613965E+04  0.50400001928E-02 0. -1.
       -1    1    3    3    0  502 -0.69148372836E+03  0.22175762141E+03  0.19526538892E+04  0.20833106826E+04  0.50400001928E-02 0.  1.
</event>
<event>
 5   0  0.4250961E-06  0.2139443E+04  0.7818609E-02  0.8544065E-01
       -1   -1    0    0    0  501  0.00000000000E+00  0.00000000000E+00  0.98671115813E+03  0.98671115814E+03  0.50400001928E-02 0. -1.
        1   -1    0    0  501    0  0.00000000000E+00  0.00000000000E+00 -0.11597154787E+04  0.11597154788E+04  0.50400001928E-02 0.  1.
    10030    2    1    2    0    0  0.00000000000E+00  0.00000000000E+00 -0.17300432061E+03  0.21464266369E+04  0.21394431081E+04 0.  0.
        1    1    3    3  502    0  0.76824917664E+03 -0.21337547092E+03  0.62896541448E+03  0.10155458540E+04  0.50400001928E-02 0.  1.
       -1    1    3    3    0  502 -0.76824917664E+03  0.21337547092E+03 -0.80196973509E+03  0.11308807829E+04  0.50400001928E-02 0. -1.
</event>
<event>
 5   0  0.1108153E-05  0.3074646E+04  0.7818609E-02  0.8222731E-01
       -2   -1    0    0    0  501  0.00000000000E+00  0.00000000000E+00  0.19124769839E+04  0.19124769839E+04  0.25500000920E-02 0. -1.
        2   -1    0    0  501    0  0.00000000000E+00  0.00000000000E+00 -0.12357595216E+04  0.12357595216E+04  0.25500000920E-02 0.  1.
    10030    2    1    2    0    0  0.00000000000E+00  0.00000000000E+00  0.67671746227E+03  0.31482365055E+04  0.30746457635E+04 0.  0.
        4    1    3    3  502    0 -0.18835136985E+03 -0.20277001396E+01 -0.12238984447E+04  0.12383090753E+04  0.12699999809E+01 0.  1.
       -4    1    3    3    0  502  0.18835136985E+03  0.20277001396E+01  0.19006159070E+04  0.19099274302E+04  0.12699999809E+01 0. -1.
</event>
<event>
 5   0  0.1108153E-05  0.1933593E+04  0.7818609E-02  0.8638313E-01
        2   -1    0    0  501    0  0.00000000000E+00  0.00000000000E+00  0.75250526226E+03  0.75250526227E+03  0.25500000920E-02 0.  1.
       -2   -1    0    0    0  501  0.00000000000E+00  0.00000000000E+00 -0.12421119385E+04  0.12421119385E+04  0.25500000920E-02 0. -1.
    10030    2    1    2    0    0  0.00000000000E+00  0.00000000000E+00 -0.48960667620E+03  0.19946172007E+04  0.19335933078E+04 0.  0.
        4    1    3    3  502    0  0.55371245105E+03  0.22313600220E+03  0.53966180580E+03  0.80475066416E+03  0.12699999809E+01 0.  1.
       -4    1    3    3    0  502 -0.55371245105E+03 -0.22313600220E+03 -0.10292684820E+04  0.11898665366E+04  0.12699999809E+01 0. -1.
</event>
<event>
 5   0  0.1001961E-05  0.3134232E+04  0.7818609E-02  0.8206405E-01
       -2   -1    0    0    0  501  0.00000000000E+00  0.00000000000E+00  0.12156659530E+04  0.12156659530E+04  0.25500000920E-02 0.  1.
        2   -1    0    0  501    0  0.00000000000E+00  0.00000000000E+00 -0.20201708282E+04  0.20201708282E+04  0.25500000920E-02 0. -1.
    10030    2    1    2    0    0  0.00000000000E+00  0.00000000000E+00 -0.80450487522E+03  0.32358367811E+04  0.31342322154E+04 0.  0.
        5    1    3    3  502    0 -0.18813024450E+02  0.14456738781E+04 -0.10264203704E+04  0.17731011698E+04  0.46999998093E+01 0. -1.
       -5    1    3    3    0  502  0.18813024450E+02 -0.14456738781E+04  0.22191549521E+03  0.14627356113E+04  0.46999998093E+01 0.  1.
</event>
<event>
 5   0  0.3807334E-06  0.2847732E+04  0.7818609E-02  0.8288601E-01
        1   -1    0    0  501    0  0.00000000000E+00  0.00000000000E+00  0.20219646100E+04  0.20219646100E+04  0.50400001928E-02 0.  1.
       -1   -1    0    0    0  501  0.00000000000E+00  0.00000000000E+00 -0.10026853328E+04  0.10026853328E+04  0.50400001928E-02 0. -1.
    10030    2    1    2    0    0  0.00000000000E+00  0.00000000000E+00  0.10192792772E+04  0.30246499428E+04  0.28477319101E+04 0.  0.
        4    1    3    3  502    0 -0.85181573568E+03 -0.94653704572E+03 -0.16701896765E+03  0.12842972300E+04  0.12699999809E+01 0. -1.
       -4    1    3    3    0  502  0.85181573568E+03  0.94653704572E+03  0.11862982449E+04  0.17403527128E+04  0.12699999809E+01 0.  1.
</event>
<event>
 5   0  0.3848286E-06  0.3151588E+04  0.7818609E-02  0.8201721E-01
        1   -1    0    0  501    0  0.00000000000E+00  0.00000000000E+00  0.15590339707E+04  0.15590339707E+04  0.50400001928E-02 0. -1.
       -1   -1    0    0    0  501  0.00000000000E+00  0.00000000000E+00 -0.15927341156E+04  0.15927341156E+04  0.50400001928E-02 0.  1.
    10030    2    1    2    0    0  0.00000000000E+00  0.00000000000E+00 -0.33700144921E+02  0.31517680863E+04  0.31515879124E+04 0.  0.
        2    1    3    3  502    0  0.13177818412E+04  0.98128879689E+02 -0.87535609945E+03  0.15850635820E+04  0.25500000920E-02 0.  1.
       -2    1    3    3    0  502 -0.13177818412E+04 -0.98128879689E+02  0.84165595452E+03  0.15667045043E+04  0.25500000920E-02 0. -1.
</event>
<event>
 5   0  0.1007567E-05  0.2042725E+04  0.7818609E-02  0.8586902E-01
        2   -1    0    0  501    0  0.00000000000E+00  0.00000000000E+00  0.75892866622E+03  0.75892866622E+03  0.25500000920E-02 0. -1.
       -2   -1    0    0    0  501  0.00000000000E+00  0.00000000000E+00 -0.13745448019E+04  0.13745448019E+04  0.25500000920E-02 0.  1.
    10030    2    1    2    0    0  0.00000000000E+00  0.00000000000E+00 -0.61561613564E+03  0.21334734681E+04  0.20427250947E+04 0.  0.
        3    1    3    3  502    0  0.20957470369E+03 -0.20459912183E+03  0.71412823325E+03  0.77185588085E+03  0.10100000352E+00 0. -1.
       -3    1    3    3    0  502 -0.20957470369E+03  0.20459912183E+03 -0.13297443689E+04  0.13616175872E+04  0.10100000352E+00 0.  1.
</event>
<event>
 5   0  0.9797278E-06  0.2471268E+04  0.7818609E-02  0.8413293E-01
        2   -1    0    0  501    0  0.00000000000E+00  0.00000000000E+00  0.18995302668E+04  0.18995302668E+04  0.25500000920E-02 0. -1.
       -2   -1    0    0    0  501  0.00000000000E+00  0.00000000000E+00 -0.80377333703E+03  0.80377333703E+03  0.25500000920E-02 0.  1.
    10030    2    1    2    0    0  0.00000000000E+00  0.00000000000E+00  0.10957569297E+04  0.27033036038E+04  0.24712683232E+04 0.  0.
        1    1    3    3  502    0  0.92771095676E+03 -0.78253644993E+03  0.29419695222E+03  0.12488245519E+04  0.50400001928E-02 0. -1.
       -1    1    3    3    0  502 -0.92771095676E+03  0.78253644993E+03  0.80155997751E+03  0.14544790519E+04  0.50400001928E-02 0.  1.
</event>
<event>
 5   0  0.1108153E-05  0.3071154E+04  0.7818609E-02  0.8223699E-01
       -2   -1    0    0    0  501  0.00000000000E+00  0.00000000000E+00  0.12839640370E+04  0.12839640370E+04  0.25500000920E-02 0. -1.
        2   -1    0    0  501    0  0.00000000000E+00  0.00000000000E+00 -0.18364977222E+04  0.18364977222E+04  0.25500000920E-02 0.  1.
    10030    2    1    2    0    0  0.00000000000E+00  0.00000000000E+00 -0.55253368526E+03  0.31204617592E+04  0.30711541996E+04 0.  0.
        4    1    3    3  502    0 -0.72575254963E+03  0.44872522005E+03  0.10209153063E+04  0.13305415296E+04  0.12699999809E+01 0. -1.
       -4    1    3    3    0  502  0.72575254963E+03 -0.44872522005E+03 -0.15734489916E+04  0.17899202296E+04  0.12699999809E+01 0.  1.
</event>
<event>
 5   0  0.3838525E-06  0.1821131E+04  0.7818609E-02  0.8695142E-01
        1   -1    0    0  501    0  0.00000000000E+00  0.00000000000E+00  0.12566716432E+04  0.12566716432E+04  0.50400001928E-02 0.  1.
       -1   -1    0    0    0  501  0.00000000000E+00  0.00000000000E+00 -0.65978201028E+03  0.65978201030E+03  0.50400001928E-02 0. -1.
    10030    2    1    2    0    0  0.00000000000E+00  0.00000000000E+00  0.59688963290E+03  0.19164536535E+04  0.18211307949E+04 0.  0.
        3    1    3    3  502    0  0.39735649981E+03 -0.78344939881E+03  0.55066522018E+03  0.10367822063E+04  0.10100000352E+00 0.  1.
       -3    1    3    3    0  502 -0.39735649981E+03  0.78344939881E+03  0.46224412717E+02  0.87967144717E+03  0.10100000352E+00 0. -1.
</event>
<event>
 5   0  0.4250961E-06  0.3145718E+04  0.7818609E-02  0.8203302E-01
       -1   -1    0    0    0  501  0.00000000000E+00  0.00000000000E+00  0.17425042604E+04  0.17425042604E+04  0.50400001928E-02 0.  1.
        1   -1    0    0  501    0  0.00000000000E+00  0.00000000000E+00 -0.14197296750E+04  0.14197296750E+04  0.50400001928E-02 0. -1.
    10030    2    1    2    0    0  0.00000000000E+00  0.00000000000E+00  0.32277458537E+03  0.31622339354E+04  0.31457177288E+04 0.  0.
        1    1    3    3  502    0  0.41626065761E+03 -0.13399516941E+04  0.87585200310E+03  0.16540435934E+04  0.50400001928E-02 0.  1.
       -1    1    3    3    0  502 -0.41626065761E+03  0.13399516941E+04 -0.55307741773E+03  0.15081903420E+04  0.50400001928E-02 0. -1.
</event>
<event>
 5   0  0.3848286E-06  0.2265731E+04  0.7818609E-02  0.8491557E-01
       -1   -1    0    0    0  501  0.00000000000E+00  0.00000000000E+00  0.13401876014E+04  0.13401876014E+04  0.50400001928E-02 0. -1.
        1   -1    0    0  501    0  0.00000000000E+00  0.00000000000E+00 -0.95761495296E+03  0.95761495297E+03  0.50400001928E-02 0.  1.
    10030    2    1    2    0    0  0.00000000000E+00  0.00000000000E+00  0.38257264842E+03  0.22978025544E+04  0.22657305108E+04 0.  0.
        2    1    3    3  502    0  0.10770529577E+04 -0.20253083546E+03  0.48226561342E+03  0.11973478755E+04  0.25500000920E-02 0. -1.
       -2    1    3    3    0  502 -0.10770529577E+04  0.20253083546E+03 -0.99692965006E+02  0.11004546789E+04  0.25500000920E-02 0.  1.
</event>
<event>
 5   0  0.9797278E-06  0.2541495E+04  0.7818609E-02  0.8388350E-01
        2   -1    0    0  501    0  0.00000000000E+00  0.00000000000E+00  0.16003851960E+04  0.16003851960E+04  0.25500000920E-02 0. -1.
       -2   -1    0    0    0  501  0.00000000000E+00  0.00000000000E+00 -0.10090062957E+04  0.10090062957E+04  0.25500000920E-02 0.  1.
    10030    2    1    2    0    0  0.00000000000E+00  0.00000000000E+00  0.59137890029E+03  0.26093914916E+04  0.25414946297E+04 0.  0.
        1    1    3    3  502    0  0.64211014055E+03 -0.10731378278E+04  0.52725531800E+03  0.13571766283E+04  0.50400001928E-02 0. -1.
       -1    1    3    3    0  502 -0.64211014055E+03  0.10731378278E+04  0.64123582291E+02  0.12522148633E+04  0.50400001928E-02 0.  1.
</event>
<event>
 5   0  0.9797278E-06  0.3112564E+04  0.7818609E-02  0.8212298E-01
       -2   -1    0    0    0  501  0.00000000000E+00  0.00000000000E+00  0.11260703726E+04  0.11260703726E+04  0.25500000920E-02 0.  1.
        2   -1    0    0  501    0  0.00000000000E+00  0.00000000000E+00 -0.21508548800E+04  0.21508548800E+04  0.25500000920E-02 0. -1.
    10030    2    1    2    0    0  0.00000000000E+00  0.00000000000E+00 -0.10247845074E+04  0.32769252527E+04  0.31125641881E+04 0.  0.
        1    1    3    3  502    0 -0.50850960701E+03  0.36722349923E+02 -0.20604403173E+04  0.21225797636E+04  0.50400001928E-02 0. -1.
       -1    1    3    3    0  502  0.50850960701E+03 -0.36722349923E+02  0.10356558100E+04  0.11543454891E+04  0.50400001928E-02 0.  1.
</event>
<event>
 5   0  0.4139628E-06  0.3009596E+04  0.7818609E-02  0.8240996E-01
        1   -1    0    0  501    0  0.00000000000E+00  0.00000000000E+00  0.18855947351E+04  0.18855947352E+04  0.50400001928E-02 0.  1.
       -1   -1    0    0    0  501  0.00000000000E+00  0.00000000000E+00 -0.12009030732E+04  0.12009030732E+04  0.50400001928E-02 0. -1.
    10030    2    1    2    0    0  0.00000000000E+00  0.00000000000E+00  0.68469166195E+03  0.30864978084E+04  0.30095956621E+04 0.  0.
        5    1    3    3  502    0 -0.39985501663E+03 -0.49478771233E+03  0.17408982272E+04  0.18534960594E+04  0.46999998093E+01 0.  1.
       -5    1    3    3    0  502  0.39985501663E+03  0.49478771233E+03 -0.10562065652E+04  0.12330017490E+04  0.46999998093E+01 0. -1.
</event>
<event>
 5   0  0.9797278E-06  0.3091116E+04  0.7818609E-02  0.8218180E-01
        2   -1    0    0  501    0  0.00000000000E+00  0.00000000000E+00  0.23298117527E+04  0.23298117527E+04  0.25500000920E-02 0.  1.
       -2   -1    0    0    0  501  0.00000000000E+00  0.00000000000E+00 -0.10252971019E+04  0.10252971019E+04  0.25500000920E-02 0. -1.
    10030    2    1    2    0    0  0.00000000000E+00  0.00000000000E+00  0.13045146508E+04  0.33551088546E+04  0.30911158102E+04 0.  0.
        1    1    3    3  502    0  0.92215493843E+03 -0.11153041048E+04  0.63255712533E+02  0.14485421160E+04  0.50400001928E-02 0. -1.
       -1    1    3    3    0  502 -0.92215493843E+03  0.11153041048E+04  0.12412589383E+04  0.19065667385E+04  0.50400001928E-02 0.  1.
</event>
<event>
 5   0  0.3838525E-06  0.3146640E+04  0.7818609E-02  0.8203053E-01
        1   -1    0    0  501    0  0.00000000000E+00  0.00000000000E+00  0.24792527210E+04  0.24792527210E+04  0.50400001928E-02 0.  1.
       -1   -1    0    0    0  501  0.00000000000E+00  0.00000000000E+00 -0.99842014287E+03  0.99842014288E+03  0.50400001928E-02 0. -1.
    10030    2    1    2    0    0  0.00000000000E+00  0.00000000000E+00  0.14808325781E+04  0.34776728639E+04  0.31466400213E+04 0.  0.
        3    1    3    3  502    0  0.71801392270E+03  0.98317157854E+02 -0.80296401989E+03  0.10816475785E+04  0.10100000352E+00 0. -1.
       -3    1    3    3    0  502 -0.71801392270E+03 -0.98317157854E+02  0.22837965980E+04  0.23960252854E+04  0.10100000352E+00 0.  1.
</event>
<event>
 5   0  0.4139628E-06  0.1581231E+04  0.7818609E-02  0.8832162E-01
       -1   -1    0    0    0  501  0.00000000000E+00  0.00000000000E+00  0.35012145786E+03  0.35012145790E+03  0.50400001928E-02 0.  1.
        1   -1    0    0  501    0  0.00000000000E+00  0.00000000000E+00 -0.17853025052E+04  0.17853025052E+04  0.50400001928E-02 0. -1.
    10030    2    1    2    0    0  0.00000000000E+00  0.00000000000E+00 -0.14351810473E+04  0.21354239631E+04  0.15812308065E+04 0.  0.
        5    1    3    3  502    0 -0.21124168216E+03 -0.64559928351E+02 -0.17427653401E+04  0.17567140215E+04  0.46999998093E+01 0. -1.
       -5    1    3    3    0  502  0.21124168216E+03  0.64559928351E+02  0.30758429283E+03  0.37870994155E+03  0.46999998093E+01 0.  1.
</event>
<event>
 5   0  0.4139628E-06  0.3019328E+04  0.7818609E-02  0.8238233E-01
       -1   -1    0    0    0  501  0.00000000000E+00  0.00000000000E+00  0.15995227495E+04  0.15995227495E+04  0.50400001928E-02 0. -1.
        1   -1    0    0  501    0  0.00000000000E+00  0.00000000000E+00 -0.14248537955E+04  0.14248537955E+04  0.50400001928E-02 0.  1.
    10030    2    1    2    0    0  0.00000000000E+00  0.00000000000E+00  0.17466895402E+03  0.30243765451E+04  0.30193284423E+04 0.  0.
        5    1    3    3  502    0 -0.10970230035E+04 -0.94812719579E+03 -0.33367685142E+03  0.14878733080E+04  0.46999998093E+01 0.  1.
       -5    1    3    3    0  502  0.10970230035E+04  0.94812719579E+03  0.50834580544E+03  0.15365032370E+04  0.46999998093E+01 0. -1.
</event>
<event>
 5   0  0.1001961E-05  0.3087771E+04  0.7818609E-02  0.8219102E-01
       -2   -1    0    0    0  501  0.00000000000E+00  0.00000000000E+00  0.19390997730E+04  0.19390997730E+04  0.25500000920E-02 0.  1.
        2   -1    0    0  501    0  0.00000000000E+00  0.00000000000E+00 -0.12292209799E+04  0.12292209799E+04  0.25500000920E-02 0. -1.
    10030    2    1    2    0    0  0.00000000000E+00  0.00000000000E+00  0.70987879317E+03  0.31683207529E+04  0.30877707966E+04 0.  0.
        5    1    3    3  502    0  0.10188411727E+04  0.47355075805E+03  0.14414642085E+04  0.18276019287E+04  0.46999998093E+01 0.  1.
       -5    1    3    3    0  502 -0.10188411727E+04 -0.47355075805E+03 -0.73158541529E+03  0.13407188242E+04  0.46999998093E+01 0. -1.
</event>
<event>
 5   0  0.1001961E-05  0.2764672E+04  0.7818609E-02  0.8314321E-01
       -2   -1    0    0    0  501  0.00000000000E+00  0.00000000000E+00  0.90871162213E+03  0.90871162213E+03  0.25500000920E-02 0.  1.
        2   -1    0    0  501    0  0.00000000000E+00  0.00000000000E+00 -0.21028155882E+04  0.21028155882E+04  0.25500000920E-02 0. -1.
    10030    2    1    2    0    0  0.00000000000E+00  0.00000000000E+00 -0.11941039661E+04  0.30115272104E+04  0.27646721066E+04 0.  0.
        5    1    3    3  502    0  0.11977605106E+04 -0.68890710294E+03 -0.64072741095E+03  0.15230813971E+04  0.46999998093E+01 0. -1.
       -5    1    3    3    0  502 -0.11977605106E+04  0.68890710294E+03 -0.55337655516E+03  0.14884458132E+04  0.46999998093E+01 0.  1.
</event>
<event>
 5   0  0.1108153E-05  0.2108524E+04  0.7818609E-02  0.8557498E-01
        2   -1    0    0  501    0  0.00000000000E+00  0.00000000000E+00  0.89994834324E+03  0.89994834324E+03  0.25500000920E-02 0.  1.
       -2   -1    0    0    0  501  0.00000000000E+00  0.00000000000E+00 -0.12350354931E+04  0.12350354931E+04  0.25500000920E-02 0. -1.
    10030    2    1    2    0    0  0.00000000000E+00  0.00000000000E+00 -0.33508714983E+03  0.21349838363E+04  0.21085237924E+04 0.  0.
        4    1    3    3  502    0  0.59597415644E+03 -0.13587064751E+02  0.71290656175E+03  0.92930467671E+03  0.12699999809E+01 0.  1.
       -4    1    3    3    0  502 -0.59597415644E+03  0.13587064751E+02 -0.10479937116E+04  0.12056791596E+04  0.12699999809E+01 0. -1.
</event>
<event>
 5   0  0.4250961E-06  0.3055862E+04  0.7818609E-02  0.8227957E-01
       -1   -1    0    0    0  501  0.00000000000E+00  0.00000000000E+00  0.11394888203E+04  0.11394888203E+04  0.50400001928E-02 0.  1.
        1   -1    0    0  501    0  0.00000000000E+00  0.00000000000E+00 -0.20487898036E+04  0.20487898036E+04  0.50400001928E-02 0. -1.
    10030    2    1    2    0    0  0.00000000000E+00  0.00000000000E+00 -0.90930098330E+03  0.31882786239E+04  0.30558619579E+04 0.  0.
        1    1    3    3  502    0 -0.82148400972E+03  0.89840607611E+03 -0.14180271546E+04  0.18688955206E+04  0.50400001928E-02 0. -1.
       -1    1    3    3    0  502  0.82148400972E+03 -0.89840607611E+03  0.50872617133E+03  0.13193831033E+04  0.50400001928E-02 0.  1.
</event>
<event>
 5   0  0.1001961E-05  0.3081740E+04  0.7818609E-02  0.8220767E-01
       -2   -1    0    0    0  501  0.00000000000E+00  0.00000000000E+00  0.13357843835E+04  0.13357843835E+04  0.25500000920E-02 0.  1.
        2   -1    0    0  501    0  0.00000000000E+00  0.00000000000E+00 -0.17774423406E+04  0.17774423406E+04  0.25500000920E-02 0. -1.
    10030    2    1    2    0    0  0.00000000000E+00  0.00000000000E+00 -0.44165795716E+03  0.31132267241E+04  0.30817395874E+04 0.  0.
        5    1    3    3  502    0  0.28579197390E+02 -0.14588711807E+04  0.27934158491E+03  0.14856566574E+04  0.46999998093E+01 0.  1.
       -5    1    3    3    0  502 -0.28579197390E+02  0.14588711807E+04 -0.72099954207E+03  0.16275700667E+04  0.46999998093E+01 0. -1.
</event>
<event>
 5   0  0.4139628E-06  0.2218223E+04  0.7818609E-02  0.8510881E-01
       -1   -1    0    0    0  501  0.00000000000E+00  0.00000000000E+00  0.90908036060E+03  0.90908036061E+03  0.50400001928E-02 0.  1.
        1   -1    0    0  501    0  0.00000000000E+00  0.00000000000E+00 -0.13531571870E+04  0.13531571870E+04  0.50400001928E-02 0. -1.
    10030    2    1    2    0    0  0.00000000000E+00  0.00000000000E+00 -0.44407682642E+03  0.22622375476E+04  0.22182232742E+04 0.  0.
        5    1    3    3  502    0 -0.97273011769E+03 -0.12161770604E+03 -0.75109156656E+03  0.12349718133E+04  0.46999998093E+01 0. -1.
       -5    1    3    3    0  502  0.97273011769E+03  0.12161770604E+03  0.30701474015E+03  0.10272657343E+04  0.46999998093E+01 0.  1.
</event>
<event>
 5   0  0.1007567E-05  0.2981843E+04  0.7818609E-02  0.8248935E-01
        2   -1    0    0  501    0  0.00000000000E+00  0.00000000000E+00  0.20339403781E+04  0.20339403781E+04  0.25500000920E-02 0.  1.
       -2   -1    0    0    0  501  0.00000000000E+00  0.00000000000E+00 -0.10928772771E+04  0.10928772771E+04  0.25500000920E-02 0. -1.
    10030    2    1    2    0    0  0.00000000000E+00  0.00000000000E+00  0.94106310102E+03  0.31268176552E+04  0.29818432033E+04 0.  0.
        3    1    3    3  502    0 -0.38698182437E+03 -0.10725948864E+04 -0.53670650153E+03  0.12602652902E+04  0.10100000352E+00 0. -1.
       -3    1    3    3    0  502  0.38698182437E+03  0.10725948864E+04  0.14777696026E+04  0.18665523650E+04  0.10100000352E+00 0.  1.
</event>
<event>
 5   0  0.1001961E-05  0.1892550E+04  0.7818609E-02  0.8658574E-01
       -2   -1    0    0    0  501  0.00000000000E+00  0.00000000000E+00  0.42438200758E+03  0.42438200758E+03  0.25500000920E-02 0.  1.
        2   -1    0    0  501    0  0.00000000000E+00  0.00000000000E+00 -0.21099764726E+04  0.21099764726E+04  0.25500000920E-02 0. -1.
    10030    2    1    2    0    0  0.00000000000E+00  0.00000000000E+00 -0.16855944650E+04  0.25343584802E+04  0.18925496574E+04 0.  0.
        5    1    3    3  502    0  0.27228250866E+03 -0.22265200556E+03 -0.20191718727E+04  0.20495825969E+04  0.46999998093E+01 0. -1.
       -5    1    3    3    0  502 -0.27228250866E+03  0.22265200556E+03  0.33357740767E+03  0.48477588327E+03  0.46999998093E+01 0.  1.
</event>
<event>
 5   0  0.3807334E-06  0.1637073E+04  0.7818609E-02  0.8798091E-01
       -1   -1    0    0    0  501  0.00000000000E+00  0.00000000000E+00  0.35011533908E+03  0.35011533912E+03  0.50400001928E-02 0.  1.
        1   -1    0    0  501    0  0.00000000000E+00  0.00000000000E+00 -0.19136600673E+04  0.19136600673E+04  0.50400001928E-02 0. -1.
    10030    2    1    2    0    0  0.00000000000E+00  0.00000000000E+00 -0.15635447282E+04  0.22637754064E+04  0.16370726843E+04 0.  0.
        4    1    3    3  502    0  0.16992101703E+03 -0.66839274207E+03 -0.17211045038E+03  0.71080632363E+03  0.12699999809E+01 0.  1.
       -4    1    3    3    0  502 -0.16992101703E+03  0.66839274207E+03 -0.13914342778E+04  0.15529690828E+04  0.12699999809E+01 0. -1.
</event>
<event>
 5   0  0.1007567E-05  0.3118525E+04  0.7818609E-02  0.8210672E-01
        2   -1    0    0  501    0  0.00000000000E+00  0.00000000000E+00  0.18072493425E+04  0.18072493425E+04  0.25500000920E-02 0.  1.
       -2   -1    0    0    0  501  0.00000000000E+00  0.00000000000E+00 -0.13453036165E+04  0.13453036165E+04  0.25500000920E-02 0. -1.
    10030    2    1    2    0    0  0.00000000000E+00  0.00000000000E+00  0.46194572599E+03  0.31525529590E+04  0.31185247002E+04 0.  0.
        3    1    3    3  502    0  0.15036830051E+04  0.41237672778E+03  0.21733789153E+03  0.15742785379E+04  0.10100000352E+00 0.  1.
       -3    1    3    3    0  502 -0.15036830051E+04 -0.41237672778E+03  0.24460783445E+03  0.15782744212E+04  0.10100000352E+00 0. -1.
</event>
<event>
 5   0  0.1119100E-05  0.3470916E+04  0.7818609E-02  0.8120717E-01
       -2   -1    0    0    0  501  0.00000000000E+00  0.00000000000E+00  0.11711054296E+04  0.11711054296E+04  0.25500000920E-02 0. -1.
        2   -1    0    0  501    0  0.00000000000E+00  0.00000000000E+00 -0.25717706557E+04  0.25717706557E+04  0.25500000920E-02 0.  1.
    10030    2    1    2    0    0  0.00000000000E+00  0.00000000000E+00 -0.14006652261E+04  0.37428760853E+04  0.34709160628E+04 0.  0.
        2    1    3    3  502    0  0.16594743135E+04  0.28255933960E+01 -0.12480171116E+04  0.20763934338E+04  0.25500000920E-02 0.  1.
       -2    1    3    3    0  502 -0.16594743135E+04 -0.28255933960E+01 -0.15264811448E+03  0.16664826515E+04  0.25500000920E-02 0. -1.
</event>
<event>
 5   0  0.1108153E-05  0.3093623E+04  0.7818609E-02  0.8217490E-01
       -2   -1    0    0    0  501  0.00000000000E+00  0.00000000000E+00  0.84078364652E+03  0.84078364652E+03  0.25500000920E-02 0. -1.
        2   -1    0    0  501    0  0.00000000000E+00  0.00000000000E+00 -0.28457092845E+04  0.28457092845E+04  0.25500000920E-02 0.  1.
    10030    2    1    2    0    0  0.00000000000E+00  0.00000000000E+00 -0.20049256380E+04  0.36864929311E+04  0.30936230082E+04 0.  0.
        4    1    3    3  502    0 -0.50884221278E+03  0.13761381011E+04 -0.15861825226E+04  0.21607066156E+04  0.12699999809E+01 0.  1.
       -4    1    3    3    0  502  0.50884221278E+03 -0.13761381011E+04 -0.41874311542E+03  0.15257863155E+04  0.12699999809E+01 0. -1.
</event>
<event>
 5   0  0.1001961E-05  0.3133024E+04  0.7818609E-02  0.8206733E-01
       -2   -1    0    0    0  501  0.00000000000E+00  0.00000000000E+00  0.18217672568E+04  0.18217672568E+04  0.25500000920E-02 0. -1.
        2   -1    0    0  501    0  0.00000000000E+00  0.00000000000E+00 -0.13470213878E+04  0.13470213878E+04  0.25500000920E-02 0.  1.
    10030    2    1    2    0    0  0.00000000000E+00  0.00000000000E+00  0.47474586905E+03  0.31687886446E+04  0.31330237525E+04 0.  0.
        5    1    3    3  502    0 -0.11520228211E+03  0.12719331535E+04  0.11548398497E+04  0.17218486232E+04  0.46999998093E+01 0. -1.
       -5    1    3    3    0  502  0.11520228211E+03 -0.12719331535E+04 -0.68009398063E+03  0.14469400213E+04  0.46999998093E+01 0.  1.
</event>
<event>
 5   0  0.9797278E-06  0.2047023E+04  0.7818609E-02  0.8584946E-01
       -2   -1    0    0    0  501  0.00000000000E+00  0.00000000000E+00  0.10092691023E+04  0.10092691023E+04  0.25500000920E-02 0.  1.
        2   -1    0    0  501    0  0.00000000000E+00  0.00000000000E+00 -0.10379549169E+04  0.10379549169E+04  0.25500000920E-02 0. -1.
    10030    2    1    2    0    0  0.00000000000E+00  0.00000000000E+00 -0.28685814621E+02  0.20472240192E+04  0.20470230357E+04 0.  0.
        1    1    3    3  502    0 -0.36005772720E+03  0.47342284748E+03  0.81868849339E+03  0.10119395282E+04  0.50400001928E-02 0.  1.
       -1    1    3    3    0  502  0.36005772720E+03 -0.47342284748E+03 -0.84737430801E+03  0.10352844910E+04  0.50400001928E-02 0. -1.
</event>
<event>
 5   0  0.9797278E-06  0.2028327E+04  0.7818609E-02  0.8593490E-01
       -2   -1    0    0    0  501  0.00000000000E+00  0.00000000000E+00  0.12845405468E+04  0.12845405468E+04  0.25500000920E-02 0.  1.
        2   -1    0    0  501    0  0.00000000000E+00  0.00000000000E+00 -0.80069665867E+03  0.80069665867E+03  0.25500000920E-02 0. -1.
    10030    2    1    2    0    0  0.00000000000E+00  0.00000000000E+00  0.48384388817E+03  0.20852372055E+04  0.20283267230E+04 0.  0.
        1    1    3    3  502    0  0.28534183351E+03 -0.81226076833E+03  0.79300295931E+03  0.11704875955E+04  0.50400001928E-02 0.  1.
       -1    1    3    3    0  502 -0.28534183351E+03  0.81226076833E+03 -0.30915907114E+03  0.91474961001E+03  0.50400001928E-02 0. -1.
</event>
<event>
 5   0  0.4250961E-06  0.3049149E+04  0.7818609E-02  0.8229834E-01
       -1   -1    0    0    0  501  0.00000000000E+00  0.00000000000E+00  0.82714918875E+03  0.82714918876E+03  0.50400001928E-02 0.  1.
        1   -1    0    0  501    0  0.00000000000E+00  0.00000000000E+00 -0.28100467725E+04  0.28100467725E+04  0.50400001928E-02 0. -1.
    10030    2    1    2    0    0  0.00000000000E+00  0.00000000000E+00 -0.19828975837E+04  0.36371959612E+04  0.30491493294E+04 0.  0.
        1    1    3    3  502    0  0.12476271972E+04  0.87621532060E+03 -0.99025782847E+03  0.18179487007E+04  0.50400001928E-02 0. -1.
       -1    1    3    3    0  502 -0.12476271972E+04 -0.87621532060E+03 -0.99263975525E+03  0.18192472606E+04  0.50400001928E-02 0.  1.
</event>
<event>
 5   0  0.3848286E-06  0.3037384E+04  0.7818609E-02  0.8233135E-01
       -1   -1    0    0    0  501  0.00000000000E+00  0.00000000000E+00  0.12020543879E+04  0.12020543879E+04  0.50400001928E-02 0.  1.
        1   -1    0    0  501    0  0.00000000000E+00  0.00000000000E+00 -0.19187365106E+04  0.19187365106E+04  0.50400001928E-02 0. -1.
    10030    2    1    2    0    0  0.00000000000E+00  0.00000000000E+00 -0.71668212266E+03  0.31207908985E+04  0.30373841653E+04 0.  0.
        2    1    3    3  502    0  0.31318655560E+03  0.11324566557E+04  0.63030924951E+03  0.13333542836E+04  0.25500000920E-02 0.  1.
       -2    1    3    3    0  502 -0.31318655560E+03 -0.11324566557E+04 -0.13469913722E+04  0.17874366149E+04  0.25500000920E-02 0. -1.
</event>
<event>
 5   0  0.9797278E-06  0.2979068E+04  0.7818609E-02  0.8249734E-01
       -2   -1    0    0    0  501  0.00000000000E+00  0.00000000000E+00  0.88296934955E+03  0.88296934956E+03  0.25500000920E-02 0.  1.
        2   -1    0    0  501    0  0.00000000000E+00  0.00000000000E+00 -0.25127837228E+04  0.25127837228E+04  0.25500000920E-02 0. -1.
    10030    2    1    2    0    0  0.00000000000E+00  0.00000000000E+00 -0.16298143732E+04  0.33957530723E+04  0.29790676456E+04 0.  0.
        1    1    3    3  502    0  0.73448475901E+02 -0.14747000721E+04 -0.59102760209E+03  0.15904240339E+04  0.50400001928E-02 0.  1.
       -1    1    3    3    0  502 -0.73448475901E+02  0.14747000721E+04 -0.10387867711E+04  0.18053290384E+04  0.50400001928E-02 0. -1.
</event>
<event>
 5   0  0.3838525E-06  0.1865310E+04  0.7818609E-02  0.8672319E-01
        1   -1    0    0  501    0  0.00000000000E+00  0.00000000000E+00  0.11783627544E+04  0.11783627544E+04  0.50400001928E-02 0.  1.
       -1   -1    0    0    0  501  0.00000000000E+00  0.00000000000E+00 -0.73818103112E+03  0.73818103114E+03  0.50400001928E-02 0. -1.
    10030    2    1    2    0    0  0.00000000000E+00  0.00000000000E+00  0.44018172326E+03  0.19165437855E+04  0.18653096612E+04 0.  0.
        3    1    3    3  502    0 -0.43946418134E+03 -0.28031611010E+03 -0.57454638017E+03  0.77576377941E+03  0.10100000352E+00 0. -1.
       -3    1    3    3    0  502  0.43946418134E+03  0.28031611010E+03  0.10147281034E+04  0.11407800061E+04  0.10100000352E+00 0.  1.
</event>
<event>
 5   0  0.1001961E-05  0.3092321E+04  0.7818609E-02  0.8217849E-01
        2   -1    0    0  501    0  0.00000000000E+00  0.00000000000E+00  0.18909270134E+04  0.18909270134E+04  0.25500000920E-02 0. -1.
       -2   -1    0    0    0  501  0.00000000000E+00  0.00000000000E+00 -0.12642538827E+04  0.12642538827E+04  0.25500000920E-02 0.  1.
    10030    2    1    2    0    0  0.00000000000E+00  0.00000000000E+00  0.62667313073E+03  0.31551808961E+04  0.30923206940E+04 0.  0.
        5    1    3    3  502    0 -0.30281323476E+03  0.14212098311E+04 -0.22565975476E+03  0.14705365191E+04  0.46999998093E+01 0.  1.
       -5    1    3    3    0  502  0.30281323476E+03 -0.14212098311E+04  0.85233288548E+03  0.16846443770E+04  0.46999998093E+01 0. -1.
</event>
<event>
 5   0  0.3838525E-06  0.3094956E+04  0.7818609E-02  0.8217123E-01
       -1   -1    0    0    0  501  0.00000000000E+00  0.00000000000E+00  0.10967275534E+04  0.10967275534E+04  0.50400001928E-02 0. -1.
        1   -1    0    0  501    0  0.00000000000E+00  0.00000000000E+00 -0.21834855050E+04  0.21834855050E+04  0.50400001928E-02 0.  1.
    10030    2    1    2    0    0  0.00000000000E+00  0.00000000000E+00 -0.10867579515E+04  0.32802130584E+04  0.30949563589E+04 0.  0.
        3    1    3    3  502    0 -0.44300453236E+03 -0.19548888817E+03 -0.21011244326E+04  0.21561986950E+04  0.10100000352E+00 0.  1.
       -3    1    3    3    0  502  0.44300453236E+03  0.19548888817E+03  0.10143664810E+04  0.11240143634E+04  0.10100000352E+00 0. -1.
</event>
<event>
 5   0  0.1119100E-05  0.3206357E+04  0.7818609E-02  0.8187140E-01
        2   -1    0    0  501    0  0.00000000000E+00  0.00000000000E+00  0.13025585734E+04  0.13025585734E+04  0.25500000920E-02 0.  1.
       -2   -1    0    0    0  501  0.00000000000E+00  0.00000000000E+00 -0.19731796613E+04  0.19731796613E+04  0.25500000920E-02 0. -1.
    10030    2    1    2    0    0  0.00000000000E+00  0.00000000000E+00 -0.67062108788E+03  0.32757382347E+04  0.32063574877E+04 0.  0.
        2    1    3    3  502    0  0.62491358736E+02 -0.87585799251E+02 -0.19694869082E+04  0.19724236674E+04  0.25500000920E-02 0. -1.
       -2    1    3    3    0  502 -0.62491358736E+02  0.87585799251E+02  0.12988658203E+04  0.13033145673E+04  0.25500000920E-02 0.  1.
</event>
<event>
 5   0  0.3807334E-06  0.2748603E+04  0.7818609E-02  0.8319405E-01
       -1   -1    0    0    0  501  0.00000000000E+00  0.00000000000E+00  0.12098104437E+04  0.12098104437E+04  0.50400001928E-02 0.  1.
        1   -1    0    0  501    0  0.00000000000E+00  0.00000000000E+00 -0.15611576250E+04  0.15611576250E+04  0.50400001928E-02 0. -1.
    10030    2    1    2    0    0  0.00000000000E+00  0.00000000000E+00 -0.35134718133E+03  0.27709680687E+04  0.27486031354E+04 0.  0.
        4    1    3    3  502    0 -0.28277360809E+03  0.50672881074E+03 -0.14315904508E+04  0.15447290483E+04  0.12699999809E+01 0. -1.
       -4    1    3    3    0  502  0.28277360809E+03 -0.50672881074E+03  0.10802432695E+04  0.12262390204E+04  0.12699999809E+01 0.  1.
</event>
<event>
 5   0  0.4139628E-06  0.3222956E+04  0.7818609E-02  0.8182781E-01
       -1   -1    0    0    0  501  0.00000000000E+00  0.00000000000E+00  0.90574973288E+03  0.90574973289E+03  0.50400001928E-02 0. -1.
        1   -1    0    0  501    0  0.00000000000E+00  0.00000000000E+00 -0.28670847245E+04  0.28670847245E+04  0.50400001928E-02 0.  1.
    10030    2    1    2    0    0  0.00000000000E+00  0.00000000000E+00 -0.19613349916E+04  0.37728344574E+04  0.32229559249E+04 0.  0.
        5    1    3    3  502    0  0.49613673959E+03  0.60700547713E+03 -0.26287942339E+04  0.27432077077E+04  0.46999998093E+01 0.  1.
       -5    1    3    3    0  502 -0.49613673959E+03 -0.60700547713E+03  0.66745924223E+03  0.10296267497E+04  0.46999998093E+01 0. -1.
</event>
<event>
 5   0  0.4250961E-06  0.3106111E+04  0.7818609E-02  0.8214063E-01
        1   -1    0    0  501    0  0.00000000000E+00  0.00000000000E+00  0.29102650994E+04  0.29102650994E+04  0.50400001928E-02 0. -1.
       -1   -1    0    0    0  501  0.00000000000E+00  0.00000000000E+00 -0.82878400948E+03  0.82878400949E+03  0.50400001928E-02 0.  1.
    10030    2    1    2    0    0  0.00000000000E+00  0.00000000000E+00  0.20814810899E+04  0.37390491089E+04  0.31061108658E+04 0.  0.
        1    1    3    3  502    0 -0.39660510551E+03  0.39417226944E+03  0.27848867834E+04  0.28404685853E+04  0.50400001928E-02 0. -1.
       -1    1    3    3    0  502  0.39660510551E+03 -0.39417226944E+03 -0.70340569349E+03  0.89858052358E+03  0.50400001928E-02 0.  1.
</event>
<event>
 5   0  0.3848286E-06  0.2353718E+04  0.7818609E-02  0.8457037E-01
        1   -1    0    0  501    0  0.00000000000E+00  0.00000000000E+00  0.11889323358E+04  0.11889323358E+04  0.50400001928E-02 0.  1.
       -1   -1    0    0    0  501  0.00000000000E+00  0.00000000000E+00 -0.11649080286E+04  0.11649080286E+04  0.50400001928E-02 0. -1.
    10030    2    1    2    0    0  0.00000000000E+00  0.00000000000E+00  0.24024307215E+02  0.23538403643E+04  0.23537177599E+04 0.  0.
        2    1    3    3  502    0 -0.90585549090E+03 -0.67959758209E+03 -0.30826969933E+03  0.11736512478E+04  0.25500000920E-02 0. -1.
       -2    1    3    3    0  502  0.90585549090E+03  0.67959758209E+03  0.33229400655E+03  0.11801891165E+04  0.25500000920E-02 0.  1.
</event>
<event>
 5   0  0.1007567E-05  0.1983026E+04  0.7818609E-02  0.8614598E-01
       -2   -1    0    0    0  501  0.00000000000E+00  0.00000000000E+00  0.48257152934E+03  0.48257152934E+03  0.25500000920E-02 0. -1.
        2   -1    0    0  501    0  0.00000000000E+00  0.00000000000E+00 -0.20372062726E+04  0.20372062726E+04  0.25500000920E-02 0.  1.
    10030    2    1    2    0    0  0.00000000000E+00  0.00000000000E+00 -0.15546347432E+04  0.25197778019E+04  0.19830257150E+04 0.  0.
        3    1    3    3  502    0  0.60127082431E+03  0.60300751972E+02 -0.17761788850E+04  0.18761594353E+04  0.10100000352E+00 0.  1.
       -3    1    3    3    0  502 -0.60127082431E+03 -0.60300751972E+02  0.22154414181E+03  0.64361836660E+03  0.10100000352E+00 0. -1.
</event>
<event>
 5   0  0.9797278E-06  0.1652323E+04  0.7818609E-02  0.8789034E-01
        2   -1    0    0  501    0  0.00000000000E+00  0.00000000000E+00  0.59378028636E+03  0.59378028637E+03  0.25500000920E-02 0.  1.
       -2   -1    0    0    0  501  0.00000000000E+00  0.00000000000E+00 -0.11494867476E+04  0.11494867476E+04  0.25500000920E-02 0. -1.
    10030    2    1    2    0    0  0.00000000000E+00  0.00000000000E+00 -0.55570646121E+03  0.17432670340E+04  0.16523226926E+04 0.  0.
        1    1    3    3  502    0 -0.70349186615E+03  0.16213789021E+03  0.14594356164E+03  0.73653854236E+03  0.50400001928E-02 0.  1.
       -1    1    3    3    0  502  0.70349186615E+03 -0.16213789021E+03 -0.70165002286E+03  0.10067284916E+04  0.50400001928E-02 0. -1.
</event>
<event>
 5   0  0.3848286E-06  0.3084198E+04  0.7818609E-02  0.8220088E-01
       -1   -1    0    0    0  501  0.00000000000E+00  0.00000000000E+00  0.74674097236E+03  0.74674097238E+03  0.50400001928E-02 0.  1.
        1   -1    0    0  501    0  0.00000000000E+00  0.00000000000E+00 -0.31845980257E+04  0.31845980257E+04  0.50400001928E-02 0. -1.
    10030    2    1    2    0    0  0.00000000000E+00  0.00000000000E+00 -0.24378570533E+04  0.39313389981E+04  0.30841983246E+04 0.  0.
        2    1    3    3  502    0 -0.96870081186E+03 -0.51541137898E+03  0.16221745479E+03  0.11092090223E+04  0.25500000920E-02 0.  1.
       -2    1    3    3    0  502  0.96870081186E+03  0.51541137898E+03 -0.26000745081E+04  0.28221299758E+04  0.25500000920E-02 0. -1.
</event>
<event>
 5   0  0.3807334E-06  0.2326732E+04  0.7818609E-02  0.8467455E-01
       -1   -1    0    0    0  501  0.00000000000E+00  0.00000000000E+00  0.79486595904E+03  0.79486595906E+03  0.50400001928E-02 0.  1.
        1   -1    0    0  501    0  0.00000000000E+00  0.00000000000E+00 -0.17027030324E+04  0.17027030324E+04  0.50400001928E-02 0. -1.
    10030    2    1    2    0    0  0.00000000000E+00  0.00000000000E+00 -0.90783707338E+03  0.24975689915E+04  0.23267321968E+04 0.  0.
        4    1    3    3  502    0 -0.69021073525E+02 -0.83620116221E+03 -0.13189558703E+04  0.15632154340E+04  0.12699999809E+01 0. -1.
       -4    1    3    3    0  502  0.69021073525E+02  0.83620116221E+03  0.41111879696E+03  0.93435355749E+03  0.12699999809E+01 0.  1.
</event>
<event>
 5   0  0.3838525E-06  0.3093282E+04  0.7818609E-02  0.8217584E-01
       -1   -1    0    0    0  501  0.00000000000E+00  0.00000000000E+00  0.17060979518E+04  0.17060979518E+04  0.50400001928E-02 0.  1.
        1   -1    0    0  501    0  0.00000000000E+00  0.00000000000E+00 -0.14020869456E+04  0.14020869456E+04  0.50400001928E-02 0. -1.
    10030    2    1    2    0    0  0.00000000000E+00  0.00000000000E+00  0.30401100619E+03  0.31081848973E+04  0.30932815365E+04 0.  0.
        3    1    3    3  502    0 -0.50585033753E+03  0.12584996642E+04  0.89881694588E+03  0.16271379417E+04  0.10100000352E+00 0.  1.
       -3    1    3    3    0  502  0.50585033753E+03 -0.12584996642E+04 -0.59480593968E+03  0.14810469557E+04  0.10100000352E+00 0. -1.
</event>
<event>
 5   0  0.3807334E-06  0.3083648E+04  0.7818609E-02  0.8220240E-01
        1   -1    0    0  501    0  0.00000000000E+00  0.00000000000E+00  0.11660955659E+04  0.11660955659E+04  0.50400001928E-02 0.  1.
       -1   -1    0    0    0  501  0.00000000000E+00  0.00000000000E+00 -0.20386156637E+04  0.20386156637E+04  0.50400001928E-02 0. -1.
    10030    2    1    2    0    0  0.00000000000E+00  0.00000000000E+00 -0.87252009784E+03  0.32047112296E+04  0.30836476361E+04 0.  0.
        4    1    3    3  502    0 -0.67181656056E+03 -0.24114871660E+03 -0.18565632735E+04  0.19890497722E+04  0.12699999809E+01 0. -1.
       -4    1    3    3    0  502  0.67181656056E+03  0.24114871660E+03  0.98404317569E+03  0.12156614574E+04  0.12699999809E+01 0.  1.
</event>
<event>
 5   0  0.1119100E-05  0.3001753E+04  0.7818609E-02  0.8243230E-01
        2   -1    0    0  501    0  0.00000000000E+00  0.00000000000E+00  0.13835474087E+04  0.13835474087E+04  0.25500000920E-02 0. -1.
       -2   -1    0    0    0  501  0.00000000000E+00  0.00000000000E+00 -0.16281559311E+04  0.16281559311E+04  0.25500000920E-02 0.  1.
    10030    2    1    2    0    0  0.00000000000E+00  0.00000000000E+00 -0.24460852241E+03  0.30117033399E+04  0.30017534339E+04 0.  0.
        2    1    3    3  502    0 -0.93654979239E+03  0.73258809777E+03 -0.10412113140E+04  0.15804846836E+04  0.25500000920E-02 0.  1.
       -2    1    3    3    0  502  0.93654979239E+03 -0.73258809777E+03  0.79660279156E+03  0.14312186563E+04  0.25500000920E-02 0. -1.
</event>
<event>
 5   0  0.9797278E-06  0.3024500E+04  0.7818609E-02  0.8236769E-01
       -2   -1    0    0    0  501  0.00000000000E+00  0.00000000000E+00  0.12776600302E+04  0.12776600302E+04  0.25500000920E-02 0. -1.
        2   -1    0    0  501    0  0.00000000000E+00  0.00000000000E+00 -0.17899125706E+04  0.17899125706E+04  0.25500000920E-02 0.  1.
    10030    2    1    2    0    0  0.00000000000E+00  0.00000000000E+00 -0.51225254041E+03  0.30675726008E+04  0.30244997927E+04 0.  0.
        1    1    3    3  502    0 -0.26711161287E+03  0.14021742033E+04 -0.76269755173E+03  0.16183784062E+04  0.50400001928E-02 0.  1.
       -1    1    3    3    0  502  0.26711161287E+03 -0.14021742033E+04  0.25044501132E+03  0.14491941947E+04  0.50400001928E-02 0. -1.
</event>
<event>
 5   0  0.4250961E-06  0.2215047E+04  0.7818609E-02  0.8512191E-01
       -1   -1    0    0    0  501  0.00000000000E+00  0.00000000000E+00  0.72928371187E+03  0.72928371189E+03  0.50400001928E-02 0. -1.
        1   -1    0    0  501    0  0.00000000000E+00  0.00000000000E+00 -0.16819362988E+04  0.16819362988E+04  0.50400001928E-02 0.  1.
    10030    2    1    2    0    0  0.00000000000E+00  0.00000000000E+00 -0.95265258697E+03  0.24112200107E+04  0.22150474010E+04 0.  0.
        1    1    3    3  502    0  0.38909115119E+03 -0.49745033433E+03 -0.14667157989E+04  0.15969045037E+04  0.50400001928E-02 0.  1.
       -1    1    3    3    0  502 -0.38909115119E+03  0.49745033433E+03  0.51406321198E+03  0.81431550703E+03  0.50400001928E-02 0. -1.
</event>
<event>
 5   0  0.1119100E-05  0.3083545E+04  0.7818609E-02  0.8220268E-01
        2   -1    0    0  501    0  0.00000000000E+00  0.00000000000E+00  0.12735900960E+04  0.12735900960E+04  0.25500000920E-02 0.  1.
       -2   -1    0    0    0  501  0.00000000000E+00  0.00000000000E+00 -0.18664267381E+04  0.18664267381E+04  0.25500000920E-02 0. -1.
    10030    2    1    2    0    0  0.00000000000E+00  0.00000000000E+00 -0.59283664212E+03  0.31400168341E+04  0.30835451082E+04 0.  0.
        2    1    3    3  502    0 -0.61927938855E+03  0.72987228993E+03 -0.15272064727E+04  0.18023817939E+04  0.25500000920E-02 0. -1.
       -2    1    3    3    0  502  0.61927938855E+03 -0.72987228993E+03  0.93436983054E+03  0.13376350403E+04  0.25500000920E-02 0.  1.
</event>
<event>
 5   0  0.3838525E-06  0.3115470E+04  0.7818609E-02  0.8211505E-01
        1   -1    0    0  501    0  0.00000000000E+00  0.00000000000E+00  0.25286222364E+04  0.25286222364E+04  0.50400001928E-02 0. -1.
       -1   -1    0    0    0  501  0.00000000000E+00  0.00000000000E+00 -0.95962883599E+03  0.95962883601E+03  0.50400001928E-02 0.  1.
    10030    2    1    2    0    0  0.00000000000E+00  0.00000000000E+00  0.15689934004E+04  0.34882510724E+04  0.31154703102E+04 0.  0.
        3    1    3    3  502    0  0.11740992136E+04 -0.79757604968E+03  0.15030867842E+04  0.20673428379E+04  0.10100000352E+00 0. -1.
       -3    1    3    3    0  502 -0.11740992136E+04  0.79757604968E+03  0.65906616198E+02  0.14209082345E+04  0.10100000352E+00 0.  1.
</event>
<event>
 5   0  0.9797278E-06  0.2167580E+04  0.7818609E-02  0.8532044E-01
       -2   -1    0    0    0  501  0.00000000000E+00  0.00000000000E+00  0.94007889732E+03  0.94007889733E+03  0.25500000920E-02 0. -1.
        2   -1    0    0  501    0  0.00000000000E+00  0.00000000000E+00 -0.12494704879E+04  0.12494704879E+04  0.25500000920E-02 0.  1.
    10030    2    1    2    0    0  0.00000000000E+00  0.00000000000E+00 -0.30939159054E+03  0.21895493852E+04  0.21675800686E+04 0.  0.
        1    1    3    3  502    0 -0.92306055736E+02 -0.95484639188E+03 -0.66413743711E+03  0.11667607190E+04  0.50400001928E-02 0.  1.
       -1    1    3    3    0  502  0.92306055736E+02  0.95484639188E+03  0.35474584657E+03  0.10227886662E+04  0.50400001928E-02 0. -1.
</event>
<event>
 5   0  0.3838525E-06  0.2975785E+04  0.7818609E-02  0.8250680E-01
        1   -1    0    0  501    0  0.00000000000E+00  0.00000000000E+00  0.12661987670E+04  0.12661987670E+04  0.50400001928E-02 0.  1.
       -1   -1    0    0    0  501  0.00000000000E+00  0.00000000000E+00 -0.17484019165E+04  0.17484019165E+04  0.50400001928E-02 0. -1.
    10030    2    1    2    0    0  0.00000000000E+00  0.00000000000E+00 -0.48220314947E+03  0.30146006835E+04  0.29757851743E+04 0.  0.
        3    1    3    3  502    0 -0.12389640837E+04  0.62208156177E+03 -0.78833923067E+03  0.15948342306E+04  0.10100000352E+00 0.  1.
       -3    1    3    3    0  502  0.12389640837E+04 -0.62208156177E+03  0.30613608120E+03  0.14197664529E+04  0.10100000352E+00 0. -1.
</event>
<event>
 5   0  0.1001961E-05  0.3073432E+04  0.7818609E-02  0.8223067E-01
        2   -1    0    0  501    0  0.00000000000E+00  0.00000000000E+00  0.17013708731E+04  0.17013708731E+04  0.25500000920E-02 0. -1.
       -2   -1    0    0    0  501  0.00000000000E+00  0.00000000000E+00 -0.13879959999E+04  0.13879959999E+04  0.25500000920E-02 0.  1.
    10030    2    1    2    0    0  0.00000000000E+00  0.00000000000E+00  0.31337487313E+03  0.30893668730E+04  0.30734319359E+04 0.  0.
        5    1    3    3  502    0  0.10645306045E+03  0.38596643202E+03 -0.13346393882E+04  0.13934083132E+04  0.46999998093E+01 0.  1.
       -5    1    3    3    0  502 -0.10645306045E+03 -0.38596643202E+03  0.16480142614E+04  0.16959585598E+04  0.46999998093E+01 0. -1.
</event>
<event>
 5   0  0.9797278E-06  0.2997127E+04  0.7818609E-02  0.8244552E-01
       -2   -1    0    0    0  501  0.00000000000E+00  0.00000000000E+00  0.13455089203E+04  0.13455089203E+04  0.25500000920E-02 0.  1.
        2   -1    0    0  501    0  0.00000000000E+00  0.00000000000E+00 -0.16690286149E+04  0.16690286149E+04  0.25500000920E-02 0. -1.
    10030    2    1    2    0    0  0.00000000000E+00  0.00000000000E+00 -0.32351969459E+03  0.30145375351E+04  0.29971272175E+04 0.  0.
        1    1    3    3  502    0 -0.40051368426E+03  0.12405893898E+04 -0.90511982590E+03  0.15870460437E+04  0.50400001928E-02 0. -1.
       -1    1    3    3    0  502  0.40051368426E+03 -0.12405893898E+04  0.58160013131E+03  0.14274914915E+04  0.50400001928E-02 0.  1.
</event>
<event>
 5   0  0.3848286E-06  0.2945198E+04  0.7818609E-02  0.8259555E-01
       -1   -1    0    0    0  501  0.00000000000E+00  0.00000000000E+00  0.12646927043E+04  0.12646927043E+04  0.50400001928E-02 0. -1.
        1   -1    0    0  501    0  0.00000000000E+00  0.00000000000E+00 -0.17146835848E+04  0.17146835848E+04  0.50400001928E-02 0.  1.
    10030    2    1    2    0    0  0.00000000000E+00  0.00000000000E+00 -0.44999088054E+03  0.29793762891E+04  0.29451980034E+04 0.  0.
        2    1    3    3  502    0  0.73809965709E+03  0.42364564469E+03 -0.14407242860E+04  0.16733060701E+04  0.25500000920E-02 0.  1.
       -2    1    3    3    0  502 -0.73809965709E+03 -0.42364564469E+03  0.99073340546E+03  0.13060702189E+04  0.25500000920E-02 0. -1.
</event>
<event>
 5   0  0.1119100E-05  0.3074134E+04  0.7818609E-02  0.8222873E-01
       -2   -1    0    0    0  501  0.00000000000E+00  0.00000000000E+00  0.87981164769E+03  0.87981164769E+03  0.25500000920E-02 0.  1.
        2   -1    0    0  501    0  0.00000000000E+00  0.00000000000E+00 -0.26853196675E+04  0.26853196675E+04  0.25500000920E-02 0. -1.
    10030    2    1    2    0    0  0.00000000000E+00  0.00000000000E+00 -0.18055080198E+04  0.35651313152E+04  0.30741343635E+04 0.  0.
        2    1    3    3  502    0 -0.11658137645E+04 -0.40262938146E+03 -0.19665033984E+04  0.23212858006E+04  0.25500000920E-02 0. -1.
       -2    1    3    3    0  502  0.11658137645E+04  0.40262938146E+03  0.16099537859E+03  0.12438455146E+04  0.25500000920E-02 0.  1.
</event>
<event>
 5   0  0.9797278E-06  0.3082648E+04  0.7818609E-02  0.8220516E-01
       -2   -1    0    0    0  501  0.00000000000E+00  0.00000000000E+00  0.95198243061E+03  0.95198243061E+03  0.25500000920E-02 0. -1.
        2   -1    0    0  501    0  0.00000000000E+00  0.00000000000E+00 -0.24955074273E+04  0.24955074273E+04  0.25500000920E-02 0.  1.
    10030    2    1    2    0    0  0.00000000000E+00  0.00000000000E+00 -0.15435249967E+04  0.34474898579E+04  0.30826477102E+04 0.  0.
        1    1    3    3  502    0  0.28094801748E+02 -0.12864688361E+04 -0.17206429967E+04  0.21485817895E+04  0.50400001928E-02 0.  1.
       -1    1    3    3    0  502 -0.28094801748E+02  0.12864688361E+04  0.17711799996E+03  0.12989080684E+04  0.50400001928E-02 0. -1.
</event>
<event>
 5   0  0.3848286E-06  0.3098367E+04  0.7818609E-02  0.8216186E-01
       -1   -1    0    0    0  501  0.00000000000E+00  0.00000000000E+00  0.15583457307E+04  0.15583457307E+04  0.50400001928E-02 0. -1.
        1   -1    0    0  501    0  0.00000000000E+00  0.00000000000E+00 -0.15400749407E+04  0.15400749407E+04  0.50400001928E-02 0.  1.
    10030    2    1    2    0    0  0.00000000000E+00  0.00000000000E+00  0.18270789974E+02  0.30984206713E+04  0.30983668012E+04 0.  0.
        2    1    3    3  502    0  0.20857303618E+03 -0.14218545263E+04 -0.56949043000E+03  0.15457982906E+04  0.25500000920E-02 0.  1.
       -2    1    3    3    0  502 -0.20857303618E+03  0.14218545263E+04  0.58776121997E+03  0.15526223807E+04  0.25500000920E-02 0. -1.
</event>
<event>
 5   0  0.3807334E-06  0.1533912E+04  0.7818609E-02  0.8862210E-01
        1   -1    0    0  501    0  0.00000000000E+00  0.00000000000E+00  0.15209043205E+04  0.15209043205E+04  0.50400001928E-02 0.  1.
       -1   -1    0    0    0  501  0.00000000000E+00  0.00000000000E+00 -0.38675767114E+03  0.38675767117E+03  0.50400001928E-02 0. -1.
    10030    2    1    2    0    0  0.00000000000E+00  0.00000000000E+00  0.11341466494E+04  0.19076619917E+04  0.15339118789E+04 0.  0.
        4    1    3    3  502    0  0.82740958731E+02  0.12710249334E+03 -0.36792164272E+03  0.39795610077E+03  0.12699999809E+01 0. -1.
       -4    1    3    3    0  502 -0.82740958731E+02 -0.12710249334E+03  0.15020682921E+04  0.15097058909E+04  0.12699999809E+01 0.  1.
</event>
<event>
 5   0  0.1001961E-05  0.3261870E+04  0.7818609E-02  0.8172666E-01
       -2   -1    0    0    0  501  0.00000000000E+00  0.00000000000E+00  0.15432789262E+04  0.15432789262E+04  0.25500000920E-02 0.  1.
        2   -1    0    0  501    0  0.00000000000E+00  0.00000000000E+00 -0.17235694636E+04  0.17235694636E+04  0.25500000920E-02 0. -1.
    10030    2    1    2    0    0  0.00000000000E+00  0.00000000000E+00 -0.18029053739E+03  0.32668483898E+04  0.32618696669E+04 0.  0.
        5    1    3    3  502    0  0.97404671035E+03  0.10840672230E+04 -0.82335394219E+03  0.16738884497E+04  0.46999998093E+01 0. -1.
       -5    1    3    3    0  502 -0.97404671035E+03 -0.10840672230E+04  0.64306340480E+03  0.15929599401E+04  0.46999998093E+01 0.  1.
</event>
<event>
 5   0  0.3838525E-06  0.3100391E+04  0.7818609E-02  0.8215631E-01
        1   -1    0    0  501    0  0.00000000000E+00  0.00000000000E+00  0.15682710001E+04  0.15682710001E+04  0.50400001928E-02 0.  1.
       -1   -1    0    0    0  501  0.00000000000E+00  0.00000000000E+00 -0.15323283085E+04  0.15323283085E+04  0.50400001928E-02 0. -1.
    10030    2    1    2    0    0  0.00000000000E+00  0.00000000000E+00  0.35942691632E+02  0.31005993086E+04  0.31003909746E+04 0.  0.
        3    1    3    3  502    0  0.35175177776E+03  0.61909126435E+03  0.13950543359E+04  0.15662630421E+04  0.10100000352E+00 0.  1.
       -3    1    3    3    0  502 -0.35175177776E+03 -0.61909126435E+03 -0.13591116443E+04  0.15343362665E+04  0.10100000352E+00 0. -1.
</event>
<event>
 5   0  0.3838525E-06  0.3058790E+04  0.7818609E-02  0.8227140E-01
        1   -1    0    0  501    0  0.00000000000E+00  0.00000000000E+00  0.20032000313E+04  0.20032000313E+04  0.50400001928E-02 0. -1.
       -1   -1    0    0    0  501  0.00000000000E+00  0.00000000000E+00 -0.11676558960E+04  0.11676558960E+04  0.50400001928E-02 0.  1.
    10030    2    1    2    0    0  0.00000000000E+00  0.00000000000E+00  0.83554413530E+03  0.31708559274E+04  0.30587895171E+04 0.  0.
        3    1    3    3  502    0  0.13192726146E+04  0.54229389774E+03 -0.15424654875E+03  0.14346968011E+04  0.10100000352E+00 0.  1.
       -3    1    3    3    0  502 -0.13192726146E+04 -0.54229389774E+03  0.98979068405E+03  0.17361591262E+04  0.10100000352E+00 0. -1.
</event>
<event>
 5   0  0.1007567E-05  0.2969742E+04  0.7818609E-02  0.8252424E-01
        2   -1    0    0  501    0  0.00000000000E+00  0.00000000000E+00  0.19268361962E+04  0.19268361962E+04  0.25500000920E-02 0.  1.
       -2   -1    0    0    0  501  0.00000000000E+00  0.00000000000E+00 -0.11442806977E+04  0.11442806977E+04  0.25500000920E-02 0. -1.
    10030    2    1    2    0    0  0.00000000000E+00  0.00000000000E+00  0.78255549850E+03  0.30711168939E+04  0.29697417174E+04 0.  0.
        3    1    3    3  502    0  0.80482504984E+03 -0.25922070186E+03 -0.87100493391E+03  0.12139144691E+04  0.10100000352E+00 0. -1.
       -3    1    3    3    0  502 -0.80482504984E+03  0.25922070186E+03  0.16535604324E+04  0.18572024249E+04  0.10100000352E+00 0.  1.
</event>
<event>
 5   0  0.1001961E-05  0.3063962E+04  0.7818609E-02  0.8225698E-01
        2   -1    0    0  501    0  0.00000000000E+00  0.00000000000E+00  0.18327918605E+04  0.18327918605E+04  0.25500000920E-02 0.  1.
       -2   -1    0    0    0  501  0.00000000000E+00  0.00000000000E+00 -0.12805410958E+04  0.12805410958E+04  0.25500000920E-02 0. -1.
    10030    2    1    2    0    0  0.00000000000E+00  0.00000000000E+00  0.55225076477E+03  0.31133329563E+04  0.30639616821E+04 0.  0.
        5    1    3    3  502    0 -0.62142689945E+03 -0.33561664802E+03  0.16574917667E+04  0.18016966927E+04  0.46999998093E+01 0.  1.
       -5    1    3    3    0  502  0.62142689945E+03  0.33561664802E+03 -0.11052410019E+04  0.13116362636E+04  0.46999998093E+01 0. -1.
</event>
<event>
 5   0  0.4139628E-06  0.3076059E+04  0.7818609E-02  0.8222339E-01
        1   -1    0    0  501    0  0.00000000000E+00  0.00000000000E+00  0.25291342780E+04  0.25291342780E+04  0.50400001928E-02 0. -1.
       -1   -1    0    0    0  501  0.00000000000E+00  0.00000000000E+00 -0.93531400144E+03  0.93531400146E+03  0.50400001928E-02 0.  1.
    10030    2    1    2    0    0  0.00000000000E+00  0.00000000000E+00  0.15938202765E+04  0.34644482794E+04  0.30760589733E+04 0.  0.
        5    1    3    3  502    0  0.61849488254E+02  0.51275027105E+03  0.24285424798E+04  0.24828569967E+04  0.46999998093E+01 0. -1.
       -5    1    3    3    0  502 -0.61849488254E+02 -0.51275027105E+03 -0.83472220331E+03  0.98159128274E+03  0.46999998093E+01 0.  1.
</event>
<event>
 5   0  0.3848286E-06  0.3126565E+04  0.7818609E-02  0.8208485E-01
       -1   -1    0    0    0  501  0.00000000000E+00  0.00000000000E+00  0.12690868124E+04  0.12690868124E+04  0.50400001928E-02 0.  1.
        1   -1    0    0  501    0  0.00000000000E+00  0.00000000000E+00 -0.19256774405E+04  0.19256774405E+04  0.50400001928E-02 0. -1.
    10030    2    1    2    0    0  0.00000000000E+00  0.00000000000E+00 -0.65659062815E+03  0.31947642529E+04  0.31265647888E+04 0.  0.
        2    1    3    3  502    0  0.96544568728E+03 -0.53053940778E+03 -0.14616762636E+04  0.18303155296E+04  0.25500000920E-02 0. -1.
       -2    1    3    3    0  502 -0.96544568728E+03  0.53053940778E+03  0.80508563541E+03  0.13644487233E+04  0.25500000920E-02 0.  1.
</event>
<event>
 5   0  0.9797278E-06  0.3138499E+04  0.7818609E-02  0.8205251E-01
        2   -1    0    0  501    0  0.00000000000E+00  0.00000000000E+00  0.17555989963E+04  0.17555989963E+04  0.25500000920E-02 0.  1.
       -2   -1    0    0    0  501  0.00000000000E+00  0.00000000000E+00 -0.14026805147E+04  0.14026805147E+04  0.25500000920E-02 0. -1.
    10030    2    1    2    0    0  0.00000000000E+00  0.00000000000E+00  0.35291848159E+03  0.31582795109E+04  0.31384993252E+04 0.  0.
        1    1    3    3  502    0  0.25163231508E+03 -0.93566413931E+03 -0.10657265737E+04  0.14403330634E+04  0.50400001928E-02 0. -1.
       -1    1    3    3    0  502 -0.25163231508E+03  0.93566413931E+03  0.14186450553E+04  0.17179464475E+04  0.50400001928E-02 0.  1.
</event>
<event>
 5   0  0.1001961E-05  0.1559287E+04  0.7818609E-02  0.8845957E-01
        2   -1    0    0  501    0  0.00000000000E+00  0.00000000000E+00  0.14147165862E+04  0.14147165862E+04  0.25500000920E-02 0.  1.
       -2   -1    0    0    0  501  0.00000000000E+00  0.00000000000E+00 -0.42965787184E+03  0.42965787185E+03  0.25500000920E-02 0. -1.
    10030    2    1    2    0    0  0.00000000000E+00  0.00000000000E+00  0.98505871439E+03  0.18443744581E+04  0.15592871675E+04 0.  0.
        5    1    3    3  502    0 -0.64638077457E+03 -0.25693567763E+03  0.76014690487E+02  0.69973164237E+03  0.46999998093E+01 0. -1.
       -5    1    3    3    0  502  0.64638077457E+03  0.25693567763E+03  0.90904402390E+03  0.11446428157E+04  0.46999998093E+01 0.  1.
</event>
<event>
 5   0  0.4250961E-06  0.3168377E+04  0.7818609E-02  0.8197219E-01
       -1   -1    0    0    0  501  0.00000000000E+00  0.00000000000E+00  0.16981558270E+04  0.16981558270E+04  0.50400001928E-02 0.  1.
        1   -1    0    0  501    0  0.00000000000E+00  0.00000000000E+00 -0.14778700379E+04  0.14778700379E+04  0.50400001928E-02 0. -1.
    10030    2    1    2    0    0  0.00000000000E+00  0.00000000000E+00  0.22028578907E+03  0.31760258650E+04  0.31683772607E+04 0.  0.
        1    1    3    3  502    0  0.11941878071E+04 -0.38692207960E+03  0.10788402703E+04  0.16552007561E+04  0.50400001928E-02 0.  1.
       -1    1    3    3    0  502 -0.11941878071E+04  0.38692207960E+03 -0.85855448124E+03  0.15208251088E+04  0.50400001928E-02 0. -1.
</event>
<event>
 5   0  0.1119100E-05  0.3165649E+04  0.7818609E-02  0.8197948E-01
       -2   -1    0    0    0  501  0.00000000000E+00  0.00000000000E+00  0.11919134929E+04  0.11919134929E+04  0.25500000920E-02 0. -1.
        2   -1    0    0  501    0  0.00000000000E+00  0.00000000000E+00 -0.21019426638E+04  0.21019426638E+04  0.25500000920E-02 0.  1.
    10030    2    1    2    0    0  0.00000000000E+00  0.00000000000E+00 -0.91002917099E+03  0.32938561567E+04  0.31656492682E+04 0.  0.
        2    1    3    3  502    0 -0.64686358854E+03  0.10620497634E+04 -0.14739348079E+04  0.19284361592E+04  0.25500000920E-02 0.  1.
       -2    1    3    3    0  502  0.64686358854E+03 -0.10620497634E+04  0.56390563692E+03  0.13654199975E+04  0.25500000920E-02 0. -1.
</event>
<event>
 5   0  0.3848286E-06  0.3136589E+04  0.7818609E-02  0.8205767E-01
       -1   -1    0    0    0  501  0.00000000000E+00  0.00000000000E+00  0.15478781987E+04  0.15478781987E+04  0.50400001928E-02 0. -1.
        1   -1    0    0  501    0  0.00000000000E+00  0.00000000000E+00 -0.15889805288E+04  0.15889805288E+04  0.50400001928E-02 0.  1.
    10030    2    1    2    0    0  0.00000000000E+00  0.00000000000E+00 -0.41102330135E+02  0.31368587276E+04  0.31365894336E+04 0.  0.
        2    1    3    3  502    0  0.28188527576E+03  0.54373098026E+03 -0.14644360529E+04  0.15873486198E+04  0.25500000920E-02 0.  1.
       -2    1    3    3    0  502 -0.28188527576E+03 -0.54373098026E+03  0.14233337228E+04  0.15495101078E+04  0.25500000920E-02 0. -1.
</event>
<event>
 5   0  0.9797278E-06  0.3133622E+04  0.7818609E-02  0.8206571E-01
       -2   -1    0    0    0  501  0.00000000000E+00  0.00000000000E+00  0.12220417652E+04  0.12220417652E+04  0.25500000920E-02 0.  1.
        2   -1    0    0  501    0  0.00000000000E+00  0.00000000000E+00 -0.20088478730E+04  0.20088478730E+04  0.25500000920E-02 0. -1.
    10030    2    1    2    0    0  0.00000000000E+00  0.00000000000E+00 -0.78680610780E+03  0.32308896382E+04  0.31336215475E+04 0.  0.
        1    1    3    3  502    0 -0.62102677800E+03  0.10186122434E+04  0.65382663648E+03  0.13604170067E+04  0.50400001928E-02 0.  1.
       -1    1    3    3    0  502  0.62102677800E+03 -0.10186122434E+04 -0.14406327443E+04  0.18704726316E+04  0.50400001928E-02 0. -1.
</event>
<event>
 5   0  0.3838525E-06  0.3146932E+04  0.7818609E-02  0.8202975E-01
        1   -1    0    0  501    0  0.00000000000E+00  0.00000000000E+00  0.94960915782E+03  0.94960915783E+03  0.50400001928E-02 0. -1.
       -1   -1    0    0    0  501  0.00000000000E+00  0.00000000000E+00 -0.26071727483E+04  0.26071727483E+04  0.50400001928E-02 0.  1.
    10030    2    1    2    0    0  0.00000000000E+00  0.00000000000E+00 -0.16575635905E+04  0.35567819061E+04  0.31469319140E+04 0.  0.
        3    1    3    3  502    0 -0.88757643359E+03  0.85164367796E+03 -0.19377440894E+04  0.22951995656E+04  0.10100000352E+00 0.  1.
       -3    1    3    3    0  502  0.88757643359E+03 -0.85164367796E+03  0.28018049897E+03  0.12615823405E+04  0.10100000352E+00 0. -1.
</event>
<event>
 5   0  0.3838525E-06  0.3029148E+04  0.7818609E-02  0.8235456E-01
        1   -1    0    0  501    0  0.00000000000E+00  0.00000000000E+00  0.19607248700E+04  0.19607248700E+04  0.50400001928E-02 0. -1.
       -1   -1    0    0    0  501  0.00000000000E+00  0.00000000000E+00 -0.11699421135E+04  0.11699421135E+04  0.50400001928E-02 0.  1.
    10030    2    1    2    0    0  0.00000000000E+00  0.00000000000E+00  0.79078275652E+03  0.31306669835E+04  0.30291481300E+04 0.  0.
        3    1    3    3  502    0 -0.14443029220E+04  0.19569112682E+03 -0.30271671597E+02  0.14578142309E+04  0.10100000352E+00 0.  1.
       -3    1    3    3    0  502  0.14443029220E+04 -0.19569112682E+03  0.82105442812E+03  0.16728527526E+04  0.10100000352E+00 0. -1.
</event>
<event>
 5   0  0.1108153E-05  0.2885434E+04  0.7818609E-02  0.8277224E-01
       -2   -1    0    0    0  501  0.00000000000E+00  0.00000000000E+00  0.99291538669E+03  0.99291538670E+03  0.25500000920E-02 0.  1.
        2   -1    0    0  501    0  0.00000000000E+00  0.00000000000E+00 -0.20962839276E+04  0.20962839276E+04  0.25500000920E-02 0. -1.
    10030    2    1    2    0    0  0.00000000000E+00  0.00000000000E+00 -0.11033685409E+04  0.30891993143E+04  0.28854341556E+04 0.  0.
        4    1    3    3  502    0  0.47898833199E+02  0.11500300813E+04  0.37954923371E+03  0.12119912211E+04  0.12699999809E+01 0.  1.
       -4    1    3    3    0  502 -0.47898833199E+02 -0.11500300813E+04 -0.14829177746E+04  0.18772080933E+04  0.12699999809E+01 0. -1.
</event>
<event>
 5   0  0.9797278E-06  0.3139572E+04  0.7818609E-02  0.8204961E-01
        2   -1    0    0  501    0  0.00000000000E+00  0.00000000000E+00  0.17099557735E+04  0.17099557735E+04  0.25500000920E-02 0. -1.
       -2   -1    0    0    0  501  0.00000000000E+00  0.00000000000E+00 -0.14411059809E+04  0.14411059809E+04  0.25500000920E-02 0.  1.
    10030    2    1    2    0    0  0.00000000000E+00  0.00000000000E+00  0.26884979264E+03  0.31510617544E+04  0.31395716219E+04 0.  0.
        1    1    3    3  502    0  0.85979856544E+03 -0.20145597274E+03 -0.11681651968E+04  0.14643933929E+04  0.50400001928E-02 0.  1.
       -1    1    3    3    0  502 -0.85979856544E+03  0.20145597274E+03  0.14370149894E+04  0.16866683616E+04  0.50400001928E-02 0. -1.
</event>
<event>
 5   0  0.3493125E-06  0.1597698E+04  0.7818609E-02  0.8821964E-01
       -4   -1    0    0    0  501  0.00000000000E+00  0.00000000000E+00  0.82145310360E+03  0.82145408534E+03  0.12699999809E+01 0. -1.
        4   -1    0    0  501    0  0.00000000000E+00  0.00000000000E+00 -0.77686458311E+03  0.77686562119E+03  0.12699999809E+01 0.  1.
    10030    2    1    2    0    0  0.00000000000E+00  0.00000000000E+00  0.44588520495E+02  0.15983197065E+04  0.15976976398E+04 0.  0.
        2    1    3    3  502    0  0.64455567200E+03 -0.36390163640E+03 -0.27829406152E+03  0.79077430406E+03  0.25500000920E-02 0.  1.
       -2    1    3    3    0  502 -0.64455567200E+03  0.36390163640E+03  0.32288258201E+03  0.80754540247E+03  0.25500000920E-02 0. -1.
</event>
<event>
 5   0  0.3807334E-06  0.2734059E+04  0.7818609E-02  0.8324038E-01
       -1   -1    0    0    0  501  0.00000000000E+00  0.00000000000E+00  0.23493629382E+04  0.23493629382E+04  0.50400001928E-02 0. -1.
        1   -1    0    0  501    0  0.00000000000E+00  0.00000000000E+00 -0.79543650262E+03  0.79543650263E+03  0.50400001928E-02 0.  1.
    10030    2    1    2    0    0  0.00000000000E+00  0.00000000000E+00  0.15539264356E+04  0.31447994409E+04  0.27340585502E+04 0.  0.
        4    1    3    3  502    0 -0.31240867367E+03  0.51420603583E+02  0.23066081858E+04  0.23282367134E+04  0.12699999809E+01 0. -1.
       -4    1    3    3    0  502  0.31240867367E+03 -0.51420603583E+02 -0.75268175022E+03  0.81656272745E+03  0.12699999809E+01 0.  1.
</event>
<event>
 5   0  0.4139628E-06  0.2648777E+04  0.7818609E-02  0.8351819E-01
       -1   -1    0    0    0  501  0.00000000000E+00  0.00000000000E+00  0.13100455637E+04  0.13100455637E+04  0.50400001928E-02 0.  1.
        1   -1    0    0  501    0  0.00000000000E+00  0.00000000000E+00 -0.13388883814E+04  0.13388883814E+04  0.50400001928E-02 0. -1.
    10030    2    1    2    0    0  0.00000000000E+00  0.00000000000E+00 -0.28842817724E+02  0.26489339450E+04  0.26487769134E+04 0.  0.
        5    1    3    3  502    0  0.26530302345E+03  0.78014904817E+03 -0.10512878053E+04  0.13357568533E+04  0.46999998093E+01 0. -1.
       -5    1    3    3    0  502 -0.26530302345E+03 -0.78014904817E+03  0.10224449876E+04  0.13131770917E+04  0.46999998093E+01 0.  1.
</event>
<event>
 5   0  0.1119100E-05  0.2836487E+04  0.7818609E-02  0.8292029E-01
        2   -1    0    0  501    0  0.00000000000E+00  0.00000000000E+00  0.14667772104E+04  0.14667772104E+04  0.25500000920E-02 0.  1.
       -2   -1    0    0    0  501  0.00000000000E+00  0.00000000000E+00 -0.13713157446E+04  0.13713157446E+04  0.25500000920E-02 0. -1.
    10030    2    1    2    0    0  0.00000000000E+00  0.00000000000E+00  0.95461465776E+02  0.28380929549E+04  0.28364870402E+04 0.  0.
        2    1    3    3  502    0  0.14181236034E+03  0.44659355142E+03 -0.12916301891E+04  0.13739960303E+04  0.25500000920E-02 0. -1.
       -2    1    3    3    0  502 -0.14181236034E+03 -0.44659355142E+03  0.13870916549E+04  0.14640969247E+04  0.25500000920E-02 0.  1.
</event>
<event>
 5   0  0.3807334E-06  0.1760313E+04  0.7818609E-02  0.8727694E-01
       -1   -1    0    0    0  501  0.00000000000E+00  0.00000000000E+00  0.19532137694E+04  0.19532137695E+04  0.50400001928E-02 0.  1.
        1   -1    0    0  501    0  0.00000000000E+00  0.00000000000E+00 -0.39661578187E+03  0.39661578191E+03  0.50400001928E-02 0. -1.
    10030    2    1    2    0    0  0.00000000000E+00  0.00000000000E+00  0.15565979876E+04  0.23498295514E+04  0.17603129340E+04 0.  0.
        4    1    3    3  502    0  0.24330274971E+03 -0.84384122343E+03  0.85624526381E+03  0.12265487365E+04  0.12699999809E+01 0. -1.
       -4    1    3    3    0  502 -0.24330274971E+03  0.84384122343E+03  0.70035272376E+03  0.11232808148E+04  0.12699999809E+01 0.  1.
</event>
<event>
 5   0  0.1001961E-05  0.3087017E+04  0.7818609E-02  0.8219310E-01
        2   -1    0    0  501    0  0.00000000000E+00  0.00000000000E+00  0.31532466400E+04  0.31532466400E+04  0.25500000920E-02 0. -1.
       -2   -1    0    0    0  501  0.00000000000E+00  0.00000000000E+00 -0.75554473724E+03  0.75554473725E+03  0.25500000920E-02 0.  1.
    10030    2    1    2    0    0  0.00000000000E+00  0.00000000000E+00  0.23977019028E+04  0.39087913773E+04  0.30870172686E+04 0.  0.
        5    1    3    3  502    0  0.26522760143E+03 -0.69396512328E+03 -0.51425401543E+03  0.90355550757E+03  0.46999998093E+01 0.  1.
       -5    1    3    3    0  502 -0.26522760143E+03  0.69396512328E+03  0.29119559182E+04  0.30052358697E+04  0.46999998093E+01 0. -1.
</event>
<event>
 5   0  0.4139628E-06  0.3037422E+04  0.7818609E-02  0.8233125E-01
       -1   -1    0    0    0  501  0.00000000000E+00  0.00000000000E+00  0.14757662889E+04  0.14757662890E+04  0.50400001928E-02 0. -1.
        1   -1    0    0  501    0  0.00000000000E+00  0.00000000000E+00 -0.15629052512E+04  0.15629052512E+04  0.50400001928E-02 0.  1.
    10030    2    1    2    0    0  0.00000000000E+00  0.00000000000E+00 -0.87138962273E+02  0.30386715402E+04  0.30374218558E+04 0.  0.
        5    1    3    3  502    0  0.76257511206E+03  0.71486280814E+03  0.10586601861E+04  0.14877275005E+04  0.46999998093E+01 0. -1.
       -5    1    3    3    0  502 -0.76257511206E+03 -0.71486280814E+03 -0.11457991484E+04  0.15509440397E+04  0.46999998093E+01 0.  1.
</event>
<event>
 5   0  0.4250961E-06  0.3054069E+04  0.7818609E-02  0.8228457E-01
        1   -1    0    0  501    0  0.00000000000E+00  0.00000000000E+00  0.18101451468E+04  0.18101451468E+04  0.50400001928E-02 0.  1.
       -1   -1    0    0    0  501  0.00000000000E+00  0.00000000000E+00 -0.12882030263E+04  0.12882030263E+04  0.50400001928E-02 0. -1.
    10030    2    1    2    0    0  0.00000000000E+00  0.00000000000E+00  0.52194212047E+03  0.30983481731E+04  0.30540690602E+04 0.  0.
        1    1    3    3  502    0 -0.11047259110E+04  0.96889387462E+02  0.13259661240E+04  0.17285812257E+04  0.50400001928E-02 0.  1.
       -1    1    3    3    0  502  0.11047259110E+04 -0.96889387462E+02 -0.80402400352E+03  0.13697669474E+04  0.50400001928E-02 0. -1.
</event>
<event>
 5   0  0.1119100E-05  0.2690633E+04  0.7818609E-02  0.8338051E-01
       -2   -1    0    0    0  501  0.00000000000E+00  0.00000000000E+00  0.82299062155E+03  0.82299062156E+03  0.25500000920E-02 0.  1.
        2   -1    0    0  501    0  0.00000000000E+00  0.00000000000E+00 -0.21991465281E+04  0.21991465281E+04  0.25500000920E-02 0. -1.
    10030    2    1    2    0    0  0.00000000000E+00  0.00000000000E+00 -0.13761559065E+04  0.30221371497E+04  0.26906333589E+04 0.  0.
        2    1    3    3  502    0  0.32634176501E+03 -0.64030331918E+03  0.58931449038E+03  0.92939703934E+03  0.25500000920E-02 0.  1.
       -2    1    3    3    0  502 -0.32634176501E+03  0.64030331918E+03 -0.19654703969E+04  0.20927401103E+04  0.25500000920E-02 0. -1.
</event>
<event>
 5   0  0.4139628E-06  0.1880359E+04  0.7818609E-02  0.8664695E-01
       -1   -1    0    0    0  501  0.00000000000E+00  0.00000000000E+00  0.74794179796E+03  0.74794179798E+03  0.50400001928E-02 0. -1.
        1   -1    0    0  501    0  0.00000000000E+00  0.00000000000E+00 -0.11818261134E+04  0.11818261134E+04  0.50400001928E-02 0.  1.
    10030    2    1    2    0    0  0.00000000000E+00  0.00000000000E+00 -0.43388431542E+03  0.19297679114E+04  0.18803586340E+04 0.  0.
        5    1    3    3  502    0  0.62851098461E+03  0.63811021788E+03  0.76408443226E+02  0.89892772131E+03  0.46999998093E+01 0. -1.
       -5    1    3    3    0  502 -0.62851098461E+03 -0.63811021788E+03 -0.51029275865E+03  0.10308401901E+04  0.46999998093E+01 0.  1.
</event>
<event>
 5   0  0.9797278E-06  0.1658506E+04  0.7818609E-02  0.8785390E-01
        2   -1    0    0  501    0  0.00000000000E+00  0.00000000000E+00  0.91524421909E+03  0.91524421909E+03  0.25500000920E-02 0. -1.
       -2   -1    0    0    0  501  0.00000000000E+00  0.00000000000E+00 -0.75134121242E+03  0.75134121243E+03  0.25500000920E-02 0.  1.
    10030    2    1    2    0    0  0.00000000000E+00  0.00000000000E+00  0.16390300667E+03  0.16665854315E+04  0.16585061968E+04 0.  0.
        1    1    3    3  502    0 -0.36584423610E+03  0.12672768914E+03  0.81884418106E+03  0.90576360335E+03  0.50400001928E-02 0. -1.
       -1    1    3    3    0  502  0.36584423610E+03 -0.12672768914E+03 -0.65494117439E+03  0.76082182817E+03  0.50400001928E-02 0.  1.
</event>
<event>
 5   0  0.4250961E-06  0.2299516E+04  0.7818609E-02  0.8478112E-01
       -1   -1    0    0    0  501  0.00000000000E+00  0.00000000000E+00  0.14598391646E+04  0.14598391646E+04  0.50400001928E-02 0.  1.
        1   -1    0    0  501    0  0.00000000000E+00  0.00000000000E+00 -0.90554077976E+03  0.90554077978E+03  0.50400001928E-02 0. -1.
    10030    2    1    2    0    0  0.00000000000E+00  0.00000000000E+00  0.55429838486E+03  0.23653799444E+04  0.22995163800E+04 0.  0.
        1    1    3    3  502    0  0.65347181293E+03 -0.11125324834E+03 -0.68919512491E+03  0.95623878596E+03  0.50400001928E-02 0. -1.
       -1    1    3    3    0  502 -0.65347181293E+03  0.11125324834E+03  0.12434935098E+04  0.14091411584E+04  0.50400001928E-02 0.  1.
</event>
<event>
 5   0  0.3848286E-06  0.2716435E+04  0.7818609E-02  0.8329692E-01
        1   -1    0    0  501    0  0.00000000000E+00  0.00000000000E+00  0.10740458137E+04  0.10740458137E+04  0.50400001928E-02 0. -1.
       -1   -1    0    0    0  501  0.00000000000E+00  0.00000000000E+00 -0.17175758760E+04  0.17175758760E+04  0.50400001928E-02 0.  1.
    10030    2    1    2    0    0  0.00000000000E+00  0.00000000000E+00 -0.64353006235E+03  0.27916216897E+04  0.27164352960E+04 0.  0.
        2    1    3    3  502    0  0.32278750389E+02 -0.13074754038E+04 -0.69826762112E+03  0.14826029543E+04  0.25500000920E-02 0.  1.
       -2    1    3    3    0  502 -0.32278750389E+02  0.13074754038E+04  0.54737558777E+02  0.13090187354E+04  0.25500000920E-02 0. -1.
</event>
<event>
 5   0  0.1108153E-05  0.3131394E+04  0.7818609E-02  0.8207175E-01
       -2   -1    0    0    0  501  0.00000000000E+00  0.00000000000E+00  0.12435003580E+04  0.12435003580E+04  0.25500000920E-02 0.  1.
        2   -1    0    0  501    0  0.00000000000E+00  0.00000000000E+00 -0.19713764279E+04  0.19713764279E+04  0.25500000920E-02 0. -1.
    10030    2    1    2    0    0  0.00000000000E+00  0.00000000000E+00 -0.72787606983E+03  0.32148767859E+04  0.31313941265E+04 0.  0.
        4    1    3    3  502    0  0.15092996971E+04 -0.40525303564E+03 -0.46235870192E+03  0.16297216881E+04  0.12699999809E+01 0.  1.
       -4    1    3    3    0  502 -0.15092996971E+04  0.40525303564E+03 -0.26551736791E+03  0.15851550978E+04  0.12699999809E+01 0. -1.
</event>
<event>
 5   0  0.1119100E-05  0.3039257E+04  0.7818609E-02  0.8232609E-01
       -2   -1    0    0    0  501  0.00000000000E+00  0.00000000000E+00  0.14494052261E+04  0.14494052261E+04  0.25500000920E-02 0. -1.
        2   -1    0    0  501    0  0.00000000000E+00  0.00000000000E+00 -0.15932539489E+04  0.15932539489E+04  0.25500000920E-02 0.  1.
    10030    2    1    2    0    0  0.00000000000E+00  0.00000000000E+00 -0.14384872274E+03  0.30426591750E+04  0.30392568829E+04 0.  0.
        2    1    3    3  502    0  0.24435978007E+03 -0.13932709302E+04  0.48399449473E+03  0.14950472427E+04  0.25500000920E-02 0. -1.
       -2    1    3    3    0  502 -0.24435978007E+03  0.13932709302E+04 -0.62784321747E+03  0.15476119322E+04  0.25500000920E-02 0.  1.
</event>
<event>
 5   0  0.1108153E-05  0.3093955E+04  0.7818609E-02  0.8217399E-01
        2   -1    0    0  501    0  0.00000000000E+00  0.00000000000E+00  0.25382456224E+04  0.25382456224E+04  0.25500000920E-02 0. -1.
       -2   -1    0    0    0  501  0.00000000000E+00  0.00000000000E+00 -0.94283197159E+03  0.94283197159E+03  0.25500000920E-02 0.  1.
    10030    2    1    2    0    0  0.00000000000E+00  0.00000000000E+00  0.15954136508E+04  0.34810775940E+04  0.30939548313E+04 0.  0.
        4    1    3    3  502    0  0.81468104749E+03  0.59998347747E+03 -0.51895172130E+03  0.11371006483E+04  0.12699999809E+01 0.  1.
       -4    1    3    3    0  502 -0.81468104749E+03 -0.59998347747E+03  0.21143653721E+04  0.23439769457E+04  0.12699999809E+01 0. -1.
</event>
<event>
 5   0  0.3848286E-06  0.3121872E+04  0.7818609E-02  0.8209761E-01
       -1   -1    0    0    0  501  0.00000000000E+00  0.00000000000E+00  0.18986184662E+04  0.18986184662E+04  0.50400001928E-02 0.  1.
        1   -1    0    0  501    0  0.00000000000E+00  0.00000000000E+00 -0.12833125479E+04  0.12833125479E+04  0.50400001928E-02 0. -1.
    10030    2    1    2    0    0  0.00000000000E+00  0.00000000000E+00  0.61530591830E+03  0.31819310141E+04  0.31218718112E+04 0.  0.
        2    1    3    3  502    0  0.87253100305E+03 -0.10553372433E+03 -0.10071537283E+04  0.13367147604E+04  0.25500000920E-02 0. -1.
       -2    1    3    3    0  502 -0.87253100305E+03  0.10553372433E+03  0.16224596466E+04  0.18452162537E+04  0.25500000920E-02 0.  1.
</event>
<event>
 5   0  0.9797278E-06  0.3122096E+04  0.7818609E-02  0.8209700E-01
       -2   -1    0    0    0  501  0.00000000000E+00  0.00000000000E+00  0.13301662097E+04  0.13301662097E+04  0.25500000920E-02 0. -1.
        2   -1    0    0  501    0  0.00000000000E+00  0.00000000000E+00 -0.18320047522E+04  0.18320047522E+04  0.25500000920E-02 0.  1.
    10030    2    1    2    0    0  0.00000000000E+00  0.00000000000E+00 -0.50183854245E+03  0.31621709619E+04  0.31220959738E+04 0.  0.
        1    1    3    3  502    0 -0.99414126794E+03  0.30483146948E+03 -0.14301803366E+04  0.17682349619E+04  0.50400001928E-02 0.  1.
       -1    1    3    3    0  502  0.99414126794E+03 -0.30483146948E+03  0.92834179413E+03  0.13939360000E+04  0.50400001928E-02 0. -1.
</event>
<event>
 5   0  0.3807334E-06  0.2358750E+04  0.7818609E-02  0.8455110E-01
       -1   -1    0    0    0  501  0.00000000000E+00  0.00000000000E+00  0.10921150576E+04  0.10921150576E+04  0.50400001928E-02 0. -1.
        1   -1    0    0  501    0  0.00000000000E+00  0.00000000000E+00 -0.12736072431E+04  0.12736072431E+04  0.50400001928E-02 0.  1.
    10030    2    1    2    0    0  0.00000000000E+00  0.00000000000E+00 -0.18149218551E+03  0.23657223006E+04  0.23587502179E+04 0.  0.
        4    1    3    3  502    0 -0.70370763495E+03 -0.94289568449E+03 -0.17264115176E+03  0.11891439305E+04  0.12699999809E+01 0.  1.
       -4    1    3    3    0  502  0.70370763495E+03  0.94289568449E+03 -0.88510337501E+01  0.11765783701E+04  0.12699999809E+01 0. -1.
</event>
<event>
 5   0  0.3848286E-06  0.1710753E+04  0.7818609E-02  0.8755255E-01
       -1   -1    0    0    0  501  0.00000000000E+00  0.00000000000E+00  0.13186533368E+04  0.13186533368E+04  0.50400001928E-02 0.  1.
        1   -1    0    0  501    0  0.00000000000E+00  0.00000000000E+00 -0.55486048046E+03  0.55486048048E+03  0.50400001928E-02 0. -1.
    10030    2    1    2    0    0  0.00000000000E+00  0.00000000000E+00  0.76379285633E+03  0.18735138173E+04  0.17107526110E+04 0.  0.
        2    1    3    3  502    0  0.21224312585E+03 -0.77865713708E+03  0.71535684658E+02  0.81022924890E+03  0.25500000920E-02 0. -1.
       -2    1    3    3    0  502 -0.21224312585E+03  0.77865713708E+03  0.69225717167E+03  0.10632845684E+04  0.25500000920E-02 0.  1.
</event>
<event>
 5   0  0.4250961E-06  0.3248904E+04  0.7818609E-02  0.8176020E-01
        1   -1    0    0  501    0  0.00000000000E+00  0.00000000000E+00  0.13749288957E+04  0.13749288957E+04  0.50400001928E-02 0.  1.
       -1   -1    0    0    0  501  0.00000000000E+00  0.00000000000E+00 -0.19192587895E+04  0.19192587895E+04  0.50400001928E-02 0. -1.
    10030    2    1    2    0    0  0.00000000000E+00  0.00000000000E+00 -0.54432989374E+03  0.32941876852E+04  0.32489040417E+04 0.  0.
        1    1    3    3  502    0 -0.15062608843E+04  0.59350088532E+03 -0.13696773010E+03  0.16247539234E+04  0.50400001928E-02 0. -1.
       -1    1    3    3    0  502  0.15062608843E+04 -0.59350088532E+03 -0.40736216363E+03  0.16694337618E+04  0.50400001928E-02 0.  1.
</event>
<event>
 5   0  0.9797278E-06  0.1547425E+04  0.7818609E-02  0.8853514E-01
        2   -1    0    0  501    0  0.00000000000E+00  0.00000000000E+00  0.18207815292E+04  0.18207815292E+04  0.25500000920E-02 0. -1.
       -2   -1    0    0    0  501  0.00000000000E+00  0.00000000000E+00 -0.32877702914E+03  0.32877702915E+03  0.25500000920E-02 0.  1.
    10030    2    1    2    0    0  0.00000000000E+00  0.00000000000E+00  0.14920045001E+04  0.21495585584E+04  0.15474251412E+04 0.  0.
        1    1    3    3  502    0  0.76552347735E+03 -0.10914312594E+03  0.78256343266E+03  0.11001563264E+04  0.50400001928E-02 0. -1.
       -1    1    3    3    0  502 -0.76552347735E+03  0.10914312594E+03  0.70944106741E+03  0.10494022320E+04  0.50400001928E-02 0.  1.
</event>
<event>
 5   0  0.3838525E-06  0.3122571E+04  0.7818609E-02  0.8209571E-01
        1   -1    0    0  501    0  0.00000000000E+00  0.00000000000E+00  0.16742802852E+04  0.16742802852E+04  0.50400001928E-02 0. -1.
       -1   -1    0    0    0  501  0.00000000000E+00  0.00000000000E+00 -0.14559167327E+04  0.14559167327E+04  0.50400001928E-02 0.  1.
    10030    2    1    2    0    0  0.00000000000E+00  0.00000000000E+00  0.21836355252E+03  0.31301970179E+04  0.31225711729E+04 0.  0.
        3    1    3    3  502    0 -0.10979628147E+04  0.17868958593E+03 -0.98901197137E+03  0.14884881593E+04  0.10100000352E+00 0.  1.
       -3    1    3    3    0  502  0.10979628147E+04 -0.17868958593E+03  0.12073755239E+04  0.16417088586E+04  0.10100000352E+00 0. -1.
</event>
<event>
 5   0  0.4139628E-06  0.2250870E+04  0.7818609E-02  0.8497548E-01
       -1   -1    0    0    0  501  0.00000000000E+00  0.00000000000E+00  0.95631811615E+03  0.95631811617E+03  0.50400001928E-02 0. -1.
        1   -1    0    0  501    0  0.00000000000E+00  0.00000000000E+00 -0.13244587414E+04  0.13244587414E+04  0.50400001928E-02 0.  1.
    10030    2    1    2    0    0  0.00000000000E+00  0.00000000000E+00 -0.36814062524E+03  0.22807768576E+04  0.22508699549E+04 0.  0.
        5    1    3    3  502    0 -0.26886637486E+03  0.10170063336E+04 -0.58937337268E+03  0.12058084726E+04  0.46999998093E+01 0. -1.
       -5    1    3    3    0  502  0.26886637486E+03 -0.10170063336E+04  0.22123274744E+03  0.10749683850E+04  0.46999998093E+01 0.  1.
</event>
<event>
 5   0  0.3838525E-06  0.2781917E+04  0.7818609E-02  0.8308904E-01
       -1   -1    0    0    0  501  0.00000000000E+00  0.00000000000E+00  0.76510593462E+03  0.76510593464E+03  0.50400001928E-02 0. -1.
        1   -1    0    0  501    0  0.00000000000E+00  0.00000000000E+00 -0.25287549832E+04  0.25287549832E+04  0.50400001928E-02 0.  1.
    10030    2    1    2    0    0  0.00000000000E+00  0.00000000000E+00 -0.17636490486E+04  0.32938609179E+04  0.27819169254E+04 0.  0.
        3    1    3    3  502    0 -0.30775934469E+03 -0.10276657170E+04  0.16652488972E+03  0.10856072905E+04  0.10100000352E+00 0. -1.
       -3    1    3    3    0  502  0.30775934469E+03  0.10276657170E+04 -0.19301739383E+04  0.22082536273E+04  0.10100000352E+00 0.  1.
</event>
<event>
 5   0  0.1119100E-05  0.2524744E+04  0.7818609E-02  0.8394223E-01
        2   -1    0    0  501    0  0.00000000000E+00  0.00000000000E+00  0.12873320587E+04  0.12873320587E+04  0.25500000920E-02 0. -1.
       -2   -1    0    0    0  501  0.00000000000E+00  0.00000000000E+00 -0.12378955226E+04  0.12378955226E+04  0.25500000920E-02 0.  1.
    10030    2    1    2    0    0  0.00000000000E+00  0.00000000000E+00  0.49436536115E+02  0.25252275813E+04  0.25247436238E+04 0.  0.
        2    1    3    3  502    0  0.85573894218E+03 -0.86280450069E+03  0.36663441820E+03  0.12693075042E+04  0.25500000920E-02 0. -1.
       -2    1    3    3    0  502 -0.85573894218E+03  0.86280450069E+03 -0.31719788208E+03  0.12559200771E+04  0.25500000920E-02 0.  1.
</event>
<event>
 5   0  0.1108153E-05  0.3009215E+04  0.7818609E-02  0.8241104E-01
       -2   -1    0    0    0  501  0.00000000000E+00  0.00000000000E+00  0.17429355929E+04  0.17429355929E+04  0.25500000920E-02 0.  1.
        2   -1    0    0  501    0  0.00000000000E+00  0.00000000000E+00 -0.12988686938E+04  0.12988686938E+04  0.25500000920E-02 0. -1.
    10030    2    1    2    0    0  0.00000000000E+00  0.00000000000E+00  0.44406689916E+03  0.30418042867E+04  0.30092154970E+04 0.  0.
        4    1    3    3  502    0 -0.29766324823E+03  0.86243791653E+03  0.14314185034E+04  0.16974578386E+04  0.12699999809E+01 0.  1.
       -4    1    3    3    0  502  0.29766324823E+03 -0.86243791653E+03 -0.98735160420E+03  0.13443464481E+04  0.12699999809E+01 0. -1.
</event>
<event>
 5   0  0.1108153E-05  0.3086439E+04  0.7818609E-02  0.8219469E-01
       -2   -1    0    0    0  501  0.00000000000E+00  0.00000000000E+00  0.12568344137E+04  0.12568344137E+04  0.25500000920E-02 0.  1.
        2   -1    0    0  501    0  0.00000000000E+00  0.00000000000E+00 -0.18948610478E+04  0.18948610478E+04  0.25500000920E-02 0. -1.
    10030    2    1    2    0    0  0.00000000000E+00  0.00000000000E+00 -0.63802663415E+03  0.31516954615E+04  0.30864390965E+04 0.  0.
        4    1    3    3  502    0  0.99868512286E+03  0.49292158084E+03  0.77183372477E+03  0.13550175538E+04  0.12699999809E+01 0.  1.
       -4    1    3    3    0  502 -0.99868512286E+03 -0.49292158084E+03 -0.14098603589E+04  0.17966779077E+04  0.12699999809E+01 0. -1.
</event>
<event>
 5   0  0.3493125E-06  0.2969970E+04  0.7818609E-02  0.8252358E-01
       -3   -1    0    0    0  501  0.00000000000E+00  0.00000000000E+00  0.13445956208E+04  0.13445956246E+04  0.10100000352E+00 0. -1.
        3   -1    0    0  501    0  0.00000000000E+00  0.00000000000E+00 -0.16400324943E+04  0.16400324974E+04  0.10100000352E+00 0.  1.
    10030    2    1    2    0    0  0.00000000000E+00  0.00000000000E+00 -0.29543687356E+03  0.29846281220E+04  0.29699700471E+04 0.  0.
        1    1    3    3  502    0  0.11983156584E+04  0.33019071506E+03 -0.96425193790E+03  0.15731395759E+04  0.50400001928E-02 0.  1.
       -1    1    3    3    0  502 -0.11983156584E+04 -0.33019071506E+03  0.66881506434E+03  0.14114885461E+04  0.50400001928E-02 0. -1.
</event>
<event>
 5   0  0.3838525E-06  0.3076629E+04  0.7818609E-02  0.8222181E-01
        1   -1    0    0  501    0  0.00000000000E+00  0.00000000000E+00  0.25123055441E+04  0.25123055441E+04  0.50400001928E-02 0. -1.
       -1   -1    0    0    0  501  0.00000000000E+00  0.00000000000E+00 -0.94192805102E+03  0.94192805103E+03  0.50400001928E-02 0.  1.
    10030    2    1    2    0    0  0.00000000000E+00  0.00000000000E+00  0.15703774931E+04  0.34542335951E+04  0.30766287165E+04 0.  0.
        3    1    3    3  502    0 -0.74311074246E+03  0.11661148737E+04  0.28385214860E+02  0.13830557490E+04  0.10100000352E+00 0.  1.
       -3    1    3    3    0  502  0.74311074246E+03 -0.11661148737E+04  0.15419922782E+04  0.20711778462E+04  0.10100000352E+00 0. -1.
</event>
<event>
 5   0  0.3807334E-06  0.3040248E+04  0.7818609E-02  0.8232330E-01
       -1   -1    0    0    0  501  0.00000000000E+00  0.00000000000E+00  0.10053125625E+04  0.10053125625E+04  0.50400001928E-02 0. -1.
        1   -1    0    0  501    0  0.00000000000E+00  0.00000000000E+00 -0.22985661623E+04  0.22985661623E+04  0.50400001928E-02 0.  1.
    10030    2    1    2    0    0  0.00000000000E+00  0.00000000000E+00 -0.12932535998E+04  0.33038787248E+04  0.30402483048E+04 0.  0.
        4    1    3    3  502    0  0.13342835210E+04  0.36601979988E+03 -0.13309050003E+04  0.19197897648E+04  0.12699999809E+01 0.  1.
       -4    1    3    3    0  502 -0.13342835210E+04 -0.36601979988E+03  0.37651400506E+02  0.13840889600E+04  0.12699999809E+01 0. -1.
</event>
<event>
 5   0  0.1001961E-05  0.3150674E+04  0.7818609E-02  0.8201967E-01
        2   -1    0    0  501    0  0.00000000000E+00  0.00000000000E+00  0.12414529952E+04  0.12414529952E+04  0.25500000920E-02 0. -1.
       -2   -1    0    0    0  501  0.00000000000E+00  0.00000000000E+00 -0.19990182799E+04  0.19990182799E+04  0.25500000920E-02 0.  1.
    10030    2    1    2    0    0  0.00000000000E+00  0.00000000000E+00 -0.75756528465E+03  0.32404712751E+04  0.31506743603E+04 0.  0.
        5    1    3    3  502    0  0.15188457621E+04  0.35840933483E+03 -0.60012654236E+03  0.16719819548E+04  0.46999998093E+01 0.  1.
       -5    1    3    3    0  502 -0.15188457621E+04 -0.35840933483E+03 -0.15743874229E+03  0.15684893203E+04  0.46999998093E+01 0. -1.
</event>
<event>
 5   0  0.3838525E-06  0.3266603E+04  0.7818609E-02  0.8171446E-01
       -1   -1    0    0    0  501  0.00000000000E+00  0.00000000000E+00  0.11963690759E+04  0.11963690759E+04  0.50400001928E-02 0.  1.
        1   -1    0    0  501    0  0.00000000000E+00  0.00000000000E+00 -0.22298077558E+04  0.22298077558E+04  0.50400001928E-02 0. -1.
    10030    2    1    2    0    0  0.00000000000E+00  0.00000000000E+00 -0.10334386799E+04  0.34261768318E+04  0.32666025435E+04 0.  0.
        3    1    3    3  502    0  0.56804455566E+02  0.16323012798E+04 -0.51018442032E+03  0.17111172862E+04  0.10100000352E+00 0.  1.
       -3    1    3    3    0  502 -0.56804455566E+02 -0.16323012798E+04 -0.52325425959E+03  0.17150595455E+04  0.10100000352E+00 0. -1.
</event>
<event>
 5   0  0.3848286E-06  0.1622109E+04  0.7818609E-02  0.8807079E-01
        1   -1    0    0  501    0  0.00000000000E+00  0.00000000000E+00  0.11842010000E+04  0.11842010001E+04  0.50400001928E-02 0. -1.
       -1   -1    0    0    0  501  0.00000000000E+00  0.00000000000E+00 -0.55548808410E+03  0.55548808413E+03  0.50400001928E-02 0.  1.
    10030    2    1    2    0    0  0.00000000000E+00  0.00000000000E+00  0.62871291594E+03  0.17396890842E+04  0.16221091760E+04 0.  0.
        2    1    3    3  502    0 -0.74350651650E+03  0.31107385632E+03  0.41171466570E+03  0.90502919849E+03  0.25500000920E-02 0.  1.
       -2    1    3    3    0  502  0.74350651650E+03 -0.31107385632E+03  0.21699825024E+03  0.83465988569E+03  0.25500000920E-02 0. -1.
</event>
<event>
 5   0  0.1007567E-05  0.3106583E+04  0.7818609E-02  0.8213933E-01
       -2   -1    0    0    0  501  0.00000000000E+00  0.00000000000E+00  0.15665786936E+04  0.15665786936E+04  0.25500000920E-02 0.  1.
        2   -1    0    0  501    0  0.00000000000E+00  0.00000000000E+00 -0.15401174565E+04  0.15401174565E+04  0.25500000920E-02 0. -1.
    10030    2    1    2    0    0  0.00000000000E+00  0.00000000000E+00  0.26461237130E+02  0.31066961500E+04  0.31065834564E+04 0.  0.
        3    1    3    3  502    0  0.37842315681E+03 -0.64087095123E+02 -0.14919498699E+04  0.15405277231E+04  0.10100000352E+00 0. -1.
       -3    1    3    3    0  502 -0.37842315681E+03  0.64087095123E+02  0.15184111070E+04  0.15661684269E+04  0.10100000352E+00 0.  1.
</event>
<event>
 5   0  0.3838525E-06  0.1865044E+04  0.7818609E-02  0.8672455E-01
        1   -1    0    0  501    0  0.00000000000E+00  0.00000000000E+00  0.13672640898E+04  0.13672640899E+04  0.50400001928E-02 0.  1.
       -1   -1    0    0    0  501  0.00000000000E+00  0.00000000000E+00 -0.63601246396E+03  0.63601246398E+03  0.50400001928E-02 0. -1.
    10030    2    1    2    0    0  0.00000000000E+00  0.00000000000E+00  0.73125162589E+03  0.20032765538E+04  0.18650437021E+04 0.  0.
        3    1    3    3  502    0 -0.47249254958E+03  0.79602346266E+03  0.48664618885E+03  0.10458140780E+04  0.10100000352E+00 0.  1.
       -3    1    3    3    0  502  0.47249254958E+03 -0.79602346266E+03  0.24460543704E+03  0.95746247579E+03  0.10100000352E+00 0. -1.
</event>
<event>
 5   0  0.3838525E-06  0.3147753E+04  0.7818609E-02  0.8202753E-01
        1   -1    0    0  501    0  0.00000000000E+00  0.00000000000E+00  0.16776719888E+04  0.16776719888E+04  0.50400001928E-02 0.  1.
       -1   -1    0    0    0  501  0.00000000000E+00  0.00000000000E+00 -0.14765027603E+04  0.14765027603E+04  0.50400001928E-02 0. -1.
    10030    2    1    2    0    0  0.00000000000E+00  0.00000000000E+00  0.20116922855E+03  0.31541747491E+04  0.31477530541E+04 0.  0.
        3    1    3    3  502    0 -0.19120850972E+03 -0.13690144009E+04  0.85466634486E+03  0.16251817422E+04  0.10100000352E+00 0.  1.
       -3    1    3    3    0  502  0.19120850972E+03  0.13690144009E+04 -0.65349711631E+03  0.15289930069E+04  0.10100000352E+00 0. -1.
</event>
<event>
 5   0  0.3838525E-06  0.3043316E+04  0.7818609E-02  0.8231469E-01
        1   -1    0    0  501    0  0.00000000000E+00  0.00000000000E+00  0.18330514103E+04  0.18330514103E+04  0.50400001928E-02 0.  1.
       -1   -1    0    0    0  501  0.00000000000E+00  0.00000000000E+00 -0.12631632902E+04  0.12631632902E+04  0.50400001928E-02 0. -1.
    10030    2    1    2    0    0  0.00000000000E+00  0.00000000000E+00  0.56988812015E+03  0.30962147005E+04  0.30433161193E+04 0.  0.
        3    1    3    3  502    0  0.69144844474E+03  0.99855898514E+03  0.12175133050E+04  0.17197556968E+04  0.10100000352E+00 0.  1.
       -3    1    3    3    0  502 -0.69144844474E+03 -0.99855898514E+03 -0.64762518490E+03  0.13764590037E+04  0.10100000352E+00 0. -1.
</event>
<event>
 5   0  0.3493125E-06  0.2299045E+04  0.7818609E-02  0.8478298E-01
        4   -1    0    0  501    0  0.00000000000E+00  0.00000000000E+00  0.85228818347E+03  0.85228912969E+03  0.12699999809E+01 0. -1.
       -4   -1    0    0    0  501  0.00000000000E+00  0.00000000000E+00 -0.15504153453E+04  0.15504158654E+04  0.12699999809E+01 0.  1.
    10030    2    1    2    0    0  0.00000000000E+00  0.00000000000E+00 -0.69812716182E+03  0.24027049951E+04  0.22990454018E+04 0.  0.
        4    1    3    3  502    0  0.68237842993E+03 -0.50102626665E+03  0.46364492333E+03  0.96521286219E+03  0.12699999809E+01 0. -1.
       -4    1    3    3    0  502 -0.68237842993E+03  0.50102626665E+03 -0.11617720852E+04  0.14374921329E+04  0.12699999809E+01 0.  1.
</event>
<event>
 5   0  0.3807334E-06  0.3136840E+04  0.7818609E-02  0.8205700E-01
       -1   -1    0    0    0  501  0.00000000000E+00  0.00000000000E+00  0.14309846262E+04  0.14309846262E+04  0.50400001928E-02 0. -1.
        1   -1    0    0  501    0  0.00000000000E+00  0.00000000000E+00 -0.17190550412E+04  0.17190550412E+04  0.50400001928E-02 0.  1.
    10030    2    1    2    0    0  0.00000000000E+00  0.00000000000E+00 -0.28807041500E+03  0.31500396674E+04  0.31368400250E+04 0.  0.
        4    1    3    3  502    0  0.46748801426E+03 -0.13551008815E+04 -0.78318518742E+03  0.16334699548E+04  0.12699999809E+01 0.  1.
       -4    1    3    3    0  502 -0.46748801426E+03  0.13551008815E+04  0.49511477241E+03  0.15165697126E+04  0.12699999809E+01 0. -1.
</event>
<event>
 5   0  0.3807334E-06  0.2413533E+04  0.7818609E-02  0.8434454E-01
       -1   -1    0    0    0  501  0.00000000000E+00  0.00000000000E+00  0.59800432057E+03  0.59800432059E+03  0.50400001928E-02 0.  1.
        1   -1    0    0  501    0  0.00000000000E+00  0.00000000000E+00 -0.24352418213E+04  0.24352418213E+04  0.50400001928E-02 0. -1.
    10030    2    1    2    0    0  0.00000000000E+00  0.00000000000E+00 -0.18372375007E+04  0.30332461419E+04  0.24135327889E+04 0.  0.
        4    1    3    3  502    0 -0.11026092812E+04 -0.24665347322E+03 -0.38586501754E+03  0.11939340801E+04  0.12699999809E+01 0.  1.
       -4    1    3    3    0  502  0.11026092812E+04  0.24665347322E+03 -0.14513724831E+04  0.18393120618E+04  0.12699999809E+01 0. -1.
</event>
<event>
 5   0  0.1007567E-05  0.3058797E+04  0.7818609E-02  0.8227138E-01
       -2   -1    0    0    0  501  0.00000000000E+00  0.00000000000E+00  0.17466031264E+04  0.17466031264E+04  0.25500000920E-02 0.  1.
        2   -1    0    0  501    0  0.00000000000E+00  0.00000000000E+00 -0.13392051372E+04  0.13392051372E+04  0.25500000920E-02 0. -1.
    10030    2    1    2    0    0  0.00000000000E+00  0.00000000000E+00  0.40739798920E+03  0.30858082637E+04  0.30587970705E+04 0.  0.
        3    1    3    3  502    0  0.13854343541E+03 -0.11752749867E+04  0.11810649933E+04  0.16719390260E+04  0.10100000352E+00 0.  1.
       -3    1    3    3    0  502 -0.13854343541E+03  0.11752749867E+04 -0.77366700415E+03  0.14138692377E+04  0.10100000352E+00 0. -1.
</event>
<event>
 5   0  0.1108153E-05  0.3172686E+04  0.7818609E-02  0.8196068E-01
       -2   -1    0    0    0  501  0.00000000000E+00  0.00000000000E+00  0.27672923190E+04  0.27672923190E+04  0.25500000920E-02 0.  1.
        2   -1    0    0  501    0  0.00000000000E+00  0.00000000000E+00 -0.90936686290E+03  0.90936686290E+03  0.25500000920E-02 0. -1.
    10030    2    1    2    0    0  0.00000000000E+00  0.00000000000E+00  0.18579254561E+04  0.36766591819E+04  0.31726858873E+04 0.  0.
        4    1    3    3  502    0 -0.31662497213E+03  0.11727981706E+04  0.21112004330E+04  0.24357495362E+04  0.12699999809E+01 0.  1.
       -4    1    3    3    0  502  0.31662497213E+03 -0.11727981706E+04 -0.25327497691E+03  0.12409096457E+04  0.12699999809E+01 0. -1.
</event>
<event>
 5   0  0.1108153E-05  0.2987434E+04  0.7818609E-02  0.8247328E-01
       -2   -1    0    0    0  501  0.00000000000E+00  0.00000000000E+00  0.16017964184E+04  0.16017964184E+04  0.25500000920E-02 0.  1.
        2   -1    0    0  501    0  0.00000000000E+00  0.00000000000E+00 -0.13929301082E+04  0.13929301082E+04  0.25500000920E-02 0. -1.
    10030    2    1    2    0    0  0.00000000000E+00  0.00000000000E+00  0.20886631022E+03  0.29947265265E+04  0.29874339881E+04 0.  0.
        4    1    3    3  502    0 -0.13692699595E+04  0.59389802674E+03  0.44506314977E+02  0.14931836836E+04  0.12699999809E+01 0. -1.
       -4    1    3    3    0  502  0.13692699595E+04 -0.59389802674E+03  0.16435999524E+03  0.15015428429E+04  0.12699999809E+01 0.  1.
</event>
<event>
 5   0  0.4139628E-06  0.3008790E+04  0.7818609E-02  0.8241225E-01
       -1   -1    0    0    0  501  0.00000000000E+00  0.00000000000E+00  0.76576797827E+03  0.76576797828E+03  0.50400001928E-02 0.  1.
        1   -1    0    0  501    0  0.00000000000E+00  0.00000000000E+00 -0.29554696672E+04  0.29554696672E+04  0.50400001928E-02 0. -1.
    10030    2    1    2    0    0  0.00000000000E+00  0.00000000000E+00 -0.21897016890E+04  0.37212376455E+04  0.30087898112E+04 0.  0.
        5    1    3    3  502    0 -0.44123805198E+03  0.42058374063E+03  0.60617235324E+03  0.85967942468E+03  0.46999998093E+01 0.  1.
       -5    1    3    3    0  502  0.44123805198E+03 -0.42058374063E+03 -0.27958740422E+04  0.28615582209E+04  0.46999998093E+01 0. -1.
</event>
<event>
 5   0  0.3838525E-06  0.3083959E+04  0.7818609E-02  0.8220154E-01
       -1   -1    0    0    0  501  0.00000000000E+00  0.00000000000E+00  0.15528750606E+04  0.15528750606E+04  0.50400001928E-02 0.  1.
        1   -1    0    0  501    0  0.00000000000E+00  0.00000000000E+00 -0.15311605984E+04  0.15311605984E+04  0.50400001928E-02 0. -1.
    10030    2    1    2    0    0  0.00000000000E+00  0.00000000000E+00  0.21714462224E+02  0.30840356591E+04  0.30839592132E+04 0.  0.
        3    1    3    3  502    0 -0.11197732764E+04  0.86391719198E+03 -0.60353247017E+03  0.15376919580E+04  0.10100000352E+00 0. -1.
       -3    1    3    3    0  502  0.11197732764E+04 -0.86391719198E+03  0.62524693240E+03  0.15463437010E+04  0.10100000352E+00 0.  1.
</event>
<event>
 5   0  0.1108153E-05  0.3054548E+04  0.7818609E-02  0.8228324E-01
       -2   -1    0    0    0  501  0.00000000000E+00  0.00000000000E+00  0.89717322965E+03  0.89717322966E+03  0.25500000920E-02 0. -1.
        2   -1    0    0  501    0  0.00000000000E+00  0.00000000000E+00 -0.25999060834E+04  0.25999060834E+04  0.25500000920E-02 0.  1.
    10030    2    1    2    0    0  0.00000000000E+00  0.00000000000E+00 -0.17027328538E+04  0.34970793131E+04  0.30545481745E+04 0.  0.
        4    1    3    3  502    0 -0.21303808505E+03  0.13811440750E+04 -0.15567628317E+04  0.20919981618E+04  0.12699999809E+01 0. -1.
       -4    1    3    3    0  502  0.21303808505E+03 -0.13811440750E+04 -0.14597002201E+03  0.14050811513E+04  0.12699999809E+01 0.  1.
</event>
<event>
 5   0  0.1001961E-05  0.2940337E+04  0.7818609E-02  0.8260976E-01
       -2   -1    0    0    0  501  0.00000000000E+00  0.00000000000E+00  0.13537926370E+04  0.13537926370E+04  0.25500000920E-02 0.  1.
        2   -1    0    0  501    0  0.00000000000E+00  0.00000000000E+00 -0.15965487354E+04  0.15965487354E+04  0.25500000920E-02 0. -1.
    10030    2    1    2    0    0  0.00000000000E+00  0.00000000000E+00 -0.24275609842E+03  0.29503413725E+04  0.29403373430E+04 0.  0.
        5    1    3    3  502    0 -0.50771688561E+03 -0.13174042583E+04  0.28994766613E+03  0.14413265261E+04  0.46999998093E+01 0.  1.
       -5    1    3    3    0  502  0.50771688561E+03  0.13174042583E+04 -0.53270376455E+03  0.15090148464E+04  0.46999998093E+01 0. -1.
</event>
<event>
 5   0  0.4139628E-06  0.3050979E+04  0.7818609E-02  0.8229322E-01
       -1   -1    0    0    0  501  0.00000000000E+00  0.00000000000E+00  0.21191838976E+04  0.21191838976E+04  0.50400001928E-02 0.  1.
        1   -1    0    0  501    0  0.00000000000E+00  0.00000000000E+00 -0.10981198233E+04  0.10981198233E+04  0.50400001928E-02 0. -1.
    10030    2    1    2    0    0  0.00000000000E+00  0.00000000000E+00  0.10210640743E+04  0.32173037208E+04  0.30509787591E+04 0.  0.
        5    1    3    3  502    0 -0.58391546161E+03  0.56089078422E+03  0.18738942927E+04  0.20413372206E+04  0.46999998093E+01 0.  1.
       -5    1    3    3    0  502  0.58391546161E+03 -0.56089078422E+03 -0.85283021842E+03  0.11759665002E+04  0.46999998093E+01 0. -1.
</event>
<event>
 5   0  0.3838525E-06  0.2391912E+04  0.7818609E-02  0.8442538E-01
        1   -1    0    0  501    0  0.00000000000E+00  0.00000000000E+00  0.85132314895E+03  0.85132314897E+03  0.50400001928E-02 0.  1.
       -1   -1    0    0    0  501  0.00000000000E+00  0.00000000000E+00 -0.16801032292E+04  0.16801032292E+04  0.50400001928E-02 0. -1.
    10030    2    1    2    0    0  0.00000000000E+00  0.00000000000E+00 -0.82878008021E+03  0.25314263781E+04  0.23919120148E+04 0.  0.
        3    1    3    3  502    0  0.53234540915E+03 -0.92290932977E+03  0.16058237499E+03  0.10774692455E+04  0.10100000352E+00 0.  1.
       -3    1    3    3    0  502 -0.53234540915E+03  0.92290932977E+03 -0.98936245520E+03  0.14539571326E+04  0.10100000352E+00 0. -1.
</event>
<event>
 5   0  0.1119100E-05  0.2503179E+04  0.7818609E-02  0.8401854E-01
       -2   -1    0    0    0  501  0.00000000000E+00  0.00000000000E+00  0.81487571414E+03  0.81487571414E+03  0.25500000920E-02 0.  1.
        2   -1    0    0  501    0  0.00000000000E+00  0.00000000000E+00 -0.19223496983E+04  0.19223496983E+04  0.25500000920E-02 0. -1.
    10030    2    1    2    0    0  0.00000000000E+00  0.00000000000E+00 -0.11074739842E+04  0.27372254125E+04  0.25031788456E+04 0.  0.
        2    1    3    3  502    0  0.87310858034E+03 -0.80723350382E+03 -0.98080647592E+03  0.15414038621E+04  0.25500000920E-02 0. -1.
       -2    1    3    3    0  502 -0.87310858034E+03  0.80723350382E+03 -0.12666750826E+03  0.11958215504E+04  0.25500000920E-02 0.  1.
</event>
<event>
 5   0  0.1001961E-05  0.3152249E+04  0.7818609E-02  0.8201543E-01
       -2   -1    0    0    0  501  0.00000000000E+00  0.00000000000E+00  0.17786723257E+04  0.17786723257E+04  0.25500000920E-02 0. -1.
        2   -1    0    0  501    0  0.00000000000E+00  0.00000000000E+00 -0.13966419295E+04  0.13966419295E+04  0.25500000920E-02 0.  1.
    10030    2    1    2    0    0  0.00000000000E+00  0.00000000000E+00  0.38203039623E+03  0.31753142552E+04  0.31522489425E+04 0.  0.
        5    1    3    3  502    0 -0.81107603223E+03  0.12471393240E+04 -0.33331772097E+03  0.15245732572E+04  0.46999998093E+01 0.  1.
       -5    1    3    3    0  502  0.81107603223E+03 -0.12471393240E+04  0.71534811721E+03  0.16507409980E+04  0.46999998093E+01 0. -1.
</event>
<event>
 5   0  0.9797278E-06  0.3062222E+04  0.7818609E-02  0.8226183E-01
       -2   -1    0    0    0  501  0.00000000000E+00  0.00000000000E+00  0.12868529801E+04  0.12868529802E+04  0.25500000920E-02 0.  1.
        2   -1    0    0  501    0  0.00000000000E+00  0.00000000000E+00 -0.18217316026E+04  0.18217316026E+04  0.25500000920E-02 0. -1.
    10030    2    1    2    0    0  0.00000000000E+00  0.00000000000E+00 -0.53487862249E+03  0.31085845828E+04  0.30622219004E+04 0.  0.
        1    1    3    3  502    0 -0.13770863448E+04 -0.61736436052E+03 -0.52979991177E+03  0.15994353695E+04  0.50400001928E-02 0. -1.
       -1    1    3    3    0  502  0.13770863448E+04  0.61736436052E+03 -0.50787107237E+01  0.15091492133E+04  0.50400001928E-02 0.  1.
</event>
<event>
 5   0  0.1108153E-05  0.3125850E+04  0.7818609E-02  0.8208679E-01
        2   -1    0    0  501    0  0.00000000000E+00  0.00000000000E+00  0.20570435271E+04  0.20570435271E+04  0.25500000920E-02 0.  1.
       -2   -1    0    0    0  501  0.00000000000E+00  0.00000000000E+00 -0.11874978109E+04  0.11874978109E+04  0.25500000920E-02 0. -1.
    10030    2    1    2    0    0  0.00000000000E+00  0.00000000000E+00  0.86954571611E+03  0.32445413380E+04  0.31258500830E+04 0.  0.
        4    1    3    3  502    0 -0.56661194968E+03 -0.99868444624E+03 -0.66582547281E+03  0.13273073863E+04  0.12699999809E+01 0. -1.
       -4    1    3    3    0  502  0.56661194968E+03  0.99868444624E+03  0.15353711889E+04  0.19172339517E+04  0.12699999809E+01 0.  1.
</event>
<event>
 5   0  0.1001961E-05  0.3201953E+04  0.7818609E-02  0.8188302E-01
       -2   -1    0    0    0  501  0.00000000000E+00  0.00000000000E+00  0.22397784914E+04  0.22397784914E+04  0.25500000920E-02 0.  1.
        2   -1    0    0  501    0  0.00000000000E+00  0.00000000000E+00 -0.11443657568E+04  0.11443657568E+04  0.25500000920E-02 0. -1.
    10030    2    1    2    0    0  0.00000000000E+00  0.00000000000E+00  0.10954127346E+04  0.33841442482E+04  0.32019530342E+04 0.  0.
        5    1    3    3  502    0  0.14555822615E+04 -0.61321452389E+03  0.27138825655E+03  0.16026307897E+04  0.46999998093E+01 0. -1.
       -5    1    3    3    0  502 -0.14555822615E+04  0.61321452389E+03  0.82402447802E+03  0.17815134585E+04  0.46999998093E+01 0.  1.
</event>
<event>
 5   0  0.1007567E-05  0.2255337E+04  0.7818609E-02  0.8495742E-01
       -2   -1    0    0    0  501  0.00000000000E+00  0.00000000000E+00  0.24328400623E+04  0.24328400623E+04  0.25500000920E-02 0. -1.
        2   -1    0    0  501    0  0.00000000000E+00  0.00000000000E+00 -0.52269634729E+03  0.52269634729E+03  0.25500000920E-02 0.  1.
    10030    2    1    2    0    0  0.00000000000E+00  0.00000000000E+00  0.19101437151E+04  0.29555364096E+04  0.22553373265E+04 0.  0.
        3    1    3    3  502    0 -0.73003263240E+03 -0.52077559175E+03  0.18510700495E+04  0.20568459348E+04  0.10100000352E+00 0. -1.
       -3    1    3    3    0  502  0.73003263240E+03  0.52077559175E+03  0.59073665557E+02  0.89869047480E+03  0.10100000352E+00 0.  1.
</event>
<event>
 5   0  0.3848286E-06  0.3197557E+04  0.7818609E-02  0.8189463E-01
       -1   -1    0    0    0  501  0.00000000000E+00  0.00000000000E+00  0.15168554533E+04  0.15168554533E+04  0.50400001928E-02 0.  1.
        1   -1    0    0  501    0  0.00000000000E+00  0.00000000000E+00 -0.16851260582E+04  0.16851260582E+04  0.50400001928E-02 0. -1.
    10030    2    1    2    0    0  0.00000000000E+00  0.00000000000E+00 -0.16827060485E+03  0.32019815115E+04  0.31975569743E+04 0.  0.
        2    1    3    3  502    0 -0.45272674651E+03 -0.13269183549E+04 -0.85358569562E+03  0.16414269302E+04  0.25500000920E-02 0. -1.
       -2    1    3    3    0  502  0.45272674651E+03  0.13269183549E+04  0.68531509076E+03  0.15605545813E+04  0.25500000920E-02 0.  1.
</event>
<event>
 5   0  0.1001961E-05  0.2693350E+04  0.7818609E-02  0.8337166E-01
       -2   -1    0    0    0  501  0.00000000000E+00  0.00000000000E+00  0.87950183718E+03  0.87950183719E+03  0.25500000920E-02 0. -1.
        2   -1    0    0  501    0  0.00000000000E+00  0.00000000000E+00 -0.20620010648E+04  0.20620010648E+04  0.25500000920E-02 0.  1.
    10030    2    1    2    0    0  0.00000000000E+00  0.00000000000E+00 -0.11824992276E+04  0.29415029020E+04  0.26933501256E+04 0.  0.
        5    1    3    3  502    0 -0.46794453755E+01 -0.11936362477E+03 -0.20561944294E+04  0.20596667677E+04  0.46999998093E+01 0.  1.
       -5    1    3    3    0  502  0.46794453755E+01  0.11936362477E+03  0.87369520182E+03  0.88183613433E+03  0.46999998093E+01 0. -1.
</event>
<event>
 5   0  0.4139628E-06  0.1768328E+04  0.7818609E-02  0.8723326E-01
        1   -1    0    0  501    0  0.00000000000E+00  0.00000000000E+00  0.13653531100E+04  0.13653531100E+04  0.50400001928E-02 0. -1.
       -1   -1    0    0    0  501  0.00000000000E+00  0.00000000000E+00 -0.57255966272E+03  0.57255966275E+03  0.50400001928E-02 0.  1.
    10030    2    1    2    0    0  0.00000000000E+00  0.00000000000E+00  0.79279344730E+03  0.19379127728E+04  0.17683281553E+04 0.  0.
        5    1    3    3  502    0 -0.15559328430E+03 -0.69480565577E+03  0.97084112889E+03  0.12039596160E+04  0.46999998093E+01 0. -1.
       -5    1    3    3    0  502  0.15559328430E+03  0.69480565577E+03 -0.17804768160E+03  0.73395315677E+03  0.46999998093E+01 0.  1.
</event>
<event>
 5   0  0.4139628E-06  0.3040607E+04  0.7818609E-02  0.8232229E-01
        1   -1    0    0  501    0  0.00000000000E+00  0.00000000000E+00  0.19882083536E+04  0.19882083536E+04  0.50400001928E-02 0. -1.
       -1   -1    0    0    0  501  0.00000000000E+00  0.00000000000E+00 -0.11625155416E+04  0.11625155416E+04  0.50400001928E-02 0.  1.
    10030    2    1    2    0    0  0.00000000000E+00  0.00000000000E+00  0.82569281201E+03  0.31507238952E+04  0.30406072492E+04 0.  0.
        5    1    3    3  502    0 -0.43275145831E+03  0.88873024021E+03 -0.78405442918E+03  0.12616967553E+04  0.46999998093E+01 0.  1.
       -5    1    3    3    0  502  0.43275145831E+03 -0.88873024021E+03  0.16097472412E+04  0.18890271398E+04  0.46999998093E+01 0. -1.
</event>
<event>
 5   0  0.4139628E-06  0.3091775E+04  0.7818609E-02  0.8217999E-01
        1   -1    0    0  501    0  0.00000000000E+00  0.00000000000E+00  0.14881906052E+04  0.14881906052E+04  0.50400001928E-02 0.  1.
       -1   -1    0    0    0  501  0.00000000000E+00  0.00000000000E+00 -0.16058213535E+04  0.16058213535E+04  0.50400001928E-02 0. -1.
    10030    2    1    2    0    0  0.00000000000E+00  0.00000000000E+00 -0.11763074836E+03  0.30940119587E+04  0.30917750578E+04 0.  0.
        5    1    3    3  502    0 -0.10595621379E+04  0.10018280384E+04 -0.57242623724E+03  0.15665328690E+04  0.46999998093E+01 0. -1.
       -5    1    3    3    0  502  0.10595621379E+04 -0.10018280384E+04  0.45479548887E+03  0.15274790897E+04  0.46999998093E+01 0.  1.
</event>
<event>
 5   0  0.3807334E-06  0.1609717E+04  0.7818609E-02  0.8814601E-01
       -1   -1    0    0    0  501  0.00000000000E+00  0.00000000000E+00  0.35989198998E+03  0.35989199001E+03  0.50400001928E-02 0.  1.
        1   -1    0    0  501    0  0.00000000000E+00  0.00000000000E+00 -0.17999771900E+04  0.17999771900E+04  0.50400001928E-02 0. -1.
    10030    2    1    2    0    0  0.00000000000E+00  0.00000000000E+00 -0.14400852000E+04  0.21598691800E+04  0.16097172086E+04 0.  0.
        4    1    3    3  502    0  0.55111841700E+03  0.56073975830E+02  0.63394393210E+02  0.55758072269E+03  0.12699999809E+01 0.  1.
       -4    1    3    3    0  502 -0.55111841700E+03 -0.56073975830E+02 -0.15034795933E+04  0.16022884574E+04  0.12699999809E+01 0. -1.
</event>
<event>
 5   0  0.1007567E-05  0.3086486E+04  0.7818609E-02  0.8219457E-01
       -2   -1    0    0    0  501  0.00000000000E+00  0.00000000000E+00  0.99288344413E+03  0.99288344414E+03  0.25500000920E-02 0.  1.
        2   -1    0    0  501    0  0.00000000000E+00  0.00000000000E+00 -0.23986687974E+04  0.23986687974E+04  0.25500000920E-02 0. -1.
    10030    2    1    2    0    0  0.00000000000E+00  0.00000000000E+00 -0.14057853533E+04  0.33915522416E+04  0.30864857278E+04 0.  0.
        3    1    3    3  502    0 -0.39639179125E+03  0.95210949455E+03  0.55860159988E+03  0.11728915974E+04  0.10100000352E+00 0.  1.
       -3    1    3    3    0  502  0.39639179125E+03 -0.95210949455E+03 -0.19643869532E+04  0.22186606441E+04  0.10100000352E+00 0. -1.
</event>
<event>
 5   0  0.1001961E-05  0.2300061E+04  0.7818609E-02  0.8477897E-01
        2   -1    0    0  501    0  0.00000000000E+00  0.00000000000E+00  0.21347944179E+04  0.21347944179E+04  0.25500000920E-02 0.  1.
       -2   -1    0    0    0  501  0.00000000000E+00  0.00000000000E+00 -0.61953058328E+03  0.61953058328E+03  0.25500000920E-02 0. -1.
    10030    2    1    2    0    0  0.00000000000E+00  0.00000000000E+00  0.15152638346E+04  0.27543250012E+04  0.23000612434E+04 0.  0.
        5    1    3    3  502    0  0.64489212020E+03 -0.94410695623E+03  0.90587336275E+03  0.14587160213E+04  0.46999998093E+01 0.  1.
       -5    1    3    3    0  502 -0.64489212020E+03  0.94410695623E+03  0.60939047188E+03  0.12956089799E+04  0.46999998093E+01 0. -1.
</event>
<event>
 5   0  0.3807334E-06  0.3048970E+04  0.7818609E-02  0.8229884E-01
        1   -1    0    0  501    0  0.00000000000E+00  0.00000000000E+00  0.15992377223E+04  0.15992377223E+04  0.50400001928E-02 0.  1.
       -1   -1    0    0    0  501  0.00000000000E+00  0.00000000000E+00 -0.14532264409E+04  0.14532264409E+04  0.50400001928E-02 0. -1.
    10030    2    1    2    0    0  0.00000000000E+00  0.00000000000E+00  0.14601128146E+03  0.30524641632E+04  0.30489700184E+04 0.  0.
        4    1    3    3  502    0 -0.10904738010E+04  0.14556187791E+03  0.11295498723E+04  0.15767707182E+04  0.12699999809E+01 0.  1.
       -4    1    3    3    0  502  0.10904738010E+04 -0.14556187791E+03 -0.98353859086E+03  0.14756934450E+04  0.12699999809E+01 0. -1.
</event>
<event>
 5   0  0.1108153E-05  0.3038653E+04  0.7818609E-02  0.8232779E-01
        2   -1    0    0  501    0  0.00000000000E+00  0.00000000000E+00  0.17958949334E+04  0.17958949334E+04  0.25500000920E-02 0.  1.
       -2   -1    0    0    0  501  0.00000000000E+00  0.00000000000E+00 -0.12853498435E+04  0.12853498435E+04  0.25500000920E-02 0. -1.
    10030    2    1    2    0    0  0.00000000000E+00  0.00000000000E+00  0.51054508995E+03  0.30812447769E+04  0.30386531698E+04 0.  0.
        4    1    3    3  502    0  0.48333096983E+03  0.93035165040E+03  0.13703167801E+04  0.17253790049E+04  0.12699999809E+01 0.  1.
       -4    1    3    3    0  502 -0.48333096983E+03 -0.93035165040E+03 -0.85977169011E+03  0.13558657721E+04  0.12699999809E+01 0. -1.
</event>
<event>
 5   0  0.1119100E-05  0.3131205E+04  0.7818609E-02  0.8207226E-01
       -2   -1    0    0    0  501  0.00000000000E+00  0.00000000000E+00  0.16759727907E+04  0.16759727907E+04  0.25500000920E-02 0. -1.
        2   -1    0    0  501    0  0.00000000000E+00  0.00000000000E+00 -0.14625010358E+04  0.14625010358E+04  0.25500000920E-02 0.  1.
    10030    2    1    2    0    0  0.00000000000E+00  0.00000000000E+00  0.21347175494E+03  0.31384738265E+04  0.31312054818E+04 0.  0.
        2    1    3    3  502    0 -0.72180235489E+02 -0.64782294197E+03 -0.13200244788E+04  0.14721919627E+04  0.25500000920E-02 0.  1.
       -2    1    3    3    0  502  0.72180235489E+02  0.64782294197E+03  0.15334962337E+04  0.16662818637E+04  0.25500000920E-02 0. -1.
</event>
<event>
 5   0  0.3807334E-06  0.3059888E+04  0.7818609E-02  0.8226833E-01
        1   -1    0    0  501    0  0.00000000000E+00  0.00000000000E+00  0.76773608704E+03  0.76773608706E+03  0.50400001928E-02 0. -1.
       -1   -1    0    0    0  501  0.00000000000E+00  0.00000000000E+00 -0.30488705491E+04  0.30488705491E+04  0.50400001928E-02 0.  1.
    10030    2    1    2    0    0  0.00000000000E+00  0.00000000000E+00 -0.22811344620E+04  0.38166066362E+04  0.30598875439E+04 0.  0.
        4    1    3    3  502    0 -0.86582943280E+03 -0.12096706582E+04 -0.69473255146E+03  0.16418339255E+04  0.12699999809E+01 0. -1.
       -4    1    3    3    0  502  0.86582943280E+03  0.12096706582E+04 -0.15864019106E+04  0.21747727106E+04  0.12699999809E+01 0.  1.
</event>
<event>
 5   0  0.1001961E-05  0.2927345E+04  0.7818609E-02  0.8264788E-01
       -2   -1    0    0    0  501  0.00000000000E+00  0.00000000000E+00  0.11453543146E+04  0.11453543146E+04  0.25500000920E-02 0.  1.
        2   -1    0    0  501    0  0.00000000000E+00  0.00000000000E+00 -0.18704575823E+04  0.18704575824E+04  0.25500000920E-02 0. -1.
    10030    2    1    2    0    0  0.00000000000E+00  0.00000000000E+00 -0.72510326774E+03  0.30158118970E+04  0.29273446413E+04 0.  0.
        5    1    3    3  502    0 -0.14122518327E+04  0.14274191200E+03  0.52878727532E+01  0.14194648794E+04  0.46999998093E+01 0.  1.
       -5    1    3    3    0  502  0.14122518327E+04 -0.14274191200E+03 -0.73039114049E+03  0.15963470175E+04  0.46999998093E+01 0. -1.
</event>
<event>
 5   0  0.3838525E-06  0.2449108E+04  0.7818609E-02  0.8421344E-01
       -1   -1    0    0    0  501  0.00000000000E+00  0.00000000000E+00  0.52840461345E+03  0.52840461347E+03  0.50400001928E-02 0.  1.
        1   -1    0    0  501    0  0.00000000000E+00  0.00000000000E+00 -0.28378491873E+04  0.28378491873E+04  0.50400001928E-02 0. -1.
    10030    2    1    2    0    0  0.00000000000E+00  0.00000000000E+00 -0.23094445738E+04  0.33662538008E+04  0.24491080849E+04 0.  0.
        3    1    3    3  502    0 -0.48269452771E+03 -0.93379143295E+03 -0.20181025499E+04  0.22754556377E+04  0.10100000352E+00 0. -1.
       -3    1    3    3    0  502  0.48269452771E+03  0.93379143295E+03 -0.29134202396E+03  0.10907981630E+04  0.10100000352E+00 0.  1.
</event>
<event>
 5   0  0.1108153E-05  0.3224684E+04  0.7818609E-02  0.8182328E-01
        2   -1    0    0  501    0  0.00000000000E+00  0.00000000000E+00  0.26972826493E+04  0.26972826493E+04  0.25500000920E-02 0. -1.
       -2   -1    0    0    0  501  0.00000000000E+00  0.00000000000E+00 -0.96380239065E+03  0.96380239065E+03  0.25500000920E-02 0.  1.
    10030    2    1    2    0    0  0.00000000000E+00  0.00000000000E+00  0.17334802586E+04  0.36610850399E+04  0.32246844594E+04 0.  0.
        4    1    3    3  502    0 -0.13513519870E+03  0.86495588053E+03  0.24039449577E+04  0.25583907383E+04  0.12699999809E+01 0. -1.
       -4    1    3    3    0  502  0.13513519870E+03 -0.86495588053E+03 -0.67046469909E+03  0.11026943016E+04  0.12699999809E+01 0.  1.
</event>
<event>
 5   0  0.1001961E-05  0.3293506E+04  0.7818609E-02  0.8164550E-01
        2   -1    0    0  501    0  0.00000000000E+00  0.00000000000E+00  0.17695257066E+04  0.17695257066E+04  0.25500000920E-02 0. -1.
       -2   -1    0    0    0  501  0.00000000000E+00  0.00000000000E+00 -0.15324983165E+04  0.15324983165E+04  0.25500000920E-02 0.  1.
    10030    2    1    2    0    0  0.00000000000E+00  0.00000000000E+00  0.23702739009E+03  0.33020240232E+04  0.32935058321E+04 0.  0.
        5    1    3    3  502    0  0.43333686784E+03  0.90470360383E+03  0.14278406692E+04  0.17449987159E+04  0.46999998093E+01 0. -1.
       -5    1    3    3    0  502 -0.43333686784E+03 -0.90470360383E+03 -0.11908132791E+04  0.15570253073E+04  0.46999998093E+01 0.  1.
</event>
<event>
 5   0  0.4250961E-06  0.1999636E+04  0.7818609E-02  0.8606791E-01
       -1   -1    0    0    0  501  0.00000000000E+00  0.00000000000E+00  0.25234672667E+04  0.25234672667E+04  0.50400001928E-02 0. -1.
        1   -1    0    0  501    0  0.00000000000E+00  0.00000000000E+00 -0.39613597877E+03  0.39613597881E+03  0.50400001928E-02 0.  1.
    10030    2    1    2    0    0  0.00000000000E+00  0.00000000000E+00  0.21273312879E+04  0.29196032455E+04  0.19996361425E+04 0.  0.
        1    1    3    3  502    0  0.93248225155E+03  0.34661872030E+03  0.91788914204E+03  0.13535834528E+04  0.50400001928E-02 0. -1.
       -1    1    3    3    0  502 -0.93248225155E+03 -0.34661872030E+03  0.12094421459E+04  0.15660197926E+04  0.50400001928E-02 0.  1.
</event>
<event>
 5   0  0.4250961E-06  0.3192305E+04  0.7818609E-02  0.8190852E-01
       -1   -1    0    0    0  501  0.00000000000E+00  0.00000000000E+00  0.17051939527E+04  0.17051939527E+04  0.50400001928E-02 0. -1.
        1   -1    0    0  501    0  0.00000000000E+00  0.00000000000E+00 -0.14940839597E+04  0.14940839597E+04  0.50400001928E-02 0.  1.
    10030    2    1    2    0    0  0.00000000000E+00  0.00000000000E+00  0.21110999301E+03  0.31992779124E+04  0.31923050812E+04 0.  0.
        1    1    3    3  502    0  0.68207100664E+03  0.21848698671E+03  0.15351157872E+04  0.16939710451E+04  0.50400001928E-02 0. -1.
       -1    1    3    3    0  502 -0.68207100664E+03 -0.21848698671E+03 -0.13240057942E+04  0.15053068672E+04  0.50400001928E-02 0.  1.
</event>
<event>
 5   0  0.3838525E-06  0.3084988E+04  0.7818609E-02  0.8219870E-01
       -1   -1    0    0    0  501  0.00000000000E+00  0.00000000000E+00  0.13388430771E+04  0.13388430771E+04  0.50400001928E-02 0.  1.
        1   -1    0    0  501    0  0.00000000000E+00  0.00000000000E+00 -0.17771216874E+04  0.17771216874E+04  0.50400001928E-02 0. -1.
    10030    2    1    2    0    0  0.00000000000E+00  0.00000000000E+00 -0.43827861035E+03  0.31159647645E+04  0.30849875646E+04 0.  0.
        3    1    3    3  502    0 -0.70230478440E+03  0.13670815330E+04 -0.35138580330E+03  0.15765836232E+04  0.10100000352E+00 0. -1.
       -3    1    3    3    0  502  0.70230478440E+03 -0.13670815330E+04 -0.86892807047E+02  0.15393811413E+04  0.10100000352E+00 0.  1.
</event>
<event>
 5   0  0.1108153E-05  0.3025559E+04  0.7818609E-02  0.8236470E-01
       -2   -1    0    0    0  501  0.00000000000E+00  0.00000000000E+00  0.24052291397E+04  0.24052291397E+04  0.25500000920E-02 0.  1.
        2   -1    0    0  501    0  0.00000000000E+00  0.00000000000E+00 -0.95146964965E+03  0.95146964965E+03  0.25500000920E-02 0. -1.
    10030    2    1    2    0    0  0.00000000000E+00  0.00000000000E+00  0.14537594900E+04  0.33566987893E+04  0.30255594701E+04 0.  0.
        4    1    3    3  502    0 -0.11899632102E+04 -0.37373526103E+03 -0.22285537552E+03  0.12670266841E+04  0.12699999809E+01 0. -1.
       -4    1    3    3    0  502  0.11899632102E+04  0.37373526103E+03  0.16766148656E+04  0.20896721052E+04  0.12699999809E+01 0.  1.
</event>
<event>
 5   0  0.9797278E-06  0.3096278E+04  0.7818609E-02  0.8216760E-01
       -2   -1    0    0    0  501  0.00000000000E+00  0.00000000000E+00  0.17172641798E+04  0.17172641798E+04  0.25500000920E-02 0. -1.
        2   -1    0    0  501    0  0.00000000000E+00  0.00000000000E+00 -0.13956697219E+04  0.13956697219E+04  0.25500000920E-02 0.  1.
    10030    2    1    2    0    0  0.00000000000E+00  0.00000000000E+00  0.32159445787E+03  0.31129339018E+04  0.30962775201E+04 0.  0.
        1    1    3    3  502    0  0.56315653623E+03 -0.14081288207E+04  0.47353580252E+03  0.15887756973E+04  0.50400001928E-02 0. -1.
       -1    1    3    3    0  502 -0.56315653623E+03  0.14081288207E+04 -0.15194134464E+03  0.15241582045E+04  0.50400001928E-02 0.  1.
</event>
<event>
 5   0  0.1001961E-05  0.3101835E+04  0.7818609E-02  0.8215235E-01
       -2   -1    0    0    0  501  0.00000000000E+00  0.00000000000E+00  0.88932181176E+03  0.88932181177E+03  0.25500000920E-02 0.  1.
        2   -1    0    0  501    0  0.00000000000E+00  0.00000000000E+00 -0.27046958834E+04  0.27046958834E+04  0.25500000920E-02 0. -1.
    10030    2    1    2    0    0  0.00000000000E+00  0.00000000000E+00 -0.18153740716E+04  0.35940176952E+04  0.31018349687E+04 0.  0.
        5    1    3    3  502    0 -0.26046243558E+03 -0.55316696046E+03  0.74377546470E+03  0.96283871878E+03  0.46999998093E+01 0.  1.
       -5    1    3    3    0  502  0.26046243558E+03  0.55316696046E+03 -0.25591495363E+04  0.26311789764E+04  0.46999998093E+01 0. -1.
</event>
<event>
 5   0  0.3848286E-06  0.2163054E+04  0.7818609E-02  0.8533965E-01
        1   -1    0    0  501    0  0.00000000000E+00  0.00000000000E+00  0.13749446000E+04  0.13749446000E+04  0.50400001928E-02 0.  1.
       -1   -1    0    0    0  501  0.00000000000E+00  0.00000000000E+00 -0.85072594753E+03  0.85072594755E+03  0.50400001928E-02 0. -1.
    10030    2    1    2    0    0  0.00000000000E+00  0.00000000000E+00  0.52421865243E+03  0.22256705475E+04  0.21630543661E+04 0.  0.
        2    1    3    3  502    0 -0.57831275523E+03 -0.29568199215E+03  0.11519129664E+04  0.13224133111E+04  0.25500000920E-02 0.  1.
       -2    1    3    3    0  502  0.57831275523E+03  0.29568199215E+03 -0.62769431394E+03  0.90325723640E+03  0.25500000920E-02 0. -1.
</event>
<event>
 5   0  0.4139628E-06  0.3025602E+04  0.7818609E-02  0.8236458E-01
        1   -1    0    0  501    0  0.00000000000E+00  0.00000000000E+00  0.15088809734E+04  0.15088809734E+04  0.50400001928E-02 0.  1.
       -1   -1    0    0    0  501  0.00000000000E+00  0.00000000000E+00 -0.15167311040E+04  0.15167311040E+04  0.50400001928E-02 0. -1.
    10030    2    1    2    0    0  0.00000000000E+00  0.00000000000E+00 -0.78501306759E+01  0.30256120774E+04  0.30256018936E+04 0.  0.
        5    1    3    3  502    0 -0.89326069929E+03  0.10297179065E+03  0.12126425289E+04  0.15096495817E+04  0.46999998093E+01 0.  1.
       -5    1    3    3    0  502  0.89326069929E+03 -0.10297179065E+03 -0.12204926595E+04  0.15159624958E+04  0.46999998093E+01 0. -1.
</event>
<event>
 5   0  0.1108153E-05  0.3082121E+04  0.7818609E-02  0.8220662E-01
       -2   -1    0    0    0  501  0.00000000000E+00  0.00000000000E+00  0.94072753432E+03  0.94072753432E+03  0.25500000920E-02 0.  1.
        2   -1    0    0  501    0  0.00000000000E+00  0.00000000000E+00 -0.25245011608E+04  0.25245011608E+04  0.25500000920E-02 0. -1.
    10030    2    1    2    0    0  0.00000000000E+00  0.00000000000E+00 -0.15837736265E+04  0.34652286952E+04  0.30821211867E+04 0.  0.
        4    1    3    3  502    0 -0.51839214292E+00  0.94135583613E+03  0.57990429087E+03  0.11056408451E+04  0.12699999809E+01 0.  1.
       -4    1    3    3    0  502  0.51839214292E+00 -0.94135583613E+03 -0.21636779174E+04  0.23595878500E+04  0.12699999809E+01 0. -1.
</event>
<event>
 5   0  0.3838525E-06  0.3172168E+04  0.7818609E-02  0.8196206E-01
       -1   -1    0    0    0  501  0.00000000000E+00  0.00000000000E+00  0.14822563975E+04  0.14822563975E+04  0.50400001928E-02 0. -1.
        1   -1    0    0  501    0  0.00000000000E+00  0.00000000000E+00 -0.16971847319E+04  0.16971847319E+04  0.50400001928E-02 0.  1.
    10030    2    1    2    0    0  0.00000000000E+00  0.00000000000E+00 -0.21492833441E+03  0.31794411294E+04  0.31721682973E+04 0.  0.
        3    1    3    3  502    0 -0.12509545178E+04  0.57685549461E+03 -0.89540486117E+03  0.16429848882E+04  0.10100000352E+00 0. -1.
       -3    1    3    3    0  502  0.12509545178E+04 -0.57685549461E+03  0.68047652676E+03  0.15364562412E+04  0.10100000352E+00 0.  1.
</event>
<event>
 5   0  0.1108153E-05  0.3204883E+04  0.7818609E-02  0.8187529E-01
       -2   -1    0    0    0  501  0.00000000000E+00  0.00000000000E+00  0.27526621609E+04  0.27526621609E+04  0.25500000920E-02 0.  1.
        2   -1    0    0  501    0  0.00000000000E+00  0.00000000000E+00 -0.93284935178E+03  0.93284935179E+03  0.25500000920E-02 0. -1.
    10030    2    1    2    0    0  0.00000000000E+00  0.00000000000E+00  0.18198128091E+04  0.36855115127E+04  0.32048832194E+04 0.  0.
        4    1    3    3  502    0  0.15752001688E+04 -0.28793578735E+03  0.84038413975E+03  0.18084274121E+04  0.12699999809E+01 0. -1.
       -4    1    3    3    0  502 -0.15752001688E+04  0.28793578735E+03  0.97942866935E+03  0.18770841006E+04  0.12699999809E+01 0.  1.
</event>
<event>
 5   0  0.3838525E-06  0.2011408E+04  0.7818609E-02  0.8601305E-01
        1   -1    0    0  501    0  0.00000000000E+00  0.00000000000E+00  0.13109475287E+04  0.13109475288E+04  0.50400001928E-02 0.  1.
       -1   -1    0    0    0  501  0.00000000000E+00  0.00000000000E+00 -0.77153408811E+03  0.77153408813E+03  0.50400001928E-02 0. -1.
    10030    2    1    2    0    0  0.00000000000E+00  0.00000000000E+00  0.53941344063E+03  0.20824816169E+04  0.20114081696E+04 0.  0.
        3    1    3    3  502    0  0.66778725392E+03  0.72035577989E+03  0.49317711888E+03  0.10991250825E+04  0.10100000352E+00 0. -1.
       -3    1    3    3    0  502 -0.66778725392E+03 -0.72035577989E+03  0.46236321748E+02  0.98335653441E+03  0.10100000352E+00 0.  1.
</event>
<event>
 5   0  0.4250961E-06  0.3246361E+04  0.7818609E-02  0.8176680E-01
       -1   -1    0    0    0  501  0.00000000000E+00  0.00000000000E+00  0.94735287992E+03  0.94735287994E+03  0.50400001928E-02 0. -1.
        1   -1    0    0  501    0  0.00000000000E+00  0.00000000000E+00 -0.27811337012E+04  0.27811337012E+04  0.50400001928E-02 0.  1.
    10030    2    1    2    0    0  0.00000000000E+00  0.00000000000E+00 -0.18337808212E+04  0.37284865811E+04  0.32463610528E+04 0.  0.
        1    1    3    3  502    0 -0.13041647139E+04  0.75408689900E+03 -0.16109782725E+04  0.22056163871E+04  0.50400001928E-02 0.  1.
       -1    1    3    3    0  502  0.13041647139E+04 -0.75408689900E+03 -0.22280254870E+03  0.15228701941E+04  0.50400001928E-02 0. -1.
</event>
<event>
 5   0  0.9797278E-06  0.3135113E+04  0.7818609E-02  0.8206167E-01
        2   -1    0    0  501    0  0.00000000000E+00  0.00000000000E+00  0.95645047919E+03  0.95645047919E+03  0.25500000920E-02 0. -1.
       -2   -1    0    0    0  501  0.00000000000E+00  0.00000000000E+00 -0.25691175731E+04  0.25691175731E+04  0.25500000920E-02 0.  1.
    10030    2    1    2    0    0  0.00000000000E+00  0.00000000000E+00 -0.16126670939E+04  0.35255680523E+04  0.31351132253E+04 0.  0.
        1    1    3    3  502    0 -0.24933462379E+03  0.67308048050E+03  0.76079162970E+03  0.10459488475E+04  0.50400001928E-02 0. -1.
       -1    1    3    3    0  502  0.24933462379E+03 -0.67308048050E+03 -0.23734587236E+04  0.24796192048E+04  0.50400001928E-02 0.  1.
</event>
<event>
 5   0  0.9797278E-06  0.3316171E+04  0.7818609E-02  0.8158793E-01
        2   -1    0    0  501    0  0.00000000000E+00  0.00000000000E+00  0.18967014989E+04  0.18967014989E+04  0.25500000920E-02 0.  1.
       -2   -1    0    0    0  501  0.00000000000E+00  0.00000000000E+00 -0.14494884661E+04  0.14494884661E+04  0.25500000920E-02 0. -1.
    10030    2    1    2    0    0  0.00000000000E+00  0.00000000000E+00  0.44721303281E+03  0.33461899651E+04  0.33161706508E+04 0.  0.
        1    1    3    3  502    0  0.55366444818E+02 -0.70769460018E+03  0.17356202328E+04  0.18751732407E+04  0.50400001928E-02 0.  1.
       -1    1    3    3    0  502 -0.55366444818E+02  0.70769460018E+03 -0.12884072000E+04  0.14710167243E+04  0.50400001928E-02 0. -1.
</event>
<event>
 5   0  0.1108153E-05  0.3109468E+04  0.7818609E-02  0.8213144E-01
        2   -1    0    0  501    0  0.00000000000E+00  0.00000000000E+00  0.15207976309E+04  0.15207976309E+04  0.25500000920E-02 0. -1.
       -2   -1    0    0    0  501  0.00000000000E+00  0.00000000000E+00 -0.15894279725E+04  0.15894279725E+04  0.25500000920E-02 0.  1.
    10030    2    1    2    0    0  0.00000000000E+00  0.00000000000E+00 -0.68630341580E+02  0.31102256034E+04  0.31094683115E+04 0.  0.
        4    1    3    3  502    0  0.10348230030E+04  0.48439627134E+03 -0.10889429950E+04  0.15783842543E+04  0.12699999809E+01 0.  1.
       -4    1    3    3    0  502 -0.10348230030E+04 -0.48439627134E+03  0.10203126534E+04  0.15318413491E+04  0.12699999809E+01 0. -1.
</event>
<event>
 5   0  0.1108153E-05  0.3095367E+04  0.7818609E-02  0.8217010E-01
        2   -1    0    0  501    0  0.00000000000E+00  0.00000000000E+00  0.19084234891E+04  0.19084234891E+04  0.25500000920E-02 0. -1.
       -2   -1    0    0    0  501  0.00000000000E+00  0.00000000000E+00 -0.12551326399E+04  0.12551326399E+04  0.25500000920E-02 0.  1.
    10030    2    1    2    0    0  0.00000000000E+00  0.00000000000E+00  0.65329084912E+03  0.31635561290E+04  0.30953672557E+04 0.  0.
        4    1    3    3  502    0 -0.86111336842E+02  0.10112237272E+04 -0.86757055497E+03  0.13351662329E+04  0.12699999809E+01 0.  1.
       -4    1    3    3    0  502  0.86111336842E+02 -0.10112237272E+04  0.15208614041E+04  0.18283898961E+04  0.12699999809E+01 0. -1.
</event>
<event>
 5   0  0.4250961E-06  0.2531477E+04  0.7818609E-02  0.8391857E-01
       -1   -1    0    0    0  501  0.00000000000E+00  0.00000000000E+00  0.14899298468E+04  0.14899298468E+04  0.50400001928E-02 0.  1.
        1   -1    0    0  501    0  0.00000000000E+00  0.00000000000E+00 -0.10752816899E+04  0.10752816900E+04  0.50400001928E-02 0. -1.
    10030    2    1    2    0    0  0.00000000000E+00  0.00000000000E+00  0.41464815686E+03  0.25652115368E+04  0.25314772633E+04 0.  0.
        1    1    3    3  502    0 -0.10275949264E+03  0.69748811635E+03 -0.85789553548E+03  0.11104206120E+04  0.50400001928E-02 0. -1.
       -1    1    3    3    0  502  0.10275949264E+03 -0.69748811635E+03  0.12725436923E+04  0.14547909247E+04  0.50400001928E-02 0.  1.
</event>
<event>
 5   0  0.3838525E-06  0.3099088E+04  0.7818609E-02  0.8215988E-01
       -1   -1    0    0    0  501  0.00000000000E+00  0.00000000000E+00  0.16872306930E+04  0.16872306930E+04  0.50400001928E-02 0.  1.
        1   -1    0    0  501    0  0.00000000000E+00  0.00000000000E+00 -0.14230933605E+04  0.14230933605E+04  0.50400001928E-02 0. -1.
    10030    2    1    2    0    0  0.00000000000E+00  0.00000000000E+00  0.26413733257E+03  0.31103240535E+04  0.30990881219E+04 0.  0.
        3    1    3    3  502    0  0.85972748618E+03  0.99055003816E+03  0.96014554897E+03  0.16254846090E+04  0.10100000352E+00 0.  1.
       -3    1    3    3    0  502 -0.85972748618E+03 -0.99055003816E+03 -0.69600821640E+03  0.14848394446E+04  0.10100000352E+00 0. -1.
</event>
<event>
 5   0  0.1119100E-05  0.3066623E+04  0.7818609E-02  0.8224958E-01
       -2   -1    0    0    0  501  0.00000000000E+00  0.00000000000E+00  0.12305784803E+04  0.12305784803E+04  0.25500000920E-02 0. -1.
        2   -1    0    0  501    0  0.00000000000E+00  0.00000000000E+00 -0.19105191005E+04  0.19105191005E+04  0.25500000920E-02 0.  1.
    10030    2    1    2    0    0  0.00000000000E+00  0.00000000000E+00 -0.67994062017E+03  0.31410975808E+04  0.30666226969E+04 0.  0.
        2    1    3    3  502    0 -0.23579864350E+03 -0.50094652686E+03 -0.18045538117E+04  0.18875812253E+04  0.25500000920E-02 0.  1.
       -2    1    3    3    0  502  0.23579864350E+03  0.50094652686E+03  0.11246131915E+04  0.12535163555E+04  0.25500000920E-02 0. -1.
</event>
<event>
 5   0  0.3848286E-06  0.3055234E+04  0.7818609E-02  0.8228132E-01
        1   -1    0    0  501    0  0.00000000000E+00  0.00000000000E+00  0.18229863533E+04  0.18229863533E+04  0.50400001928E-02 0.  1.
       -1   -1    0    0    0  501  0.00000000000E+00  0.00000000000E+00 -0.12801050144E+04  0.12801050144E+04  0.50400001928E-02 0. -1.
    10030    2    1    2    0    0  0.00000000000E+00  0.00000000000E+00  0.54288133884E+03  0.31030913677E+04  0.30552341790E+04 0.  0.
        2    1    3    3  502    0 -0.11071308210E+04 -0.11818461220E+03  0.13337240865E+04  0.17373906286E+04  0.25500000920E-02 0.  1.
       -2    1    3    3    0  502  0.11071308210E+04  0.11818461220E+03 -0.79084274769E+03  0.13657007391E+04  0.25500000920E-02 0. -1.
</event>
<event>
 5   0  0.3807334E-06  0.3102106E+04  0.7818609E-02  0.8215160E-01
        1   -1    0    0  501    0  0.00000000000E+00  0.00000000000E+00  0.17318525705E+04  0.17318525705E+04  0.50400001928E-02 0. -1.
       -1   -1    0    0    0  501  0.00000000000E+00  0.00000000000E+00 -0.13891282232E+04  0.13891282232E+04  0.50400001928E-02 0.  1.
    10030    2    1    2    0    0  0.00000000000E+00  0.00000000000E+00  0.34272434732E+03  0.31209807937E+04  0.31021059196E+04 0.  0.
        4    1    3    3  502    0 -0.24782454755E+03 -0.53003691700E+02 -0.13681566781E+04  0.13914311720E+04  0.12699999809E+01 0.  1.
       -4    1    3    3    0  502  0.24782454755E+03  0.53003691700E+02  0.17108810255E+04  0.17295496217E+04  0.12699999809E+01 0. -1.
</event>
<event>
 5   0  0.3807334E-06  0.3244999E+04  0.7818609E-02  0.8177033E-01
       -1   -1    0    0    0  501  0.00000000000E+00  0.00000000000E+00  0.10210597011E+04  0.10210597011E+04  0.50400001928E-02 0.  1.
        1   -1    0    0  501    0  0.00000000000E+00  0.00000000000E+00 -0.25782076568E+04  0.25782076568E+04  0.50400001928E-02 0. -1.
    10030    2    1    2    0    0  0.00000000000E+00  0.00000000000E+00 -0.15571479557E+04  0.35992673579E+04  0.32449985759E+04 0.  0.
        4    1    3    3  502    0 -0.12705412833E+04 -0.98667382711E+03 -0.10130847235E+04  0.19010898620E+04  0.12699999809E+01 0. -1.
       -4    1    3    3    0  502  0.12705412833E+04  0.98667382711E+03 -0.54406323225E+03  0.16981774958E+04  0.12699999809E+01 0.  1.
</event>
<event>
 5   0  0.1119100E-05  0.3097924E+04  0.7818609E-02  0.8216308E-01
       -2   -1    0    0    0  501  0.00000000000E+00  0.00000000000E+00  0.13120573174E+04  0.13120573174E+04  0.25500000920E-02 0.  1.
        2   -1    0    0  501    0  0.00000000000E+00  0.00000000000E+00 -0.18286418779E+04  0.18286418779E+04  0.25500000920E-02 0. -1.
    10030    2    1    2    0    0  0.00000000000E+00  0.00000000000E+00 -0.51658456045E+03  0.31406991953E+04  0.30979237930E+04 0.  0.
        2    1    3    3  502    0 -0.30455559085E+03 -0.34275068428E+03 -0.17582656020E+04  0.18170663352E+04  0.25500000920E-02 0. -1.
       -2    1    3    3    0  502  0.30455559085E+03  0.34275068428E+03  0.12416810415E+04  0.13236328601E+04  0.25500000920E-02 0.  1.
</event>
<event>
 5   0  0.4250961E-06  0.2509214E+04  0.7818609E-02  0.8399710E-01
       -1   -1    0    0    0  501  0.00000000000E+00  0.00000000000E+00  0.69153032356E+03  0.69153032358E+03  0.50400001928E-02 0. -1.
        1   -1    0    0  501    0  0.00000000000E+00  0.00000000000E+00 -0.22761667760E+04  0.22761667760E+04  0.50400001928E-02 0.  1.
    10030    2    1    2    0    0  0.00000000000E+00  0.00000000000E+00 -0.15846364524E+04  0.29676970995E+04  0.25092136992E+04 0.  0.
        1    1    3    3  502    0  0.37589899195E+03  0.56553569979E+02 -0.22064180772E+04  0.22389236454E+04  0.50400001928E-02 0.  1.
       -1    1    3    3    0  502 -0.37589899195E+03 -0.56553569979E+02  0.62178162484E+03  0.72877345412E+03  0.50400001928E-02 0. -1.
</event>
<event>
 5   0  0.1119100E-05  0.3119722E+04  0.7818609E-02  0.8210346E-01
       -2   -1    0    0    0  501  0.00000000000E+00  0.00000000000E+00  0.12939153749E+04  0.12939153749E+04  0.25500000920E-02 0.  1.
        2   -1    0    0  501    0  0.00000000000E+00  0.00000000000E+00 -0.18804684397E+04  0.18804684397E+04  0.25500000920E-02 0. -1.
    10030    2    1    2    0    0  0.00000000000E+00  0.00000000000E+00 -0.58655306483E+03  0.31743838146E+04  0.31197224403E+04 0.  0.
        2    1    3    3  502    0 -0.13881122182E+04 -0.58741941772E+03 -0.70187171122E+03  0.16626908918E+04  0.25500000920E-02 0.  1.
       -2    1    3    3    0  502  0.13881122182E+04  0.58741941772E+03  0.11531864639E+03  0.15116929228E+04  0.25500000920E-02 0. -1.
</event>
<event>
 5   0  0.1119100E-05  0.3115356E+04  0.7818609E-02  0.8211536E-01
        2   -1    0    0  501    0  0.00000000000E+00  0.00000000000E+00  0.16316981455E+04  0.16316981455E+04  0.25500000920E-02 0. -1.
       -2   -1    0    0    0  501  0.00000000000E+00  0.00000000000E+00 -0.14870154371E+04  0.14870154371E+04  0.25500000920E-02 0.  1.
    10030    2    1    2    0    0  0.00000000000E+00  0.00000000000E+00  0.14468270837E+03  0.31187135826E+04  0.31153557299E+04 0.  0.
        2    1    3    3  502    0  0.12883948719E+04 -0.84621060159E+03 -0.15223635910E+03  0.15489382290E+04  0.25500000920E-02 0.  1.
       -2    1    3    3    0  502 -0.12883948719E+04  0.84621060159E+03  0.29691906747E+03  0.15697753536E+04  0.25500000920E-02 0. -1.
</event>
<event>
 5   0  0.1119100E-05  0.2222679E+04  0.7818609E-02  0.8509047E-01
        2   -1    0    0  501    0  0.00000000000E+00  0.00000000000E+00  0.22715680851E+04  0.22715680851E+04  0.25500000920E-02 0. -1.
       -2   -1    0    0    0  501  0.00000000000E+00  0.00000000000E+00 -0.54371060882E+03  0.54371060883E+03  0.25500000920E-02 0.  1.
    10030    2    1    2    0    0  0.00000000000E+00  0.00000000000E+00  0.17278574763E+04  0.28152786940E+04  0.22226791640E+04 0.  0.
        2    1    3    3  502    0  0.66133958419E+03  0.86426810748E+03  0.11492582100E+04  0.15827583013E+04  0.25500000920E-02 0.  1.
       -2    1    3    3    0  502 -0.66133958419E+03 -0.86426810748E+03  0.57859926631E+03  0.12325203926E+04  0.25500000920E-02 0. -1.
</event>
<event>
 5   0  0.9797278E-06  0.3109891E+04  0.7818609E-02  0.8213029E-01
        2   -1    0    0  501    0  0.00000000000E+00  0.00000000000E+00  0.30987927981E+04  0.30987927981E+04  0.25500000920E-02 0. -1.
       -2   -1    0    0    0  501  0.00000000000E+00  0.00000000000E+00 -0.78025739529E+03  0.78025739530E+03  0.25500000920E-02 0.  1.
    10030    2    1    2    0    0  0.00000000000E+00  0.00000000000E+00  0.23185354028E+04  0.38790501934E+04  0.31098913146E+04 0.  0.
        1    1    3    3  502    0 -0.13383521451E+03 -0.14622979668E+04  0.17972710427E+04  0.23208641514E+04  0.50400001928E-02 0. -1.
       -1    1    3    3    0  502  0.13383521451E+03  0.14622979668E+04  0.52126436005E+03  0.15581860420E+04  0.50400001928E-02 0.  1.
</event>
<event>
 5   0  0.3848286E-06  0.3111429E+04  0.7818609E-02  0.8212608E-01
        1   -1    0    0  501    0  0.00000000000E+00  0.00000000000E+00  0.18200455108E+04  0.18200455108E+04  0.50400001928E-02 0.  1.
       -1   -1    0    0    0  501  0.00000000000E+00  0.00000000000E+00 -0.13297729724E+04  0.13297729724E+04  0.50400001928E-02 0. -1.
    10030    2    1    2    0    0  0.00000000000E+00  0.00000000000E+00  0.49027253842E+03  0.31498184832E+04  0.31114288222E+04 0.  0.
        2    1    3    3  502    0 -0.74870684561E+03  0.80509957517E+03 -0.86912587759E+03  0.14014731741E+04  0.25500000920E-02 0. -1.
       -2    1    3    3    0  502  0.74870684561E+03 -0.80509957517E+03  0.13593984160E+04  0.17483453092E+04  0.25500000920E-02 0.  1.
</event>
<event>
 5   0  0.1108153E-05  0.3117481E+04  0.7818609E-02  0.8210957E-01
       -2   -1    0    0    0  501  0.00000000000E+00  0.00000000000E+00  0.98229207903E+03  0.98229207903E+03  0.25500000920E-02 0.  1.
        2   -1    0    0  501    0  0.00000000000E+00  0.00000000000E+00 -0.24734727830E+04  0.24734727830E+04  0.25500000920E-02 0. -1.
    10030    2    1    2    0    0  0.00000000000E+00  0.00000000000E+00 -0.14911807039E+04  0.34557648620E+04  0.31174814979E+04 0.  0.
        4    1    3    3  502    0  0.10955268858E+04 -0.25663041524E+03 -0.19413620596E+04  0.22438642087E+04  0.12699999809E+01 0. -1.
       -4    1    3    3    0  502 -0.10955268858E+04  0.25663041524E+03  0.45018135567E+03  0.12119006533E+04  0.12699999809E+01 0.  1.
</event>
<event>
 5   0  0.1001961E-05  0.2948325E+04  0.7818609E-02  0.8258643E-01
        2   -1    0    0  501    0  0.00000000000E+00  0.00000000000E+00  0.11345072357E+04  0.11345072357E+04  0.25500000920E-02 0.  1.
       -2   -1    0    0    0  501  0.00000000000E+00  0.00000000000E+00 -0.19155056199E+04  0.19155056199E+04  0.25500000920E-02 0. -1.
    10030    2    1    2    0    0  0.00000000000E+00  0.00000000000E+00 -0.78099838418E+03  0.30500128555E+04  0.29483249385E+04 0.  0.
        5    1    3    3  502    0  0.10393551623E+04 -0.66088933284E+03 -0.12284355262E+04  0.17395717276E+04  0.46999998093E+01 0. -1.
       -5    1    3    3    0  502 -0.10393551623E+04  0.66088933284E+03  0.44743714200E+03  0.13104411279E+04  0.46999998093E+01 0.  1.
</event>
<event>
 5   0  0.3838525E-06  0.3047131E+04  0.7818609E-02  0.8230399E-01
       -1   -1    0    0    0  501  0.00000000000E+00  0.00000000000E+00  0.17572270904E+04  0.17572270904E+04  0.50400001928E-02 0. -1.
        1   -1    0    0  501    0  0.00000000000E+00  0.00000000000E+00 -0.13209746976E+04  0.13209746976E+04  0.50400001928E-02 0.  1.
    10030    2    1    2    0    0  0.00000000000E+00  0.00000000000E+00  0.43625239278E+03  0.30782017880E+04  0.30471314539E+04 0.  0.
        3    1    3    3  502    0 -0.25328734654E+03 -0.10468016417E+03 -0.12958683693E+04  0.13245328450E+04  0.10100000352E+00 0.  1.
       -3    1    3    3    0  502  0.25328734654E+03  0.10468016417E+03  0.17321207621E+04  0.17536689429E+04  0.10100000352E+00 0. -1.
</event>
<event>
 5   0  0.1001961E-05  0.3175092E+04  0.7818609E-02  0.8195426E-01
        2   -1    0    0  501    0  0.00000000000E+00  0.00000000000E+00  0.17680166057E+04  0.17680166057E+04  0.25500000920E-02 0.  1.
       -2   -1    0    0    0  501  0.00000000000E+00  0.00000000000E+00 -0.14254970285E+04  0.14254970285E+04  0.25500000920E-02 0. -1.
    10030    2    1    2    0    0  0.00000000000E+00  0.00000000000E+00  0.34251957726E+03  0.31935136342E+04  0.31750920728E+04 0.  0.
        5    1    3    3  502    0  0.63655626648E+03  0.10226726942E+04 -0.86876904589E+03  0.14852087614E+04  0.46999998093E+01 0. -1.
       -5    1    3    3    0  502 -0.63655626648E+03 -0.10226726942E+04  0.12112886231E+04  0.17083048728E+04  0.46999998093E+01 0.  1.
</event>
<event>
 5   0  0.4139628E-06  0.2896165E+04  0.7818609E-02  0.8274019E-01
        1   -1    0    0  501    0  0.00000000000E+00  0.00000000000E+00  0.25497519111E+04  0.25497519111E+04  0.50400001928E-02 0.  1.
       -1   -1    0    0    0  501  0.00000000000E+00  0.00000000000E+00 -0.82241051466E+03  0.82241051468E+03  0.50400001928E-02 0. -1.
    10030    2    1    2    0    0  0.00000000000E+00  0.00000000000E+00  0.17273413965E+04  0.33721624258E+04  0.28961648997E+04 0.  0.
        5    1    3    3  502    0  0.13927390154E+04 -0.16908894396E+03  0.44611096641E+03  0.14721922837E+04  0.46999998093E+01 0. -1.
       -5    1    3    3    0  502 -0.13927390154E+04  0.16908894396E+03  0.12812304301E+04  0.18999701421E+04  0.46999998093E+01 0.  1.
</event>
<event>
 5   0  0.1001961E-05  0.3114862E+04  0.7818609E-02  0.8211671E-01
       -2   -1    0    0    0  501  0.00000000000E+00  0.00000000000E+00  0.74245777237E+03  0.74245777238E+03  0.25500000920E-02 0. -1.
        2   -1    0    0  501    0  0.00000000000E+00  0.00000000000E+00 -0.32669758745E+04  0.32669758745E+04  0.25500000920E-02 0.  1.
    10030    2    1    2    0    0  0.00000000000E+00  0.00000000000E+00 -0.25245181021E+04  0.40094336469E+04  0.31148621993E+04 0.  0.
        5    1    3    3  502    0  0.10059533779E+04 -0.43348927471E+03  0.16281960233E+03  0.11074237955E+04  0.46999998093E+01 0. -1.
       -5    1    3    3    0  502 -0.10059533779E+04  0.43348927471E+03 -0.26873377044E+04  0.29020098514E+04  0.46999998093E+01 0.  1.
</event>
<event>
 5   0  0.1119100E-05  0.3217680E+04  0.7818609E-02  0.8184164E-01
       -2   -1    0    0    0  501  0.00000000000E+00  0.00000000000E+00  0.16032904510E+04  0.16032904510E+04  0.25500000920E-02 0.  1.
        2   -1    0    0  501    0  0.00000000000E+00  0.00000000000E+00 -0.16144084505E+04  0.16144084505E+04  0.25500000920E-02 0. -1.
    10030    2    1    2    0    0  0.00000000000E+00  0.00000000000E+00 -0.11117999556E+02  0.32176989015E+04  0.32176796936E+04 0.  0.
        2    1    3    3  502    0  0.10145663784E+04 -0.60131621422E+03 -0.10998413323E+04  0.16126304852E+04  0.25500000920E-02 0. -1.
       -2    1    3    3    0  502 -0.10145663784E+04  0.60131621422E+03  0.10887233328E+04  0.16050684163E+04  0.25500000920E-02 0.  1.
</event>
<event>
 5   0  0.4250961E-06  0.3128361E+04  0.7818609E-02  0.8207997E-01
        1   -1    0    0  501    0  0.00000000000E+00  0.00000000000E+00  0.25747955729E+04  0.25747955729E+04  0.50400001928E-02 0.  1.
       -1   -1    0    0    0  501  0.00000000000E+00  0.00000000000E+00 -0.95023510185E+03  0.95023510186E+03  0.50400001928E-02 0. -1.
    10030    2    1    2    0    0  0.00000000000E+00  0.00000000000E+00  0.16245604711E+04  0.35250306748E+04  0.31283613177E+04 0.  0.
        1    1    3    3  502    0 -0.10483620292E+04 -0.17679604261E+03 -0.48051652475E+03  0.11667115820E+04  0.50400001928E-02 0. -1.
       -1    1    3    3    0  502  0.10483620292E+04  0.17679604261E+03  0.21050769958E+04  0.23583190928E+04  0.50400001928E-02 0.  1.
</event>
<event>
 5   0  0.3838525E-06  0.1896030E+04  0.7818609E-02  0.8656835E-01
        1   -1    0    0  501    0  0.00000000000E+00  0.00000000000E+00  0.14670311829E+04  0.14670311829E+04  0.50400001928E-02 0.  1.
       -1   -1    0    0    0  501  0.00000000000E+00  0.00000000000E+00 -0.61261977913E+03  0.61261977915E+03  0.50400001928E-02 0. -1.
    10030    2    1    2    0    0  0.00000000000E+00  0.00000000000E+00  0.85441140372E+03  0.20796509620E+04  0.18960298724E+04 0.  0.
        3    1    3    3  502    0 -0.42024427990E+02 -0.83625379285E+03 -0.60422849478E+02  0.83948638437E+03  0.10100000352E+00 0. -1.
       -3    1    3    3    0  502  0.42024427990E+02  0.83625379285E+03  0.91483425320E+03  0.12401645776E+04  0.10100000352E+00 0.  1.
</event>
<event>
 5   0  0.1108153E-05  0.3539214E+04  0.7818609E-02  0.8104559E-01
       -2   -1    0    0    0  501  0.00000000000E+00  0.00000000000E+00  0.17577936191E+04  0.17577936191E+04  0.25500000920E-02 0.  1.
        2   -1    0    0  501    0  0.00000000000E+00  0.00000000000E+00 -0.17814993812E+04  0.17814993812E+04  0.25500000920E-02 0. -1.
    10030    2    1    2    0    0  0.00000000000E+00  0.00000000000E+00 -0.23705762089E+02  0.35392930002E+04  0.35392136101E+04 0.  0.
        4    1    3    3  502    0 -0.26848240102E+03 -0.40495368481E+03 -0.17134892244E+04  0.17810438572E+04  0.12699999809E+01 0. -1.
       -4    1    3    3    0  502  0.26848240102E+03  0.40495368481E+03  0.16897834623E+04  0.17582491430E+04  0.12699999809E+01 0.  1.
</event>
<event>
 5   0  0.1108153E-05  0.2451899E+04  0.7818609E-02  0.8420325E-01
       -2   -1    0    0    0  501  0.00000000000E+00  0.00000000000E+00  0.98537050686E+03  0.98537050686E+03  0.25500000920E-02 0.  1.
        2   -1    0    0  501    0  0.00000000000E+00  0.00000000000E+00 -0.15252661746E+04  0.15252661746E+04  0.25500000920E-02 0. -1.
    10030    2    1    2    0    0  0.00000000000E+00  0.00000000000E+00 -0.53989566771E+03  0.25106366814E+04  0.24518991036E+04 0.  0.
        4    1    3    3  502    0 -0.41178451200E+03 -0.84862301257E+03  0.53189741364E+03  0.10828868700E+04  0.12699999809E+01 0.  1.
       -4    1    3    3    0  502  0.41178451200E+03  0.84862301257E+03 -0.10717930813E+04  0.14277498114E+04  0.12699999809E+01 0. -1.
</event>
<event>
 5   0  0.9797278E-06  0.3075989E+04  0.7818609E-02  0.8222359E-01
        2   -1    0    0  501    0  0.00000000000E+00  0.00000000000E+00  0.13853029296E+04  0.13853029296E+04  0.25500000920E-02 0.  1.
       -2   -1    0    0    0  501  0.00000000000E+00  0.00000000000E+00 -0.17075162870E+04  0.17075162870E+04  0.25500000920E-02 0. -1.
    10030    2    1    2    0    0  0.00000000000E+00  0.00000000000E+00 -0.32221335742E+03  0.30928192166E+04  0.30759891513E+04 0.  0.
        1    1    3    3  502    0 -0.65565190983E+03  0.16787697501E+03 -0.15497370640E+04  0.16910786715E+04  0.50400001928E-02 0. -1.
       -1    1    3    3    0  502  0.65565190983E+03 -0.16787697501E+03  0.12275237066E+04  0.14017405451E+04  0.50400001928E-02 0.  1.
</event>
<event>
 5   0  0.1001961E-05  0.2886899E+04  0.7818609E-02  0.8276786E-01
        2   -1    0    0  501    0  0.00000000000E+00  0.00000000000E+00  0.21302623574E+04  0.21302623574E+04  0.25500000920E-02 0.  1.
       -2   -1    0    0    0  501  0.00000000000E+00  0.00000000000E+00 -0.97807052039E+03  0.97807052040E+03  0.25500000920E-02 0. -1.
    10030    2    1    2    0    0  0.00000000000E+00  0.00000000000E+00  0.11521918370E+04  0.31083328778E+04  0.28868992448E+04 0.  0.
        5    1    3    3  502    0  0.11074512666E+04  0.85803314314E+03  0.95040397634E+03  0.16929143484E+04  0.46999998093E+01 0.  1.
       -5    1    3    3    0  502 -0.11074512666E+04 -0.85803314314E+03  0.20178786064E+03  0.14154185294E+04  0.46999998093E+01 0. -1.
</event>
<event>
 5   0  0.3838525E-06  0.1836731E+04  0.7818609E-02  0.8687007E-01
        1   -1    0    0  501    0  0.00000000000E+00  0.00000000000E+00  0.90637838864E+03  0.90637838866E+03  0.50400001928E-02 0. -1.
       -1   -1    0    0    0  501  0.00000000000E+00  0.00000000000E+00 -0.93051087922E+03  0.93051087924E+03  0.50400001928E-02 0.  1.
    10030    2    1    2    0    0  0.00000000000E+00  0.00000000000E+00 -0.24132490581E+02  0.18368892679E+04  0.18367307384E+04 0.  0.
        3    1    3    3  502    0 -0.53187899784E+03  0.67809741755E+03  0.30526787831E+03  0.91427559508E+03  0.10100000352E+00 0. -1.
       -3    1    3    3    0  502  0.53187899784E+03 -0.67809741755E+03 -0.32940036889E+03  0.92261367281E+03  0.10100000352E+00 0.  1.
</event>
<event>
 5   0  0.4250961E-06  0.2512512E+04  0.7818609E-02  0.8398541E-01
       -1   -1    0    0    0  501  0.00000000000E+00  0.00000000000E+00  0.94157865014E+03  0.94157865016E+03  0.50400001928E-02 0.  1.
        1   -1    0    0  501    0  0.00000000000E+00  0.00000000000E+00 -0.16760995337E+04  0.16760995337E+04  0.50400001928E-02 0. -1.
    10030    2    1    2    0    0  0.00000000000E+00  0.00000000000E+00 -0.73452088355E+03  0.26176781839E+04  0.25125123176E+04 0.  0.
        1    1    3    3  502    0 -0.64486917564E+01 -0.12001829006E+04  0.19349820362E+02  0.12003561955E+04  0.50400001928E-02 0.  1.
       -1    1    3    3    0  502  0.64486917564E+01  0.12001829006E+04 -0.75387070391E+03  0.14173219884E+04  0.50400001928E-02 0. -1.
</event>
<event>
 5   0  0.1119100E-05  0.3026847E+04  0.7818609E-02  0.8236106E-01
       -2   -1    0    0    0  501  0.00000000000E+00  0.00000000000E+00  0.10389514977E+04  0.10389514977E+04  0.25500000920E-02 0. -1.
        2   -1    0    0  501    0  0.00000000000E+00  0.00000000000E+00 -0.22045795983E+04  0.22045795983E+04  0.25500000920E-02 0.  1.
    10030    2    1    2    0    0  0.00000000000E+00  0.00000000000E+00 -0.11656281006E+04  0.32435310960E+04  0.30268473866E+04 0.  0.
        2    1    3    3  502    0  0.53250007856E+03 -0.10175367842E+04  0.47340023298E+03  0.12421937134E+04  0.25500000920E-02 0. -1.
       -2    1    3    3    0  502 -0.53250007856E+03  0.10175367842E+04 -0.16390283336E+04  0.20013373826E+04  0.25500000920E-02 0.  1.
</event>
<event>
 5   0  0.4139628E-06  0.3127232E+04  0.7818609E-02  0.8208304E-01
        1   -1    0    0  501    0  0.00000000000E+00  0.00000000000E+00  0.17371328005E+04  0.17371328005E+04  0.50400001928E-02 0.  1.
       -1   -1    0    0    0  501  0.00000000000E+00  0.00000000000E+00 -0.14074310373E+04  0.14074310373E+04  0.50400001928E-02 0. -1.
    10030    2    1    2    0    0  0.00000000000E+00  0.00000000000E+00  0.32970176321E+03  0.31445638378E+04  0.31272317594E+04 0.  0.
        5    1    3    3  502    0 -0.13397658080E+04 -0.52201932886E+03  0.78258125164E+03  0.16370498176E+04  0.46999998093E+01 0.  1.
       -5    1    3    3    0  502  0.13397658080E+04  0.52201932886E+03 -0.45287948843E+03  0.15075140201E+04  0.46999998093E+01 0. -1.
</event>
<event>
 5   0  0.3838525E-06  0.3244261E+04  0.7818609E-02  0.8177225E-01
       -1   -1    0    0    0  501  0.00000000000E+00  0.00000000000E+00  0.29317410821E+04  0.29317410821E+04  0.50400001928E-02 0. -1.
        1   -1    0    0  501    0  0.00000000000E+00  0.00000000000E+00 -0.89752377762E+03  0.89752377763E+03  0.50400001928E-02 0.  1.
    10030    2    1    2    0    0  0.00000000000E+00  0.00000000000E+00  0.20342173045E+04  0.38292648598E+04  0.32442609828E+04 0.  0.
        3    1    3    3  502    0  0.12090210102E+03 -0.10535721833E+04 -0.43169492172E+03  0.11449856677E+04  0.10100000352E+00 0.  1.
       -3    1    3    3    0  502 -0.12090210102E+03  0.10535721833E+04  0.24659122262E+04  0.26842791921E+04  0.10100000352E+00 0. -1.
</event>
<event>
 5   0  0.3848286E-06  0.2017791E+04  0.7818609E-02  0.8598348E-01
        1   -1    0    0  501    0  0.00000000000E+00  0.00000000000E+00  0.15077809095E+04  0.15077809095E+04  0.50400001928E-02 0.  1.
       -1   -1    0    0    0  501  0.00000000000E+00  0.00000000000E+00 -0.67507845936E+03  0.67507845938E+03  0.50400001928E-02 0. -1.
    10030    2    1    2    0    0  0.00000000000E+00  0.00000000000E+00  0.83270245015E+03  0.21828593689E+04  0.20177912811E+04 0.  0.
        2    1    3    3  502    0  0.72544748805E+03 -0.61757323364E+03  0.77547126170E+03  0.12284243707E+04  0.25500000920E-02 0.  1.
       -2    1    3    3    0  502 -0.72544748805E+03  0.61757323364E+03  0.57231188449E+02  0.95443499819E+03  0.25500000920E-02 0. -1.
</event>
<event>
 5   0  0.1119100E-05  0.3105783E+04  0.7818609E-02  0.8214153E-01
        2   -1    0    0  501    0  0.00000000000E+00  0.00000000000E+00  0.17500513432E+04  0.17500513432E+04  0.25500000920E-02 0. -1.
       -2   -1    0    0    0  501  0.00000000000E+00  0.00000000000E+00 -0.13779433828E+04  0.13779433828E+04  0.25500000920E-02 0.  1.
    10030    2    1    2    0    0  0.00000000000E+00  0.00000000000E+00  0.37210796033E+03  0.31279947260E+04  0.31057827792E+04 0.  0.
        2    1    3    3  502    0 -0.78089325199E+03 -0.78078079687E+03 -0.91356888911E+03  0.14331856261E+04  0.25500000920E-02 0.  1.
       -2    1    3    3    0  502  0.78089325199E+03  0.78078079687E+03  0.12856768494E+04  0.16948090999E+04  0.25500000920E-02 0. -1.
</event>
<event>
 5   0  0.1007567E-05  0.3072712E+04  0.7818609E-02  0.8223267E-01
        2   -1    0    0  501    0  0.00000000000E+00  0.00000000000E+00  0.25675841550E+04  0.25675841550E+04  0.25500000920E-02 0.  1.
       -2   -1    0    0    0  501  0.00000000000E+00  0.00000000000E+00 -0.91930399017E+03  0.91930399017E+03  0.25500000920E-02 0. -1.
    10030    2    1    2    0    0  0.00000000000E+00  0.00000000000E+00  0.16482801648E+04  0.34868881452E+04  0.30727123906E+04 0.  0.
        3    1    3    3  502    0  0.48450855986E+03 -0.34168182106E+03 -0.78426249238E+03  0.98313919593E+03  0.10100000352E+00 0. -1.
       -3    1    3    3    0  502 -0.48450855986E+03  0.34168182106E+03  0.24325426572E+04  0.25037489492E+04  0.10100000352E+00 0.  1.
</event>
<event>
 5   0  0.4139628E-06  0.2993192E+04  0.7818609E-02  0.8245678E-01
        1   -1    0    0  501    0  0.00000000000E+00  0.00000000000E+00  0.10497556106E+04  0.10497556106E+04  0.50400001928E-02 0. -1.
       -1   -1    0    0    0  501  0.00000000000E+00  0.00000000000E+00 -0.21336384497E+04  0.21336384497E+04  0.50400001928E-02 0.  1.
    10030    2    1    2    0    0  0.00000000000E+00  0.00000000000E+00 -0.10838828391E+04  0.31833940603E+04  0.29931915632E+04 0.  0.
        5    1    3    3  502    0  0.62871694821E+03  0.70435903262E+02 -0.19844200916E+04  0.20828325443E+04  0.46999998093E+01 0.  1.
       -5    1    3    3    0  502 -0.62871694821E+03 -0.70435903262E+02  0.90053725251E+03  0.11005615160E+04  0.46999998093E+01 0. -1.
</event>
<event>
 5   0  0.4250961E-06  0.3122337E+04  0.7818609E-02  0.8209634E-01
       -1   -1    0    0    0  501  0.00000000000E+00  0.00000000000E+00  0.15131818060E+04  0.15131818060E+04  0.50400001928E-02 0.  1.
        1   -1    0    0  501    0  0.00000000000E+00  0.00000000000E+00 -0.16106771985E+04  0.16106771985E+04  0.50400001928E-02 0. -1.
    10030    2    1    2    0    0  0.00000000000E+00  0.00000000000E+00 -0.97495392530E+02  0.31238590045E+04  0.31223372221E+04 0.  0.
        1    1    3    3  502    0  0.12111067357E+04  0.98130960339E+03 -0.13538880200E+03  0.15646335643E+04  0.50400001928E-02 0.  1.
       -1    1    3    3    0  502 -0.12111067357E+04 -0.98130960339E+03  0.37893409466E+02  0.15592254402E+04  0.50400001928E-02 0. -1.
</event>
<event>
 5   0  0.3838525E-06  0.2934203E+04  0.7818609E-02  0.8262773E-01
        1   -1    0    0  501    0  0.00000000000E+00  0.00000000000E+00  0.21980120679E+04  0.21980120679E+04  0.50400001928E-02 0. -1.
       -1   -1    0    0    0  501  0.00000000000E+00  0.00000000000E+00 -0.97924236250E+03  0.97924236251E+03  0.50400001928E-02 0.  1.
    10030    2    1    2    0    0  0.00000000000E+00  0.00000000000E+00  0.12187697054E+04  0.31772544304E+04  0.29342028084E+04 0.  0.
        3    1    3    3  502    0  0.31022474179E+03 -0.68942005271E+03  0.19708508578E+04  0.21108748219E+04  0.10100000352E+00 0. -1.
       -3    1    3    3    0  502 -0.31022474179E+03  0.68942005271E+03 -0.75208115244E+03  0.10663796086E+04  0.10100000352E+00 0.  1.
</event>
<event>
 5   0  0.1001961E-05  0.3164003E+04  0.7818609E-02  0.8198389E-01
       -2   -1    0    0    0  501  0.00000000000E+00  0.00000000000E+00  0.10367933232E+04  0.10367933232E+04  0.25500000920E-02 0.  1.
        2   -1    0    0  501    0  0.00000000000E+00  0.00000000000E+00 -0.24139126986E+04  0.24139126986E+04  0.25500000920E-02 0. -1.
    10030    2    1    2    0    0  0.00000000000E+00  0.00000000000E+00 -0.13771193754E+04  0.34507060218E+04  0.31640028879E+04 0.  0.
        5    1    3    3  502    0 -0.53015368955E+03 -0.36665164142E+02  0.93652816003E+03  0.10768074820E+04  0.46999998093E+01 0.  1.
       -5    1    3    3    0  502  0.53015368955E+03  0.36665164142E+02 -0.23136475354E+04  0.23738985397E+04  0.46999998093E+01 0. -1.
</event>
<event>
 5   0  0.3493125E-06  0.1632610E+04  0.7818609E-02  0.8800761E-01
        3   -1    0    0  501    0  0.00000000000E+00  0.00000000000E+00  0.20399652473E+04  0.20399652498E+04  0.10100000352E+00 0.  1.
       -3   -1    0    0    0  501  0.00000000000E+00  0.00000000000E+00 -0.32664972986E+03  0.32664974548E+03  0.10100000352E+00 0. -1.
    10030    2    1    2    0    0  0.00000000000E+00  0.00000000000E+00  0.17133155175E+04  0.23666149953E+04  0.16326103251E+04 0.  0.
        1    1    3    3  502    0 -0.46897791329E+03  0.55607180469E+03  0.13935893250E+04  0.15720201468E+04  0.50400001928E-02 0. -1.
       -1    1    3    3    0  502  0.46897791329E+03 -0.55607180469E+03  0.31972619247E+03  0.79459484853E+03  0.50400001928E-02 0.  1.
</event>
<event>
 5   0  0.1119100E-05  0.3231335E+04  0.7818609E-02  0.8180590E-01
       -2   -1    0    0    0  501  0.00000000000E+00  0.00000000000E+00  0.93546124906E+03  0.93546124906E+03  0.25500000920E-02 0.  1.
        2   -1    0    0  501    0  0.00000000000E+00  0.00000000000E+00 -0.27904758979E+04  0.27904758979E+04  0.25500000920E-02 0. -1.
    10030    2    1    2    0    0  0.00000000000E+00  0.00000000000E+00 -0.18550146488E+04  0.37259371469E+04  0.32313353703E+04 0.  0.
        2    1    3    3  502    0 -0.11121329234E+04 -0.11416480228E+04 -0.12329762560E+04  0.20150509411E+04  0.25500000920E-02 0. -1.
       -2    1    3    3    0  502  0.11121329234E+04  0.11416480228E+04 -0.62203839282E+03  0.17108862059E+04  0.25500000920E-02 0.  1.
</event>
<event>
 5   0  0.1119100E-05  0.3077495E+04  0.7818609E-02  0.8221941E-01
        2   -1    0    0  501    0  0.00000000000E+00  0.00000000000E+00  0.20228856554E+04  0.20228856554E+04  0.25500000920E-02 0.  1.
       -2   -1    0    0    0  501  0.00000000000E+00  0.00000000000E+00 -0.11704786040E+04  0.11704786040E+04  0.25500000920E-02 0. -1.
    10030    2    1    2    0    0  0.00000000000E+00  0.00000000000E+00  0.85240705144E+03  0.31933642594E+04  0.30774953309E+04 0.  0.
        2    1    3    3  502    0 -0.14277891533E+03 -0.12613355822E+04 -0.47624879284E+03  0.13557898739E+04  0.25500000920E-02 0. -1.
       -2    1    3    3    0  502  0.14277891533E+03  0.12613355822E+04  0.13286558443E+04  0.18375743855E+04  0.25500000920E-02 0.  1.
</event>
<event>
 5   0  0.1001961E-05  0.2909877E+04  0.7818609E-02  0.8269945E-01
        2   -1    0    0  501    0  0.00000000000E+00  0.00000000000E+00  0.17388669861E+04  0.17388669861E+04  0.25500000920E-02 0. -1.
       -2   -1    0    0    0  501  0.00000000000E+00  0.00000000000E+00 -0.12173711641E+04  0.12173711641E+04  0.25500000920E-02 0.  1.
    10030    2    1    2    0    0  0.00000000000E+00  0.00000000000E+00  0.52149582195E+03  0.29562381502E+04  0.29098773356E+04 0.  0.
        5    1    3    3  502    0 -0.70032744875E+03  0.12712007135E+04  0.36442601014E+03  0.14964084323E+04  0.46999998093E+01 0. -1.
       -5    1    3    3    0  502  0.70032744875E+03 -0.12712007135E+04  0.15706981181E+03  0.14598297179E+04  0.46999998093E+01 0.  1.
</event>
<event>
 5   0  0.9797278E-06  0.1960573E+04  0.7818609E-02  0.8625279E-01
       -2   -1    0    0    0  501  0.00000000000E+00  0.00000000000E+00  0.10874406853E+04  0.10874406853E+04  0.25500000920E-02 0.  1.
        2   -1    0    0  501    0  0.00000000000E+00  0.00000000000E+00 -0.88369082014E+03  0.88369082015E+03  0.25500000920E-02 0. -1.
    10030    2    1    2    0    0  0.00000000000E+00  0.00000000000E+00  0.20374986511E+03  0.19711315054E+04  0.19605727235E+04 0.  0.
        1    1    3    3  502    0  0.21227780747E+03  0.58341784254E+03 -0.66084311851E+03  0.90672590889E+03  0.50400001928E-02 0. -1.
       -1    1    3    3    0  502 -0.21227780747E+03 -0.58341784254E+03  0.86459298362E+03  0.10644055965E+04  0.50400001928E-02 0.  1.
</event>
<event>
 5   0  0.1119100E-05  0.1590904E+04  0.7818609E-02  0.8826155E-01
        2   -1    0    0  501    0  0.00000000000E+00  0.00000000000E+00  0.19093775271E+04  0.19093775271E+04  0.25500000920E-02 0.  1.
       -2   -1    0    0    0  501  0.00000000000E+00  0.00000000000E+00 -0.33138767726E+03  0.33138767727E+03  0.25500000920E-02 0. -1.
    10030    2    1    2    0    0  0.00000000000E+00  0.00000000000E+00  0.15779898498E+04  0.22407652043E+04  0.15909043764E+04 0.  0.
        2    1    3    3  502    0 -0.51054088108E+03  0.32998031054E+03  0.66392362403E+02  0.61151201329E+03  0.25500000920E-02 0. -1.
       -2    1    3    3    0  502  0.51054088108E+03 -0.32998031054E+03  0.15115974874E+04  0.16292531911E+04  0.25500000920E-02 0.  1.
</event>
<event>
 5   0  0.9797278E-06  0.2577132E+04  0.7818609E-02  0.8376011E-01
        2   -1    0    0  501    0  0.00000000000E+00  0.00000000000E+00  0.18313740761E+04  0.18313740761E+04  0.25500000920E-02 0. -1.
       -2   -1    0    0    0  501  0.00000000000E+00  0.00000000000E+00 -0.90664306593E+03  0.90664306594E+03  0.25500000920E-02 0.  1.
    10030    2    1    2    0    0  0.00000000000E+00  0.00000000000E+00  0.92473101020E+03  0.27380171421E+04  0.25771322102E+04 0.  0.
        1    1    3    3  502    0  0.75716701022E+03 -0.10193437419E+04  0.69522648596E+03  0.14476544519E+04  0.50400001928E-02 0. -1.
       -1    1    3    3    0  502 -0.75716701022E+03  0.10193437419E+04  0.22950452425E+03  0.12903626901E+04  0.50400001928E-02 0.  1.
</event>
<event>
 5   0  0.3807334E-06  0.3017945E+04  0.7818609E-02  0.8238625E-01
       -1   -1    0    0    0  501  0.00000000000E+00  0.00000000000E+00  0.30571832061E+04  0.30571832061E+04  0.50400001928E-02 0. -1.
        1   -1    0    0  501    0  0.00000000000E+00  0.00000000000E+00 -0.74480255351E+03  0.74480255353E+03  0.50400001928E-02 0.  1.
    10030    2    1    2    0    0  0.00000000000E+00  0.00000000000E+00  0.23123806526E+04  0.38019857597E+04  0.30179449024E+04 0.  0.
        4    1    3    3  502    0  0.99178767717E+03 -0.10286803431E+04  0.54526191271E+03  0.15294241436E+04  0.12699999809E+01 0. -1.
       -4    1    3    3    0  502 -0.99178767717E+03  0.10286803431E+04  0.17671187399E+04  0.22725616160E+04  0.12699999809E+01 0.  1.
</event>
<event>
 5   0  0.3807334E-06  0.3160602E+04  0.7818609E-02  0.8199300E-01
        1   -1    0    0  501    0  0.00000000000E+00  0.00000000000E+00  0.15627778773E+04  0.15627778773E+04  0.50400001928E-02 0.  1.
       -1   -1    0    0    0  501  0.00000000000E+00  0.00000000000E+00 -0.15980204007E+04  0.15980204007E+04  0.50400001928E-02 0. -1.
    10030    2    1    2    0    0  0.00000000000E+00  0.00000000000E+00 -0.35242523364E+02  0.31607982780E+04  0.31606017969E+04 0.  0.
        4    1    3    3  502    0 -0.18224375197E+03  0.37863763638E+03 -0.15411233541E+04  0.15973860054E+04  0.12699999809E+01 0. -1.
       -4    1    3    3    0  502  0.18224375197E+03 -0.37863763638E+03  0.15058808307E+04  0.15634122726E+04  0.12699999809E+01 0.  1.
</event>
<event>
 5   0  0.3807334E-06  0.3145251E+04  0.7818609E-02  0.8203428E-01
       -1   -1    0    0    0  501  0.00000000000E+00  0.00000000000E+00  0.12130031718E+04  0.12130031719E+04  0.50400001928E-02 0.  1.
        1   -1    0    0  501    0  0.00000000000E+00  0.00000000000E+00 -0.20388666412E+04  0.20388666412E+04  0.50400001928E-02 0. -1.
    10030    2    1    2    0    0  0.00000000000E+00  0.00000000000E+00 -0.82586346939E+03  0.32518698131E+04  0.31452514703E+04 0.  0.
        4    1    3    3  502    0  0.87997747633E+03  0.12941878681E+04 -0.25320368862E+03  0.15853694578E+04  0.12699999809E+01 0.  1.
       -4    1    3    3    0  502 -0.87997747633E+03 -0.12941878681E+04 -0.57265978076E+03  0.16665003553E+04  0.12699999809E+01 0. -1.
</event>
<event>
 5   0  0.1108153E-05  0.3113445E+04  0.7818609E-02  0.8212058E-01
       -2   -1    0    0    0  501  0.00000000000E+00  0.00000000000E+00  0.13548654322E+04  0.13548654322E+04  0.25500000920E-02 0.  1.
        2   -1    0    0  501    0  0.00000000000E+00  0.00000000000E+00 -0.17886537920E+04  0.17886537920E+04  0.25500000920E-02 0. -1.
    10030    2    1    2    0    0  0.00000000000E+00  0.00000000000E+00 -0.43378835981E+03  0.31435192243E+04  0.31134451613E+04 0.  0.
        4    1    3    3  502    0 -0.12559499867E+04 -0.58706053319E+03 -0.93178234523E+03  0.16704102462E+04  0.12699999809E+01 0. -1.
       -4    1    3    3    0  502  0.12559499867E+04  0.58706053319E+03  0.49799398542E+03  0.14731089781E+04  0.12699999809E+01 0.  1.
</event>
<event>
 5   0  0.4139628E-06  0.1576314E+04  0.7818609E-02  0.8835233E-01
       -1   -1    0    0    0  501  0.00000000000E+00  0.00000000000E+00  0.57905346392E+03  0.57905346394E+03  0.50400001928E-02 0. -1.
        1   -1    0    0  501    0  0.00000000000E+00  0.00000000000E+00 -0.10727702167E+04  0.10727702167E+04  0.50400001928E-02 0.  1.
    10030    2    1    2    0    0  0.00000000000E+00  0.00000000000E+00 -0.49371675277E+03  0.16518236807E+04  0.15763138139E+04 0.  0.
        5    1    3    3  502    0  0.18726425339E+03 -0.73307366625E+02  0.55170087655E+03  0.58722893132E+03  0.46999998093E+01 0. -1.
       -5    1    3    3    0  502 -0.18726425339E+03  0.73307366625E+02 -0.10454176293E+04  0.10645947493E+04  0.46999998093E+01 0.  1.
</event>
<event>
 5   0  0.3848286E-06  0.3090839E+04  0.7818609E-02  0.8218256E-01
       -1   -1    0    0    0  501  0.00000000000E+00  0.00000000000E+00  0.14879327605E+04  0.14879327605E+04  0.50400001928E-02 0.  1.
        1   -1    0    0  501    0  0.00000000000E+00  0.00000000000E+00 -0.16051276460E+04  0.16051276460E+04  0.50400001928E-02 0. -1.
    10030    2    1    2    0    0  0.00000000000E+00  0.00000000000E+00 -0.11719488546E+03  0.30930604065E+04  0.30908393742E+04 0.  0.
        2    1    3    3  502    0 -0.53948832874E+03  0.14463055223E+04 -0.13264175060E+03  0.15493357140E+04  0.25500000920E-02 0.  1.
       -2    1    3    3    0  502  0.53948832874E+03 -0.14463055223E+04  0.15446865137E+02  0.15437246925E+04  0.25500000920E-02 0. -1.
</event>
<event>
 5   0  0.3807334E-06  0.2716177E+04  0.7818609E-02  0.8329775E-01
        1   -1    0    0  501    0  0.00000000000E+00  0.00000000000E+00  0.12024522712E+04  0.12024522712E+04  0.50400001928E-02 0.  1.
       -1   -1    0    0    0  501  0.00000000000E+00  0.00000000000E+00 -0.15338692064E+04  0.15338692064E+04  0.50400001928E-02 0. -1.
    10030    2    1    2    0    0  0.00000000000E+00  0.00000000000E+00 -0.33141693523E+03  0.27363214777E+04  0.27161771010E+04 0.  0.
        4    1    3    3  502    0 -0.13222000661E+04  0.20631807865E+03 -0.39899169325E+03  0.13964154641E+04  0.12699999809E+01 0. -1.
       -4    1    3    3    0  502  0.13222000661E+04 -0.20631807865E+03  0.67574758025E+02  0.13399060135E+04  0.12699999809E+01 0.  1.
</event>
<event>
 5   0  0.3807334E-06  0.3146195E+04  0.7818609E-02  0.8203173E-01
       -1   -1    0    0    0  501  0.00000000000E+00  0.00000000000E+00  0.98119566840E+03  0.98119566841E+03  0.50400001928E-02 0.  1.
        1   -1    0    0  501    0  0.00000000000E+00  0.00000000000E+00 -0.25220619527E+04  0.25220619527E+04  0.50400001928E-02 0. -1.
    10030    2    1    2    0    0  0.00000000000E+00  0.00000000000E+00 -0.15408662843E+04  0.35032576212E+04  0.31461953299E+04 0.  0.
        4    1    3    3  502    0 -0.44385333729E+03 -0.73869138424E+03  0.69496559097E+03  0.11070905707E+04  0.12699999809E+01 0.  1.
       -4    1    3    3    0  502  0.44385333729E+03  0.73869138424E+03 -0.22358318753E+04  0.23961670505E+04  0.12699999809E+01 0. -1.
</event>
<event>
 5   0  0.1007567E-05  0.3108102E+04  0.7818609E-02  0.8213518E-01
       -2   -1    0    0    0  501  0.00000000000E+00  0.00000000000E+00  0.19427586432E+04  0.19427586432E+04  0.25500000920E-02 0.  1.
        2   -1    0    0  501    0  0.00000000000E+00  0.00000000000E+00 -0.12431162426E+04  0.12431162426E+04  0.25500000920E-02 0. -1.
    10030    2    1    2    0    0  0.00000000000E+00  0.00000000000E+00  0.69964240069E+03  0.31858748858E+04  0.31081022022E+04 0.  0.
        3    1    3    3  502    0  0.63461583430E+03 -0.11867702505E+04 -0.44674330224E+03  0.14180058085E+04  0.10100000352E+00 0. -1.
       -3    1    3    3    0  502 -0.63461583430E+03  0.11867702505E+04  0.11463857029E+04  0.17678690773E+04  0.10100000352E+00 0.  1.
</event>
<event>
 5   0  0.3848286E-06  0.2376408E+04  0.7818609E-02  0.8448389E-01
        1   -1    0    0  501    0  0.00000000000E+00  0.00000000000E+00  0.13465300304E+04  0.13465300304E+04  0.50400001928E-02 0. -1.
       -1   -1    0    0    0  501  0.00000000000E+00  0.00000000000E+00 -0.10484941995E+04  0.10484941995E+04  0.50400001928E-02 0.  1.
    10030    2    1    2    0    0  0.00000000000E+00  0.00000000000E+00  0.29803583086E+03  0.23950242299E+04  0.23764081521E+04 0.  0.
        2    1    3    3  502    0  0.46683689835E+03  0.70840300519E+03  0.98743465797E+03  0.13018443498E+04  0.25500000920E-02 0. -1.
       -2    1    3    3    0  502 -0.46683689835E+03 -0.70840300519E+03 -0.68939882712E+03  0.10931798801E+04  0.25500000920E-02 0.  1.
</event>
<event>
 5   0  0.1007567E-05  0.3076137E+04  0.7818609E-02  0.8222318E-01
        2   -1    0    0  501    0  0.00000000000E+00  0.00000000000E+00  0.95452636573E+03  0.95452636573E+03  0.25500000920E-02 0. -1.
       -2   -1    0    0    0  501  0.00000000000E+00  0.00000000000E+00 -0.24783545919E+04  0.24783545919E+04  0.25500000920E-02 0.  1.
    10030    2    1    2    0    0  0.00000000000E+00  0.00000000000E+00 -0.15238282262E+04  0.34328809576E+04  0.30761370591E+04 0.  0.
        3    1    3    3  502    0 -0.12149077021E+04 -0.48636969090E+03 -0.16637809865E+04  0.21167719249E+04  0.10100000352E+00 0.  1.
       -3    1    3    3    0  502  0.12149077021E+04  0.48636969090E+03  0.13995276033E+03  0.13161090328E+04  0.10100000352E+00 0. -1.
</event>
<event>
 5   0  0.4139628E-06  0.3102417E+04  0.7818609E-02  0.8215075E-01
       -1   -1    0    0    0  501  0.00000000000E+00  0.00000000000E+00  0.11228384650E+04  0.11228384650E+04  0.50400001928E-02 0.  1.
        1   -1    0    0  501    0  0.00000000000E+00  0.00000000000E+00 -0.21430046851E+04  0.21430046851E+04  0.50400001928E-02 0. -1.
    10030    2    1    2    0    0  0.00000000000E+00  0.00000000000E+00 -0.10201662201E+04  0.32658431501E+04  0.31024171810E+04 0.  0.
        5    1    3    3  502    0  0.45700749103E+03 -0.26055513756E+03  0.10260612426E+04  0.11530692044E+04  0.46999998093E+01 0.  1.
       -5    1    3    3    0  502 -0.45700749103E+03  0.26055513756E+03 -0.20462274627E+04  0.21127739457E+04  0.46999998093E+01 0. -1.
</event>
<event>
 5   0  0.1007567E-05  0.3239612E+04  0.7818609E-02  0.8178433E-01
       -2   -1    0    0    0  501  0.00000000000E+00  0.00000000000E+00  0.12438535125E+04  0.12438535125E+04  0.25500000920E-02 0.  1.
        2   -1    0    0  501    0  0.00000000000E+00  0.00000000000E+00 -0.21093890968E+04  0.21093890968E+04  0.25500000920E-02 0. -1.
    10030    2    1    2    0    0  0.00000000000E+00  0.00000000000E+00 -0.86553558434E+03  0.33532426093E+04  0.32396117282E+04 0.  0.
        3    1    3    3  502    0  0.91467663382E+03 -0.93253192450E+02 -0.18131260210E+04  0.20329179719E+04  0.10100000352E+00 0. -1.
       -3    1    3    3    0  502 -0.91467663382E+03  0.93253192450E+02  0.94759043665E+03  0.13203246374E+04  0.10100000352E+00 0.  1.
</event>
<event>
 5   0  0.3838525E-06  0.3034611E+04  0.7818609E-02  0.8233916E-01
       -1   -1    0    0    0  501  0.00000000000E+00  0.00000000000E+00  0.17770202674E+04  0.17770202674E+04  0.50400001928E-02 0. -1.
        1   -1    0    0  501    0  0.00000000000E+00  0.00000000000E+00 -0.12955481999E+04  0.12955481999E+04  0.50400001928E-02 0.  1.
    10030    2    1    2    0    0  0.00000000000E+00  0.00000000000E+00  0.48147206754E+03  0.30725684673E+04  0.30346106232E+04 0.  0.
        3    1    3    3  502    0 -0.21949536844E+02  0.13782205110E+04 -0.40142243792E+03  0.14356578781E+04  0.10100000352E+00 0.  1.
       -3    1    3    3    0  502  0.21949536844E+02 -0.13782205110E+04  0.88289450546E+03  0.16369105892E+04  0.10100000352E+00 0. -1.
</event>
<event>
 5   0  0.4139628E-06  0.1934960E+04  0.7818609E-02  0.8637648E-01
        1   -1    0    0  501    0  0.00000000000E+00  0.00000000000E+00  0.16243263183E+04  0.16243263183E+04  0.50400001928E-02 0.  1.
       -1   -1    0    0    0  501  0.00000000000E+00  0.00000000000E+00 -0.57624947322E+03  0.57624947325E+03  0.50400001928E-02 0. -1.
    10030    2    1    2    0    0  0.00000000000E+00  0.00000000000E+00  0.10480768451E+04  0.22005757915E+04  0.19349596226E+04 0.  0.
        5    1    3    3  502    0 -0.44603947841E+03  0.11556863907E+03 -0.44343722100E+03  0.63950448442E+03  0.46999998093E+01 0. -1.
       -5    1    3    3    0  502  0.44603947841E+03 -0.11556863907E+03  0.14915140661E+04  0.15610713071E+04  0.46999998093E+01 0.  1.
</event>
<event>
 5   0  0.1001961E-05  0.2544404E+04  0.7818609E-02  0.8387335E-01
        2   -1    0    0  501    0  0.00000000000E+00  0.00000000000E+00  0.18363794558E+04  0.18363794558E+04  0.25500000920E-02 0.  1.
       -2   -1    0    0    0  501  0.00000000000E+00  0.00000000000E+00 -0.88135285967E+03  0.88135285967E+03  0.25500000920E-02 0. -1.
    10030    2    1    2    0    0  0.00000000000E+00  0.00000000000E+00  0.95502659611E+03  0.27177323154E+04  0.25444042798E+04 0.  0.
        5    1    3    3  502    0  0.35250671922E+02 -0.89531155559E+03  0.14421697984E+04  0.16978519396E+04  0.46999998093E+01 0.  1.
       -5    1    3    3    0  502 -0.35250671922E+02  0.89531155559E+03 -0.48714320230E+03  0.10198803758E+04  0.46999998093E+01 0. -1.
</event>
<event>
 5   0  0.3838525E-06  0.3078613E+04  0.7818609E-02  0.8221632E-01
       -1   -1    0    0    0  501  0.00000000000E+00  0.00000000000E+00  0.16167007535E+04  0.16167007535E+04  0.50400001928E-02 0. -1.
        1   -1    0    0  501    0  0.00000000000E+00  0.00000000000E+00 -0.14656171048E+04  0.14656171048E+04  0.50400001928E-02 0.  1.
    10030    2    1    2    0    0  0.00000000000E+00  0.00000000000E+00  0.15108364868E+03  0.30823178584E+04  0.30786128550E+04 0.  0.
        3    1    3    3  502    0 -0.23847822456E+03  0.32484149933E+03  0.15629509360E+04  0.16140661393E+04  0.10100000352E+00 0. -1.
       -3    1    3    3    0  502  0.23847822456E+03 -0.32484149933E+03 -0.14118672874E+04  0.14682517191E+04  0.10100000352E+00 0.  1.
</event>
<event>
 5   0  0.3848286E-06  0.2964588E+04  0.7818609E-02  0.8253916E-01
        1   -1    0    0  501    0  0.00000000000E+00  0.00000000000E+00  0.22853852817E+04  0.22853852817E+04  0.50400001928E-02 0.  1.
       -1   -1    0    0    0  501  0.00000000000E+00  0.00000000000E+00 -0.96141136263E+03  0.96141136265E+03  0.50400001928E-02 0. -1.
    10030    2    1    2    0    0  0.00000000000E+00  0.00000000000E+00  0.13239739191E+04  0.32467966444E+04  0.29645879160E+04 0.  0.
        2    1    3    3  502    0 -0.26947828213E+03 -0.14572843957E+04  0.69482492693E+03  0.16367889398E+04  0.25500000920E-02 0.  1.
       -2    1    3    3    0  502  0.26947828213E+03  0.14572843957E+04  0.62914899217E+03  0.16100077046E+04  0.25500000920E-02 0. -1.
</event>
<event>
 5   0  0.1119100E-05  0.3135095E+04  0.7818609E-02  0.8206172E-01
        2   -1    0    0  501    0  0.00000000000E+00  0.00000000000E+00  0.21612015783E+04  0.21612015783E+04  0.25500000920E-02 0.  1.
       -2   -1    0    0    0  501  0.00000000000E+00  0.00000000000E+00 -0.11369625900E+04  0.11369625900E+04  0.25500000920E-02 0. -1.
    10030    2    1    2    0    0  0.00000000000E+00  0.00000000000E+00  0.10242389884E+04  0.32981641683E+04  0.31350951143E+04 0.  0.
        2    1    3    3  502    0  0.30883059940E+03  0.44410979013E+03  0.20599019637E+04  0.21297431640E+04  0.25500000920E-02 0.  1.
       -2    1    3    3    0  502 -0.30883059940E+03 -0.44410979013E+03 -0.10356629753E+04  0.11684210043E+04  0.25500000920E-02 0. -1.
</event>
<event>
 5   0  0.1119100E-05  0.2721354E+04  0.7818609E-02  0.8328109E-01
        2   -1    0    0  501    0  0.00000000000E+00  0.00000000000E+00  0.26096406931E+04  0.26096406931E+04  0.25500000920E-02 0. -1.
       -2   -1    0    0    0  501  0.00000000000E+00  0.00000000000E+00 -0.70946234989E+03  0.70946234989E+03  0.25500000920E-02 0.  1.
    10030    2    1    2    0    0  0.00000000000E+00  0.00000000000E+00  0.19001783432E+04  0.33191030430E+04  0.27213539413E+04 0.  0.
        2    1    3    3  502    0 -0.15178618183E+03  0.12980639749E+04  0.14120017385E+04  0.19239953320E+04  0.25500000920E-02 0. -1.
       -2    1    3    3    0  502  0.15178618183E+03 -0.12980639749E+04  0.48817660472E+03  0.13951077110E+04  0.25500000920E-02 0.  1.
</event>
<event>
 5   0  0.1108153E-05  0.3088972E+04  0.7818609E-02  0.8218771E-01
       -2   -1    0    0    0  501  0.00000000000E+00  0.00000000000E+00  0.17276399096E+04  0.17276399096E+04  0.25500000920E-02 0. -1.
        2   -1    0    0  501    0  0.00000000000E+00  0.00000000000E+00 -0.13807489524E+04  0.13807489524E+04  0.25500000920E-02 0.  1.
    10030    2    1    2    0    0  0.00000000000E+00  0.00000000000E+00  0.34689095722E+03  0.31083888620E+04  0.30889719943E+04 0.  0.
        4    1    3    3  502    0 -0.79485936983E+03  0.64337015117E+03 -0.99128805803E+03  0.14242121317E+04  0.12699999809E+01 0.  1.
       -4    1    3    3    0  502  0.79485936983E+03 -0.64337015117E+03  0.13381790152E+04  0.16841767303E+04  0.12699999809E+01 0. -1.
</event>
<event>
 5   0  0.9797278E-06  0.3068985E+04  0.7818609E-02  0.8224302E-01
       -2   -1    0    0    0  501  0.00000000000E+00  0.00000000000E+00  0.29353372053E+04  0.29353372053E+04  0.25500000920E-02 0. -1.
        2   -1    0    0  501    0  0.00000000000E+00  0.00000000000E+00 -0.80217949149E+03  0.80217949150E+03  0.25500000920E-02 0.  1.
    10030    2    1    2    0    0  0.00000000000E+00  0.00000000000E+00  0.21331577138E+04  0.37375166968E+04  0.30689850483E+04 0.  0.
        1    1    3    3  502    0 -0.72600568115E+03 -0.36909752644E+03  0.26503963019E+04  0.27727094673E+04  0.50400001928E-02 0. -1.
       -1    1    3    3    0  502  0.72600568115E+03  0.36909752644E+03 -0.51723858806E+03  0.96480722950E+03  0.50400001928E-02 0.  1.
</event>
<event>
 5   0  0.1001961E-05  0.2763567E+04  0.7818609E-02  0.8314669E-01
       -2   -1    0    0    0  501  0.00000000000E+00  0.00000000000E+00  0.96474837746E+03  0.96474837746E+03  0.25500000920E-02 0.  1.
        2   -1    0    0  501    0  0.00000000000E+00  0.00000000000E+00 -0.19790917001E+04  0.19790917001E+04  0.25500000920E-02 0. -1.
    10030    2    1    2    0    0  0.00000000000E+00  0.00000000000E+00 -0.10143433226E+04  0.29438400775E+04  0.27635669027E+04 0.  0.
        5    1    3    3  502    0  0.13346260027E+04  0.35135010481E+03 -0.57965405619E+03  0.14968949122E+04  0.46999998093E+01 0. -1.
       -5    1    3    3    0  502 -0.13346260027E+04 -0.35135010481E+03 -0.43468926641E+03  0.14469451654E+04  0.46999998093E+01 0.  1.
</event>
<event>
 5   0  0.1108153E-05  0.3109478E+04  0.7818609E-02  0.8213142E-01
       -2   -1    0    0    0  501  0.00000000000E+00  0.00000000000E+00  0.11350947450E+04  0.11350947450E+04  0.25500000920E-02 0.  1.
        2   -1    0    0  501    0  0.00000000000E+00  0.00000000000E+00 -0.21295258712E+04  0.21295258712E+04  0.25500000920E-02 0. -1.
    10030    2    1    2    0    0  0.00000000000E+00  0.00000000000E+00 -0.99443112615E+03  0.32646206162E+04  0.31094781721E+04 0.  0.
        4    1    3    3  502    0 -0.11433484010E+04 -0.77423126013E+03  0.25294954809E+03  0.14038036533E+04  0.12699999809E+01 0.  1.
       -4    1    3    3    0  502  0.11433484010E+04  0.77423126013E+03 -0.12473806742E+04  0.18608169629E+04  0.12699999809E+01 0. -1.
</event>
<event>
 5   0  0.1007567E-05  0.2859588E+04  0.7818609E-02  0.8285004E-01
       -2   -1    0    0    0  501  0.00000000000E+00  0.00000000000E+00  0.14507603882E+04  0.14507603882E+04  0.25500000920E-02 0. -1.
        2   -1    0    0  501    0  0.00000000000E+00  0.00000000000E+00 -0.14091301865E+04  0.14091301865E+04  0.25500000920E-02 0.  1.
    10030    2    1    2    0    0  0.00000000000E+00  0.00000000000E+00  0.41630201643E+02  0.28598905747E+04  0.28595875622E+04 0.  0.
        3    1    3    3  502    0 -0.12681451944E+04 -0.37628570964E+03  0.56357609668E+03  0.14378460266E+04  0.10100000352E+00 0. -1.
       -3    1    3    3    0  502  0.12681451944E+04  0.37628570964E+03 -0.52194589503E+03  0.14220445481E+04  0.10100000352E+00 0.  1.
</event>
<event>
 5   0  0.3493125E-06  0.2447302E+04  0.7818609E-02  0.8422004E-01
       -3   -1    0    0    0  501  0.00000000000E+00  0.00000000000E+00  0.14529929045E+04  0.14529929081E+04  0.10100000352E+00 0.  1.
        3   -1    0    0  501    0  0.00000000000E+00  0.00000000000E+00 -0.10305090288E+04  0.10305090338E+04  0.10100000352E+00 0. -1.
    10030    2    1    2    0    0  0.00000000000E+00  0.00000000000E+00  0.42248387571E+03  0.24835019418E+04  0.24473024476E+04 0.  0.
        5    1    3    3  502    0 -0.21574678647E+03 -0.86614493489E+03 -0.63812498518E+03  0.10972599103E+04  0.46999998093E+01 0. -1.
       -5    1    3    3    0  502  0.21574678647E+03  0.86614493489E+03  0.10606088609E+04  0.13862420315E+04  0.46999998093E+01 0.  1.
</event>
<event>
 5   0  0.3493125E-06  0.2976346E+04  0.7818609E-02  0.8250518E-01
        3   -1    0    0  501    0  0.00000000000E+00  0.00000000000E+00  0.23264602687E+04  0.23264602708E+04  0.10100000352E+00 0. -1.
       -3   -1    0    0    0  501  0.00000000000E+00  0.00000000000E+00 -0.95194366113E+03  0.95194366649E+03  0.10100000352E+00 0.  1.
    10030    2    1    2    0    0  0.00000000000E+00  0.00000000000E+00  0.13745166075E+04  0.32784039373E+04  0.29763461613E+04 0.  0.
        3    1    3    3  502    0 -0.97564700454E+03 -0.10996648211E+04  0.94205494839E+03  0.17460290181E+04  0.10100000352E+00 0. -1.
       -3    1    3    3    0  502  0.97564700454E+03  0.10996648211E+04  0.43246165913E+03  0.15323749192E+04  0.10100000352E+00 0.  1.
</event>
<event>
 5   0  0.3838525E-06  0.3080585E+04  0.7818609E-02  0.8221087E-01
       -1   -1    0    0    0  501  0.00000000000E+00  0.00000000000E+00  0.16365094287E+04  0.16365094287E+04  0.50400001928E-02 0. -1.
        1   -1    0    0  501    0  0.00000000000E+00  0.00000000000E+00 -0.14497322729E+04  0.14497322730E+04  0.50400001928E-02 0.  1.
    10030    2    1    2    0    0  0.00000000000E+00  0.00000000000E+00  0.18677715571E+03  0.30862417016E+04  0.30805847067E+04 0.  0.
        3    1    3    3  502    0  0.22496901746E+03 -0.25745858751E+03 -0.14112363759E+04  0.14520620173E+04  0.10100000352E+00 0.  1.
       -3    1    3    3    0  502 -0.22496901746E+03  0.25745858751E+03  0.15980135317E+04  0.16341796843E+04  0.10100000352E+00 0. -1.
</event>
<event>
 5   0  0.1001961E-05  0.3114826E+04  0.7818609E-02  0.8211681E-01
       -2   -1    0    0    0  501  0.00000000000E+00  0.00000000000E+00  0.16337890972E+04  0.16337890972E+04  0.25500000920E-02 0.  1.
        2   -1    0    0  501    0  0.00000000000E+00  0.00000000000E+00 -0.14846073566E+04  0.14846073566E+04  0.25500000920E-02 0. -1.
    10030    2    1    2    0    0  0.00000000000E+00  0.00000000000E+00  0.14918174058E+03  0.31183964538E+04  0.31148260387E+04 0.  0.
        5    1    3    3  502    0 -0.88809165929E+03 -0.71175137596E+03  0.11389258484E+04  0.16101152116E+04  0.46999998093E+01 0.  1.
       -5    1    3    3    0  502  0.88809165929E+03  0.71175137596E+03 -0.98974410784E+03  0.15082812422E+04  0.46999998093E+01 0. -1.
</event>
<event>
 5   0  0.3807334E-06  0.3124129E+04  0.7818609E-02  0.8209147E-01
       -1   -1    0    0    0  501  0.00000000000E+00  0.00000000000E+00  0.28420346804E+04  0.28420346804E+04  0.50400001928E-02 0. -1.
        1   -1    0    0  501    0  0.00000000000E+00  0.00000000000E+00 -0.85855604209E+03  0.85855604211E+03  0.50400001928E-02 0.  1.
    10030    2    1    2    0    0  0.00000000000E+00  0.00000000000E+00  0.19834786383E+04  0.37005907225E+04  0.31241293486E+04 0.  0.
        4    1    3    3  502    0  0.36899310643E+03  0.86241460253E+03  0.24712645774E+04  0.26433057114E+04  0.12699999809E+01 0. -1.
       -4    1    3    3    0  502 -0.36899310643E+03 -0.86241460253E+03 -0.48778593919E+03  0.10572850111E+04  0.12699999809E+01 0.  1.
</event>
<event>
 5   0  0.9797278E-06  0.3064035E+04  0.7818609E-02  0.8225678E-01
       -2   -1    0    0    0  501  0.00000000000E+00  0.00000000000E+00  0.78960023822E+03  0.78960023822E+03  0.25500000920E-02 0.  1.
        2   -1    0    0  501    0  0.00000000000E+00  0.00000000000E+00 -0.29724891469E+04  0.29724891469E+04  0.25500000920E-02 0. -1.
    10030    2    1    2    0    0  0.00000000000E+00  0.00000000000E+00 -0.21828889087E+04  0.37620893851E+04  0.30640353383E+04 0.  0.
        1    1    3    3  502    0  0.13210720954E+04 -0.69616844551E+03 -0.15117760317E+04  0.21249350004E+04  0.50400001928E-02 0.  1.
       -1    1    3    3    0  502 -0.13210720954E+04  0.69616844551E+03 -0.67111287700E+03  0.16371543848E+04  0.50400001928E-02 0. -1.
</event>
<event>
 5   0  0.1119100E-05  0.3107446E+04  0.7818609E-02  0.8213697E-01
       -2   -1    0    0    0  501  0.00000000000E+00  0.00000000000E+00  0.13432650923E+04  0.13432650923E+04  0.25500000920E-02 0.  1.
        2   -1    0    0  501    0  0.00000000000E+00  0.00000000000E+00 -0.17971548955E+04  0.17971548956E+04  0.25500000920E-02 0. -1.
    10030    2    1    2    0    0  0.00000000000E+00  0.00000000000E+00 -0.45388980327E+03  0.31404199878E+04  0.31074461776E+04 0.  0.
        2    1    3    3  502    0  0.93191232838E+03 -0.57930248943E+02 -0.14819917839E+04  0.17516038790E+04  0.25500000920E-02 0. -1.
       -2    1    3    3    0  502 -0.93191232838E+03  0.57930248943E+02  0.10281019806E+04  0.13888161088E+04  0.25500000920E-02 0.  1.
</event>
<event>
 5   0  0.4139628E-06  0.2275520E+04  0.7818609E-02  0.8487636E-01
        1   -1    0    0  501    0  0.00000000000E+00  0.00000000000E+00  0.12480156288E+04  0.12480156288E+04  0.50400001928E-02 0. -1.
       -1   -1    0    0    0  501  0.00000000000E+00  0.00000000000E+00 -0.10372453073E+04  0.10372453074E+04  0.50400001928E-02 0.  1.
    10030    2    1    2    0    0  0.00000000000E+00  0.00000000000E+00  0.21077032147E+03  0.22852609362E+04  0.22755204719E+04 0.  0.
        5    1    3    3  502    0  0.31495473652E+03 -0.72113473090E+03 -0.71986490898E+03  0.10665173995E+04  0.46999998093E+01 0.  1.
       -5    1    3    3    0  502 -0.31495473652E+03  0.72113473090E+03  0.93063523045E+03  0.12187435367E+04  0.46999998093E+01 0. -1.
</event>
<event>
 5   0  0.1108153E-05  0.3042128E+04  0.7818609E-02  0.8231802E-01
       -2   -1    0    0    0  501  0.00000000000E+00  0.00000000000E+00  0.15522970616E+04  0.15522970616E+04  0.25500000920E-02 0. -1.
        2   -1    0    0  501    0  0.00000000000E+00  0.00000000000E+00 -0.14904592872E+04  0.14904592872E+04  0.25500000920E-02 0.  1.
    10030    2    1    2    0    0  0.00000000000E+00  0.00000000000E+00  0.61837774354E+02  0.30427563488E+04  0.30421279210E+04 0.  0.
        4    1    3    3  502    0  0.10822734457E+04 -0.56159525239E+02 -0.10366179740E+04  0.14996826799E+04  0.12699999809E+01 0.  1.
       -4    1    3    3    0  502 -0.10822734457E+04  0.56159525239E+02  0.10984557484E+04  0.15430736688E+04  0.12699999809E+01 0. -1.
</event>
<event>
 5   0  0.1001961E-05  0.3152610E+04  0.7818609E-02  0.8201446E-01
       -2   -1    0    0    0  501  0.00000000000E+00  0.00000000000E+00  0.14092286193E+04  0.14092286193E+04  0.25500000920E-02 0. -1.
        2   -1    0    0  501    0  0.00000000000E+00  0.00000000000E+00 -0.17631897589E+04  0.17631897589E+04  0.25500000920E-02 0.  1.
    10030    2    1    2    0    0  0.00000000000E+00  0.00000000000E+00 -0.35396113955E+03  0.31724183782E+04  0.31526100105E+04 0.  0.
        5    1    3    3  502    0  0.10040714841E+04 -0.79597673332E+02  0.10431642395E+04  0.14500720862E+04  0.46999998093E+01 0. -1.
       -5    1    3    3    0  502 -0.10040714841E+04  0.79597673332E+02 -0.13971253790E+04  0.17223462920E+04  0.46999998093E+01 0.  1.
</event>
<event>
 5   0  0.3807334E-06  0.3121164E+04  0.7818609E-02  0.8209953E-01
       -1   -1    0    0    0  501  0.00000000000E+00  0.00000000000E+00  0.14090515075E+04  0.14090515075E+04  0.50400001928E-02 0.  1.
        1   -1    0    0  501    0  0.00000000000E+00  0.00000000000E+00 -0.17284087218E+04  0.17284087218E+04  0.50400001928E-02 0. -1.
    10030    2    1    2    0    0  0.00000000000E+00  0.00000000000E+00 -0.31935721437E+03  0.31374602293E+04  0.31211644718E+04 0.  0.
        4    1    3    3  502    0  0.12358170861E+03  0.31625689072E+03 -0.16908267586E+04  0.17245833120E+04  0.12699999809E+01 0. -1.
       -4    1    3    3    0  502 -0.12358170861E+03 -0.31625689072E+03  0.13714695442E+04  0.14128769173E+04  0.12699999809E+01 0.  1.
</event>
<event>
 5   0  0.1007567E-05  0.1720027E+04  0.7818609E-02  0.8750024E-01
        2   -1    0    0  501    0  0.00000000000E+00  0.00000000000E+00  0.74633168278E+03  0.74633168278E+03  0.25500000920E-02 0. -1.
       -2   -1    0    0    0  501  0.00000000000E+00  0.00000000000E+00 -0.99101123218E+03  0.99101123219E+03  0.25500000920E-02 0.  1.
    10030    2    1    2    0    0  0.00000000000E+00  0.00000000000E+00 -0.24467954941E+03  0.17373429150E+04  0.17200268377E+04 0.  0.
        3    1    3    3  502    0 -0.71945289269E+03 -0.44304093819E+03 -0.28434567201E+03  0.89148763823E+03  0.10100000352E+00 0. -1.
       -3    1    3    3    0  502  0.71945289269E+03  0.44304093819E+03  0.39666122606E+02  0.84585527675E+03  0.10100000352E+00 0.  1.
</event>
<event>
 5   0  0.4139628E-06  0.3008190E+04  0.7818609E-02  0.8241396E-01
       -1   -1    0    0    0  501  0.00000000000E+00  0.00000000000E+00  0.20702109206E+04  0.20702109206E+04  0.50400001928E-02 0.  1.
        1   -1    0    0  501    0  0.00000000000E+00  0.00000000000E+00 -0.10927878940E+04  0.10927878940E+04  0.50400001928E-02 0. -1.
    10030    2    1    2    0    0  0.00000000000E+00  0.00000000000E+00  0.97742302663E+03  0.31629988146E+04  0.30081897760E+04 0.  0.
        5    1    3    3  502    0 -0.12284588709E+03  0.67195492299E+02  0.20633351819E+04  0.20680861948E+04  0.46999998093E+01 0.  1.
       -5    1    3    3    0  502  0.12284588709E+03 -0.67195492299E+02 -0.10859121553E+04  0.10949126199E+04  0.46999998093E+01 0. -1.
</event>
<event>
 5   0  0.3838525E-06  0.3157740E+04  0.7818609E-02  0.8200068E-01
       -1   -1    0    0    0  501  0.00000000000E+00  0.00000000000E+00  0.20616543555E+04  0.20616543555E+04  0.50400001928E-02 0.  1.
        1   -1    0    0  501    0  0.00000000000E+00  0.00000000000E+00 -0.12091410727E+04  0.12091410727E+04  0.50400001928E-02 0. -1.
    10030    2    1    2    0    0  0.00000000000E+00  0.00000000000E+00  0.85251328288E+03  0.32707954282E+04  0.31577403053E+04 0.  0.
        3    1    3    3  502    0  0.74032228178E+03 -0.85238797780E+03 -0.71697500427E+03  0.13374212173E+04  0.10100000352E+00 0. -1.
       -3    1    3    3    0  502 -0.74032228178E+03  0.85238797780E+03  0.15694882871E+04  0.19333742109E+04  0.10100000352E+00 0.  1.
</event>
<event>
 5   0  0.3838525E-06  0.2800793E+04  0.7818609E-02  0.8303022E-01
        1   -1    0    0  501    0  0.00000000000E+00  0.00000000000E+00  0.12561171373E+04  0.12561171373E+04  0.50400001928E-02 0.  1.
       -1   -1    0    0    0  501  0.00000000000E+00  0.00000000000E+00 -0.15612485327E+04  0.15612485327E+04  0.50400001928E-02 0. -1.
    10030    2    1    2    0    0  0.00000000000E+00  0.00000000000E+00 -0.30513139547E+03  0.28173656700E+04  0.28007934858E+04 0.  0.
        3    1    3    3  502    0 -0.11995506442E+04 -0.30127970930E+03 -0.81327766852E+03  0.14802404492E+04  0.10100000352E+00 0. -1.
       -3    1    3    3    0  502  0.11995506442E+04  0.30127970930E+03  0.50814627304E+03  0.13371252208E+04  0.10100000352E+00 0.  1.
</event>
<event>
 5   0  0.3807334E-06  0.3048925E+04  0.7818609E-02  0.8229896E-01
        1   -1    0    0  501    0  0.00000000000E+00  0.00000000000E+00  0.15127821455E+04  0.15127821455E+04  0.50400001928E-02 0. -1.
       -1   -1    0    0    0  501  0.00000000000E+00  0.00000000000E+00 -0.15362329990E+04  0.15362329990E+04  0.50400001928E-02 0.  1.
    10030    2    1    2    0    0  0.00000000000E+00  0.00000000000E+00 -0.23450853529E+02  0.30490151445E+04  0.30489249595E+04 0.  0.
        4    1    3    3  502    0 -0.48287298021E+03  0.12535166757E+04 -0.73251985103E+03  0.15300514097E+04  0.12699999809E+01 0.  1.
       -4    1    3    3    0  502  0.48287298021E+03 -0.12535166757E+04  0.70906899750E+03  0.15189637347E+04  0.12699999809E+01 0. -1.
</event>
<event>
 5   0  0.1007567E-05  0.3040767E+04  0.7818609E-02  0.8232185E-01
        2   -1    0    0  501    0  0.00000000000E+00  0.00000000000E+00  0.24759211699E+04  0.24759211699E+04  0.25500000920E-02 0. -1.
       -2   -1    0    0    0  501  0.00000000000E+00  0.00000000000E+00 -0.93361846172E+03  0.93361846172E+03  0.25500000920E-02 0.  1.
    10030    2    1    2    0    0  0.00000000000E+00  0.00000000000E+00  0.15423027082E+04  0.34095396316E+04  0.30407668204E+04 0.  0.
        3    1    3    3  502    0  0.11019478767E+02 -0.11828129326E+04  0.18421890335E+04  0.21892529109E+04  0.10100000352E+00 0. -1.
       -3    1    3    3    0  502 -0.11019478767E+02  0.11828129326E+04 -0.29988632532E+03  0.12202867207E+04  0.10100000352E+00 0.  1.
</event>
<event>
 5   0  0.3493125E-06  0.1698396E+04  0.7818609E-02  0.8762280E-01
       -3   -1    0    0    0  501  0.00000000000E+00  0.00000000000E+00  0.92925604483E+03  0.92925605032E+03  0.10100000352E+00 0. -1.
        3   -1    0    0  501    0  0.00000000000E+00  0.00000000000E+00 -0.77603677807E+03  0.77603678464E+03  0.10100000352E+00 0.  1.
    10030    2    1    2    0    0  0.00000000000E+00  0.00000000000E+00  0.15321926676E+03  0.17052928350E+04  0.16983955691E+04 0.  0.
        4    1    3    3  502    0  0.42870619841E+03  0.71374062411E+03 -0.91163473737E+02  0.83757213116E+03  0.12699999809E+01 0.  1.
       -4    1    3    3    0  502 -0.42870619841E+03 -0.71374062411E+03  0.24438274049E+03  0.86772070380E+03  0.12699999809E+01 0. -1.
</event>
<event>
 5   0  0.1007567E-05  0.1649428E+04  0.7818609E-02  0.8790745E-01
        2   -1    0    0  501    0  0.00000000000E+00  0.00000000000E+00  0.79431547534E+03  0.79431547534E+03  0.25500000920E-02 0. -1.
       -2   -1    0    0    0  501  0.00000000000E+00  0.00000000000E+00 -0.85627577421E+03  0.85627577421E+03  0.25500000920E-02 0.  1.
    10030    2    1    2    0    0  0.00000000000E+00  0.00000000000E+00 -0.61960298871E+02  0.16505912496E+04  0.16494278991E+04 0.  0.
        3    1    3    3  502    0  0.71692672606E+03  0.23439352731E+03  0.30276494513E+03  0.81276741962E+03  0.10100000352E+00 0. -1.
       -3    1    3    3    0  502 -0.71692672606E+03 -0.23439352731E+03 -0.36472524400E+03  0.83782382993E+03  0.10100000352E+00 0.  1.
</event>
<event>
 5   0  0.1001961E-05  0.3046793E+04  0.7818609E-02  0.8230494E-01
       -2   -1    0    0    0  501  0.00000000000E+00  0.00000000000E+00  0.12260807449E+04  0.12260807449E+04  0.25500000920E-02 0.  1.
        2   -1    0    0  501    0  0.00000000000E+00  0.00000000000E+00 -0.18928094251E+04  0.18928094251E+04  0.25500000920E-02 0. -1.
    10030    2    1    2    0    0  0.00000000000E+00  0.00000000000E+00 -0.66672868027E+03  0.31188901700E+04  0.30467931928E+04 0.  0.
        5    1    3    3  502    0  0.98776542808E+03  0.75273682056E+03  0.56979548450E+03  0.13663755875E+04  0.46999998093E+01 0.  1.
       -5    1    3    3    0  502 -0.98776542808E+03 -0.75273682056E+03 -0.12365241648E+04  0.17525145825E+04  0.46999998093E+01 0. -1.
</event>
<event>
 5   0  0.3848286E-06  0.2025582E+04  0.7818609E-02  0.8594753E-01
       -1   -1    0    0    0  501  0.00000000000E+00  0.00000000000E+00  0.43835587734E+03  0.43835587737E+03  0.50400001928E-02 0. -1.
        1   -1    0    0  501    0  0.00000000000E+00  0.00000000000E+00 -0.23399833646E+04  0.23399833646E+04  0.50400001928E-02 0.  1.
    10030    2    1    2    0    0  0.00000000000E+00  0.00000000000E+00 -0.19016274873E+04  0.27783392420E+04  0.20255818530E+04 0.  0.
        2    1    3    3  502    0 -0.64882868684E+03 -0.46982717503E+03 -0.10081631587E+03  0.80739096404E+03  0.25500000920E-02 0. -1.
       -2    1    3    3    0  502  0.64882868684E+03  0.46982717503E+03 -0.18008111714E+04  0.19709482779E+04  0.25500000920E-02 0.  1.
</event>
<event>
 5   0  0.3807334E-06  0.3271959E+04  0.7818609E-02  0.8170067E-01
        1   -1    0    0  501    0  0.00000000000E+00  0.00000000000E+00  0.27188502650E+04  0.27188502650E+04  0.50400001928E-02 0.  1.
       -1   -1    0    0    0  501  0.00000000000E+00  0.00000000000E+00 -0.98439754171E+03  0.98439754172E+03  0.50400001928E-02 0. -1.
    10030    2    1    2    0    0  0.00000000000E+00  0.00000000000E+00  0.17344527233E+04  0.37032478068E+04  0.32719593623E+04 0.  0.
        4    1    3    3  502    0 -0.46907743155E+03 -0.13613710717E+04  0.17461603142E+04  0.22632813098E+04  0.12699999809E+01 0.  1.
       -4    1    3    3    0  502  0.46907743155E+03  0.13613710717E+04 -0.11707590912E+02  0.14399664969E+04  0.12699999809E+01 0. -1.
</event>
<event>
 5   0  0.1119100E-05  0.3000389E+04  0.7818609E-02  0.8243620E-01
       -2   -1    0    0    0  501  0.00000000000E+00  0.00000000000E+00  0.12253786897E+04  0.12253786897E+04  0.25500000920E-02 0. -1.
        2   -1    0    0  501    0  0.00000000000E+00  0.00000000000E+00 -0.18366434133E+04  0.18366434133E+04  0.25500000920E-02 0.  1.
    10030    2    1    2    0    0  0.00000000000E+00  0.00000000000E+00 -0.61126472361E+03  0.30620221031E+04  0.30003891076E+04 0.  0.
        2    1    3    3  502    0 -0.27372000045E+03 -0.72144547720E+03 -0.16185969897E+04  0.17931152864E+04  0.25500000920E-02 0.  1.
       -2    1    3    3    0  502  0.27372000045E+03  0.72144547720E+03  0.10073322661E+04  0.12689068167E+04  0.25500000920E-02 0. -1.
</event>
<event>
 5   0  0.1007567E-05  0.3122826E+04  0.7818609E-02  0.8209501E-01
        2   -1    0    0  501    0  0.00000000000E+00  0.00000000000E+00  0.22484739862E+04  0.22484739862E+04  0.25500000920E-02 0. -1.
       -2   -1    0    0    0  501  0.00000000000E+00  0.00000000000E+00 -0.10842955203E+04  0.10842955203E+04  0.25500000920E-02 0.  1.
    10030    2    1    2    0    0  0.00000000000E+00  0.00000000000E+00  0.11641784660E+04  0.33327695065E+04  0.31228258169E+04 0.  0.
        3    1    3    3  502    0  0.68512292438E+03  0.13957310264E+04  0.42909261674E+03  0.16129411035E+04  0.10100000352E+00 0. -1.
       -3    1    3    3    0  502 -0.68512292438E+03 -0.13957310264E+04  0.73508584923E+03  0.17198284029E+04  0.10100000352E+00 0.  1.
</event>
<event>
 5   0  0.4250961E-06  0.3098800E+04  0.7818609E-02  0.8216067E-01
       -1   -1    0    0    0  501  0.00000000000E+00  0.00000000000E+00  0.19195174341E+04  0.19195174341E+04  0.50400001928E-02 0. -1.
        1   -1    0    0  501    0  0.00000000000E+00  0.00000000000E+00 -0.12506476954E+04  0.12506476954E+04  0.50400001928E-02 0.  1.
    10030    2    1    2    0    0  0.00000000000E+00  0.00000000000E+00  0.66886973868E+03  0.31701651296E+04  0.30987998034E+04 0.  0.
        1    1    3    3  502    0 -0.14702307345E+04 -0.48892876565E+03  0.33115082028E+03  0.15843896668E+04  0.50400001928E-02 0.  1.
       -1    1    3    3    0  502  0.14702307345E+04  0.48892876565E+03  0.33771891839E+03  0.15857754628E+04  0.50400001928E-02 0. -1.
</event>
<event>
 5   0  0.1001961E-05  0.2969433E+04  0.7818609E-02  0.8252514E-01
        2   -1    0    0  501    0  0.00000000000E+00  0.00000000000E+00  0.20569349283E+04  0.20569349283E+04  0.25500000920E-02 0.  1.
       -2   -1    0    0    0  501  0.00000000000E+00  0.00000000000E+00 -0.10716836444E+04  0.10716836445E+04  0.25500000920E-02 0. -1.
    10030    2    1    2    0    0  0.00000000000E+00  0.00000000000E+00  0.98525128383E+03  0.31286185727E+04  0.29694332930E+04 0.  0.
        5    1    3    3  502    0 -0.53633936796E+03  0.12194414941E+04 -0.19800128430E+03  0.13468199856E+04  0.46999998093E+01 0. -1.
       -5    1    3    3    0  502  0.53633936796E+03 -0.12194414941E+04  0.11832525681E+04  0.17817985871E+04  0.46999998093E+01 0.  1.
</event>
<event>
 5   0  0.3807334E-06  0.2188365E+04  0.7818609E-02  0.8523286E-01
       -1   -1    0    0    0  501  0.00000000000E+00  0.00000000000E+00  0.17560213295E+04  0.17560213295E+04  0.50400001928E-02 0. -1.
        1   -1    0    0  501    0  0.00000000000E+00  0.00000000000E+00 -0.68178860138E+03  0.68178860140E+03  0.50400001928E-02 0.  1.
    10030    2    1    2    0    0  0.00000000000E+00  0.00000000000E+00  0.10742327282E+04  0.24378099309E+04  0.21883649844E+04 0.  0.
        4    1    3    3  502    0  0.56562870013E+03  0.84904074316E+03  0.96524047331E+02  0.10247558317E+04  0.12699999809E+01 0.  1.
       -4    1    3    3    0  502 -0.56562870013E+03 -0.84904074316E+03  0.97770868083E+03  0.14130540993E+04  0.12699999809E+01 0. -1.
</event>
<event>
 5   0  0.4139628E-06  0.1821733E+04  0.7818609E-02  0.8694827E-01
       -1   -1    0    0    0  501  0.00000000000E+00  0.00000000000E+00  0.84631179170E+03  0.84631179172E+03  0.50400001928E-02 0.  1.
        1   -1    0    0  501    0  0.00000000000E+00  0.00000000000E+00 -0.98034567685E+03  0.98034567686E+03  0.50400001928E-02 0. -1.
    10030    2    1    2    0    0  0.00000000000E+00  0.00000000000E+00 -0.13403388514E+03  0.18266574686E+04  0.18217333573E+04 0.  0.
        5    1    3    3  502    0 -0.40325511844E+02  0.29679653788E+02  0.84491867321E+03  0.84641401400E+03  0.46999998093E+01 0.  1.
       -5    1    3    3    0  502  0.40325511844E+02 -0.29679653788E+02 -0.97895255835E+03  0.98024345458E+03  0.46999998093E+01 0. -1.
</event>
<event>
 5   0  0.1119100E-05  0.3227366E+04  0.7818609E-02  0.8181627E-01
        2   -1    0    0  501    0  0.00000000000E+00  0.00000000000E+00  0.16781492906E+04  0.16781492906E+04  0.25500000920E-02 0.  1.
       -2   -1    0    0    0  501  0.00000000000E+00  0.00000000000E+00 -0.15516930699E+04  0.15516930699E+04  0.25500000920E-02 0. -1.
    10030    2    1    2    0    0  0.00000000000E+00  0.00000000000E+00  0.12645622075E+03  0.32298423605E+04  0.32273658761E+04 0.  0.
        2    1    3    3  502    0 -0.55382775508E+01  0.45870990866E+03  0.16115180947E+04  0.16755405165E+04  0.25500000920E-02 0.  1.
       -2    1    3    3    0  502  0.55382775508E+01 -0.45870990866E+03 -0.14850618740E+04  0.15543018440E+04  0.25500000920E-02 0. -1.
</event>
<event>
 5   0  0.4250961E-06  0.3123391E+04  0.7818609E-02  0.8209348E-01
        1   -1    0    0  501    0  0.00000000000E+00  0.00000000000E+00  0.15239509220E+04  0.15239509220E+04  0.50400001928E-02 0. -1.
       -1   -1    0    0    0  501  0.00000000000E+00  0.00000000000E+00 -0.16003746284E+04  0.16003746284E+04  0.50400001928E-02 0.  1.
    10030    2    1    2    0    0  0.00000000000E+00  0.00000000000E+00 -0.76423706481E+02  0.31243255504E+04  0.31233907156E+04 0.  0.
        1    1    3    3  502    0  0.87834195401E+03 -0.36871573505E+03 -0.12761025512E+04  0.15924426528E+04  0.50400001928E-02 0.  1.
       -1    1    3    3    0  502 -0.87834195401E+03  0.36871573505E+03  0.11996788447E+04  0.15318828976E+04  0.50400001928E-02 0. -1.
</event>
<event>
 5   0  0.3848286E-06  0.3233020E+04  0.7818609E-02  0.8180151E-01
        1   -1    0    0  501    0  0.00000000000E+00  0.00000000000E+00  0.11870671025E+04  0.11870671025E+04  0.50400001928E-02 0.  1.
       -1   -1    0    0    0  501  0.00000000000E+00  0.00000000000E+00 -0.22013114844E+04  0.22013114844E+04  0.50400001928E-02 0. -1.
    10030    2    1    2    0    0  0.00000000000E+00  0.00000000000E+00 -0.10142443819E+04  0.33883785869E+04  0.32330199167E+04 0.  0.
        2    1    3    3  502    0 -0.17774571871E+03  0.13627926315E+04  0.38483689578E+03  0.14271989116E+04  0.25500000920E-02 0. -1.
       -2    1    3    3    0  502  0.17774571871E+03 -0.13627926315E+04 -0.13990812777E+04  0.19611796753E+04  0.25500000920E-02 0.  1.
</event>
<event>
 5   0  0.1001961E-05  0.2846734E+04  0.7818609E-02  0.8288904E-01
       -2   -1    0    0    0  501  0.00000000000E+00  0.00000000000E+00  0.17171850806E+04  0.17171850806E+04  0.25500000920E-02 0. -1.
        2   -1    0    0  501    0  0.00000000000E+00  0.00000000000E+00 -0.11798223463E+04  0.11798223463E+04  0.25500000920E-02 0.  1.
    10030    2    1    2    0    0  0.00000000000E+00  0.00000000000E+00  0.53736273427E+03  0.28970074269E+04  0.28467337991E+04 0.  0.
        5    1    3    3  502    0 -0.64614619449E+03 -0.99215133215E+03 -0.53525857013E+03  0.12993817751E+04  0.46999998093E+01 0.  1.
       -5    1    3    3    0  502  0.64614619449E+03  0.99215133215E+03  0.10726213044E+04  0.15976256518E+04  0.46999998093E+01 0. -1.
</event>
<event>
 5   0  0.1108153E-05  0.3041509E+04  0.7818609E-02  0.8231976E-01
       -2   -1    0    0    0  501  0.00000000000E+00  0.00000000000E+00  0.11043952310E+04  0.11043952310E+04  0.25500000920E-02 0.  1.
        2   -1    0    0  501    0  0.00000000000E+00  0.00000000000E+00 -0.20940817803E+04  0.20940817803E+04  0.25500000920E-02 0. -1.
    10030    2    1    2    0    0  0.00000000000E+00  0.00000000000E+00 -0.98968654936E+03  0.31984770113E+04  0.30415087911E+04 0.  0.
        4    1    3    3  502    0 -0.11227506759E+04 -0.96982390210E+03 -0.84609448217E+03  0.17079241690E+04  0.12699999809E+01 0. -1.
       -4    1    3    3    0  502  0.11227506759E+04  0.96982390210E+03 -0.14359206718E+03  0.14905528424E+04  0.12699999809E+01 0.  1.
</event>
<event>
 5   0  0.3848286E-06  0.3130364E+04  0.7818609E-02  0.8207454E-01
       -1   -1    0    0    0  501  0.00000000000E+00  0.00000000000E+00  0.12531793994E+04  0.12531793994E+04  0.50400001928E-02 0.  1.
        1   -1    0    0  501    0  0.00000000000E+00  0.00000000000E+00 -0.19548632085E+04  0.19548632085E+04  0.50400001928E-02 0. -1.
    10030    2    1    2    0    0  0.00000000000E+00  0.00000000000E+00 -0.70168380911E+03  0.32080426079E+04  0.31303637498E+04 0.  0.
        2    1    3    3  502    0  0.16200077136E+03  0.73091282494E+03  0.10577905171E+04  0.12959161183E+04  0.25500000920E-02 0.  1.
       -2    1    3    3    0  502 -0.16200077136E+03 -0.73091282494E+03 -0.17594743262E+04  0.19121264896E+04  0.25500000920E-02 0. -1.
</event>
<event>
 5   0  0.3838525E-06  0.2288160E+04  0.7818609E-02  0.8482604E-01
        1   -1    0    0  501    0  0.00000000000E+00  0.00000000000E+00  0.98171108193E+03  0.98171108195E+03  0.50400001928E-02 0. -1.
       -1   -1    0    0    0  501  0.00000000000E+00  0.00000000000E+00 -0.13333036828E+04  0.13333036828E+04  0.50400001928E-02 0.  1.
    10030    2    1    2    0    0  0.00000000000E+00  0.00000000000E+00 -0.35159260086E+03  0.23150147648E+04  0.22881599603E+04 0.  0.
        3    1    3    3  502    0  0.61802033300E+03  0.34782214749E+03  0.73250953807E+03  0.10195585377E+04  0.10100000352E+00 0. -1.
       -3    1    3    3    0  502 -0.61802033300E+03 -0.34782214749E+03 -0.10841021389E+04  0.12954562270E+04  0.10100000352E+00 0.  1.
</event>
<event>
 5   0  0.3848286E-06  0.3087263E+04  0.7818609E-02  0.8219242E-01
       -1   -1    0    0    0  501  0.00000000000E+00  0.00000000000E+00  0.83695586849E+03  0.83695586850E+03  0.50400001928E-02 0. -1.
        1   -1    0    0  501    0  0.00000000000E+00  0.00000000000E+00 -0.28469821224E+04  0.28469821224E+04  0.50400001928E-02 0.  1.
    10030    2    1    2    0    0  0.00000000000E+00  0.00000000000E+00 -0.20100262539E+04  0.36839379909E+04  0.30872631212E+04 0.  0.
        2    1    3    3  502    0  0.53626421786E+03  0.53815040370E+03 -0.26084469115E+04  0.27168327992E+04  0.25500000920E-02 0.  1.
       -2    1    3    3    0  502 -0.53626421786E+03 -0.53815040370E+03  0.59842065763E+03  0.96710519172E+03  0.25500000920E-02 0. -1.
</event>
<event>
 5   0  0.1007567E-05  0.3223311E+04  0.7818609E-02  0.8182688E-01
       -2   -1    0    0    0  501  0.00000000000E+00  0.00000000000E+00  0.15455913833E+04  0.15455913833E+04  0.25500000920E-02 0. -1.
        2   -1    0    0  501    0  0.00000000000E+00  0.00000000000E+00 -0.16805437829E+04  0.16805437829E+04  0.25500000920E-02 0.  1.
    10030    2    1    2    0    0  0.00000000000E+00  0.00000000000E+00 -0.13495239953E+03  0.32261351662E+04  0.32233113347E+04 0.  0.
        3    1    3    3  502    0 -0.15361179793E+04 -0.40986261576E+03  0.19692974083E+03  0.16020072232E+04  0.10100000352E+00 0. -1.
       -3    1    3    3    0  502  0.15361179793E+04  0.40986261576E+03 -0.33188214036E+03  0.16241279430E+04  0.10100000352E+00 0.  1.
</event>
<event>
 5   0  0.4139628E-06  0.3173980E+04  0.7818609E-02  0.8195723E-01
       -1   -1    0    0    0  501  0.00000000000E+00  0.00000000000E+00  0.19071004554E+04  0.19071004555E+04  0.50400001928E-02 0.  1.
        1   -1    0    0  501    0  0.00000000000E+00  0.00000000000E+00 -0.13206109827E+04  0.13206109827E+04  0.50400001928E-02 0. -1.
    10030    2    1    2    0    0  0.00000000000E+00  0.00000000000E+00  0.58648947275E+03  0.32277114382E+04  0.31739803444E+04 0.  0.
        5    1    3    3  502    0 -0.12541884024E+04 -0.34336557734E+03  0.12183855881E+04  0.17819579118E+04  0.46999998093E+01 0.  1.
       -5    1    3    3    0  502  0.12541884024E+04  0.34336557734E+03 -0.63189611533E+03  0.14457535263E+04  0.46999998093E+01 0. -1.
</event>
<event>
 5   0  0.3807334E-06  0.3099958E+04  0.7818609E-02  0.8215750E-01
       -1   -1    0    0    0  501  0.00000000000E+00  0.00000000000E+00  0.25580163034E+04  0.25580163034E+04  0.50400001928E-02 0.  1.
        1   -1    0    0  501    0  0.00000000000E+00  0.00000000000E+00 -0.93917872947E+03  0.93917872948E+03  0.50400001928E-02 0. -1.
    10030    2    1    2    0    0  0.00000000000E+00  0.00000000000E+00  0.16188375739E+04  0.34971950329E+04  0.30999577428E+04 0.  0.
        4    1    3    3  502    0 -0.49291024112E+03 -0.10485285562E+04  0.19709459057E+04  0.22862637676E+04  0.12699999809E+01 0.  1.
       -4    1    3    3    0  502  0.49291024112E+03  0.10485285562E+04 -0.35210833176E+03  0.12109312653E+04  0.12699999809E+01 0. -1.
</event>
<event>
 5   0  0.3838525E-06  0.3120385E+04  0.7818609E-02  0.8210166E-01
       -1   -1    0    0    0  501  0.00000000000E+00  0.00000000000E+00  0.17455327365E+04  0.17455327365E+04  0.50400001928E-02 0. -1.
        1   -1    0    0  501    0  0.00000000000E+00  0.00000000000E+00 -0.13945318666E+04  0.13945318666E+04  0.50400001928E-02 0.  1.
    10030    2    1    2    0    0  0.00000000000E+00  0.00000000000E+00  0.35100086992E+03  0.31400646031E+04  0.31203852488E+04 0.  0.
        3    1    3    3  502    0  0.10293058063E+04  0.98695918515E+03  0.81245533073E+03  0.16412320222E+04  0.10100000352E+00 0.  1.
       -3    1    3    3    0  502 -0.10293058063E+04 -0.98695918515E+03 -0.46145446081E+03  0.14988325809E+04  0.10100000352E+00 0. -1.
</event>
<event>
 5   0  0.9797278E-06  0.1733516E+04  0.7818609E-02  0.8742477E-01
       -2   -1    0    0    0  501  0.00000000000E+00  0.00000000000E+00  0.57539713785E+03  0.57539713785E+03  0.25500000920E-02 0. -1.
        2   -1    0    0  501    0  0.00000000000E+00  0.00000000000E+00 -0.13056535938E+04  0.13056535938E+04  0.25500000920E-02 0.  1.
    10030    2    1    2    0    0  0.00000000000E+00  0.00000000000E+00 -0.73025645593E+03  0.18810507316E+04  0.17335158965E+04 0.  0.
        1    1    3    3  502    0  0.12549845899E+03  0.25843039036E+03 -0.12524867529E+04  0.12850133058E+04  0.50400001928E-02 0.  1.
       -1    1    3    3    0  502 -0.12549845899E+03 -0.25843039036E+03  0.52223029698E+03  0.59603742582E+03  0.50400001928E-02 0. -1.
</event>
<event>
 5   0  0.4250961E-06  0.2574952E+04  0.7818609E-02  0.8376760E-01
        1   -1    0    0  501    0  0.00000000000E+00  0.00000000000E+00  0.15332331855E+04  0.15332331855E+04  0.50400001928E-02 0.  1.
       -1   -1    0    0    0  501  0.00000000000E+00  0.00000000000E+00 -0.10811102726E+04  0.10811102726E+04  0.50400001928E-02 0. -1.
    10030    2    1    2    0    0  0.00000000000E+00  0.00000000000E+00  0.45212291289E+03  0.26143434581E+04  0.25749517643E+04 0.  0.
        1    1    3    3  502    0  0.23222264682E+03 -0.56437364797E+03 -0.92492526968E+03  0.11081208087E+04  0.50400001928E-02 0. -1.
       -1    1    3    3    0  502 -0.23222264682E+03  0.56437364797E+03  0.13770481826E+04  0.15062226493E+04  0.50400001928E-02 0.  1.
</event>
<event>
 5   0  0.1007567E-05  0.3083349E+04  0.7818609E-02  0.8220322E-01
       -2   -1    0    0    0  501  0.00000000000E+00  0.00000000000E+00  0.13752045663E+04  0.13752045663E+04  0.25500000920E-02 0. -1.
        2   -1    0    0  501    0  0.00000000000E+00  0.00000000000E+00 -0.17282961250E+04  0.17282961250E+04  0.25500000920E-02 0.  1.
    10030    2    1    2    0    0  0.00000000000E+00  0.00000000000E+00 -0.35309155870E+03  0.31035006913E+04  0.30833492978E+04 0.  0.
        3    1    3    3  502    0 -0.50907725766E+03 -0.89900889141E+03  0.97521595759E+03  0.14207120804E+04  0.10100000352E+00 0. -1.
       -3    1    3    3    0  502  0.50907725766E+03  0.89900889141E+03 -0.13283075163E+04  0.16827886109E+04  0.10100000352E+00 0.  1.
</event>
<event>
 5   0  0.1007567E-05  0.2920522E+04  0.7818609E-02  0.8266798E-01
       -2   -1    0    0    0  501  0.00000000000E+00  0.00000000000E+00  0.81120799483E+03  0.81120799484E+03  0.25500000920E-02 0. -1.
        2   -1    0    0  501    0  0.00000000000E+00  0.00000000000E+00 -0.26286265857E+04  0.26286265857E+04  0.25500000920E-02 0.  1.
    10030    2    1    2    0    0  0.00000000000E+00  0.00000000000E+00 -0.18174185908E+04  0.34398345805E+04  0.29205224887E+04 0.  0.
        3    1    3    3  502    0 -0.93925359131E+03  0.28265422229E+03  0.36544036447E+03  0.10467269885E+04  0.10100000352E+00 0. -1.
       -3    1    3    3    0  502  0.93925359131E+03 -0.28265422229E+03 -0.21828589553E+04  0.23931075920E+04  0.10100000352E+00 0.  1.
</event>
<event>
 5   0  0.1108153E-05  0.2675278E+04  0.7818609E-02  0.8343071E-01
       -2   -1    0    0    0  501  0.00000000000E+00  0.00000000000E+00  0.98563265882E+03  0.98563265882E+03  0.25500000920E-02 0. -1.
        2   -1    0    0  501    0  0.00000000000E+00  0.00000000000E+00 -0.18153595589E+04  0.18153595589E+04  0.25500000920E-02 0.  1.
    10030    2    1    2    0    0  0.00000000000E+00  0.00000000000E+00 -0.82972690011E+03  0.28009922178E+04  0.26752776819E+04 0.  0.
        4    1    3    3  502    0  0.59425981691E+03 -0.11598887987E+04 -0.73033512456E+03  0.14939470413E+04  0.12699999809E+01 0.  1.
       -4    1    3    3    0  502 -0.59425981691E+03  0.11598887987E+04 -0.99391775555E+02  0.13070451764E+04  0.12699999809E+01 0. -1.
</event>
<event>
 5   0  0.3838525E-06  0.3101398E+04  0.7818609E-02  0.8215354E-01
       -1   -1    0    0    0  501  0.00000000000E+00  0.00000000000E+00  0.14544996244E+04  0.14544996244E+04  0.50400001928E-02 0.  1.
        1   -1    0    0  501    0  0.00000000000E+00  0.00000000000E+00 -0.16532605537E+04  0.16532605537E+04  0.50400001928E-02 0. -1.
    10030    2    1    2    0    0  0.00000000000E+00  0.00000000000E+00 -0.19876092938E+03  0.31077601781E+04  0.31013976555E+04 0.  0.
        3    1    3    3  502    0  0.13766526551E+04 -0.53718745944E+03 -0.57037019525E+03  0.15840028628E+04  0.10100000352E+00 0. -1.
       -3    1    3    3    0  502 -0.13766526551E+04  0.53718745944E+03  0.37160926587E+03  0.15237573153E+04  0.10100000352E+00 0.  1.
</event>
<event>
 5   0  0.1108153E-05  0.2894387E+04  0.7818609E-02  0.8274549E-01
        2   -1    0    0  501    0  0.00000000000E+00  0.00000000000E+00  0.11336352953E+04  0.11336352953E+04  0.25500000920E-02 0.  1.
       -2   -1    0    0    0  501  0.00000000000E+00  0.00000000000E+00 -0.18474805999E+04  0.18474805999E+04  0.25500000920E-02 0. -1.
    10030    2    1    2    0    0  0.00000000000E+00  0.00000000000E+00 -0.71384530460E+03  0.29811158953E+04  0.28943871307E+04 0.  0.
        4    1    3    3  502    0 -0.70397614179E+03 -0.54503529013E+03  0.81819491439E+03  0.12091693043E+04  0.12699999809E+01 0.  1.
       -4    1    3    3    0  502  0.70397614179E+03  0.54503529013E+03 -0.15320402190E+04  0.17719465910E+04  0.12699999809E+01 0. -1.
</event>
<event>
 5   0  0.4139628E-06  0.3099735E+04  0.7818609E-02  0.8215811E-01
        1   -1    0    0  501    0  0.00000000000E+00  0.00000000000E+00  0.15515403789E+04  0.15515403789E+04  0.50400001928E-02 0. -1.
       -1   -1    0    0    0  501  0.00000000000E+00  0.00000000000E+00 -0.15481969157E+04  0.15481969157E+04  0.50400001928E-02 0.  1.
    10030    2    1    2    0    0  0.00000000000E+00  0.00000000000E+00  0.33434632533E+01  0.30997372946E+04  0.30997354914E+04 0.  0.
        5    1    3    3  502    0 -0.91865932073E+03 -0.43480467296E+03  0.11717484303E+04  0.15511307247E+04  0.46999998093E+01 0. -1.
       -5    1    3    3    0  502  0.91865932073E+03  0.43480467296E+03 -0.11684049671E+04  0.15486065699E+04  0.46999998093E+01 0.  1.
</event>
<event>
 5   0  0.9797278E-06  0.3224495E+04  0.7818609E-02  0.8182378E-01
       -2   -1    0    0    0  501  0.00000000000E+00  0.00000000000E+00  0.11126443056E+04  0.11126443056E+04  0.25500000920E-02 0. -1.
        2   -1    0    0  501    0  0.00000000000E+00  0.00000000000E+00 -0.23361839278E+04  0.23361839278E+04  0.25500000920E-02 0.  1.
    10030    2    1    2    0    0  0.00000000000E+00  0.00000000000E+00 -0.12235396222E+04  0.34488282334E+04  0.32244948405E+04 0.  0.
        1    1    3    3  502    0  0.95251570886E+03  0.11819273925E+04 -0.30742102876E+02  0.15182831138E+04  0.50400001928E-02 0. -1.
       -1    1    3    3    0  502 -0.95251570886E+03 -0.11819273925E+04 -0.11927975194E+04  0.19305451196E+04  0.50400001928E-02 0.  1.
</event>
<event>
 5   0  0.3848286E-06  0.3079216E+04  0.7818609E-02  0.8221465E-01
        1   -1    0    0  501    0  0.00000000000E+00  0.00000000000E+00  0.15771292406E+04  0.15771292406E+04  0.50400001928E-02 0. -1.
       -1   -1    0    0    0  501  0.00000000000E+00  0.00000000000E+00 -0.15029799001E+04  0.15029799001E+04  0.50400001928E-02 0.  1.
    10030    2    1    2    0    0  0.00000000000E+00  0.00000000000E+00  0.74149340532E+02  0.30801091407E+04  0.30792164903E+04 0.  0.
        2    1    3    3  502    0  0.93484330913E+03 -0.61762472834E+03  0.10933169681E+04  0.15654821336E+04  0.25500000920E-02 0. -1.
       -2    1    3    3    0  502 -0.93484330913E+03  0.61762472834E+03 -0.10191676276E+04  0.15146270072E+04  0.25500000920E-02 0.  1.
</event>
<event>
 5   0  0.1001961E-05  0.2581334E+04  0.7818609E-02  0.8374569E-01
        2   -1    0    0  501    0  0.00000000000E+00  0.00000000000E+00  0.18945934417E+04  0.18945934417E+04  0.25500000920E-02 0.  1.
       -2   -1    0    0    0  501  0.00000000000E+00  0.00000000000E+00 -0.87924988047E+03  0.87924988047E+03  0.25500000920E-02 0. -1.
    10030    2    1    2    0    0  0.00000000000E+00  0.00000000000E+00  0.10153435613E+04  0.27738433222E+04  0.25813338081E+04 0.  0.
        5    1    3    3  502    0 -0.48257253629E+02 -0.59431236244E+03 -0.72236188851E+03  0.93667749767E+03  0.46999998093E+01 0. -1.
       -5    1    3    3    0  502  0.48257253629E+02  0.59431236244E+03  0.17377054498E+04  0.18371658245E+04  0.46999998093E+01 0.  1.
</event>
<event>
 5   0  0.3838525E-06  0.3215979E+04  0.7818609E-02  0.8184610E-01
       -1   -1    0    0    0  501  0.00000000000E+00  0.00000000000E+00  0.12522897646E+04  0.12522897646E+04  0.50400001928E-02 0. -1.
        1   -1    0    0  501    0  0.00000000000E+00  0.00000000000E+00 -0.20647223277E+04  0.20647223278E+04  0.50400001928E-02 0.  1.
    10030    2    1    2    0    0  0.00000000000E+00  0.00000000000E+00 -0.81243256312E+03  0.33170120924E+04  0.32159792523E+04 0.  0.
        3    1    3    3  502    0 -0.20171657464E+03  0.15931530051E+04 -0.32113507628E+03  0.16376671889E+04  0.10100000352E+00 0. -1.
       -3    1    3    3    0  502  0.20171657464E+03 -0.15931530051E+04 -0.49129748684E+03  0.16793449035E+04  0.10100000352E+00 0.  1.
</event>
<event>
 5   0  0.3838525E-06  0.2962703E+04  0.7818609E-02  0.8254462E-01
        1   -1    0    0  501    0  0.00000000000E+00  0.00000000000E+00  0.19033559224E+04  0.19033559224E+04  0.50400001928E-02 0. -1.
       -1   -1    0    0    0  501  0.00000000000E+00  0.00000000000E+00 -0.11529124331E+04  0.11529124331E+04  0.50400001928E-02 0.  1.
    10030    2    1    2    0    0  0.00000000000E+00  0.00000000000E+00  0.75044348933E+03  0.30562683555E+04  0.29627032977E+04 0.  0.
        3    1    3    3  502    0  0.44424053971E+03  0.13595784041E+04  0.77288196501E+03  0.16257766255E+04  0.10100000352E+00 0. -1.
       -3    1    3    3    0  502 -0.44424053971E+03 -0.13595784041E+04 -0.22438475683E+02  0.14304917300E+04  0.10100000352E+00 0.  1.
</event>
<event>
 5   0  0.3493125E-06  0.3103126E+04  0.7818609E-02  0.8214881E-01
        3   -1    0    0  501    0  0.00000000000E+00  0.00000000000E+00  0.15211723855E+04  0.15211723888E+04  0.10100000352E+00 0.  1.
       -3   -1    0    0    0  501  0.00000000000E+00  0.00000000000E+00 -0.15825608203E+04  0.15825608235E+04  0.10100000352E+00 0. -1.
    10030    2    1    2    0    0  0.00000000000E+00  0.00000000000E+00 -0.61388434794E+02  0.31037332123E+04  0.31031260550E+04 0.  0.
        1    1    3    3  502    0  0.88685327200E+03  0.30113788539E+03 -0.12679306195E+04  0.15763377836E+04  0.50400001928E-02 0. -1.
       -1    1    3    3    0  502 -0.88685327200E+03 -0.30113788539E+03  0.12065421847E+04  0.15273954287E+04  0.50400001928E-02 0.  1.
</event>
<event>
 5   0  0.4250961E-06  0.1884090E+04  0.7818609E-02  0.8662817E-01
        1   -1    0    0  501    0  0.00000000000E+00  0.00000000000E+00  0.12053572532E+04  0.12053572532E+04  0.50400001928E-02 0.  1.
       -1   -1    0    0    0  501  0.00000000000E+00  0.00000000000E+00 -0.73625357746E+03  0.73625357748E+03  0.50400001928E-02 0. -1.
    10030    2    1    2    0    0  0.00000000000E+00  0.00000000000E+00  0.46910367574E+03  0.19416108307E+04  0.18840897960E+04 0.  0.
        1    1    3    3  502    0 -0.61294978468E+03  0.10276391878E+03 -0.49500271128E+03  0.79454109129E+03  0.50400001928E-02 0. -1.
       -1    1    3    3    0  502  0.61294978468E+03 -0.10276391878E+03  0.96410638702E+03  0.11470697394E+04  0.50400001928E-02 0.  1.
</event>
<event>
 5   0  0.3848286E-06  0.3190038E+04  0.7818609E-02  0.8191453E-01
       -1   -1    0    0    0  501  0.00000000000E+00  0.00000000000E+00  0.13083593181E+04  0.13083593181E+04  0.50400001928E-02 0. -1.
        1   -1    0    0  501    0  0.00000000000E+00  0.00000000000E+00 -0.19444856756E+04  0.19444856756E+04  0.50400001928E-02 0.  1.
    10030    2    1    2    0    0  0.00000000000E+00  0.00000000000E+00 -0.63612635751E+03  0.32528449937E+04  0.31900382146E+04 0.  0.
        2    1    3    3  502    0  0.81891108200E+03 -0.10638192290E+04 -0.11962743667E+04  0.17981654742E+04  0.25500000920E-02 0.  1.
       -2    1    3    3    0  502 -0.81891108200E+03  0.10638192290E+04  0.56014800919E+03  0.14546795195E+04  0.25500000920E-02 0. -1.
</event>
<event>
 5   0  0.4139628E-06  0.2827336E+04  0.7818609E-02  0.8294832E-01
        1   -1    0    0  501    0  0.00000000000E+00  0.00000000000E+00  0.25675824033E+04  0.25675824033E+04  0.50400001928E-02 0. -1.
       -1   -1    0    0    0  501  0.00000000000E+00  0.00000000000E+00 -0.77834175801E+03  0.77834175803E+03  0.50400001928E-02 0.  1.
    10030    2    1    2    0    0  0.00000000000E+00  0.00000000000E+00  0.17892406453E+04  0.33459241614E+04  0.28273355667E+04 0.  0.
        5    1    3    3  502    0 -0.84571693350E+03  0.75615123721E+03  0.18927929221E+04  0.22067371753E+04  0.46999998093E+01 0. -1.
       -5    1    3    3    0  502  0.84571693350E+03 -0.75615123721E+03 -0.10355227674E+03  0.11391869860E+04  0.46999998093E+01 0.  1.
</event>
<event>
 5   0  0.1001961E-05  0.3197684E+04  0.7818609E-02  0.8189429E-01
       -2   -1    0    0    0  501  0.00000000000E+00  0.00000000000E+00  0.12997546545E+04  0.12997546545E+04  0.25500000920E-02 0.  1.
        2   -1    0    0  501    0  0.00000000000E+00  0.00000000000E+00 -0.19667527243E+04  0.19667527243E+04  0.25500000920E-02 0. -1.
    10030    2    1    2    0    0  0.00000000000E+00  0.00000000000E+00 -0.66699806977E+03  0.32665073788E+04  0.31976841668E+04 0.  0.
        5    1    3    3  502    0 -0.10864969202E+04  0.71608653802E+03 -0.12824813348E+04  0.18270292695E+04  0.46999998093E+01 0. -1.
       -5    1    3    3    0  502  0.10864969202E+04 -0.71608653802E+03  0.61548326507E+03  0.14394781093E+04  0.46999998093E+01 0.  1.
</event>
<event>
 5   0  0.4139628E-06  0.2341031E+04  0.7818609E-02  0.8461917E-01
       -1   -1    0    0    0  501  0.00000000000E+00  0.00000000000E+00  0.10413883951E+04  0.10413883951E+04  0.50400001928E-02 0.  1.
        1   -1    0    0  501    0  0.00000000000E+00  0.00000000000E+00 -0.13156540631E+04  0.13156540632E+04  0.50400001928E-02 0. -1.
    10030    2    1    2    0    0  0.00000000000E+00  0.00000000000E+00 -0.27426566804E+03  0.23570424583E+04  0.23410312884E+04 0.  0.
        5    1    3    3  502    0 -0.10062022544E+04  0.38872984574E+03  0.32043208551E+03  0.11252789348E+04  0.46999998093E+01 0.  1.
       -5    1    3    3    0  502  0.10062022544E+04 -0.38872984574E+03 -0.59469775356E+03  0.12317635235E+04  0.46999998093E+01 0. -1.
</event>
<event>
 5   0  0.9797278E-06  0.2713827E+04  0.7818609E-02  0.8330532E-01
       -2   -1    0    0    0  501  0.00000000000E+00  0.00000000000E+00  0.13217092093E+04  0.13217092093E+04  0.25500000920E-02 0. -1.
        2   -1    0    0  501    0  0.00000000000E+00  0.00000000000E+00 -0.13930558201E+04  0.13930558201E+04  0.25500000920E-02 0.  1.
    10030    2    1    2    0    0  0.00000000000E+00  0.00000000000E+00 -0.71346610767E+02  0.27147650294E+04  0.27138273390E+04 0.  0.
        1    1    3    3  502    0  0.32215597993E+03 -0.11279686199E+04 -0.71790383569E+03  0.13753121829E+04  0.50400001928E-02 0.  1.
       -1    1    3    3    0  502 -0.32215597993E+03  0.11279686199E+04  0.64655722492E+03  0.13394528465E+04  0.50400001928E-02 0. -1.
</event>
<event>
 5   0  0.4250961E-06  0.3086329E+04  0.7818609E-02  0.8219500E-01
        1   -1    0    0  501    0  0.00000000000E+00  0.00000000000E+00  0.28166302336E+04  0.28166302336E+04  0.50400001928E-02 0. -1.
       -1   -1    0    0    0  501  0.00000000000E+00  0.00000000000E+00 -0.84546293074E+03  0.84546293075E+03  0.50400001928E-02 0.  1.
    10030    2    1    2    0    0  0.00000000000E+00  0.00000000000E+00  0.19711673028E+04  0.36620931643E+04  0.30863288562E+04 0.  0.
        1    1    3    3  502    0  0.12035188064E+04 -0.52004800011E+03  0.19836540262E+02  0.13112211591E+04  0.50400001928E-02 0.  1.
       -1    1    3    3    0  502 -0.12035188064E+04  0.52004800011E+03  0.19513307626E+04  0.23508720052E+04  0.50400001928E-02 0. -1.
</event>
<event>
 5   0  0.9797278E-06  0.3128214E+04  0.7818609E-02  0.8208037E-01
       -2   -1    0    0    0  501  0.00000000000E+00  0.00000000000E+00  0.12761196787E+04  0.12761196787E+04  0.25500000920E-02 0.  1.
        2   -1    0    0  501    0  0.00000000000E+00  0.00000000000E+00 -0.19170855385E+04  0.19170855385E+04  0.25500000920E-02 0. -1.
    10030    2    1    2    0    0  0.00000000000E+00  0.00000000000E+00 -0.64096585977E+03  0.31932052172E+04  0.31282139195E+04 0.  0.
        1    1    3    3  502    0  0.29819563457E+03 -0.62322535211E+03  0.11119169758E+04  0.13090797673E+04  0.50400001928E-02 0.  1.
       -1    1    3    3    0  502 -0.29819563457E+03  0.62322535211E+03 -0.17528828356E+04  0.18841254500E+04  0.50400001928E-02 0. -1.
</event>
<event>
 5   0  0.1007567E-05  0.1683459E+04  0.7818609E-02  0.8770855E-01
        2   -1    0    0  501    0  0.00000000000E+00  0.00000000000E+00  0.10446850883E+04  0.10446850883E+04  0.25500000920E-02 0.  1.
       -2   -1    0    0    0  501  0.00000000000E+00  0.00000000000E+00 -0.67820307139E+03  0.67820307140E+03  0.25500000920E-02 0. -1.
    10030    2    1    2    0    0  0.00000000000E+00  0.00000000000E+00  0.36648201693E+03  0.17228881597E+04  0.16834591002E+04 0.  0.
        3    1    3    3  502    0  0.10089460931E+03 -0.41537820427E+03  0.92533790616E+03  0.10192983006E+04  0.10100000352E+00 0.  1.
       -3    1    3    3    0  502 -0.10089460931E+03  0.41537820427E+03 -0.55885588923E+03  0.70358985915E+03  0.10100000352E+00 0. -1.
</event>
<event>
 5   0  0.3838525E-06  0.1789107E+04  0.7818609E-02  0.8712114E-01
       -1   -1    0    0    0  501  0.00000000000E+00  0.00000000000E+00  0.86939501354E+03  0.86939501355E+03  0.50400001928E-02 0.  1.
        1   -1    0    0  501    0  0.00000000000E+00  0.00000000000E+00 -0.92044030770E+03  0.92044030771E+03  0.50400001928E-02 0. -1.
    10030    2    1    2    0    0  0.00000000000E+00  0.00000000000E+00 -0.51045294163E+02  0.17898353213E+04  0.17891072788E+04 0.  0.
        3    1    3    3  502    0  0.53269761459E+03 -0.35435100725E+03  0.59994759002E+03  0.87707953225E+03  0.10100000352E+00 0.  1.
       -3    1    3    3    0  502 -0.53269761459E+03  0.35435100725E+03 -0.65099288418E+03  0.91275578901E+03  0.10100000352E+00 0. -1.
</event>
<event>
 5   0  0.4139628E-06  0.2747173E+04  0.7818609E-02  0.8319859E-01
        1   -1    0    0  501    0  0.00000000000E+00  0.00000000000E+00  0.12445457230E+04  0.12445457230E+04  0.50400001928E-02 0. -1.
       -1   -1    0    0    0  501  0.00000000000E+00  0.00000000000E+00 -0.15160073354E+04  0.15160073354E+04  0.50400001928E-02 0.  1.
    10030    2    1    2    0    0  0.00000000000E+00  0.00000000000E+00 -0.27146161239E+03  0.27605530585E+04  0.27471734167E+04 0.  0.
        5    1    3    3  502    0  0.10374375496E+04  0.36883978313E+03  0.68948673364E+03  0.12991279770E+04  0.46999998093E+01 0. -1.
       -5    1    3    3    0  502 -0.10374375496E+04 -0.36883978313E+03 -0.96094834603E+03  0.14614250814E+04  0.46999998093E+01 0.  1.
</event>
<event>
 5   0  0.3848286E-06  0.2970504E+04  0.7818609E-02  0.8252204E-01
       -1   -1    0    0    0  501  0.00000000000E+00  0.00000000000E+00  0.95450627426E+03  0.95450627428E+03  0.50400001928E-02 0. -1.
        1   -1    0    0  501    0  0.00000000000E+00  0.00000000000E+00 -0.23111145281E+04  0.23111145282E+04  0.50400001928E-02 0.  1.
    10030    2    1    2    0    0  0.00000000000E+00  0.00000000000E+00 -0.13566082539E+04  0.32656208024E+04  0.29705038749E+04 0.  0.
        2    1    3    3  502    0  0.25517844702E+03 -0.29959388064E+03  0.89614680760E+03  0.97875003648E+03  0.25500000920E-02 0. -1.
       -2    1    3    3    0  502 -0.25517844702E+03  0.29959388064E+03 -0.22527550615E+04  0.22868707659E+04  0.25500000920E-02 0.  1.
</event>
<event>
 5   0  0.1007567E-05  0.2871943E+04  0.7818609E-02  0.8281275E-01
       -2   -1    0    0    0  501  0.00000000000E+00  0.00000000000E+00  0.84948739406E+03  0.84948739406E+03  0.25500000920E-02 0.  1.
        2   -1    0    0  501    0  0.00000000000E+00  0.00000000000E+00 -0.24273626768E+04  0.24273626768E+04  0.25500000920E-02 0. -1.
    10030    2    1    2    0    0  0.00000000000E+00  0.00000000000E+00 -0.15778752828E+04  0.32768500709E+04  0.28719428927E+04 0.  0.
        3    1    3    3  502    0  0.41677695537E+03 -0.84847052495E+03  0.44438915192E+03  0.10445510953E+04  0.10100000352E+00 0.  1.
       -3    1    3    3    0  502 -0.41677695537E+03  0.84847052495E+03 -0.20222644347E+04  0.22322989756E+04  0.10100000352E+00 0. -1.
</event>
<event>
 5   0  0.1119100E-05  0.3081771E+04  0.7818609E-02  0.8220759E-01
       -2   -1    0    0    0  501  0.00000000000E+00  0.00000000000E+00  0.12890831251E+04  0.12890831251E+04  0.25500000920E-02 0.  1.
        2   -1    0    0  501    0  0.00000000000E+00  0.00000000000E+00 -0.18418737117E+04  0.18418737117E+04  0.25500000920E-02 0. -1.
    10030    2    1    2    0    0  0.00000000000E+00  0.00000000000E+00 -0.55279058658E+03  0.31309568368E+04  0.30817711273E+04 0.  0.
        2    1    3    3  502    0  0.25181711085E+03 -0.77416677975E+03 -0.16055501630E+04  0.18001492677E+04  0.25500000920E-02 0. -1.
       -2    1    3    3    0  502 -0.25181711085E+03  0.77416677975E+03  0.10527595764E+04  0.13308075691E+04  0.25500000920E-02 0.  1.
</event>
<event>
 5   0  0.1007567E-05  0.2778281E+04  0.7818609E-02  0.8310043E-01
        2   -1    0    0  501    0  0.00000000000E+00  0.00000000000E+00  0.11297366715E+04  0.11297366715E+04  0.25500000920E-02 0. -1.
       -2   -1    0    0    0  501  0.00000000000E+00  0.00000000000E+00 -0.17081068170E+04  0.17081068170E+04  0.25500000920E-02 0.  1.
    10030    2    1    2    0    0  0.00000000000E+00  0.00000000000E+00 -0.57837014547E+03  0.28378434884E+04  0.27782806985E+04 0.  0.
        3    1    3    3  502    0  0.56777654461E+03 -0.11227184917E+04 -0.89074560931E+03  0.15415235214E+04  0.10100000352E+00 0.  1.
       -3    1    3    3    0  502 -0.56777654461E+03  0.11227184917E+04  0.31237546383E+03  0.12963199670E+04  0.10100000352E+00 0. -1.
</event>
<event>
 5   0  0.1119100E-05  0.1711470E+04  0.7818609E-02  0.8754850E-01
        2   -1    0    0  501    0  0.00000000000E+00  0.00000000000E+00  0.14201805883E+04  0.14201805883E+04  0.25500000920E-02 0. -1.
       -2   -1    0    0    0  501  0.00000000000E+00  0.00000000000E+00 -0.51562612711E+03  0.51562612711E+03  0.25500000920E-02 0.  1.
    10030    2    1    2    0    0  0.00000000000E+00  0.00000000000E+00  0.90455446124E+03  0.19358067155E+04  0.17114697971E+04 0.  0.
        2    1    3    3  502    0 -0.65093707885E+03  0.69450303216E+02 -0.17108946814E+03  0.67661956175E+03  0.25500000920E-02 0.  1.
       -2    1    3    3    0  502  0.65093707885E+03 -0.69450303216E+02  0.10756439294E+04  0.12591871537E+04  0.25500000920E-02 0. -1.
</event>
<event>
 5   0  0.1007567E-05  0.2964488E+04  0.7818609E-02  0.8253945E-01
       -2   -1    0    0    0  501  0.00000000000E+00  0.00000000000E+00  0.12768438412E+04  0.12768438412E+04  0.25500000920E-02 0. -1.
        2   -1    0    0  501    0  0.00000000000E+00  0.00000000000E+00 -0.17206865194E+04  0.17206865194E+04  0.25500000920E-02 0.  1.
    10030    2    1    2    0    0  0.00000000000E+00  0.00000000000E+00 -0.44384267822E+03  0.29975303606E+04  0.29644884786E+04 0.  0.
        3    1    3    3  502    0  0.11684763541E+04 -0.86512964891E+03  0.69845812660E+02  0.14555633780E+04  0.10100000352E+00 0.  1.
       -3    1    3    3    0  502 -0.11684763541E+04  0.86512964891E+03 -0.51368849088E+03  0.15419669826E+04  0.10100000352E+00 0. -1.
</event>
<event>
 5   0  0.1001961E-05  0.3062284E+04  0.7818609E-02  0.8226166E-01
        2   -1    0    0  501    0  0.00000000000E+00  0.00000000000E+00  0.15111318785E+04  0.15111318785E+04  0.25500000920E-02 0. -1.
       -2   -1    0    0    0  501  0.00000000000E+00  0.00000000000E+00 -0.15514172029E+04  0.15514172029E+04  0.25500000920E-02 0.  1.
    10030    2    1    2    0    0  0.00000000000E+00  0.00000000000E+00 -0.40285324451E+02  0.30625490814E+04  0.30622841097E+04 0.  0.
        5    1    3    3  502    0  0.11903318147E+04  0.52327040722E+03  0.78842723583E+03  0.15206384660E+04  0.46999998093E+01 0. -1.
       -5    1    3    3    0  502 -0.11903318147E+04 -0.52327040722E+03 -0.82871256028E+03  0.15419106153E+04  0.46999998093E+01 0.  1.
</event>
<event>
 5   0  0.1108153E-05  0.2762722E+04  0.7818609E-02  0.8314936E-01
       -2   -1    0    0    0  501  0.00000000000E+00  0.00000000000E+00  0.94236269526E+03  0.94236269527E+03  0.25500000920E-02 0. -1.
        2   -1    0    0  501    0  0.00000000000E+00  0.00000000000E+00 -0.20248655029E+04  0.20248655029E+04  0.25500000920E-02 0.  1.
    10030    2    1    2    0    0  0.00000000000E+00  0.00000000000E+00 -0.10825028076E+04  0.29672281982E+04  0.27627216384E+04 0.  0.
        4    1    3    3  502    0  0.13469021253E+04  0.29971699912E+03 -0.47180861216E+03  0.14582800122E+04  0.12699999809E+01 0.  1.
       -4    1    3    3    0  502 -0.13469021253E+04 -0.29971699912E+03 -0.61069419546E+03  0.15089481859E+04  0.12699999809E+01 0. -1.
</event>
<event>
 5   0  0.1108153E-05  0.2917451E+04  0.7818609E-02  0.8267704E-01
       -2   -1    0    0    0  501  0.00000000000E+00  0.00000000000E+00  0.12598333083E+04  0.12598333083E+04  0.25500000920E-02 0.  1.
        2   -1    0    0  501    0  0.00000000000E+00  0.00000000000E+00 -0.16890177417E+04  0.16890177417E+04  0.25500000920E-02 0. -1.
    10030    2    1    2    0    0  0.00000000000E+00  0.00000000000E+00 -0.42918443341E+03  0.29488510501E+04  0.29174514970E+04 0.  0.
        4    1    3    3  502    0 -0.16405705167E+03 -0.44279135837E+02 -0.16789790258E+04  0.16875566776E+04  0.12699999809E+01 0. -1.
       -4    1    3    3    0  502  0.16405705167E+03  0.44279135837E+02  0.12497945924E+04  0.12612943725E+04  0.12699999809E+01 0.  1.
</event>
<event>
 5   0  0.4250961E-06  0.1532581E+04  0.7818609E-02  0.8863071E-01
       -1   -1    0    0    0  501  0.00000000000E+00  0.00000000000E+00  0.47577040366E+03  0.47577040369E+03  0.50400001928E-02 0.  1.
        1   -1    0    0  501    0  0.00000000000E+00  0.00000000000E+00 -0.12342115706E+04  0.12342115706E+04  0.50400001928E-02 0. -1.
    10030    2    1    2    0    0  0.00000000000E+00  0.00000000000E+00 -0.75844116690E+03  0.17099819743E+04  0.15325812698E+04 0.  0.
        1    1    3    3  502    0  0.17057429061E+03 -0.25911310524E+03 -0.11610172110E+04  0.12017471257E+04  0.50400001928E-02 0. -1.
       -1    1    3    3    0  502 -0.17057429061E+03  0.25911310524E+03  0.40257604411E+03  0.50823484852E+03  0.50400001928E-02 0.  1.
</event>
<event>
 5   0  0.1119100E-05  0.3141864E+04  0.7818609E-02  0.8204342E-01
        2   -1    0    0  501    0  0.00000000000E+00  0.00000000000E+00  0.25035386058E+04  0.25035386058E+04  0.25500000920E-02 0.  1.
       -2   -1    0    0    0  501  0.00000000000E+00  0.00000000000E+00 -0.98573546956E+03  0.98573546956E+03  0.25500000920E-02 0. -1.
    10030    2    1    2    0    0  0.00000000000E+00  0.00000000000E+00  0.15178031363E+04  0.34892740754E+04  0.31418636528E+04 0.  0.
        2    1    3    3  502    0  0.35941141396E+03  0.53392525337E+03  0.23503879796E+04  0.24369194479E+04  0.25500000920E-02 0.  1.
       -2    1    3    3    0  502 -0.35941141396E+03 -0.53392525337E+03 -0.83258484335E+03  0.10523546275E+04  0.25500000920E-02 0. -1.
</event>
<event>
 5   0  0.4139628E-06  0.2997610E+04  0.7818609E-02  0.8244414E-01
       -1   -1    0    0    0  501  0.00000000000E+00  0.00000000000E+00  0.99177728231E+03  0.99177728232E+03  0.50400001928E-02 0. -1.
        1   -1    0    0  501    0  0.00000000000E+00  0.00000000000E+00 -0.22650414483E+04  0.22650414483E+04  0.50400001928E-02 0.  1.
    10030    2    1    2    0    0  0.00000000000E+00  0.00000000000E+00 -0.12732641660E+04  0.32568187306E+04  0.29976101494E+04 0.  0.
        5    1    3    3  502    0 -0.26257840409E+03 -0.14722043864E+04 -0.74561223089E+03  0.16710155183E+04  0.46999998093E+01 0. -1.
       -5    1    3    3    0  502  0.26257840409E+03  0.14722043864E+04 -0.52765193507E+03  0.15858032123E+04  0.46999998093E+01 0.  1.
</event>
<event>
 5   0  0.3807334E-06  0.2494485E+04  0.7818609E-02  0.8404953E-01
        1   -1    0    0  501    0  0.00000000000E+00  0.00000000000E+00  0.11293119925E+04  0.11293119925E+04  0.50400001928E-02 0.  1.
       -1   -1    0    0    0  501  0.00000000000E+00  0.00000000000E+00 -0.13774876673E+04  0.13774876673E+04  0.50400001928E-02 0. -1.
    10030    2    1    2    0    0  0.00000000000E+00  0.00000000000E+00 -0.24817567484E+03  0.25067996599E+04  0.24944845899E+04 0.  0.
        4    1    3    3  502    0  0.64645240186E+03 -0.90581377963E+03  0.44190885343E+03  0.11973655912E+04  0.12699999809E+01 0.  1.
       -4    1    3    3    0  502 -0.64645240186E+03  0.90581377963E+03 -0.69008452827E+03  0.13094340687E+04  0.12699999809E+01 0. -1.
</event>
<event>
 5   0  0.4139628E-06  0.3090239E+04  0.7818609E-02  0.8218422E-01
       -1   -1    0    0    0  501  0.00000000000E+00  0.00000000000E+00  0.12813767331E+04  0.12813767331E+04  0.50400001928E-02 0.  1.
        1   -1    0    0  501    0  0.00000000000E+00  0.00000000000E+00 -0.18631482206E+04  0.18631482206E+04  0.50400001928E-02 0. -1.
    10030    2    1    2    0    0  0.00000000000E+00  0.00000000000E+00 -0.58177148749E+03  0.31445249537E+04  0.30902393306E+04 0.  0.
        5    1    3    3  502    0  0.76892425196E+03  0.29628451871E+03  0.10391109185E+04  0.13261985569E+04  0.46999998093E+01 0.  1.
       -5    1    3    3    0  502 -0.76892425196E+03 -0.29628451871E+03 -0.16208824060E+04  0.18183263968E+04  0.46999998093E+01 0. -1.
</event>
<event>
 5   0  0.9797278E-06  0.3084168E+04  0.7818609E-02  0.8220096E-01
       -2   -1    0    0    0  501  0.00000000000E+00  0.00000000000E+00  0.11342892653E+04  0.11342892653E+04  0.25500000920E-02 0. -1.
        2   -1    0    0  501    0  0.00000000000E+00  0.00000000000E+00 -0.20964877170E+04  0.20964877171E+04  0.25500000920E-02 0.  1.
    10030    2    1    2    0    0  0.00000000000E+00  0.00000000000E+00 -0.96219845175E+03  0.32307769824E+04  0.30841682913E+04 0.  0.
        1    1    3    3  502    0  0.12448715582E+04  0.33627972447E+03  0.40481783974E+03  0.13515423534E+04  0.50400001928E-02 0. -1.
       -1    1    3    3    0  502 -0.12448715582E+04 -0.33627972447E+03 -0.13670162915E+04  0.18792346290E+04  0.50400001928E-02 0.  1.
</event>
<event>
 5   0  0.1007567E-05  0.3162850E+04  0.7818609E-02  0.8198698E-01
        2   -1    0    0  501    0  0.00000000000E+00  0.00000000000E+00  0.14246107231E+04  0.14246107231E+04  0.25500000920E-02 0.  1.
       -2   -1    0    0    0  501  0.00000000000E+00  0.00000000000E+00 -0.17555009846E+04  0.17555009846E+04  0.25500000920E-02 0. -1.
    10030    2    1    2    0    0  0.00000000000E+00  0.00000000000E+00 -0.33089026152E+03  0.31801117078E+04  0.31628503140E+04 0.  0.
        3    1    3    3  502    0  0.94825830834E+03 -0.12605470116E+04 -0.51989018397E+02  0.15782507583E+04  0.10100000352E+00 0.  1.
       -3    1    3    3    0  502 -0.94825830834E+03  0.12605470116E+04 -0.27890124312E+03  0.16018609495E+04  0.10100000352E+00 0. -1.
</event>
<event>
 5   0  0.1001961E-05  0.2159555E+04  0.7818609E-02  0.8535453E-01
       -2   -1    0    0    0  501  0.00000000000E+00  0.00000000000E+00  0.66987628950E+03  0.66987628950E+03  0.25500000920E-02 0.  1.
        2   -1    0    0  501    0  0.00000000000E+00  0.00000000000E+00 -0.17404989131E+04  0.17404989131E+04  0.25500000920E-02 0. -1.
    10030    2    1    2    0    0  0.00000000000E+00  0.00000000000E+00 -0.10706226236E+04  0.24103752026E+04  0.21595545409E+04 0.  0.
        5    1    3    3  502    0 -0.96909849757E+02 -0.10276470953E+04 -0.88905484584E+03  0.13623107870E+04  0.46999998093E+01 0.  1.
       -5    1    3    3    0  502  0.96909849757E+02  0.10276470953E+04 -0.18156777778E+03  0.10480644156E+04  0.46999998093E+01 0. -1.
</event>
<event>
 5   0  0.4139628E-06  0.2865573E+04  0.7818609E-02  0.8283195E-01
       -1   -1    0    0    0  501  0.00000000000E+00  0.00000000000E+00  0.12039290247E+04  0.12039290247E+04  0.50400001928E-02 0. -1.
        1   -1    0    0  501    0  0.00000000000E+00  0.00000000000E+00 -0.17051477661E+04  0.17051477662E+04  0.50400001928E-02 0.  1.
    10030    2    1    2    0    0  0.00000000000E+00  0.00000000000E+00 -0.50121874144E+03  0.29090767909E+04  0.28655728133E+04 0.  0.
        5    1    3    3  502    0  0.13507617037E+04 -0.44158571905E+03 -0.43586170972E+03  0.14864564062E+04  0.46999998093E+01 0.  1.
       -5    1    3    3    0  502 -0.13507617037E+04  0.44158571905E+03 -0.65357031712E+02  0.14226203847E+04  0.46999998093E+01 0. -1.
</event>
<event>
 5   0  0.1007567E-05  0.2901409E+04  0.7818609E-02  0.8272458E-01
        2   -1    0    0  501    0  0.00000000000E+00  0.00000000000E+00  0.26821408062E+04  0.26821408062E+04  0.25500000920E-02 0. -1.
       -2   -1    0    0    0  501  0.00000000000E+00  0.00000000000E+00 -0.78465064051E+03  0.78465064052E+03  0.25500000920E-02 0.  1.
    10030    2    1    2    0    0  0.00000000000E+00  0.00000000000E+00  0.18974901657E+04  0.34667914468E+04  0.29014089692E+04 0.  0.
        3    1    3    3  502    0  0.10084660954E+04  0.56090972018E+03 -0.10173062755E+03  0.11584354581E+04  0.10100000352E+00 0.  1.
       -3    1    3    3    0  502 -0.10084660954E+04 -0.56090972018E+03  0.19992207933E+04  0.23083559886E+04  0.10100000352E+00 0. -1.
</event>
<event>
 5   0  0.9797278E-06  0.3072045E+04  0.7818609E-02  0.8223452E-01
        2   -1    0    0  501    0  0.00000000000E+00  0.00000000000E+00  0.16311735603E+04  0.16311735603E+04  0.25500000920E-02 0.  1.
       -2   -1    0    0    0  501  0.00000000000E+00  0.00000000000E+00 -0.14464215662E+04  0.14464215662E+04  0.25500000920E-02 0. -1.
    10030    2    1    2    0    0  0.00000000000E+00  0.00000000000E+00  0.18475199412E+03  0.30775951266E+04  0.30720446715E+04 0.  0.
        1    1    3    3  502    0  0.15134947081E+04 -0.13556860694E+03  0.31710145736E+03  0.15522881217E+04  0.50400001928E-02 0.  1.
       -1    1    3    3    0  502 -0.15134947081E+04  0.13556860694E+03 -0.13234946323E+03  0.15253070048E+04  0.50400001928E-02 0. -1.
</event>
<event>
 5   0  0.1001961E-05  0.3181671E+04  0.7818609E-02  0.8193675E-01
       -2   -1    0    0    0  501  0.00000000000E+00  0.00000000000E+00  0.12884522643E+04  0.12884522643E+04  0.25500000920E-02 0. -1.
        2   -1    0    0  501    0  0.00000000000E+00  0.00000000000E+00 -0.19641847529E+04  0.19641847529E+04  0.25500000920E-02 0.  1.
    10030    2    1    2    0    0  0.00000000000E+00  0.00000000000E+00 -0.67573248860E+03  0.32526370172E+04  0.31816714427E+04 0.  0.
        5    1    3    3  502    0 -0.10333185552E+04 -0.33107911252E+03  0.85142833502E+03  0.13792436024E+04  0.46999998093E+01 0. -1.
       -5    1    3    3    0  502  0.10333185552E+04  0.33107911252E+03 -0.15271608236E+04  0.18733934147E+04  0.46999998093E+01 0.  1.
</event>
<event>
 5   0  0.4139628E-06  0.3120874E+04  0.7818609E-02  0.8210033E-01
       -1   -1    0    0    0  501  0.00000000000E+00  0.00000000000E+00  0.12960407029E+04  0.12960407029E+04  0.50400001928E-02 0.  1.
        1   -1    0    0  501    0  0.00000000000E+00  0.00000000000E+00 -0.18787707261E+04  0.18787707261E+04  0.50400001928E-02 0. -1.
    10030    2    1    2    0    0  0.00000000000E+00  0.00000000000E+00 -0.58273002315E+03  0.31748114290E+04  0.31208738087E+04 0.  0.
        5    1    3    3  502    0  0.21127778061E+02  0.13600373654E+04 -0.10692992616E+04  0.17301939253E+04  0.46999998093E+01 0. -1.
       -5    1    3    3    0  502 -0.21127778061E+02 -0.13600373654E+04  0.48656923844E+03  0.14446175037E+04  0.46999998093E+01 0.  1.
</event>
<event>
 5   0  0.1007567E-05  0.2828244E+04  0.7818609E-02  0.8294553E-01
       -2   -1    0    0    0  501  0.00000000000E+00  0.00000000000E+00  0.14533118944E+04  0.14533118944E+04  0.25500000920E-02 0.  1.
        2   -1    0    0  501    0  0.00000000000E+00  0.00000000000E+00 -0.13759884251E+04  0.13759884251E+04  0.25500000920E-02 0. -1.
    10030    2    1    2    0    0  0.00000000000E+00  0.00000000000E+00  0.77323469323E+02  0.28293003195E+04  0.28282435148E+04 0.  0.
        3    1    3    3  502    0 -0.93282820758E+02 -0.55181566591E+03 -0.12604913524E+04  0.13791449067E+04  0.10100000352E+00 0. -1.
       -3    1    3    3    0  502  0.93282820758E+02  0.55181566591E+03  0.13378148218E+04  0.14501554128E+04  0.10100000352E+00 0.  1.
</event>
<event>
 5   0  0.9797278E-06  0.3122262E+04  0.7818609E-02  0.8209655E-01
        2   -1    0    0  501    0  0.00000000000E+00  0.00000000000E+00  0.84580241531E+03  0.84580241532E+03  0.25500000920E-02 0.  1.
       -2   -1    0    0    0  501  0.00000000000E+00  0.00000000000E+00 -0.28814416466E+04  0.28814416466E+04  0.25500000920E-02 0. -1.
    10030    2    1    2    0    0  0.00000000000E+00  0.00000000000E+00 -0.20356392313E+04  0.37272440620E+04  0.31222621955E+04 0.  0.
        1    1    3    3  502    0 -0.28879500307E+03  0.13141241535E+04 -0.72704201472E+02  0.13474460084E+04  0.50400001928E-02 0.  1.
       -1    1    3    3    0  502  0.28879500307E+03 -0.13141241535E+04 -0.19629350299E+04  0.23797980536E+04  0.50400001928E-02 0. -1.
</event>
<event>
 5   0  0.1108153E-05  0.3168210E+04  0.7818609E-02  0.8197264E-01
        2   -1    0    0  501    0  0.00000000000E+00  0.00000000000E+00  0.27864768363E+04  0.27864768363E+04  0.25500000920E-02 0. -1.
       -2   -1    0    0    0  501  0.00000000000E+00  0.00000000000E+00 -0.90055970333E+03  0.90055970333E+03  0.25500000920E-02 0.  1.
    10030    2    1    2    0    0  0.00000000000E+00  0.00000000000E+00  0.18859171330E+04  0.36870365396E+04  0.31682100644E+04 0.  0.
        4    1    3    3  502    0  0.12138337243E+03 -0.15204079101E+04  0.44510176220E+03  0.15888647922E+04  0.12699999809E+01 0. -1.
       -4    1    3    3    0  502 -0.12138337243E+03  0.15204079101E+04  0.14408153708E+04  0.20981717474E+04  0.12699999809E+01 0.  1.
</event>
<event>
 5   0  0.9797278E-06  0.3048012E+04  0.7818609E-02  0.8230152E-01
        2   -1    0    0  501    0  0.00000000000E+00  0.00000000000E+00  0.13252819217E+04  0.13252819217E+04  0.25500000920E-02 0. -1.
       -2   -1    0    0    0  501  0.00000000000E+00  0.00000000000E+00 -0.17525289812E+04  0.17525289812E+04  0.25500000920E-02 0.  1.
    10030    2    1    2    0    0  0.00000000000E+00  0.00000000000E+00 -0.42724705950E+03  0.30778109030E+04  0.30480124515E+04 0.  0.
        1    1    3    3  502    0 -0.13020588488E+04 -0.38225844690E+03  0.48678300908E+03  0.14416783496E+04  0.50400001928E-02 0. -1.
       -1    1    3    3    0  502  0.13020588488E+04  0.38225844690E+03 -0.91403006858E+03  0.16361325534E+04  0.50400001928E-02 0.  1.
</event>
<event>
 5   0  0.1007567E-05  0.3157866E+04  0.7818609E-02  0.8200034E-01
       -2   -1    0    0    0  501  0.00000000000E+00  0.00000000000E+00  0.13430989370E+04  0.13430989370E+04  0.25500000920E-02 0.  1.
        2   -1    0    0  501    0  0.00000000000E+00  0.00000000000E+00 -0.18561773184E+04  0.18561773184E+04  0.25500000920E-02 0. -1.
    10030    2    1    2    0    0  0.00000000000E+00  0.00000000000E+00 -0.51307838142E+03  0.31992762555E+04  0.31578662311E+04 0.  0.
        3    1    3    3  502    0  0.73508387190E+03  0.69195326513E+03  0.97341629471E+03  0.14023861497E+04  0.10100000352E+00 0.  1.
       -3    1    3    3    0  502 -0.73508387190E+03 -0.69195326513E+03 -0.14864946761E+04  0.17968901058E+04  0.10100000352E+00 0. -1.
</event>
<event>
 5   0  0.1119100E-05  0.3427569E+04  0.7818609E-02  0.8131173E-01
        2   -1    0    0  501    0  0.00000000000E+00  0.00000000000E+00  0.10650492820E+04  0.10650492820E+04  0.25500000920E-02 0.  1.
       -2   -1    0    0    0  501  0.00000000000E+00  0.00000000000E+00 -0.27576731145E+04  0.27576731145E+04  0.25500000920E-02 0. -1.
    10030    2    1    2    0    0  0.00000000000E+00  0.00000000000E+00 -0.16926238325E+04  0.38227223966E+04  0.34275692674E+04 0.  0.
        2    1    3    3  502    0 -0.72064234811E+03  0.88984826414E+03  0.57579995814E+03  0.12816789453E+04  0.25500000920E-02 0.  1.
       -2    1    3    3    0  502  0.72064234811E+03 -0.88984826414E+03 -0.22684237906E+04  0.25410434512E+04  0.25500000920E-02 0. -1.
</event>
<event>
 5   0  0.9797278E-06  0.3114153E+04  0.7818609E-02  0.8211864E-01
       -2   -1    0    0    0  501  0.00000000000E+00  0.00000000000E+00  0.89740441298E+03  0.89740441298E+03  0.25500000920E-02 0.  1.
        2   -1    0    0  501    0  0.00000000000E+00  0.00000000000E+00 -0.27016665903E+04  0.27016665903E+04  0.25500000920E-02 0. -1.
    10030    2    1    2    0    0  0.00000000000E+00  0.00000000000E+00 -0.18042621773E+04  0.35990710033E+04  0.31141531886E+04 0.  0.
        1    1    3    3  502    0  0.26264545028E+03  0.38969224068E+03 -0.26177516534E+04  0.26595989160E+04  0.50400001928E-02 0. -1.
       -1    1    3    3    0  502 -0.26264545028E+03 -0.38969224068E+03  0.81348947610E+03  0.93947208727E+03  0.50400001928E-02 0.  1.
</event>
<event>
 5   0  0.1119100E-05  0.3084602E+04  0.7818609E-02  0.8219976E-01
        2   -1    0    0  501    0  0.00000000000E+00  0.00000000000E+00  0.18358046875E+04  0.18358046875E+04  0.25500000920E-02 0.  1.
       -2   -1    0    0    0  501  0.00000000000E+00  0.00000000000E+00 -0.12957221267E+04  0.12957221267E+04  0.25500000920E-02 0. -1.
    10030    2    1    2    0    0  0.00000000000E+00  0.00000000000E+00  0.54008256084E+03  0.31315268142E+04  0.30846022459E+04 0.  0.
        2    1    3    3  502    0 -0.95368879831E+03 -0.12009515025E+04  0.10357763425E+03  0.15370540529E+04  0.25500000920E-02 0. -1.
       -2    1    3    3    0  502  0.95368879831E+03  0.12009515025E+04  0.43650492659E+03  0.15944727612E+04  0.25500000920E-02 0.  1.
</event>
<event>
 5   0  0.4250961E-06  0.1841466E+04  0.7818609E-02  0.8684554E-01
       -1   -1    0    0    0  501  0.00000000000E+00  0.00000000000E+00  0.15784953354E+04  0.15784953354E+04  0.50400001928E-02 0.  1.
        1   -1    0    0  501    0  0.00000000000E+00  0.00000000000E+00 -0.53706184336E+03  0.53706184338E+03  0.50400001928E-02 0. -1.
    10030    2    1    2    0    0  0.00000000000E+00  0.00000000000E+00  0.10414334921E+04  0.21155571788E+04  0.18414663881E+04 0.  0.
        1    1    3    3  502    0 -0.66833441194E+03  0.35033358024E+03  0.11268285898E+04  0.13561516045E+04  0.50400001928E-02 0.  1.
       -1    1    3    3    0  502  0.66833441194E+03 -0.35033358024E+03 -0.85395097677E+02  0.75940557435E+03  0.50400001928E-02 0. -1.
</event>
<event>
 5   0  0.3848286E-06  0.3156539E+04  0.7818609E-02  0.8200390E-01
        1   -1    0    0  501    0  0.00000000000E+00  0.00000000000E+00  0.21433287945E+04  0.21433287945E+04  0.50400001928E-02 0. -1.
       -1   -1    0    0    0  501  0.00000000000E+00  0.00000000000E+00 -0.11621805722E+04  0.11621805722E+04  0.50400001928E-02 0.  1.
    10030    2    1    2    0    0  0.00000000000E+00  0.00000000000E+00  0.98114822223E+03  0.33055093667E+04  0.31565392979E+04 0.  0.
        2    1    3    3  502    0  0.69155046699E+03 -0.12744849011E+04 -0.16203980793E+03  0.14590444513E+04  0.25500000920E-02 0.  1.
       -2    1    3    3    0  502 -0.69155046699E+03  0.12744849011E+04  0.11431880302E+04  0.18464649154E+04  0.25500000920E-02 0. -1.
</event>
<event>
 5   0  0.3807334E-06  0.3064773E+04  0.7818609E-02  0.8225473E-01
       -1   -1    0    0    0  501  0.00000000000E+00  0.00000000000E+00  0.15392010765E+04  0.15392010765E+04  0.50400001928E-02 0. -1.
        1   -1    0    0  501    0  0.00000000000E+00  0.00000000000E+00 -0.15256019724E+04  0.15256019724E+04  0.50400001928E-02 0.  1.
    10030    2    1    2    0    0  0.00000000000E+00  0.00000000000E+00  0.13599104161E+02  0.30648030489E+04  0.30647728779E+04 0.  0.
        4    1    3    3  502    0 -0.24547199845E+03 -0.12843877328E+04  0.80574310611E+03  0.15359465864E+04  0.12699999809E+01 0. -1.
       -4    1    3    3    0  502  0.24547199845E+03  0.12843877328E+04 -0.79214400195E+03  0.15288564625E+04  0.12699999809E+01 0.  1.
</event>
<event>
 5   0  0.4139628E-06  0.3050534E+04  0.7818609E-02  0.8229446E-01
        1   -1    0    0  501    0  0.00000000000E+00  0.00000000000E+00  0.15155070510E+04  0.15155070510E+04  0.50400001928E-02 0.  1.
       -1   -1    0    0    0  501  0.00000000000E+00  0.00000000000E+00 -0.15350893058E+04  0.15350893058E+04  0.50400001928E-02 0. -1.
    10030    2    1    2    0    0  0.00000000000E+00  0.00000000000E+00 -0.19582254754E+02  0.30505963568E+04  0.30505335054E+04 0.  0.
        5    1    3    3  502    0 -0.96574021798E+03  0.89432348875E+03  0.76090490910E+03  0.15203509601E+04  0.46999998093E+01 0. -1.
       -5    1    3    3    0  502  0.96574021798E+03 -0.89432348875E+03 -0.78048716385E+03  0.15302453967E+04  0.46999998093E+01 0.  1.
</event>
<event>
 5   0  0.1007567E-05  0.2591965E+04  0.7818609E-02  0.8370936E-01
       -2   -1    0    0    0  501  0.00000000000E+00  0.00000000000E+00  0.14831406780E+04  0.14831406780E+04  0.25500000920E-02 0. -1.
        2   -1    0    0  501    0  0.00000000000E+00  0.00000000000E+00 -0.11324419337E+04  0.11324419337E+04  0.25500000920E-02 0.  1.
    10030    2    1    2    0    0  0.00000000000E+00  0.00000000000E+00  0.35069874433E+03  0.26155826117E+04  0.25919650440E+04 0.  0.
        3    1    3    3  502    0 -0.11000659419E+04  0.19496781476E+03  0.83815470893E+03  0.13966606072E+04  0.10100000352E+00 0. -1.
       -3    1    3    3    0  502  0.11000659419E+04 -0.19496781476E+03 -0.48745596460E+03  0.12189220045E+04  0.10100000352E+00 0.  1.
</event>
<event>
 5   0  0.1007567E-05  0.3095780E+04  0.7818609E-02  0.8216897E-01
        2   -1    0    0  501    0  0.00000000000E+00  0.00000000000E+00  0.29309760656E+04  0.29309760656E+04  0.25500000920E-02 0.  1.
       -2   -1    0    0    0  501  0.00000000000E+00  0.00000000000E+00 -0.81746266786E+03  0.81746266786E+03  0.25500000920E-02 0. -1.
    10030    2    1    2    0    0  0.00000000000E+00  0.00000000000E+00  0.21135133978E+04  0.37484387335E+04  0.30957800400E+04 0.  0.
        3    1    3    3  502    0 -0.29724874889E+03 -0.84751405726E+03  0.25832218652E+04  0.27348989215E+04  0.10100000352E+00 0.  1.
       -3    1    3    3    0  502  0.29724874889E+03  0.84751405726E+03 -0.46970846738E+03  0.10135398120E+04  0.10100000352E+00 0. -1.
</event>
<event>
 5   0  0.3838525E-06  0.3167320E+04  0.7818609E-02  0.8197502E-01
        1   -1    0    0  501    0  0.00000000000E+00  0.00000000000E+00  0.17508717063E+04  0.17508717063E+04  0.50400001928E-02 0. -1.
       -1   -1    0    0    0  501  0.00000000000E+00  0.00000000000E+00 -0.14324173367E+04  0.14324173368E+04  0.50400001928E-02 0.  1.
    10030    2    1    2    0    0  0.00000000000E+00  0.00000000000E+00  0.31845436952E+03  0.31832890430E+04  0.31673199943E+04 0.  0.
        3    1    3    3  502    0 -0.12770480025E+04  0.86374395422E+03  0.52309362850E+03  0.16280455072E+04  0.10100000352E+00 0. -1.
       -3    1    3    3    0  502  0.12770480025E+04 -0.86374395422E+03 -0.20463925898E+03  0.15552435358E+04  0.10100000352E+00 0.  1.
</event>
<event>
 5   0  0.3807334E-06  0.3112873E+04  0.7818609E-02  0.8212214E-01
       -1   -1    0    0    0  501  0.00000000000E+00  0.00000000000E+00  0.17271755619E+04  0.17271755620E+04  0.50400001928E-02 0. -1.
        1   -1    0    0  501    0  0.00000000000E+00  0.00000000000E+00 -0.14025757706E+04  0.14025757706E+04  0.50400001928E-02 0.  1.
    10030    2    1    2    0    0  0.00000000000E+00  0.00000000000E+00  0.32459979134E+03  0.31297513326E+04  0.31128730105E+04 0.  0.
        4    1    3    3  502    0 -0.13773954919E+04 -0.38192639002E+03  0.78159981902E+03  0.16291058892E+04  0.12699999809E+01 0. -1.
       -4    1    3    3    0  502  0.13773954919E+04  0.38192639002E+03 -0.45700002768E+03  0.15006454433E+04  0.12699999809E+01 0.  1.
</event>
<event>
 5   0  0.4139628E-06  0.3187542E+04  0.7818609E-02  0.8192115E-01
       -1   -1    0    0    0  501  0.00000000000E+00  0.00000000000E+00  0.28290704353E+04  0.28290704354E+04  0.50400001928E-02 0.  1.
        1   -1    0    0  501    0  0.00000000000E+00  0.00000000000E+00 -0.89785886202E+03  0.89785886204E+03  0.50400001928E-02 0. -1.
    10030    2    1    2    0    0  0.00000000000E+00  0.00000000000E+00  0.19312115733E+04  0.37269292974E+04  0.31875419757E+04 0.  0.
        5    1    3    3  502    0 -0.10965415957E+04  0.67374142036E+03  0.20647651583E+04  0.24330245008E+04  0.46999998093E+01 0.  1.
       -5    1    3    3    0  502  0.10965415957E+04 -0.67374142036E+03 -0.13355358501E+03  0.12939047966E+04  0.46999998093E+01 0. -1.
</event>
<event>
 5   0  0.1108153E-05  0.1851440E+04  0.7818609E-02  0.8679413E-01
       -2   -1    0    0    0  501  0.00000000000E+00  0.00000000000E+00  0.95781597420E+03  0.95781597420E+03  0.25500000920E-02 0. -1.
        2   -1    0    0  501    0  0.00000000000E+00  0.00000000000E+00 -0.89469948304E+03  0.89469948305E+03  0.25500000920E-02 0.  1.
    10030    2    1    2    0    0  0.00000000000E+00  0.00000000000E+00  0.63116491151E+02  0.18525154572E+04  0.18514399336E+04 0.  0.
        4    1    3    3  502    0  0.76498346799E+03 -0.49342553271E+03  0.19984447778E+03  0.93199135770E+03  0.12699999809E+01 0. -1.
       -4    1    3    3    0  502 -0.76498346799E+03  0.49342553271E+03 -0.13672798663E+03  0.92052409955E+03  0.12699999809E+01 0.  1.
</event>
<event>
 5   0  0.1108153E-05  0.2726302E+04  0.7818609E-02  0.8326521E-01
        2   -1    0    0  501    0  0.00000000000E+00  0.00000000000E+00  0.12279497076E+04  0.12279497076E+04  0.25500000920E-02 0. -1.
       -2   -1    0    0    0  501  0.00000000000E+00  0.00000000000E+00 -0.15132380814E+04  0.15132380814E+04  0.25500000920E-02 0.  1.
    10030    2    1    2    0    0  0.00000000000E+00  0.00000000000E+00 -0.28528837384E+03  0.27411877890E+04  0.27263017145E+04 0.  0.
        4    1    3    3  502    0 -0.32990142165E+03  0.11264422011E+04 -0.83958959804E+03  0.14431282987E+04  0.12699999809E+01 0.  1.
       -4    1    3    3    0  502  0.32990142165E+03 -0.11264422011E+04  0.55430122420E+03  0.12980594903E+04  0.12699999809E+01 0. -1.
</event>
<event>
 5   0  0.1007567E-05  0.3068151E+04  0.7818609E-02  0.8224533E-01
       -2   -1    0    0    0  501  0.00000000000E+00  0.00000000000E+00  0.11532375541E+04  0.11532375541E+04  0.25500000920E-02 0. -1.
        2   -1    0    0  501    0  0.00000000000E+00  0.00000000000E+00 -0.20406789238E+04  0.20406789238E+04  0.25500000920E-02 0.  1.
    10030    2    1    2    0    0  0.00000000000E+00  0.00000000000E+00 -0.88744136969E+03  0.31939164779E+04  0.30681509550E+04 0.  0.
        3    1    3    3  502    0 -0.11549147673E+04  0.58066697606E+03 -0.13036478413E+04  0.18358921431E+04  0.10100000352E+00 0.  1.
       -3    1    3    3    0  502  0.11549147673E+04 -0.58066697606E+03  0.41620647157E+03  0.13580243348E+04  0.10100000352E+00 0. -1.
</event>
<event>
 5   0  0.4250961E-06  0.3033610E+04  0.7818609E-02  0.8234198E-01
       -1   -1    0    0    0  501  0.00000000000E+00  0.00000000000E+00  0.91610731297E+03  0.91610731298E+03  0.50400001928E-02 0.  1.
        1   -1    0    0  501    0  0.00000000000E+00  0.00000000000E+00 -0.25113835193E+04  0.25113835193E+04  0.50400001928E-02 0. -1.
    10030    2    1    2    0    0  0.00000000000E+00  0.00000000000E+00 -0.15952762063E+04  0.34274908323E+04  0.30336096042E+04 0.  0.
        1    1    3    3  502    0 -0.71361060416E+03 -0.33754723640E+03 -0.22609950726E+04  0.23948438257E+04  0.50400001928E-02 0. -1.
       -1    1    3    3    0  502  0.71361060416E+03  0.33754723640E+03  0.66571886630E+03  0.10326470066E+04  0.50400001928E-02 0.  1.
</event>
<event>
 5   0  0.1108153E-05  0.3148816E+04  0.7818609E-02  0.8202467E-01
       -2   -1    0    0    0  501  0.00000000000E+00  0.00000000000E+00  0.85886777006E+03  0.85886777007E+03  0.25500000920E-02 0. -1.
        2   -1    0    0  501    0  0.00000000000E+00  0.00000000000E+00 -0.28860791457E+04  0.28860791457E+04  0.25500000920E-02 0.  1.
    10030    2    1    2    0    0  0.00000000000E+00  0.00000000000E+00 -0.20272113756E+04  0.37449469158E+04  0.31488158791E+04 0.  0.
        4    1    3    3  502    0  0.74829775935E+03 -0.92817995523E+03  0.20930771297E+03  0.12104870497E+04  0.12699999809E+01 0. -1.
       -4    1    3    3    0  502 -0.74829775935E+03  0.92817995523E+03 -0.22365190886E+04  0.25344598660E+04  0.12699999809E+01 0.  1.
</event>
<event>
 5   0  0.3807334E-06  0.3071478E+04  0.7818609E-02  0.8223609E-01
       -1   -1    0    0    0  501  0.00000000000E+00  0.00000000000E+00  0.95022717127E+03  0.95022717128E+03  0.50400001928E-02 0. -1.
        1   -1    0    0  501    0  0.00000000000E+00  0.00000000000E+00 -0.24820318417E+04  0.24820318417E+04  0.50400001928E-02 0.  1.
    10030    2    1    2    0    0  0.00000000000E+00  0.00000000000E+00 -0.15318046705E+04  0.34322590130E+04  0.30714778827E+04 0.  0.
        4    1    3    3  502    0  0.93272979540E+03 -0.11351288636E+04 -0.12656340168E+04  0.19391579321E+04  0.12699999809E+01 0.  1.
       -4    1    3    3    0  502 -0.93272979540E+03  0.11351288636E+04 -0.26617065369E+03  0.14931010810E+04  0.12699999809E+01 0. -1.
</event>
<event>
 5   0  0.9797278E-06  0.2779505E+04  0.7818609E-02  0.8309660E-01
       -2   -1    0    0    0  501  0.00000000000E+00  0.00000000000E+00  0.17230686335E+04  0.17230686335E+04  0.25500000920E-02 0. -1.
        2   -1    0    0  501    0  0.00000000000E+00  0.00000000000E+00 -0.11209138737E+04  0.11209138737E+04  0.25500000920E-02 0.  1.
    10030    2    1    2    0    0  0.00000000000E+00  0.00000000000E+00  0.60215475978E+03  0.28439825072E+04  0.27795046585E+04 0.  0.
        1    1    3    3  502    0 -0.43266389497E+03  0.42718343854E+03 -0.97760354112E+03  0.11512568870E+04  0.50400001928E-02 0.  1.
       -1    1    3    3    0  502  0.43266389497E+03 -0.42718343854E+03  0.15797583009E+04  0.16927256203E+04  0.50400001928E-02 0. -1.
</event>
<event>
 5   0  0.1001961E-05  0.2976605E+04  0.7818609E-02  0.8250443E-01
        2   -1    0    0  501    0  0.00000000000E+00  0.00000000000E+00  0.20636317011E+04  0.20636317011E+04  0.25500000920E-02 0.  1.
       -2   -1    0    0    0  501  0.00000000000E+00  0.00000000000E+00 -0.10733721085E+04  0.10733721085E+04  0.25500000920E-02 0. -1.
    10030    2    1    2    0    0  0.00000000000E+00  0.00000000000E+00  0.99025959256E+03  0.31370038096E+04  0.29766052545E+04 0.  0.
        5    1    3    3  502    0  0.10661438195E+04  0.36768897326E+02 -0.59858294538E+03  0.12232490458E+04  0.46999998093E+01 0. -1.
       -5    1    3    3    0  502 -0.10661438195E+04 -0.36768897326E+02  0.15888425379E+04  0.19137547638E+04  0.46999998093E+01 0.  1.
</event>
<event>
 5   0  0.3807334E-06  0.3230940E+04  0.7818609E-02  0.8180693E-01
        1   -1    0    0  501    0  0.00000000000E+00  0.00000000000E+00  0.11409878564E+04  0.11409878564E+04  0.50400001928E-02 0. -1.
       -1   -1    0    0    0  501  0.00000000000E+00  0.00000000000E+00 -0.22872669825E+04  0.22872669825E+04  0.50400001928E-02 0.  1.
    10030    2    1    2    0    0  0.00000000000E+00  0.00000000000E+00 -0.11462791261E+04  0.34282548390E+04  0.32309403284E+04 0.  0.
        4    1    3    3  502    0 -0.34387042707E+03  0.68154391564E+03  0.93753289946E+03  0.12090155210E+04  0.12699999809E+01 0. -1.
       -4    1    3    3    0  502  0.34387042707E+03 -0.68154391564E+03 -0.20838120256E+04  0.22192393180E+04  0.12699999809E+01 0.  1.
</event>
<event>
 5   0  0.4250961E-06  0.3091185E+04  0.7818609E-02  0.8218161E-01
        1   -1    0    0  501    0  0.00000000000E+00  0.00000000000E+00  0.17031037588E+04  0.17031037588E+04  0.50400001928E-02 0.  1.
       -1   -1    0    0    0  501  0.00000000000E+00  0.00000000000E+00 -0.14026490756E+04  0.14026490756E+04  0.50400001928E-02 0. -1.
    10030    2    1    2    0    0  0.00000000000E+00  0.00000000000E+00  0.30045468326E+03  0.31057528344E+04  0.30911854768E+04 0.  0.
        1    1    3    3  502    0 -0.51358419525E+03 -0.35829043746E+03 -0.12694838020E+04  0.14155316623E+04  0.50400001928E-02 0. -1.
       -1    1    3    3    0  502  0.51358419525E+03  0.35829043746E+03  0.15699384853E+04  0.16902211722E+04  0.50400001928E-02 0.  1.
</event>
<event>
 5   0  0.3807334E-06  0.1684226E+04  0.7818609E-02  0.8770412E-01
        1   -1    0    0  501    0  0.00000000000E+00  0.00000000000E+00  0.55172260397E+03  0.55172260400E+03  0.50400001928E-02 0.  1.
       -1   -1    0    0    0  501  0.00000000000E+00  0.00000000000E+00 -0.12853454527E+04  0.12853454527E+04  0.50400001928E-02 0. -1.
    10030    2    1    2    0    0  0.00000000000E+00  0.00000000000E+00 -0.73362284868E+03  0.18370680567E+04  0.16842258045E+04 0.  0.
        4    1    3    3  502    0  0.85984082989E+01 -0.77299124826E+03 -0.24895366432E+01  0.77304412113E+03  0.12699999809E+01 0.  1.
       -4    1    3    3    0  502 -0.85984082989E+01  0.77299124826E+03 -0.73113331204E+03  0.10640239355E+04  0.12699999809E+01 0. -1.
</event>
<event>
 5   0  0.1108153E-05  0.2353340E+04  0.7818609E-02  0.8457182E-01
        2   -1    0    0  501    0  0.00000000000E+00  0.00000000000E+00  0.11397024560E+04  0.11397024560E+04  0.25500000920E-02 0. -1.
       -2   -1    0    0    0  501  0.00000000000E+00  0.00000000000E+00 -0.12148363556E+04  0.12148363556E+04  0.25500000920E-02 0.  1.
    10030    2    1    2    0    0  0.00000000000E+00  0.00000000000E+00 -0.75133899531E+02  0.23545388116E+04  0.23533397359E+04 0.  0.
        4    1    3    3  502    0  0.22495362135E+03  0.10359996086E+03 -0.11884631374E+04  0.12139947798E+04  0.12699999809E+01 0.  1.
       -4    1    3    3    0  502 -0.22495362135E+03 -0.10359996086E+03  0.11133292379E+04  0.11405440318E+04  0.12699999809E+01 0. -1.
</event>
<event>
 5   0  0.4250961E-06  0.2177152E+04  0.7818609E-02  0.8527999E-01
        1   -1    0    0  501    0  0.00000000000E+00  0.00000000000E+00  0.67115882427E+03  0.67115882429E+03  0.50400001928E-02 0.  1.
       -1   -1    0    0    0  501  0.00000000000E+00  0.00000000000E+00 -0.17655996542E+04  0.17655996542E+04  0.50400001928E-02 0. -1.
    10030    2    1    2    0    0  0.00000000000E+00  0.00000000000E+00 -0.10944408299E+04  0.24367584785E+04  0.21771520738E+04 0.  0.
        1    1    3    3  502    0 -0.37706876672E+03  0.31332046203E+03  0.54060335927E+03  0.72979624475E+03  0.50400001928E-02 0.  1.
       -1    1    3    3    0  502  0.37706876672E+03 -0.31332046203E+03 -0.16350441892E+04  0.17069622337E+04  0.50400001928E-02 0. -1.
</event>
<event>
 5   0  0.9797278E-06  0.2995684E+04  0.7818609E-02  0.8244964E-01
       -2   -1    0    0    0  501  0.00000000000E+00  0.00000000000E+00  0.10429009765E+04  0.10429009765E+04  0.25500000920E-02 0.  1.
        2   -1    0    0  501    0  0.00000000000E+00  0.00000000000E+00 -0.21512404397E+04  0.21512404397E+04  0.25500000920E-02 0. -1.
    10030    2    1    2    0    0  0.00000000000E+00  0.00000000000E+00 -0.11083394632E+04  0.31941414162E+04  0.29956840656E+04 0.  0.
        1    1    3    3  502    0  0.77076865403E+03 -0.93714619194E+03 -0.14905292145E+04  0.19219793553E+04  0.50400001928E-02 0. -1.
       -1    1    3    3    0  502 -0.77076865403E+03  0.93714619194E+03  0.38218975128E+03  0.12721620609E+04  0.50400001928E-02 0.  1.
</event>
<event>
 5   0  0.3493125E-06  0.3077530E+04  0.7818609E-02  0.8221932E-01
       -3   -1    0    0    0  501  0.00000000000E+00  0.00000000000E+00  0.20479155591E+04  0.20479155616E+04  0.10100000352E+00 0.  1.
        3   -1    0    0  501    0  0.00000000000E+00  0.00000000000E+00 -0.11561988460E+04  0.11561988504E+04  0.10100000352E+00 0. -1.
    10030    2    1    2    0    0  0.00000000000E+00  0.00000000000E+00  0.89171671317E+03  0.32041144120E+04  0.30775299298E+04 0.  0.
        5    1    3    3  502    0  0.78917539960E+03  0.13028711733E+04  0.21893837076E+03  0.15389045473E+04  0.46999998093E+01 0. -1.
       -5    1    3    3    0  502 -0.78917539960E+03 -0.13028711733E+04  0.67277834241E+03  0.16652098647E+04  0.46999998093E+01 0.  1.
</event>
<event>
 5   0  0.4139628E-06  0.2139447E+04  0.7818609E-02  0.8544063E-01
       -1   -1    0    0    0  501  0.00000000000E+00  0.00000000000E+00  0.93253621630E+03  0.93253621631E+03  0.50400001928E-02 0.  1.
        1   -1    0    0  501    0  0.00000000000E+00  0.00000000000E+00 -0.12270928775E+04  0.12270928775E+04  0.50400001928E-02 0. -1.
    10030    2    1    2    0    0  0.00000000000E+00  0.00000000000E+00 -0.29455666119E+03  0.21596290938E+04  0.21394471707E+04 0.  0.
        5    1    3    3  502    0  0.68843565972E+03 -0.78049126704E+03 -0.39694972839E+03  0.11138677894E+04  0.46999998093E+01 0. -1.
       -5    1    3    3    0  502 -0.68843565972E+03  0.78049126704E+03  0.10239306720E+03  0.10457613044E+04  0.46999998093E+01 0.  1.
</event>
<event>
 5   0  0.1007567E-05  0.3068600E+04  0.7818609E-02  0.8224409E-01
        2   -1    0    0  501    0  0.00000000000E+00  0.00000000000E+00  0.23042662123E+04  0.23042662123E+04  0.25500000920E-02 0. -1.
       -2   -1    0    0    0  501  0.00000000000E+00  0.00000000000E+00 -0.10216166751E+04  0.10216166751E+04  0.25500000920E-02 0.  1.
    10030    2    1    2    0    0  0.00000000000E+00  0.00000000000E+00  0.12826495372E+04  0.33258828873E+04  0.30686001931E+04 0.  0.
        3    1    3    3  502    0  0.15116860666E+04  0.17496761321E+03  0.42930005131E+03  0.15811726578E+04  0.10100000352E+00 0. -1.
       -3    1    3    3    0  502 -0.15116860666E+04 -0.17496761321E+03  0.85334948593E+03  0.17447102295E+04  0.10100000352E+00 0.  1.
</event>
<event>
 5   0  0.4250961E-06  0.2795812E+04  0.7818609E-02  0.8304570E-01
        1   -1    0    0  501    0  0.00000000000E+00  0.00000000000E+00  0.17351283787E+04  0.17351283787E+04  0.50400001928E-02 0.  1.
       -1   -1    0    0    0  501  0.00000000000E+00  0.00000000000E+00 -0.11262227856E+04  0.11262227856E+04  0.50400001928E-02 0. -1.
    10030    2    1    2    0    0  0.00000000000E+00  0.00000000000E+00  0.60890559308E+03  0.28613511643E+04  0.27958119508E+04 0.  0.
        1    1    3    3  502    0 -0.64331421749E+03  0.44611771940E+03 -0.88082680273E+03  0.11784439140E+04  0.50400001928E-02 0. -1.
       -1    1    3    3    0  502  0.64331421749E+03 -0.44611771940E+03  0.14897323958E+04  0.16829072503E+04  0.50400001928E-02 0.  1.
</event>
<event>
 5   0  0.4139628E-06  0.3098349E+04  0.7818609E-02  0.8216191E-01
        1   -1    0    0  501    0  0.00000000000E+00  0.00000000000E+00  0.16437854758E+04  0.16437854758E+04  0.50400001928E-02 0. -1.
       -1   -1    0    0    0  501  0.00000000000E+00  0.00000000000E+00 -0.14600094134E+04  0.14600094134E+04  0.50400001928E-02 0.  1.
    10030    2    1    2    0    0  0.00000000000E+00  0.00000000000E+00  0.18377606242E+03  0.31037948893E+04  0.30983494112E+04 0.  0.
        5    1    3    3  502    0 -0.10547964448E+04  0.62228163674E+03 -0.85851024074E+03  0.14956242506E+04  0.46999998093E+01 0. -1.
       -5    1    3    3    0  502  0.10547964448E+04 -0.62228163674E+03  0.10422863032E+04  0.16081706387E+04  0.46999998093E+01 0.  1.
</event>
<event>
 5   0  0.1001961E-05  0.3095369E+04  0.7818609E-02  0.8217010E-01
       -2   -1    0    0    0  501  0.00000000000E+00  0.00000000000E+00  0.11852510709E+04  0.11852510709E+04  0.25500000920E-02 0.  1.
        2   -1    0    0  501    0  0.00000000000E+00  0.00000000000E+00 -0.20209445065E+04  0.20209445065E+04  0.25500000920E-02 0. -1.
    10030    2    1    2    0    0  0.00000000000E+00  0.00000000000E+00 -0.83569343562E+03  0.32061955774E+04  0.30953685665E+04 0.  0.
        5    1    3    3  502    0 -0.53485797038E+03 -0.13851288196E+04 -0.87011450356E+03  0.17209811837E+04  0.46999998093E+01 0. -1.
       -5    1    3    3    0  502  0.53485797038E+03  0.13851288196E+04  0.34421067936E+02  0.14852143937E+04  0.46999998093E+01 0.  1.
</event>
<event>
 5   0  0.4250961E-06  0.2886787E+04  0.7818609E-02  0.8276820E-01
        1   -1    0    0  501    0  0.00000000000E+00  0.00000000000E+00  0.11555538757E+04  0.11555538757E+04  0.50400001928E-02 0. -1.
       -1   -1    0    0    0  501  0.00000000000E+00  0.00000000000E+00 -0.18029316679E+04  0.18029316679E+04  0.50400001928E-02 0.  1.
    10030    2    1    2    0    0  0.00000000000E+00  0.00000000000E+00 -0.64737779217E+03  0.29584855437E+04  0.28867869174E+04 0.  0.
        1    1    3    3  502    0 -0.12900003386E+04  0.19590652791E+02  0.33961096754E+03  0.13340990505E+04  0.50400001928E-02 0. -1.
       -1    1    3    3    0  502  0.12900003386E+04 -0.19590652791E+02 -0.98698875972E+03  0.16243864931E+04  0.50400001928E-02 0.  1.
</event>
<event>
 5   0  0.4139628E-06  0.1708422E+04  0.7818609E-02  0.8756576E-01
       -1   -1    0    0    0  501  0.00000000000E+00  0.00000000000E+00  0.13845375160E+04  0.13845375160E+04  0.50400001928E-02 0.  1.
        1   -1    0    0  501    0  0.00000000000E+00  0.00000000000E+00 -0.52701803820E+03  0.52701803823E+03  0.50400001928E-02 0. -1.
    10030    2    1    2    0    0  0.00000000000E+00  0.00000000000E+00  0.85751947779E+03  0.19115555542E+04  0.17084217811E+04 0.  0.
        5    1    3    3  502    0  0.28953634466E+03  0.26727124886E+03 -0.41923832154E+03  0.57536777420E+03  0.46999998093E+01 0. -1.
       -5    1    3    3    0  502 -0.28953634466E+03 -0.26727124886E+03  0.12767577993E+04  0.13361877800E+04  0.46999998093E+01 0.  1.
</event>
<event>
 5   0  0.3838525E-06  0.2233680E+04  0.7818609E-02  0.8504539E-01
       -1   -1    0    0    0  501  0.00000000000E+00  0.00000000000E+00  0.63520722576E+03  0.63520722578E+03  0.50400001928E-02 0. -1.
        1   -1    0    0  501    0  0.00000000000E+00  0.00000000000E+00 -0.19636601836E+04  0.19636601836E+04  0.50400001928E-02 0.  1.
    10030    2    1    2    0    0  0.00000000000E+00  0.00000000000E+00 -0.13284529578E+04  0.25988674094E+04  0.22336795989E+04 0.  0.
        3    1    3    3  502    0 -0.28815889231E+03 -0.57999377716E+03 -0.17228777436E+04  0.18405803591E+04  0.10100000352E+00 0.  1.
       -3    1    3    3    0  502  0.28815889231E+03  0.57999377716E+03  0.39442478577E+03  0.75828705027E+03  0.10100000352E+00 0. -1.
</event>
<event>
 5   0  0.1108153E-05  0.3024125E+04  0.7818609E-02  0.8236875E-01
       -2   -1    0    0    0  501  0.00000000000E+00  0.00000000000E+00  0.12463057094E+04  0.12463057094E+04  0.25500000920E-02 0. -1.
        2   -1    0    0  501    0  0.00000000000E+00  0.00000000000E+00 -0.18344882545E+04  0.18344882545E+04  0.25500000920E-02 0.  1.
    10030    2    1    2    0    0  0.00000000000E+00  0.00000000000E+00 -0.58818254517E+03  0.30807939639E+04  0.30241251200E+04 0.  0.
        4    1    3    3  502    0  0.34127462527E+02  0.12317944299E+04 -0.11867817777E+04  0.17108286887E+04  0.12699999809E+01 0.  1.
       -4    1    3    3    0  502 -0.34127462527E+02 -0.12317944299E+04  0.59859923250E+03  0.13699652752E+04  0.12699999809E+01 0. -1.
</event>
<event>
 5   0  0.3848286E-06  0.2121429E+04  0.7818609E-02  0.8551862E-01
       -1   -1    0    0    0  501  0.00000000000E+00  0.00000000000E+00  0.70448635703E+03  0.70448635705E+03  0.50400001928E-02 0. -1.
        1   -1    0    0  501    0  0.00000000000E+00  0.00000000000E+00 -0.15970718287E+04  0.15970718287E+04  0.50400001928E-02 0.  1.
    10030    2    1    2    0    0  0.00000000000E+00  0.00000000000E+00 -0.89258547162E+03  0.23015581857E+04  0.21214290603E+04 0.  0.
        2    1    3    3  502    0  0.47415128174E+03  0.91611856656E+03 -0.71429531379E+03  0.12547152909E+04  0.25500000920E-02 0.  1.
       -2    1    3    3    0  502 -0.47415128174E+03 -0.91611856656E+03 -0.17829015783E+03  0.10468428948E+04  0.25500000920E-02 0. -1.
</event>
<event>
 5   0  0.3493125E-06  0.2589101E+04  0.7818609E-02  0.8371913E-01
       -3   -1    0    0    0  501  0.00000000000E+00  0.00000000000E+00  0.13530453295E+04  0.13530453333E+04  0.10100000352E+00 0.  1.
        3   -1    0    0  501    0  0.00000000000E+00  0.00000000000E+00 -0.12385846441E+04  0.12385846482E+04  0.10100000352E+00 0. -1.
    10030    2    1    2    0    0  0.00000000000E+00  0.00000000000E+00  0.11446068545E+03  0.25916299815E+04  0.25891011399E+04 0.  0.
        1    1    3    3  502    0 -0.54235524838E+03 -0.30867631638E+03 -0.10780868384E+04  0.12456731172E+04  0.50400001928E-02 0. -1.
       -1    1    3    3    0  502  0.54235524838E+03  0.30867631638E+03  0.11925475239E+04  0.13459568643E+04  0.50400001928E-02 0.  1.
</event>
<event>
 5   0  0.9797278E-06  0.3214488E+04  0.7818609E-02  0.8185001E-01
       -2   -1    0    0    0  501  0.00000000000E+00  0.00000000000E+00  0.30266042433E+04  0.30266042433E+04  0.25500000920E-02 0. -1.
        2   -1    0    0  501    0  0.00000000000E+00  0.00000000000E+00 -0.85350870679E+03  0.85350870680E+03  0.25500000920E-02 0.  1.
    10030    2    1    2    0    0  0.00000000000E+00  0.00000000000E+00  0.21730955365E+04  0.38801129501E+04  0.32144878744E+04 0.  0.
        1    1    3    3  502    0 -0.76084943991E+03 -0.56928781540E+02  0.27940725154E+04  0.28963725551E+04  0.50400001928E-02 0. -1.
       -1    1    3    3    0  502  0.76084943991E+03  0.56928781540E+02 -0.62097697893E+03  0.98374039500E+03  0.50400001928E-02 0.  1.
</event>
<event>
 5   0  0.9797278E-06  0.3099117E+04  0.7818609E-02  0.8215980E-01
        2   -1    0    0  501    0  0.00000000000E+00  0.00000000000E+00  0.13335982731E+04  0.13335982731E+04  0.25500000920E-02 0.  1.
       -2   -1    0    0    0  501  0.00000000000E+00  0.00000000000E+00 -0.18004904457E+04  0.18004904457E+04  0.25500000920E-02 0. -1.
    10030    2    1    2    0    0  0.00000000000E+00  0.00000000000E+00 -0.46689217258E+03  0.31340887188E+04  0.30991166155E+04 0.  0.
        1    1    3    3  502    0 -0.27377108780E+03  0.12002529001E+04  0.71822226982E+03  0.14252722061E+04  0.50400001928E-02 0.  1.
       -1    1    3    3    0  502  0.27377108780E+03 -0.12002529001E+04 -0.11851144424E+04  0.17088165127E+04  0.50400001928E-02 0. -1.
</event>
<event>
 5   0  0.1108153E-05  0.3020721E+04  0.7818609E-02  0.8237838E-01
       -2   -1    0    0    0  501  0.00000000000E+00  0.00000000000E+00  0.17269314707E+04  0.17269314707E+04  0.25500000920E-02 0. -1.
        2   -1    0    0  501    0  0.00000000000E+00  0.00000000000E+00 -0.13209496551E+04  0.13209496551E+04  0.25500000920E-02 0.  1.
    10030    2    1    2    0    0  0.00000000000E+00  0.00000000000E+00  0.40598181561E+03  0.30478811258E+04  0.30207214573E+04 0.  0.
        4    1    3    3  502    0  0.65620175679E+03  0.12482599613E+04  0.74862494648E+03  0.15966197418E+04  0.12699999809E+01 0. -1.
       -4    1    3    3    0  502 -0.65620175679E+03 -0.12482599613E+04 -0.34264313087E+03  0.14512613840E+04  0.12699999809E+01 0.  1.
</event>
<event>
 5   0  0.1108153E-05  0.2281427E+04  0.7818609E-02  0.8485280E-01
       -2   -1    0    0    0  501  0.00000000000E+00  0.00000000000E+00  0.75521893989E+03  0.75521893989E+03  0.25500000920E-02 0.  1.
        2   -1    0    0  501    0  0.00000000000E+00  0.00000000000E+00 -0.17229806469E+04  0.17229806469E+04  0.25500000920E-02 0. -1.
    10030    2    1    2    0    0  0.00000000000E+00  0.00000000000E+00 -0.96776170703E+03  0.24781995868E+04  0.22814272880E+04 0.  0.
        4    1    3    3  502    0 -0.70472691429E+03 -0.89169922513E+03 -0.58952371598E+03  0.12803543870E+04  0.12699999809E+01 0.  1.
       -4    1    3    3    0  502  0.70472691429E+03  0.89169922513E+03 -0.37823799105E+03  0.11978451998E+04  0.12699999809E+01 0. -1.
</event>
<event>
 5   0  0.1007567E-05  0.2532011E+04  0.7818609E-02  0.8391669E-01
       -2   -1    0    0    0  501  0.00000000000E+00  0.00000000000E+00  0.12942193300E+04  0.12942193300E+04  0.25500000920E-02 0. -1.
        2   -1    0    0  501    0  0.00000000000E+00  0.00000000000E+00 -0.12384065807E+04  0.12384065807E+04  0.25500000920E-02 0.  1.
    10030    2    1    2    0    0  0.00000000000E+00  0.00000000000E+00  0.55812749256E+02  0.25326259107E+04  0.25320108492E+04 0.  0.
        3    1    3    3  502    0  0.52054115711E+03 -0.11250322805E+04 -0.22927278120E+03  0.12606453691E+04  0.10100000352E+00 0.  1.
       -3    1    3    3    0  502 -0.52054115711E+03  0.11250322805E+04  0.28508553046E+03  0.12719805416E+04  0.10100000352E+00 0. -1.
</event>
<event>
 5   0  0.3838525E-06  0.2975636E+04  0.7818609E-02  0.8250723E-01
       -1   -1    0    0    0  501  0.00000000000E+00  0.00000000000E+00  0.10066335407E+04  0.10066335408E+04  0.50400001928E-02 0.  1.
        1   -1    0    0  501    0  0.00000000000E+00  0.00000000000E+00 -0.21990149814E+04  0.21990149814E+04  0.50400001928E-02 0. -1.
    10030    2    1    2    0    0  0.00000000000E+00  0.00000000000E+00 -0.11923814407E+04  0.32056485222E+04  0.29756358896E+04 0.  0.
        3    1    3    3  502    0 -0.11139023932E+04 -0.58546238281E+03 -0.14513090231E+04  0.19208963101E+04  0.10100000352E+00 0. -1.
       -3    1    3    3    0  502  0.11139023932E+04  0.58546238281E+03  0.25892758245E+03  0.12847522121E+04  0.10100000352E+00 0.  1.
</event>
<event>
 5   0  0.3807334E-06  0.2969689E+04  0.7818609E-02  0.8252440E-01
       -1   -1    0    0    0  501  0.00000000000E+00  0.00000000000E+00  0.10154653920E+04  0.10154653920E+04  0.50400001928E-02 0. -1.
        1   -1    0    0  501    0  0.00000000000E+00  0.00000000000E+00 -0.21711855229E+04  0.21711855229E+04  0.50400001928E-02 0.  1.
    10030    2    1    2    0    0  0.00000000000E+00  0.00000000000E+00 -0.11557201309E+04  0.31866509149E+04  0.29696893831E+04 0.  0.
        4    1    3    3  502    0  0.49589801765E+03 -0.68817179231E+03 -0.18856130315E+04  0.20676153842E+04  0.12699999809E+01 0.  1.
       -4    1    3    3    0  502 -0.49589801765E+03  0.68817179231E+03  0.72989290056E+03  0.11190355306E+04  0.12699999809E+01 0. -1.
</event>
<event>
 5   0  0.1007567E-05  0.3120551E+04  0.7818609E-02  0.8210120E-01
        2   -1    0    0  501    0  0.00000000000E+00  0.00000000000E+00  0.21038832397E+04  0.21038832397E+04  0.25500000920E-02 0. -1.
       -2   -1    0    0    0  501  0.00000000000E+00  0.00000000000E+00 -0.11571266359E+04  0.11571266359E+04  0.25500000920E-02 0.  1.
    10030    2    1    2    0    0  0.00000000000E+00  0.00000000000E+00  0.94675660381E+03  0.32610098757E+04  0.31205508075E+04 0.  0.
        3    1    3    3  502    0 -0.12187508100E+04  0.89455042365E+03  0.87660270449E+03  0.17475715462E+04  0.10100000352E+00 0.  1.
       -3    1    3    3    0  502  0.12187508100E+04 -0.89455042365E+03  0.70153899323E+02  0.15134383295E+04  0.10100000352E+00 0. -1.
</event>
<event>
 5   0  0.1119100E-05  0.3089876E+04  0.7818609E-02  0.8218522E-01
        2   -1    0    0  501    0  0.00000000000E+00  0.00000000000E+00  0.77699118307E+03  0.77699118307E+03  0.25500000920E-02 0. -1.
       -2   -1    0    0    0  501  0.00000000000E+00  0.00000000000E+00 -0.30718924802E+04  0.30718924802E+04  0.25500000920E-02 0.  1.
    10030    2    1    2    0    0  0.00000000000E+00  0.00000000000E+00 -0.22949012972E+04  0.38488836633E+04  0.30898759668E+04 0.  0.
        2    1    3    3  502    0 -0.87072206730E+03  0.10256734777E+04 -0.20933775072E+04  0.24884518057E+04  0.25500000920E-02 0.  1.
       -2    1    3    3    0  502  0.87072206730E+03 -0.10256734777E+04 -0.20152378995E+03  0.13604318576E+04  0.25500000920E-02 0. -1.
</event>
<event>
 5   0  0.4250961E-06  0.3029307E+04  0.7818609E-02  0.8235411E-01
       -1   -1    0    0    0  501  0.00000000000E+00  0.00000000000E+00  0.13820218335E+04  0.13820218335E+04  0.50400001928E-02 0.  1.
        1   -1    0    0  501    0  0.00000000000E+00  0.00000000000E+00 -0.16600133514E+04  0.16600133515E+04  0.50400001928E-02 0. -1.
    10030    2    1    2    0    0  0.00000000000E+00  0.00000000000E+00 -0.27799151794E+03  0.30420351850E+04  0.30293066505E+04 0.  0.
        1    1    3    3  502    0  0.73038022124E+03 -0.13036454536E+03  0.11870543363E+04  0.13998386263E+04  0.50400001928E-02 0.  1.
       -1    1    3    3    0  502 -0.73038022124E+03  0.13036454536E+03 -0.14650458542E+04  0.16421965587E+04  0.50400001928E-02 0. -1.
</event>
<event>
 5   0  0.9797278E-06  0.3111323E+04  0.7818609E-02  0.8212637E-01
        2   -1    0    0  501    0  0.00000000000E+00  0.00000000000E+00  0.10985208970E+04  0.10985208970E+04  0.25500000920E-02 0.  1.
       -2   -1    0    0    0  501  0.00000000000E+00  0.00000000000E+00 -0.22030377994E+04  0.22030377994E+04  0.25500000920E-02 0. -1.
    10030    2    1    2    0    0  0.00000000000E+00  0.00000000000E+00 -0.11045169024E+04  0.33015586965E+04  0.31113232295E+04 0.  0.
        1    1    3    3  502    0  0.38695635916E+03 -0.12217665382E+04  0.38349537731E+03  0.13377284486E+04  0.50400001928E-02 0.  1.
       -1    1    3    3    0  502 -0.38695635916E+03  0.12217665382E+04 -0.14880122797E+04  0.19638302479E+04  0.50400001928E-02 0. -1.
</event>
<event>
 5   0  0.3848286E-06  0.3126584E+04  0.7818609E-02  0.8208480E-01
        1   -1    0    0  501    0  0.00000000000E+00  0.00000000000E+00  0.17513014163E+04  0.17513014163E+04  0.50400001928E-02 0. -1.
       -1   -1    0    0    0  501  0.00000000000E+00  0.00000000000E+00 -0.13954658029E+04  0.13954658029E+04  0.50400001928E-02 0.  1.
    10030    2    1    2    0    0  0.00000000000E+00  0.00000000000E+00  0.35583561341E+03  0.31467672192E+04  0.31265835905E+04 0.  0.
        2    1    3    3  502    0 -0.10467534083E+04 -0.62848588702E+03 -0.80470135692E+03  0.14622692918E+04  0.25500000920E-02 0.  1.
       -2    1    3    3    0  502  0.10467534083E+04  0.62848588702E+03  0.11605369703E+04  0.16844979274E+04  0.25500000920E-02 0. -1.
</event>
<event>
 5   0  0.1001961E-05  0.2420042E+04  0.7818609E-02  0.8432038E-01
       -2   -1    0    0    0  501  0.00000000000E+00  0.00000000000E+00  0.81253950534E+03  0.81253950534E+03  0.25500000920E-02 0. -1.
        2   -1    0    0  501    0  0.00000000000E+00  0.00000000000E+00 -0.18019442862E+04  0.18019442862E+04  0.25500000920E-02 0.  1.
    10030    2    1    2    0    0  0.00000000000E+00  0.00000000000E+00 -0.98940478089E+03  0.26144837916E+04  0.24200420814E+04 0.  0.
        5    1    3    3  502    0 -0.10088853900E+03 -0.85504344289E+03 -0.14132199045E+04  0.16548384740E+04  0.46999998093E+01 0.  1.
       -5    1    3    3    0  502  0.10088853900E+03  0.85504344289E+03  0.42381512361E+03  0.95964531757E+03  0.46999998093E+01 0. -1.
</event>
<event>
 5   0  0.3848286E-06  0.3049116E+04  0.7818609E-02  0.8229843E-01
       -1   -1    0    0    0  501  0.00000000000E+00  0.00000000000E+00  0.12557615796E+04  0.12557615796E+04  0.50400001928E-02 0.  1.
        1   -1    0    0  501    0  0.00000000000E+00  0.00000000000E+00 -0.18508904221E+04  0.18508904221E+04  0.50400001928E-02 0. -1.
    10030    2    1    2    0    0  0.00000000000E+00  0.00000000000E+00 -0.59512884245E+03  0.31066520017E+04  0.30491159900E+04 0.  0.
        2    1    3    3  502    0 -0.14029532665E+04  0.46501884196E+02  0.30850190308E+03  0.14372243101E+04  0.25500000920E-02 0.  1.
       -2    1    3    3    0  502  0.14029532665E+04 -0.46501884196E+02 -0.90363074554E+03  0.16694276916E+04  0.25500000920E-02 0. -1.
</event>
<event>
 5   0  0.3838525E-06  0.2997847E+04  0.7818609E-02  0.8244346E-01
        1   -1    0    0  501    0  0.00000000000E+00  0.00000000000E+00  0.26585120892E+04  0.26585120892E+04  0.50400001928E-02 0. -1.
       -1   -1    0    0    0  501  0.00000000000E+00  0.00000000000E+00 -0.84512383922E+03  0.84512383924E+03  0.50400001928E-02 0.  1.
    10030    2    1    2    0    0  0.00000000000E+00  0.00000000000E+00  0.18133882500E+04  0.35036359284E+04  0.29978471899E+04 0.  0.
        3    1    3    3  502    0 -0.12907104979E+04  0.49688690464E+03  0.15820689027E+04  0.21013738859E+04  0.10100000352E+00 0. -1.
       -3    1    3    3    0  502  0.12907104979E+04 -0.49688690464E+03  0.23131934728E+03  0.14022620425E+04  0.10100000352E+00 0.  1.
</event>
<event>
 5   0  0.4139628E-06  0.3172944E+04  0.7818609E-02  0.8195999E-01
        1   -1    0    0  501    0  0.00000000000E+00  0.00000000000E+00  0.15062972662E+04  0.15062972662E+04  0.50400001928E-02 0.  1.
       -1   -1    0    0    0  501  0.00000000000E+00  0.00000000000E+00 -0.16709143642E+04  0.16709143642E+04  0.50400001928E-02 0. -1.
    10030    2    1    2    0    0  0.00000000000E+00  0.00000000000E+00 -0.16461709802E+03  0.31772116304E+04  0.31729442094E+04 0.  0.
        5    1    3    3  502    0 -0.35016114123E+03 -0.10246895460E+04  0.10786774616E+04  0.15284530240E+04  0.46999998093E+01 0.  1.
       -5    1    3    3    0  502  0.35016114123E+03  0.10246895460E+04 -0.12432945596E+04  0.16487586065E+04  0.46999998093E+01 0. -1.
</event>
<event>
 5   0  0.9797278E-06  0.3183800E+04  0.7818609E-02  0.8193109E-01
       -2   -1    0    0    0  501  0.00000000000E+00  0.00000000000E+00  0.19484559998E+04  0.19484559998E+04  0.25500000920E-02 0.  1.
        2   -1    0    0  501    0  0.00000000000E+00  0.00000000000E+00 -0.13005919291E+04  0.13005919291E+04  0.25500000920E-02 0. -1.
    10030    2    1    2    0    0  0.00000000000E+00  0.00000000000E+00  0.64786407073E+03  0.32490479288E+04  0.31838003376E+04 0.  0.
        1    1    3    3  502    0 -0.36924075869E+03  0.15321067234E+04  0.94703640156E+02  0.15788155463E+04  0.50400001928E-02 0.  1.
       -1    1    3    3    0  502  0.36924075869E+03 -0.15321067234E+04  0.55316043057E+03  0.16702323825E+04  0.50400001928E-02 0. -1.
</event>
<event>
 5   0  0.3838525E-06  0.2788723E+04  0.7818609E-02  0.8306778E-01
       -1   -1    0    0    0  501  0.00000000000E+00  0.00000000000E+00  0.79522858213E+03  0.79522858214E+03  0.50400001928E-02 0. -1.
        1   -1    0    0  501    0  0.00000000000E+00  0.00000000000E+00 -0.24448866358E+04  0.24448866358E+04  0.50400001928E-02 0.  1.
    10030    2    1    2    0    0  0.00000000000E+00  0.00000000000E+00 -0.16496580536E+04  0.32401152179E+04  0.27887228136E+04 0.  0.
        3    1    3    3  502    0  0.23794841113E+03  0.90169584509E+02 -0.24176814631E+04  0.24310355135E+04  0.10100000352E+00 0.  1.
       -3    1    3    3    0  502 -0.23794841113E+03 -0.90169584509E+02  0.76802340952E+03  0.80907970442E+03  0.10100000352E+00 0. -1.
</event>
<event>
 5   0  0.1119100E-05  0.3005821E+04  0.7818609E-02  0.8242071E-01
       -2   -1    0    0    0  501  0.00000000000E+00  0.00000000000E+00  0.10406982738E+04  0.10406982738E+04  0.25500000920E-02 0. -1.
        2   -1    0    0  501    0  0.00000000000E+00  0.00000000000E+00 -0.21704082566E+04  0.21704082566E+04  0.25500000920E-02 0.  1.
    10030    2    1    2    0    0  0.00000000000E+00  0.00000000000E+00 -0.11297099828E+04  0.32111065304E+04  0.30058211031E+04 0.  0.
        2    1    3    3  502    0  0.72031080591E+03 -0.10406592486E+04 -0.14307158151E+04  0.19101746183E+04  0.25500000920E-02 0.  1.
       -2    1    3    3    0  502 -0.72031080591E+03  0.10406592486E+04  0.30100583231E+03  0.13009319121E+04  0.25500000920E-02 0. -1.
</event>
<event>
 5   0  0.3807334E-06  0.1629352E+04  0.7818609E-02  0.8802716E-01
        1   -1    0    0  501    0  0.00000000000E+00  0.00000000000E+00  0.60781459093E+03  0.60781459095E+03  0.50400001928E-02 0. -1.
       -1   -1    0    0    0  501  0.00000000000E+00  0.00000000000E+00 -0.10919394631E+04  0.10919394631E+04  0.50400001928E-02 0.  1.
    10030    2    1    2    0    0  0.00000000000E+00  0.00000000000E+00 -0.48412487216E+03  0.16997540541E+04  0.16293516970E+04 0.  0.
        4    1    3    3  502    0  0.64946835811E+03  0.17054113325E+03  0.23917432350E+03  0.71281091199E+03  0.12699999809E+01 0. -1.
       -4    1    3    3    0  502 -0.64946835811E+03 -0.17054113325E+03 -0.72329919567E+03  0.98694314207E+03  0.12699999809E+01 0.  1.
</event>
<event>
 5   0  0.4139628E-06  0.2601763E+04  0.7818609E-02  0.8367603E-01
       -1   -1    0    0    0  501  0.00000000000E+00  0.00000000000E+00  0.99458608296E+03  0.99458608297E+03  0.50400001928E-02 0. -1.
        1   -1    0    0  501    0  0.00000000000E+00  0.00000000000E+00 -0.17015045204E+04  0.17015045204E+04  0.50400001928E-02 0.  1.
    10030    2    1    2    0    0  0.00000000000E+00  0.00000000000E+00 -0.70691843743E+03  0.26960906034E+04  0.26017630300E+04 0.  0.
        5    1    3    3  502    0 -0.59179661169E+03 -0.81789803146E+03 -0.12036245292E+04  0.15709597438E+04  0.46999998093E+01 0.  1.
       -5    1    3    3    0  502  0.59179661169E+03  0.81789803146E+03  0.49670609176E+03  0.11251308595E+04  0.46999998093E+01 0. -1.
</event>
<event>
 5   0  0.1001961E-05  0.3139288E+04  0.7818609E-02  0.8205038E-01
       -2   -1    0    0    0  501  0.00000000000E+00  0.00000000000E+00  0.99903591071E+03  0.99903591071E+03  0.25500000920E-02 0.  1.
        2   -1    0    0  501    0  0.00000000000E+00  0.00000000000E+00 -0.24661602437E+04  0.24661602437E+04  0.25500000920E-02 0. -1.
    10030    2    1    2    0    0  0.00000000000E+00  0.00000000000E+00 -0.14671243330E+04  0.34651961544E+04  0.31392882283E+04 0.  0.
        5    1    3    3  502    0 -0.24928751519E+03 -0.14741062418E+04 -0.20577300810E+03  0.15091381972E+04  0.46999998093E+01 0.  1.
       -5    1    3    3    0  502  0.24928751519E+03  0.14741062418E+04 -0.12613513249E+04  0.19560579573E+04  0.46999998093E+01 0. -1.
</event>
<event>
 5   0  0.4139628E-06  0.3057836E+04  0.7818609E-02  0.8227406E-01
       -1   -1    0    0    0  501  0.00000000000E+00  0.00000000000E+00  0.14631765864E+04  0.14631765864E+04  0.50400001928E-02 0. -1.
        1   -1    0    0  501    0  0.00000000000E+00  0.00000000000E+00 -0.15976135005E+04  0.15976135005E+04  0.50400001928E-02 0.  1.
    10030    2    1    2    0    0  0.00000000000E+00  0.00000000000E+00 -0.13443691407E+03  0.30607900869E+04  0.30578362730E+04 0.  0.
        5    1    3    3  502    0  0.14160214565E+04 -0.66033954075E+02  0.50612742126E+03  0.15052123787E+04  0.46999998093E+01 0. -1.
       -5    1    3    3    0  502 -0.14160214565E+04  0.66033954075E+02 -0.64056433534E+03  0.15555777082E+04  0.46999998093E+01 0.  1.
</event>
<event>
 5   0  0.3848286E-06  0.3079648E+04  0.7818609E-02  0.8221346E-01
       -1   -1    0    0    0  501  0.00000000000E+00  0.00000000000E+00  0.18077057200E+04  0.18077057200E+04  0.50400001928E-02 0.  1.
        1   -1    0    0  501    0  0.00000000000E+00  0.00000000000E+00 -0.13116396979E+04  0.13116396980E+04  0.50400001928E-02 0. -1.
    10030    2    1    2    0    0  0.00000000000E+00  0.00000000000E+00  0.49606602208E+03  0.31193454180E+04  0.30796484115E+04 0.  0.
        2    1    3    3  502    0 -0.91532008908E+03 -0.12297903180E+04  0.39433688982E+03  0.15829392516E+04  0.25500000920E-02 0.  1.
       -2    1    3    3    0  502  0.91532008908E+03  0.12297903180E+04  0.10172913226E+03  0.15364061664E+04  0.25500000920E-02 0. -1.
</event>
<event>
 5   0  0.9797278E-06  0.3058984E+04  0.7818609E-02  0.8227085E-01
       -2   -1    0    0    0  501  0.00000000000E+00  0.00000000000E+00  0.26475526559E+04  0.26475526559E+04  0.25500000920E-02 0.  1.
        2   -1    0    0  501    0  0.00000000000E+00  0.00000000000E+00 -0.88358786753E+03  0.88358786754E+03  0.25500000920E-02 0. -1.
    10030    2    1    2    0    0  0.00000000000E+00  0.00000000000E+00  0.17639647883E+04  0.35311405234E+04  0.30589837563E+04 0.  0.
        1    1    3    3  502    0  0.77771168302E+03 -0.73267200626E+03  0.21452988651E+04  0.23966541159E+04  0.50400001928E-02 0.  1.
       -1    1    3    3    0  502 -0.77771168302E+03  0.73267200626E+03 -0.38133407677E+03  0.11344864075E+04  0.50400001928E-02 0. -1.
</event>
<event>
 5   0  0.3807334E-06  0.3116430E+04  0.7818609E-02  0.8211243E-01
        1   -1    0    0  501    0  0.00000000000E+00  0.00000000000E+00  0.13468628045E+04  0.13468628045E+04  0.50400001928E-02 0. -1.
       -1   -1    0    0    0  501  0.00000000000E+00  0.00000000000E+00 -0.18027330848E+04  0.18027330848E+04  0.50400001928E-02 0.  1.
    10030    2    1    2    0    0  0.00000000000E+00  0.00000000000E+00 -0.45587028033E+03  0.31495958894E+04  0.31164300977E+04 0.  0.
        4    1    3    3  502    0  0.18342727159E+03 -0.10551984460E+04 -0.13717675067E+04  0.17403554320E+04  0.12699999809E+01 0.  1.
       -4    1    3    3    0  502 -0.18342727159E+03  0.10551984460E+04  0.91589722638E+03  0.14092404573E+04  0.12699999809E+01 0. -1.
</event>
<event>
 5   0  0.9797278E-06  0.3107418E+04  0.7818609E-02  0.8213705E-01
       -2   -1    0    0    0  501  0.00000000000E+00  0.00000000000E+00  0.28541919197E+04  0.28541919197E+04  0.25500000920E-02 0.  1.
        2   -1    0    0  501    0  0.00000000000E+00  0.00000000000E+00 -0.84577747358E+03  0.84577747358E+03  0.25500000920E-02 0. -1.
    10030    2    1    2    0    0  0.00000000000E+00  0.00000000000E+00  0.20084144462E+04  0.36999693933E+04  0.31074177260E+04 0.  0.
        1    1    3    3  502    0  0.89171516189E+03  0.12496437504E+04  0.71932175270E+03  0.16953433920E+04  0.50400001928E-02 0. -1.
       -1    1    3    3    0  502 -0.89171516189E+03 -0.12496437504E+04  0.12890926935E+04  0.20046260013E+04  0.50400001928E-02 0.  1.
</event>
<event>
 5   0  0.9797278E-06  0.2817019E+04  0.7818609E-02  0.8298004E-01
       -2   -1    0    0    0  501  0.00000000000E+00  0.00000000000E+00  0.96629443564E+03  0.96629443565E+03  0.25500000920E-02 0. -1.
        2   -1    0    0  501    0  0.00000000000E+00  0.00000000000E+00 -0.20530998962E+04  0.20530998962E+04  0.25500000920E-02 0.  1.
    10030    2    1    2    0    0  0.00000000000E+00  0.00000000000E+00 -0.10868054606E+04  0.30193943319E+04  0.28170189957E+04 0.  0.
        1    1    3    3  502    0 -0.43642894044E+03  0.47919185125E+03  0.79695651262E+03  0.10272461893E+04  0.50400001928E-02 0. -1.
       -1    1    3    3    0  502  0.43642894044E+03 -0.47919185125E+03 -0.18837619732E+04  0.19921481426E+04  0.50400001928E-02 0.  1.
</event>
<event>
 5   0  0.3807334E-06  0.3069384E+04  0.7818609E-02  0.8224191E-01
       -1   -1    0    0    0  501  0.00000000000E+00  0.00000000000E+00  0.11222047324E+04  0.11222047324E+04  0.50400001928E-02 0. -1.
        1   -1    0    0  501    0  0.00000000000E+00  0.00000000000E+00 -0.20987960839E+04  0.20987960839E+04  0.50400001928E-02 0.  1.
    10030    2    1    2    0    0  0.00000000000E+00  0.00000000000E+00 -0.97659135151E+03  0.32210008163E+04  0.30693835848E+04 0.  0.
        4    1    3    3  502    0 -0.51384269532E+02 -0.86968800037E+03  0.83755363533E+03  0.12085095226E+04  0.12699999809E+01 0. -1.
       -4    1    3    3    0  502  0.51384269532E+02  0.86968800037E+03 -0.18141449868E+04  0.20124912937E+04  0.12699999809E+01 0.  1.
</event>
<event>
 5   0  0.3838525E-06  0.3166050E+04  0.7818609E-02  0.8197841E-01
        1   -1    0    0  501    0  0.00000000000E+00  0.00000000000E+00  0.18070829293E+04  0.18070829294E+04  0.50400001928E-02 0. -1.
       -1   -1    0    0    0  501  0.00000000000E+00  0.00000000000E+00 -0.13867478498E+04  0.13867478498E+04  0.50400001928E-02 0.  1.
    10030    2    1    2    0    0  0.00000000000E+00  0.00000000000E+00  0.42033507959E+03  0.31938307791E+04  0.31660501364E+04 0.  0.
        3    1    3    3  502    0  0.10874783557E+04  0.34325679641E+03 -0.89743473090E+03  0.14511455850E+04  0.10100000352E+00 0.  1.
       -3    1    3    3    0  502 -0.10874783557E+04 -0.34325679641E+03  0.13177698105E+04  0.17426851942E+04  0.10100000352E+00 0. -1.
</event>
<event>
 5   0  0.9797278E-06  0.3094874E+04  0.7818609E-02  0.8217146E-01
       -2   -1    0    0    0  501  0.00000000000E+00  0.00000000000E+00  0.17445047030E+04  0.17445047030E+04  0.25500000920E-02 0.  1.
        2   -1    0    0  501    0  0.00000000000E+00  0.00000000000E+00 -0.13726314514E+04  0.13726314514E+04  0.25500000920E-02 0. -1.
    10030    2    1    2    0    0  0.00000000000E+00  0.00000000000E+00  0.37187325166E+03  0.31171361544E+04  0.30948744869E+04 0.  0.
        1    1    3    3  502    0 -0.10192194590E+04  0.11218887423E+04 -0.12794482583E+03  0.15211221299E+04  0.50400001928E-02 0.  1.
       -1    1    3    3    0  502  0.10192194590E+04 -0.11218887423E+04  0.49981807750E+03  0.15960140245E+04  0.50400001928E-02 0. -1.
</event>
<event>
 5   0  0.3807334E-06  0.2642859E+04  0.7818609E-02  0.8353787E-01
       -1   -1    0    0    0  501  0.00000000000E+00  0.00000000000E+00  0.16236282882E+04  0.16236282883E+04  0.50400001928E-02 0. -1.
        1   -1    0    0  501    0  0.00000000000E+00  0.00000000000E+00 -0.10754779877E+04  0.10754779877E+04  0.50400001928E-02 0.  1.
    10030    2    1    2    0    0  0.00000000000E+00  0.00000000000E+00  0.54815030051E+03  0.26991062760E+04  0.26428594244E+04 0.  0.
        4    1    3    3  502    0 -0.60202815000E+03  0.11276638194E+04  0.61603143767E+03  0.14189996223E+04  0.12699999809E+01 0. -1.
       -4    1    3    3    0  502  0.60202815000E+03 -0.11276638194E+04 -0.67881137155E+02  0.12801066537E+04  0.12699999809E+01 0.  1.
</event>
<event>
 5   0  0.4250961E-06  0.2921167E+04  0.7818609E-02  0.8266608E-01
       -1   -1    0    0    0  501  0.00000000000E+00  0.00000000000E+00  0.90145639712E+03  0.90145639714E+03  0.50400001928E-02 0.  1.
        1   -1    0    0  501    0  0.00000000000E+00  0.00000000000E+00 -0.23665078238E+04  0.23665078238E+04  0.50400001928E-02 0. -1.
    10030    2    1    2    0    0  0.00000000000E+00  0.00000000000E+00 -0.14650514267E+04  0.32679642210E+04  0.29211666277E+04 0.  0.
        1    1    3    3  502    0  0.14466588035E+04 -0.18428745406E+03 -0.64219266528E+03  0.15934851674E+04  0.50400001928E-02 0. -1.
       -1    1    3    3    0  502 -0.14466588035E+04  0.18428745406E+03 -0.82285876142E+03  0.16744790535E+04  0.50400001928E-02 0.  1.
</event>
<event>
 5   0  0.4139628E-06  0.3135961E+04  0.7818609E-02  0.8205937E-01
        1   -1    0    0  501    0  0.00000000000E+00  0.00000000000E+00  0.14489711800E+04  0.14489711800E+04  0.50400001928E-02 0.  1.
       -1   -1    0    0    0  501  0.00000000000E+00  0.00000000000E+00 -0.16967646932E+04  0.16967646932E+04  0.50400001928E-02 0. -1.
    10030    2    1    2    0    0  0.00000000000E+00  0.00000000000E+00 -0.24779351325E+03  0.31457358732E+04  0.31359611858E+04 0.  0.
        5    1    3    3  502    0  0.85004745193E+02  0.15641976174E+04 -0.55854239523E+02  0.15675081432E+04  0.46999998093E+01 0. -1.
       -5    1    3    3    0  502 -0.85004745193E+02 -0.15641976174E+04 -0.19193927373E+03  0.15782277300E+04  0.46999998093E+01 0.  1.
</event>
<event>
 5   0  0.9797278E-06  0.3042418E+04  0.7818609E-02  0.8231721E-01
       -2   -1    0    0    0  501  0.00000000000E+00  0.00000000000E+00  0.13284370919E+04  0.13284370919E+04  0.25500000920E-02 0. -1.
        2   -1    0    0  501    0  0.00000000000E+00  0.00000000000E+00 -0.17419539020E+04  0.17419539020E+04  0.25500000920E-02 0.  1.
    10030    2    1    2    0    0  0.00000000000E+00  0.00000000000E+00 -0.41351681017E+03  0.30703909939E+04  0.30424175754E+04 0.  0.
        1    1    3    3  502    0 -0.70158045632E+03  0.61130116148E+03  0.10077063754E+04  0.13716327445E+04  0.50400001928E-02 0. -1.
       -1    1    3    3    0  502  0.70158045632E+03 -0.61130116148E+03 -0.14212231856E+04  0.16987582494E+04  0.50400001928E-02 0.  1.
</event>
<event>
 5   0  0.1119100E-05  0.3074574E+04  0.7818609E-02  0.8222751E-01
        2   -1    0    0  501    0  0.00000000000E+00  0.00000000000E+00  0.28581561544E+04  0.28581561544E+04  0.25500000920E-02 0.  1.
       -2   -1    0    0    0  501  0.00000000000E+00  0.00000000000E+00 -0.82684479347E+03  0.82684479347E+03  0.25500000920E-02 0. -1.
    10030    2    1    2    0    0  0.00000000000E+00  0.00000000000E+00  0.20313113609E+04  0.36850009479E+04  0.30745741397E+04 0.  0.
        2    1    3    3  502    0 -0.10953136052E+04 -0.97504514520E+03  0.46273148618E+03  0.15377078257E+04  0.25500000920E-02 0. -1.
       -2    1    3    3    0  502  0.10953136052E+04  0.97504514520E+03  0.15685798748E+04  0.21472931222E+04  0.25500000920E-02 0.  1.
</event>
<event>
 5   0  0.4139628E-06  0.2960870E+04  0.7818609E-02  0.8254994E-01
       -1   -1    0    0    0  501  0.00000000000E+00  0.00000000000E+00  0.11344301370E+04  0.11344301370E+04  0.50400001928E-02 0.  1.
        1   -1    0    0  501    0  0.00000000000E+00  0.00000000000E+00 -0.19319718961E+04  0.19319718961E+04  0.50400001928E-02 0. -1.
    10030    2    1    2    0    0  0.00000000000E+00  0.00000000000E+00 -0.79754175907E+03  0.30664020331E+04  0.29608695634E+04 0.  0.
        5    1    3    3  502    0  0.41095166321E+03  0.40240234137E+02  0.10735777286E+04  0.11502572648E+04  0.46999998093E+01 0.  1.
       -5    1    3    3    0  502 -0.41095166321E+03 -0.40240234137E+02 -0.18711194877E+04  0.19161447683E+04  0.46999998093E+01 0. -1.
</event>
<event>
 5   0  0.4250961E-06  0.2973759E+04  0.7818609E-02  0.8251264E-01
        1   -1    0    0  501    0  0.00000000000E+00  0.00000000000E+00  0.14409263052E+04  0.14409263052E+04  0.50400001928E-02 0. -1.
       -1   -1    0    0    0  501  0.00000000000E+00  0.00000000000E+00 -0.15342986125E+04  0.15342986125E+04  0.50400001928E-02 0.  1.
    10030    2    1    2    0    0  0.00000000000E+00  0.00000000000E+00 -0.93372307293E+02  0.29752249176E+04  0.29737593922E+04 0.  0.
        1    1    3    3  502    0  0.47878758897E+03 -0.80984606774E+03 -0.11986540469E+04  0.15237649861E+04  0.50400001928E-02 0.  1.
       -1    1    3    3    0  502 -0.47878758897E+03  0.80984606774E+03  0.11052817396E+04  0.14514599315E+04  0.50400001928E-02 0. -1.
</event>
<event>
 5   0  0.1007567E-05  0.3093429E+04  0.7818609E-02  0.8217544E-01
        2   -1    0    0  501    0  0.00000000000E+00  0.00000000000E+00  0.21659154761E+04  0.21659154761E+04  0.25500000920E-02 0.  1.
       -2   -1    0    0    0  501  0.00000000000E+00  0.00000000000E+00 -0.11045329556E+04  0.11045329556E+04  0.25500000920E-02 0. -1.
    10030    2    1    2    0    0  0.00000000000E+00  0.00000000000E+00  0.10613825205E+04  0.32704484316E+04  0.30934285331E+04 0.  0.
        3    1    3    3  502    0  0.23590834182E+03 -0.26897526023E+03 -0.10601855768E+04  0.11189253344E+04  0.10100000352E+00 0. -1.
       -3    1    3    3    0  502 -0.23590834182E+03  0.26897526023E+03  0.21215680973E+04  0.21515230973E+04  0.10100000352E+00 0.  1.
</event>
<event>
 5   0  0.1108153E-05  0.3123563E+04  0.7818609E-02  0.8209301E-01
        2   -1    0    0  501    0  0.00000000000E+00  0.00000000000E+00  0.10203512091E+04  0.10203512091E+04  0.25500000920E-02 0.  1.
       -2   -1    0    0    0  501  0.00000000000E+00  0.00000000000E+00 -0.23905110484E+04  0.23905110484E+04  0.25500000920E-02 0. -1.
    10030    2    1    2    0    0  0.00000000000E+00  0.00000000000E+00 -0.13701598393E+04  0.34108622576E+04  0.31235626062E+04 0.  0.
        4    1    3    3  502    0  0.20618014766E+03 -0.55243532507E+02  0.10043473253E+04  0.10267800465E+04  0.12699999809E+01 0.  1.
       -4    1    3    3    0  502 -0.20618014766E+03  0.55243532507E+02 -0.23745071646E+04  0.23840822110E+04  0.12699999809E+01 0. -1.
</event>
<event>
 5   0  0.1108153E-05  0.3090701E+04  0.7818609E-02  0.8218295E-01
        2   -1    0    0  501    0  0.00000000000E+00  0.00000000000E+00  0.24251662179E+04  0.24251662179E+04  0.25500000920E-02 0. -1.
       -2   -1    0    0    0  501  0.00000000000E+00  0.00000000000E+00 -0.98471917606E+03  0.98471917606E+03  0.25500000920E-02 0.  1.
    10030    2    1    2    0    0  0.00000000000E+00  0.00000000000E+00  0.14404470418E+04  0.34098853939E+04  0.30907006842E+04 0.  0.
        4    1    3    3  502    0 -0.15071339384E+04 -0.10298073215E+03  0.36094211116E+03  0.15531704865E+04  0.12699999809E+01 0.  1.
       -4    1    3    3    0  502  0.15071339384E+04  0.10298073215E+03  0.10795049307E+04  0.18567149075E+04  0.12699999809E+01 0. -1.
</event>
<event>
 5   0  0.3838525E-06  0.3074381E+04  0.7818609E-02  0.8222804E-01
        1   -1    0    0  501    0  0.00000000000E+00  0.00000000000E+00  0.88684095279E+03  0.88684095280E+03  0.50400001928E-02 0.  1.
       -1   -1    0    0    0  501  0.00000000000E+00  0.00000000000E+00 -0.26644626896E+04  0.26644626896E+04  0.50400001928E-02 0. -1.
    10030    2    1    2    0    0  0.00000000000E+00  0.00000000000E+00 -0.17776217368E+04  0.35513036424E+04  0.30743809981E+04 0.  0.
        3    1    3    3  502    0  0.10915445467E+04 -0.95297192086E+03 -0.29604936226E+03  0.14789422621E+04  0.10100000352E+00 0.  1.
       -3    1    3    3    0  502 -0.10915445467E+04  0.95297192086E+03 -0.14815723746E+04  0.20723613803E+04  0.10100000352E+00 0. -1.
</event>
<event>
 5   0  0.3838525E-06  0.2072256E+04  0.7818609E-02  0.8573564E-01
        1   -1    0    0  501    0  0.00000000000E+00  0.00000000000E+00  0.13290930690E+04  0.13290930690E+04  0.50400001928E-02 0. -1.
       -1   -1    0    0    0  501  0.00000000000E+00  0.00000000000E+00 -0.80774002089E+03  0.80774002090E+03  0.50400001928E-02 0.  1.
    10030    2    1    2    0    0  0.00000000000E+00  0.00000000000E+00  0.52135304815E+03  0.21368330900E+04  0.20722564160E+04 0.  0.
        3    1    3    3  502    0  0.21039808602E+03 -0.79719819618E+03 -0.38638869042E+03  0.91054299672E+03  0.10100000352E+00 0.  1.
       -3    1    3    3    0  502 -0.21039808602E+03  0.79719819618E+03  0.90774173858E+03  0.12262900932E+04  0.10100000352E+00 0. -1.
</event>
<event>
 5   0  0.4250961E-06  0.3084779E+04  0.7818609E-02  0.8219928E-01
        1   -1    0    0  501    0  0.00000000000E+00  0.00000000000E+00  0.20925326254E+04  0.20925326255E+04  0.50400001928E-02 0.  1.
       -1   -1    0    0    0  501  0.00000000000E+00  0.00000000000E+00 -0.11368835992E+04  0.11368835992E+04  0.50400001928E-02 0. -1.
    10030    2    1    2    0    0  0.00000000000E+00  0.00000000000E+00  0.95564902621E+03  0.32294162247E+04  0.30847794234E+04 0.  0.
        1    1    3    3  502    0  0.86505700064E+03 -0.25593738782E+03  0.17875379692E+04  0.20022785901E+04  0.50400001928E-02 0.  1.
       -1    1    3    3    0  502 -0.86505700064E+03  0.25593738782E+03 -0.83188894299E+03  0.12271376346E+04  0.50400001928E-02 0. -1.
</event>
<event>
 5   0  0.3848286E-06  0.3101070E+04  0.7818609E-02  0.8215444E-01
        1   -1    0    0  501    0  0.00000000000E+00  0.00000000000E+00  0.26274004839E+04  0.26274004839E+04  0.50400001928E-02 0.  1.
       -1   -1    0    0    0  501  0.00000000000E+00  0.00000000000E+00 -0.91503316606E+03  0.91503316608E+03  0.50400001928E-02 0. -1.
    10030    2    1    2    0    0  0.00000000000E+00  0.00000000000E+00  0.17123673179E+04  0.35424336500E+04  0.31010698692E+04 0.  0.
        2    1    3    3  502    0  0.79938319500E+03  0.20365765009E+03  0.23559274238E+04  0.24961738635E+04  0.25500000920E-02 0.  1.
       -2    1    3    3    0  502 -0.79938319500E+03 -0.20365765009E+03 -0.64356010591E+03  0.10462597865E+04  0.25500000920E-02 0. -1.
</event>
<event>
 5   0  0.1007567E-05  0.1919915E+04  0.7818609E-02  0.8645006E-01
        2   -1    0    0  501    0  0.00000000000E+00  0.00000000000E+00  0.72244935933E+03  0.72244935934E+03  0.25500000920E-02 0. -1.
       -2   -1    0    0    0  501  0.00000000000E+00  0.00000000000E+00 -0.12755475459E+04  0.12755475459E+04  0.25500000920E-02 0.  1.
    10030    2    1    2    0    0  0.00000000000E+00  0.00000000000E+00 -0.55309818659E+03  0.19979969053E+04  0.19199151100E+04 0.  0.
        3    1    3    3  502    0  0.37236032893E+03 -0.10494883498E+03  0.63773214637E+03  0.74590131602E+03  0.10100000352E+00 0. -1.
       -3    1    3    3    0  502 -0.37236032893E+03  0.10494883498E+03 -0.11908303330E+04  0.12520955892E+04  0.10100000352E+00 0.  1.
</event>
<event>
 5   0  0.1007567E-05  0.3198218E+04  0.7818609E-02  0.8189288E-01
       -2   -1    0    0    0  501  0.00000000000E+00  0.00000000000E+00  0.16122230975E+04  0.16122230975E+04  0.25500000920E-02 0.  1.
        2   -1    0    0  501    0  0.00000000000E+00  0.00000000000E+00 -0.15861017387E+04  0.15861017387E+04  0.25500000920E-02 0. -1.
    10030    2    1    2    0    0  0.00000000000E+00  0.00000000000E+00  0.26121358800E+02  0.31983248363E+04  0.31982181653E+04 0.  0.
        3    1    3    3  502    0 -0.15862780659E+04  0.99828488753E+02 -0.16274626086E+03  0.15977265677E+04  0.10100000352E+00 0.  1.
       -3    1    3    3    0  502  0.15862780659E+04 -0.99828488753E+02  0.18886761966E+03  0.16005982686E+04  0.10100000352E+00 0. -1.
</event>
<event>
 5   0  0.3838525E-06  0.1525073E+04  0.7818609E-02  0.8867949E-01
       -1   -1    0    0    0  501  0.00000000000E+00  0.00000000000E+00  0.59651799293E+03  0.59651799295E+03  0.50400001928E-02 0.  1.
        1   -1    0    0  501    0  0.00000000000E+00  0.00000000000E+00 -0.97476021200E+03  0.97476021201E+03  0.50400001928E-02 0. -1.
    10030    2    1    2    0    0  0.00000000000E+00  0.00000000000E+00 -0.37824221907E+03  0.15712782050E+04  0.15250731199E+04 0.  0.
        3    1    3    3  502    0 -0.48330206094E+03 -0.21522853939E+03 -0.75490124466E+03  0.92183518357E+03  0.10100000352E+00 0. -1.
       -3    1    3    3    0  502  0.48330206094E+03  0.21522853939E+03  0.37665902559E+03  0.64944302139E+03  0.10100000352E+00 0.  1.
</event>
<event>
 5   0  0.1108153E-05  0.2413013E+04  0.7818609E-02  0.8434648E-01
       -2   -1    0    0    0  501  0.00000000000E+00  0.00000000000E+00  0.13955423637E+04  0.13955423637E+04  0.25500000920E-02 0.  1.
        2   -1    0    0  501    0  0.00000000000E+00  0.00000000000E+00 -0.10430767640E+04  0.10430767640E+04  0.25500000920E-02 0. -1.
    10030    2    1    2    0    0  0.00000000000E+00  0.00000000000E+00  0.35246559974E+03  0.24386191277E+04  0.24130128990E+04 0.  0.
        4    1    3    3  502    0  0.78350487766E+03  0.40183944745E+03  0.10097892253E+04  0.13397875680E+04  0.12699999809E+01 0.  1.
       -4    1    3    3    0  502 -0.78350487766E+03 -0.40183944745E+03 -0.65732362561E+03  0.10988315597E+04  0.12699999809E+01 0. -1.
</event>
<event>
 5   0  0.9797278E-06  0.3146192E+04  0.7818609E-02  0.8203174E-01
        2   -1    0    0  501    0  0.00000000000E+00  0.00000000000E+00  0.27736326360E+04  0.27736326360E+04  0.25500000920E-02 0. -1.
       -2   -1    0    0    0  501  0.00000000000E+00  0.00000000000E+00 -0.89219843981E+03  0.89219843981E+03  0.25500000920E-02 0.  1.
    10030    2    1    2    0    0  0.00000000000E+00  0.00000000000E+00  0.18814341962E+04  0.36658310758E+04  0.31461917999E+04 0.  0.
        1    1    3    3  502    0  0.83148932203E+03  0.21105886711E+03  0.24771049909E+04  0.26214441581E+04  0.50400001928E-02 0. -1.
       -1    1    3    3    0  502 -0.83148932203E+03 -0.21105886711E+03 -0.59567079476E+03  0.10443869177E+04  0.50400001928E-02 0.  1.
</event>
<event>
 5   0  0.1108153E-05  0.3036495E+04  0.7818609E-02  0.8233386E-01
        2   -1    0    0  501    0  0.00000000000E+00  0.00000000000E+00  0.12476803761E+04  0.12476803761E+04  0.25500000920E-02 0.  1.
       -2   -1    0    0    0  501  0.00000000000E+00  0.00000000000E+00 -0.18474889884E+04  0.18474889884E+04  0.25500000920E-02 0. -1.
    10030    2    1    2    0    0  0.00000000000E+00  0.00000000000E+00 -0.59980861231E+03  0.30951693644E+04  0.30364951874E+04 0.  0.
        4    1    3    3  502    0  0.21483455950E+03 -0.14175754092E+04 -0.80895406019E+03  0.16462327336E+04  0.12699999809E+01 0.  1.
       -4    1    3    3    0  502 -0.21483455950E+03  0.14175754092E+04  0.20914544788E+03  0.14489366308E+04  0.12699999809E+01 0. -1.
</event>
<event>
 5   0  0.4139628E-06  0.3111177E+04  0.7818609E-02  0.8212677E-01
       -1   -1    0    0    0  501  0.00000000000E+00  0.00000000000E+00  0.96635804769E+03  0.96635804770E+03  0.50400001928E-02 0.  1.
        1   -1    0    0  501    0  0.00000000000E+00  0.00000000000E+00 -0.25040988219E+04  0.25040988219E+04  0.50400001928E-02 0. -1.
    10030    2    1    2    0    0  0.00000000000E+00  0.00000000000E+00 -0.15377407743E+04  0.34704568697E+04  0.31111773005E+04 0.  0.
        5    1    3    3  502    0 -0.61946267024E+03  0.12597845817E+03  0.81661495769E+03  0.10327084055E+04  0.46999998093E+01 0.  1.
       -5    1    3    3    0  502  0.61946267024E+03 -0.12597845817E+03 -0.23543557319E+04  0.24377484641E+04  0.46999998093E+01 0. -1.
</event>
<event>
 5   0  0.9797278E-06  0.3384280E+04  0.7818609E-02  0.8141775E-01
       -2   -1    0    0    0  501  0.00000000000E+00  0.00000000000E+00  0.10651088113E+04  0.10651088113E+04  0.25500000920E-02 0.  1.
        2   -1    0    0  501    0  0.00000000000E+00  0.00000000000E+00 -0.26883048983E+04  0.26883048983E+04  0.25500000920E-02 0. -1.
    10030    2    1    2    0    0  0.00000000000E+00  0.00000000000E+00 -0.16231960870E+04  0.37534137096E+04  0.33842796779E+04 0.  0.
        1    1    3    3  502    0  0.80295904056E+03 -0.14641994420E+04 -0.11147505800E+04  0.20078077803E+04  0.50400001928E-02 0. -1.
       -1    1    3    3    0  502 -0.80295904056E+03  0.14641994420E+04 -0.50844550694E+03  0.17456059293E+04  0.50400001928E-02 0.  1.
</event>
<event>
 5   0  0.1007567E-05  0.3047087E+04  0.7818609E-02  0.8230411E-01
        2   -1    0    0  501    0  0.00000000000E+00  0.00000000000E+00  0.17227441563E+04  0.17227441563E+04  0.25500000920E-02 0.  1.
       -2   -1    0    0    0  501  0.00000000000E+00  0.00000000000E+00 -0.13473765238E+04  0.13473765238E+04  0.25500000920E-02 0. -1.
    10030    2    1    2    0    0  0.00000000000E+00  0.00000000000E+00  0.37536763248E+03  0.30701206800E+04  0.30470871551E+04 0.  0.
        3    1    3    3  502    0 -0.88444906278E+03 -0.22710488889E+02  0.14373899569E+04  0.16878553876E+04  0.10100000352E+00 0.  1.
       -3    1    3    3    0  502  0.88444906278E+03  0.22710488889E+02 -0.10620223244E+04  0.13822652925E+04  0.10100000352E+00 0. -1.
</event>
<event>
 5   0  0.3807334E-06  0.2139947E+04  0.7818609E-02  0.8543848E-01
       -1   -1    0    0    0  501  0.00000000000E+00  0.00000000000E+00  0.14078894380E+04  0.14078894381E+04  0.50400001928E-02 0.  1.
        1   -1    0    0  501    0  0.00000000000E+00  0.00000000000E+00 -0.81316243163E+03  0.81316243164E+03  0.50400001928E-02 0. -1.
    10030    2    1    2    0    0  0.00000000000E+00  0.00000000000E+00  0.59472700642E+03  0.22210518697E+04  0.21399465404E+04 0.  0.
        4    1    3    3  502    0 -0.36665219969E+03  0.41516103932E+03 -0.65278260862E+03  0.85610704420E+03  0.12699999809E+01 0. -1.
       -4    1    3    3    0  502  0.36665219969E+03 -0.41516103932E+03  0.12475096150E+04  0.13649448255E+04  0.12699999809E+01 0.  1.
</event>
<event>
 5   0  0.1001961E-05  0.3231751E+04  0.7818609E-02  0.8180482E-01
       -2   -1    0    0    0  501  0.00000000000E+00  0.00000000000E+00  0.11646764075E+04  0.11646764075E+04  0.25500000920E-02 0. -1.
        2   -1    0    0  501    0  0.00000000000E+00  0.00000000000E+00 -0.22418703833E+04  0.22418703833E+04  0.25500000920E-02 0.  1.
    10030    2    1    2    0    0  0.00000000000E+00  0.00000000000E+00 -0.10771939758E+04  0.34065467908E+04  0.32317509459E+04 0.  0.
        5    1    3    3  502    0 -0.33841087615E+02  0.12981152931E+04  0.47507250009E+03  0.13827380460E+04  0.46999998093E+01 0. -1.
       -5    1    3    3    0  502  0.33841087615E+02 -0.12981152931E+04 -0.15522664759E+04  0.20238087448E+04  0.46999998093E+01 0.  1.
</event>
<event>
 5   0  0.1119100E-05  0.3207940E+04  0.7818609E-02  0.8186723E-01
        2   -1    0    0  501    0  0.00000000000E+00  0.00000000000E+00  0.88045833374E+03  0.88045833374E+03  0.25500000920E-02 0.  1.
       -2   -1    0    0    0  501  0.00000000000E+00  0.00000000000E+00 -0.29220227411E+04  0.29220227411E+04  0.25500000920E-02 0. -1.
    10030    2    1    2    0    0  0.00000000000E+00  0.00000000000E+00 -0.20415644074E+04  0.38024810749E+04  0.32079396963E+04 0.  0.
        2    1    3    3  502    0 -0.63689043228E+03  0.14655922325E+04 -0.11847240950E+04  0.19892614700E+04  0.25500000920E-02 0.  1.
       -2    1    3    3    0  502  0.63689043228E+03 -0.14655922325E+04 -0.85684031239E+03  0.18132196049E+04  0.25500000920E-02 0. -1.
</event>
<event>
 5   0  0.1119100E-05  0.3113797E+04  0.7818609E-02  0.8211962E-01
        2   -1    0    0  501    0  0.00000000000E+00  0.00000000000E+00  0.23990939653E+04  0.23990939653E+04  0.25500000920E-02 0.  1.
       -2   -1    0    0    0  501  0.00000000000E+00  0.00000000000E+00 -0.10103532891E+04  0.10103532891E+04  0.25500000920E-02 0. -1.
    10030    2    1    2    0    0  0.00000000000E+00  0.00000000000E+00  0.13887406762E+04  0.34094472544E+04  0.31137967041E+04 0.  0.
        2    1    3    3  502    0  0.10194054715E+04 -0.30660935469E+03  0.19383474135E+04  0.22114220554E+04  0.25500000920E-02 0.  1.
       -2    1    3    3    0  502 -0.10194054715E+04  0.30660935469E+03 -0.54960673730E+03  0.11980251990E+04  0.25500000920E-02 0. -1.
</event>
<event>
 5   0  0.3838525E-06  0.3125775E+04  0.7818609E-02  0.8208700E-01
       -1   -1    0    0    0  501  0.00000000000E+00  0.00000000000E+00  0.12716896677E+04  0.12716896678E+04  0.50400001928E-02 0. -1.
        1   -1    0    0  501    0  0.00000000000E+00  0.00000000000E+00 -0.19207654440E+04  0.19207654440E+04  0.50400001928E-02 0.  1.
    10030    2    1    2    0    0  0.00000000000E+00  0.00000000000E+00 -0.64907577621E+03  0.31924551117E+04  0.31257751482E+04 0.  0.
        3    1    3    3  502    0  0.12641706242E+03  0.12049010569E+04  0.68386923110E+03  0.13912027048E+04  0.10100000352E+00 0. -1.
       -3    1    3    3    0  502 -0.12641706242E+03 -0.12049010569E+04 -0.13329450073E+04  0.18012524069E+04  0.10100000352E+00 0.  1.
</event>
<event>
 5   0  0.3848286E-06  0.3091006E+04  0.7818609E-02  0.8218211E-01
        1   -1    0    0  501    0  0.00000000000E+00  0.00000000000E+00  0.10144907652E+04  0.10144907652E+04  0.50400001928E-02 0.  1.
       -1   -1    0    0    0  501  0.00000000000E+00  0.00000000000E+00 -0.23544611277E+04  0.23544611277E+04  0.50400001928E-02 0. -1.
    10030    2    1    2    0    0  0.00000000000E+00  0.00000000000E+00 -0.13399703625E+04  0.33689518930E+04  0.30910057076E+04 0.  0.
        2    1    3    3  502    0 -0.11914640885E+04  0.38163397251E+03 -0.16589633291E+04  0.20778331238E+04  0.25500000920E-02 0. -1.
       -2    1    3    3    0  502  0.11914640885E+04 -0.38163397251E+03  0.31899296653E+03  0.12911187691E+04  0.25500000920E-02 0.  1.
</event>
<event>
 5   0  0.9797278E-06  0.3108833E+04  0.7818609E-02  0.8213318E-01
        2   -1    0    0  501    0  0.00000000000E+00  0.00000000000E+00  0.25820763721E+04  0.25820763721E+04  0.25500000920E-02 0. -1.
       -2   -1    0    0    0  501  0.00000000000E+00  0.00000000000E+00 -0.93576271242E+03  0.93576271243E+03  0.25500000920E-02 0.  1.
    10030    2    1    2    0    0  0.00000000000E+00  0.00000000000E+00  0.16463136596E+04  0.35178390845E+04  0.31088330863E+04 0.  0.
        1    1    3    3  502    0 -0.10163653230E+04  0.13979004075E+03 -0.49824035463E+03  0.11405188189E+04  0.50400001928E-02 0.  1.
       -1    1    3    3    0  502  0.10163653230E+04 -0.13979004075E+03  0.21445540143E+04  0.23773202656E+04  0.50400001928E-02 0. -1.
</event>
<event>
 5   0  0.3848286E-06  0.2380953E+04  0.7818609E-02  0.8446669E-01
        1   -1    0    0  501    0  0.00000000000E+00  0.00000000000E+00  0.16726737793E+04  0.16726737793E+04  0.50400001928E-02 0. -1.
       -1   -1    0    0    0  501  0.00000000000E+00  0.00000000000E+00 -0.84728648132E+03  0.84728648133E+03  0.50400001928E-02 0.  1.
    10030    2    1    2    0    0  0.00000000000E+00  0.00000000000E+00  0.82538729793E+03  0.25199602606E+04  0.23809526504E+04 0.  0.
        2    1    3    3  502    0 -0.93330185073E+03  0.73853403669E+03  0.44165958636E+03  0.12694676278E+04  0.25500000920E-02 0.  1.
       -2    1    3    3    0  502  0.93330185073E+03 -0.73853403669E+03  0.38372771157E+03  0.12504926327E+04  0.25500000920E-02 0. -1.
</event>
<event>
 5   0  0.4139628E-06  0.2725548E+04  0.7818609E-02  0.8326763E-01
       -1   -1    0    0    0  501  0.00000000000E+00  0.00000000000E+00  0.88134061303E+03  0.88134061304E+03  0.50400001928E-02 0.  1.
        1   -1    0    0  501    0  0.00000000000E+00  0.00000000000E+00 -0.21071910333E+04  0.21071910333E+04  0.50400001928E-02 0. -1.
    10030    2    1    2    0    0  0.00000000000E+00  0.00000000000E+00 -0.12258504203E+04  0.29885316463E+04  0.27255480455E+04 0.  0.
        5    1    3    3  502    0  0.41558452465E+03 -0.57511020901E+03  0.66280902456E+03  0.97097896099E+03  0.46999998093E+01 0.  1.
       -5    1    3    3    0  502 -0.41558452465E+03  0.57511020901E+03 -0.18886594448E+04  0.20175526854E+04  0.46999998093E+01 0. -1.
</event>
<event>
 5   0  0.1001961E-05  0.2990566E+04  0.7818609E-02  0.8246430E-01
        2   -1    0    0  501    0  0.00000000000E+00  0.00000000000E+00  0.23313439932E+04  0.23313439932E+04  0.25500000920E-02 0.  1.
       -2   -1    0    0    0  501  0.00000000000E+00  0.00000000000E+00 -0.95904836263E+03  0.95904836264E+03  0.25500000920E-02 0. -1.
    10030    2    1    2    0    0  0.00000000000E+00  0.00000000000E+00  0.13722956306E+04  0.32903923559E+04  0.29905662604E+04 0.  0.
        5    1    3    3  502    0 -0.51079870334E+03 -0.95713116128E+03 -0.44601329605E+03  0.11730154839E+04  0.46999998093E+01 0. -1.
       -5    1    3    3    0  502  0.51079870334E+03  0.95713116128E+03  0.18183089266E+04  0.21173768720E+04  0.46999998093E+01 0.  1.
</event>
<event>
 5   0  0.3848286E-06  0.2648879E+04  0.7818609E-02  0.8351785E-01
        1   -1    0    0  501    0  0.00000000000E+00  0.00000000000E+00  0.10662981367E+04  0.10662981368E+04  0.50400001928E-02 0.  1.
       -1   -1    0    0    0  501  0.00000000000E+00  0.00000000000E+00 -0.16450743583E+04  0.16450743584E+04  0.50400001928E-02 0. -1.
    10030    2    1    2    0    0  0.00000000000E+00  0.00000000000E+00 -0.57877622160E+03  0.27113724951E+04  0.26488787991E+04 0.  0.
        2    1    3    3  502    0  0.89513106725E+03  0.88796890794E+03  0.12562950615E+03  0.12670955693E+04  0.25500000920E-02 0.  1.
       -2    1    3    3    0  502 -0.89513106725E+03 -0.88796890794E+03 -0.70440572775E+03  0.14442769258E+04  0.25500000920E-02 0. -1.
</event>
<event>
 5   0  0.3838525E-06  0.3093739E+04  0.7818609E-02  0.8217458E-01
        1   -1    0    0  501    0  0.00000000000E+00  0.00000000000E+00  0.18018704186E+04  0.18018704186E+04  0.50400001928E-02 0.  1.
       -1   -1    0    0    0  501  0.00000000000E+00  0.00000000000E+00 -0.13279565988E+04  0.13279565988E+04  0.50400001928E-02 0. -1.
    10030    2    1    2    0    0  0.00000000000E+00  0.00000000000E+00  0.47391381975E+03  0.31298270174E+04  0.30937392990E+04 0.  0.
        3    1    3    3  502    0 -0.11462335049E+04 -0.87555856104E+03  0.80236045958E+03  0.16505260855E+04  0.10100000352E+00 0.  1.
       -3    1    3    3    0  502  0.11462335049E+04  0.87555856104E+03 -0.32844663982E+03  0.14793009319E+04  0.10100000352E+00 0. -1.
</event>
<event>
 5   0  0.3838525E-06  0.2996412E+04  0.7818609E-02  0.8244756E-01
        1   -1    0    0  501    0  0.00000000000E+00  0.00000000000E+00  0.17049555074E+04  0.17049555074E+04  0.50400001928E-02 0.  1.
       -1   -1    0    0    0  501  0.00000000000E+00  0.00000000000E+00 -0.13165276387E+04  0.13165276387E+04  0.50400001928E-02 0. -1.
    10030    2    1    2    0    0  0.00000000000E+00  0.00000000000E+00  0.38842786873E+03  0.30214831461E+04  0.29964118864E+04 0.  0.
        3    1    3    3  502    0  0.67933231552E+03  0.10527392480E+04  0.10225914722E+04  0.16172339498E+04  0.10100000352E+00 0.  1.
       -3    1    3    3    0  502 -0.67933231552E+03 -0.10527392480E+04 -0.63416360347E+03  0.14042491963E+04  0.10100000352E+00 0. -1.
</event>
<event>
 5   0  0.1119100E-05  0.2831663E+04  0.7818609E-02  0.8293505E-01
        2   -1    0    0  501    0  0.00000000000E+00  0.00000000000E+00  0.15778174285E+04  0.15778174285E+04  0.25500000920E-02 0.  1.
       -2   -1    0    0    0  501  0.00000000000E+00  0.00000000000E+00 -0.12704758580E+04  0.12704758580E+04  0.25500000920E-02 0. -1.
    10030    2    1    2    0    0  0.00000000000E+00  0.00000000000E+00  0.30734157054E+03  0.28482932865E+04  0.28316630811E+04 0.  0.
        2    1    3    3  502    0 -0.51558770541E+01  0.14157162299E+04  0.17109082175E+03  0.14260263308E+04  0.25500000920E-02 0.  1.
       -2    1    3    3    0  502  0.51558770541E+01 -0.14157162299E+04  0.13625074880E+03  0.14222669557E+04  0.25500000920E-02 0. -1.
</event>
<event>
 5   0  0.1007567E-05  0.3117887E+04  0.7818609E-02  0.8210846E-01
        2   -1    0    0  501    0  0.00000000000E+00  0.00000000000E+00  0.19048951428E+04  0.19048951428E+04  0.25500000920E-02 0.  1.
       -2   -1    0    0    0  501  0.00000000000E+00  0.00000000000E+00 -0.12758205307E+04  0.12758205307E+04  0.25500000920E-02 0. -1.
    10030    2    1    2    0    0  0.00000000000E+00  0.00000000000E+00  0.62907461210E+03  0.31807156735E+04  0.31178866765E+04 0.  0.
        3    1    3    3  502    0  0.10484983381E+04 -0.90312358121E+03 -0.41778866324E+03  0.14455200950E+04  0.10100000352E+00 0. -1.
       -3    1    3    3    0  502 -0.10484983381E+04  0.90312358121E+03  0.10468632753E+04  0.17351955784E+04  0.10100000352E+00 0.  1.
</event>
<event>
 5   0  0.3838525E-06  0.2891353E+04  0.7818609E-02  0.8275455E-01
       -1   -1    0    0    0  501  0.00000000000E+00  0.00000000000E+00  0.10646074891E+04  0.10646074891E+04  0.50400001928E-02 0. -1.
        1   -1    0    0  501    0  0.00000000000E+00  0.00000000000E+00 -0.19631471552E+04  0.19631471552E+04  0.50400001928E-02 0.  1.
    10030    2    1    2    0    0  0.00000000000E+00  0.00000000000E+00 -0.89853966608E+03  0.30277546443E+04  0.28913534295E+04 0.  0.
        3    1    3    3  502    0  0.90088212118E+03  0.10048549420E+04 -0.99204538458E+03  0.16749555534E+04  0.10100000352E+00 0. -1.
       -3    1    3    3    0  502 -0.90088212118E+03 -0.10048549420E+04  0.93505718502E+02  0.13527990909E+04  0.10100000352E+00 0.  1.
</event>
<event>
 5   0  0.9797278E-06  0.3058709E+04  0.7818609E-02  0.8227162E-01
        2   -1    0    0  501    0  0.00000000000E+00  0.00000000000E+00  0.17813207617E+04  0.17813207617E+04  0.25500000920E-02 0. -1.
       -2   -1    0    0    0  501  0.00000000000E+00  0.00000000000E+00 -0.13130290128E+04  0.13130290128E+04  0.25500000920E-02 0.  1.
    10030    2    1    2    0    0  0.00000000000E+00  0.00000000000E+00  0.46829174887E+03  0.30943497745E+04  0.30587094280E+04 0.  0.
        1    1    3    3  502    0  0.83984675941E+02 -0.11644598325E+04  0.12335361331E+04  0.16984203010E+04  0.50400001928E-02 0. -1.
       -1    1    3    3    0  502 -0.83984675941E+02  0.11644598325E+04 -0.76524438421E+03  0.13959294735E+04  0.50400001928E-02 0.  1.
</event>
<event>
 5   0  0.9797278E-06  0.3102764E+04  0.7818609E-02  0.8214980E-01
        2   -1    0    0  501    0  0.00000000000E+00  0.00000000000E+00  0.15665622923E+04  0.15665622923E+04  0.25500000920E-02 0.  1.
       -2   -1    0    0    0  501  0.00000000000E+00  0.00000000000E+00 -0.15363489655E+04  0.15363489655E+04  0.25500000920E-02 0. -1.
    10030    2    1    2    0    0  0.00000000000E+00  0.00000000000E+00  0.30213326762E+02  0.31029112578E+04  0.31027641594E+04 0.  0.
        1    1    3    3  502    0 -0.20357427760E+03  0.69455191001E+03  0.13873748789E+04  0.15648175283E+04  0.50400001928E-02 0.  1.
       -1    1    3    3    0  502  0.20357427760E+03 -0.69455191001E+03 -0.13571615521E+04  0.15380937295E+04  0.50400001928E-02 0. -1.
</event>
<event>
 5   0  0.1001961E-05  0.3033770E+04  0.7818609E-02  0.8234153E-01
       -2   -1    0    0    0  501  0.00000000000E+00  0.00000000000E+00  0.19513432337E+04  0.19513432337E+04  0.25500000920E-02 0.  1.
        2   -1    0    0  501    0  0.00000000000E+00  0.00000000000E+00 -0.11791567450E+04  0.11791567450E+04  0.25500000920E-02 0. -1.
    10030    2    1    2    0    0  0.00000000000E+00  0.00000000000E+00  0.77218648871E+03  0.31304999787E+04  0.30337696259E+04 0.  0.
        5    1    3    3  502    0  0.92861863834E+03 -0.60840661309E+03  0.14526976760E+04  0.18283445546E+04  0.46999998093E+01 0.  1.
       -5    1    3    3    0  502 -0.92861863834E+03  0.60840661309E+03 -0.68051118733E+03  0.13021554241E+04  0.46999998093E+01 0. -1.
</event>
<event>
 5   0  0.1007567E-05  0.3101179E+04  0.7818609E-02  0.8215414E-01
        2   -1    0    0  501    0  0.00000000000E+00  0.00000000000E+00  0.11546491008E+04  0.11546491008E+04  0.25500000920E-02 0.  1.
       -2   -1    0    0    0  501  0.00000000000E+00  0.00000000000E+00 -0.20823013949E+04  0.20823013949E+04  0.25500000920E-02 0. -1.
    10030    2    1    2    0    0  0.00000000000E+00  0.00000000000E+00 -0.92765229407E+03  0.32369504957E+04  0.31011787650E+04 0.  0.
        3    1    3    3  502    0  0.40195716196E+03 -0.13892810145E+04 -0.10474630268E+04  0.17857351707E+04  0.10100000352E+00 0. -1.
       -3    1    3    3    0  502 -0.40195716196E+03  0.13892810145E+04  0.11981073269E+03  0.14512153249E+04  0.10100000352E+00 0.  1.
</event>
<event>
 5   0  0.3807334E-06  0.3116109E+04  0.7818609E-02  0.8211331E-01
       -1   -1    0    0    0  501  0.00000000000E+00  0.00000000000E+00  0.18303465248E+04  0.18303465248E+04  0.50400001928E-02 0.  1.
        1   -1    0    0  501    0  0.00000000000E+00  0.00000000000E+00 -0.13262697645E+04  0.13262697646E+04  0.50400001928E-02 0. -1.
    10030    2    1    2    0    0  0.00000000000E+00  0.00000000000E+00  0.50407676023E+03  0.31566162893E+04  0.31161086338E+04 0.  0.
        4    1    3    3  502    0 -0.55700582872E+03  0.13626889646E+04 -0.26484445490E+03  0.14957676643E+04  0.12699999809E+01 0. -1.
       -4    1    3    3    0  502  0.55700582872E+03 -0.13626889646E+04  0.76892121514E+03  0.16608486250E+04  0.12699999809E+01 0.  1.
</event>
<event>
 5   0  0.4250961E-06  0.2669271E+04  0.7818609E-02  0.8345045E-01
        1   -1    0    0  501    0  0.00000000000E+00  0.00000000000E+00  0.12244350876E+04  0.12244350876E+04  0.50400001928E-02 0. -1.
       -1   -1    0    0    0  501  0.00000000000E+00  0.00000000000E+00 -0.14547540956E+04  0.14547540956E+04  0.50400001928E-02 0.  1.
    10030    2    1    2    0    0  0.00000000000E+00  0.00000000000E+00 -0.23031900801E+03  0.26791891832E+04  0.26692710304E+04 0.  0.
        1    1    3    3  502    0 -0.27489221912E+03  0.11883527914E+04  0.42861347595E+03  0.12928486380E+04  0.50400001928E-02 0. -1.
       -1    1    3    3    0  502  0.27489221912E+03 -0.11883527914E+04 -0.65893248396E+03  0.13863405452E+04  0.50400001928E-02 0.  1.
</event>
<event>
 5   0  0.4250961E-06  0.3190343E+04  0.7818609E-02  0.8191372E-01
       -1   -1    0    0    0  501  0.00000000000E+00  0.00000000000E+00  0.19348152436E+04  0.19348152436E+04  0.50400001928E-02 0. -1.
        1   -1    0    0  501    0  0.00000000000E+00  0.00000000000E+00 -0.13151497555E+04  0.13151497555E+04  0.50400001928E-02 0.  1.
    10030    2    1    2    0    0  0.00000000000E+00  0.00000000000E+00  0.61966548814E+03  0.32499649991E+04  0.31903427994E+04 0.  0.
        1    1    3    3  502    0  0.14238689612E+04  0.16197745007E+03  0.10235926175E+04  0.17610739222E+04  0.50400001928E-02 0. -1.
       -1    1    3    3    0  502 -0.14238689612E+04 -0.16197745007E+03 -0.40392712935E+03  0.14888910769E+04  0.50400001928E-02 0.  1.
</event>
<event>
 5   0  0.1001961E-05  0.3105562E+04  0.7818609E-02  0.8214213E-01
        2   -1    0    0  501    0  0.00000000000E+00  0.00000000000E+00  0.22539603114E+04  0.22539603114E+04  0.25500000920E-02 0.  1.
       -2   -1    0    0    0  501  0.00000000000E+00  0.00000000000E+00 -0.10697300693E+04  0.10697300693E+04  0.25500000920E-02 0. -1.
    10030    2    1    2    0    0  0.00000000000E+00  0.00000000000E+00  0.11842302421E+04  0.33236903807E+04  0.31055621843E+04 0.  0.
        5    1    3    3  502    0 -0.71872629618E+03 -0.13499110037E+04  0.30438265263E+03  0.15593261673E+04  0.46999998093E+01 0. -1.
       -5    1    3    3    0  502  0.71872629618E+03  0.13499110037E+04  0.87984758943E+03  0.17643642134E+04  0.46999998093E+01 0.  1.
</event>
<event>
 5   0  0.9797278E-06  0.3052624E+04  0.7818609E-02  0.8228861E-01
       -2   -1    0    0    0  501  0.00000000000E+00  0.00000000000E+00  0.10543332449E+04  0.10543332449E+04  0.25500000920E-02 0.  1.
        2   -1    0    0  501    0  0.00000000000E+00  0.00000000000E+00 -0.22095749433E+04  0.22095749433E+04  0.25500000920E-02 0. -1.
    10030    2    1    2    0    0  0.00000000000E+00  0.00000000000E+00 -0.11552416984E+04  0.32639081882E+04  0.30526239990E+04 0.  0.
        1    1    3    3  502    0 -0.96365300765E+03  0.83504406169E+03  0.31931049724E+03  0.13144903567E+04  0.50400001928E-02 0.  1.
       -1    1    3    3    0  502  0.96365300765E+03 -0.83504406169E+03 -0.14745521956E+04  0.19494178315E+04  0.50400001928E-02 0. -1.
</event>
<event>
 5   0  0.4139628E-06  0.2164927E+04  0.7818609E-02  0.8533170E-01
       -1   -1    0    0    0  501  0.00000000000E+00  0.00000000000E+00  0.78121280902E+03  0.78121280904E+03  0.50400001928E-02 0.  1.
        1   -1    0    0  501    0  0.00000000000E+00  0.00000000000E+00 -0.14998821582E+04  0.14998821582E+04  0.50400001928E-02 0. -1.
    10030    2    1    2    0    0  0.00000000000E+00  0.00000000000E+00 -0.71866934917E+03  0.22810949672E+04  0.21649269309E+04 0.  0.
        5    1    3    3  502    0  0.54422649054E+03 -0.27437850103E+03  0.58322745772E+03  0.84358899487E+03  0.46999998093E+01 0.  1.
       -5    1    3    3    0  502 -0.54422649054E+03  0.27437850103E+03 -0.13018968069E+04  0.14375059724E+04  0.46999998093E+01 0. -1.
</event>
<event>
 5   0  0.3838525E-06  0.3138828E+04  0.7818609E-02  0.8205162E-01
       -1   -1    0    0    0  501  0.00000000000E+00  0.00000000000E+00  0.12065845504E+04  0.12065845504E+04  0.50400001928E-02 0.  1.
        1   -1    0    0  501    0  0.00000000000E+00  0.00000000000E+00 -0.20413494812E+04  0.20413494812E+04  0.50400001928E-02 0. -1.
    10030    2    1    2    0    0  0.00000000000E+00  0.00000000000E+00 -0.83476493077E+03  0.32479340316E+04  0.31388282820E+04 0.  0.
        3    1    3    3  502    0  0.68413053787E+03  0.13966916758E+04 -0.63512141391E+03  0.16799290016E+04  0.10100000352E+00 0.  1.
       -3    1    3    3    0  502 -0.68413053787E+03 -0.13966916758E+04 -0.19964351686E+03  0.15680050300E+04  0.10100000352E+00 0. -1.
</event>
<event>
 5   0  0.9797278E-06  0.3115052E+04  0.7818609E-02  0.8211619E-01
       -2   -1    0    0    0  501  0.00000000000E+00  0.00000000000E+00  0.12810974342E+04  0.12810974343E+04  0.25500000920E-02 0. -1.
        2   -1    0    0  501    0  0.00000000000E+00  0.00000000000E+00 -0.18936004443E+04  0.18936004443E+04  0.25500000920E-02 0.  1.
    10030    2    1    2    0    0  0.00000000000E+00  0.00000000000E+00 -0.61250301009E+03  0.31746978786E+04  0.31150516341E+04 0.  0.
        1    1    3    3  502    0 -0.12545181864E+04 -0.91926564672E+03 -0.39165013703E+03  0.16038251273E+04  0.50400001928E-02 0.  1.
       -1    1    3    3    0  502  0.12545181864E+04  0.91926564672E+03 -0.22085287306E+03  0.15708727513E+04  0.50400001928E-02 0. -1.
</event>
<event>
 5   0  0.4250961E-06  0.2960545E+04  0.7818609E-02  0.8255088E-01
        1   -1    0    0  501    0  0.00000000000E+00  0.00000000000E+00  0.16803802568E+04  0.16803802568E+04  0.50400001928E-02 0.  1.
       -1   -1    0    0    0  501  0.00000000000E+00  0.00000000000E+00 -0.13039948275E+04  0.13039948275E+04  0.50400001928E-02 0. -1.
    10030    2    1    2    0    0  0.00000000000E+00  0.00000000000E+00  0.37638542927E+03  0.29843750843E+04  0.29605453303E+04 0.  0.
        1    1    3    3  502    0  0.96303854863E+03 -0.78855415503E+03  0.99585727608E+03  0.15940491259E+04  0.50400001928E-02 0.  1.
       -1    1    3    3    0  502 -0.96303854863E+03  0.78855415503E+03 -0.61947184681E+03  0.13903259584E+04  0.50400001928E-02 0. -1.
</event>
<event>
 5   0  0.3848286E-06  0.2292594E+04  0.7818609E-02  0.8480847E-01
       -1   -1    0    0    0  501  0.00000000000E+00  0.00000000000E+00  0.13991226572E+04  0.13991226572E+04  0.50400001928E-02 0.  1.
        1   -1    0    0  501    0  0.00000000000E+00  0.00000000000E+00 -0.93915728833E+03  0.93915728834E+03  0.50400001928E-02 0. -1.
    10030    2    1    2    0    0  0.00000000000E+00  0.00000000000E+00  0.45996536884E+03  0.23382799455E+04  0.22925935015E+04 0.  0.
        2    1    3    3  502    0 -0.85334063126E+03  0.24764336226E+03 -0.50865830753E+03  0.10238411701E+04  0.25500000920E-02 0. -1.
       -2    1    3    3    0  502  0.85334063126E+03 -0.24764336226E+03  0.96862367637E+03  0.13144387754E+04  0.25500000920E-02 0.  1.
</event>
<event>
 5   0  0.3807334E-06  0.3127462E+04  0.7818609E-02  0.8208241E-01
       -1   -1    0    0    0  501  0.00000000000E+00  0.00000000000E+00  0.13786458304E+04  0.13786458304E+04  0.50400001928E-02 0. -1.
        1   -1    0    0  501    0  0.00000000000E+00  0.00000000000E+00 -0.17736644159E+04  0.17736644159E+04  0.50400001928E-02 0.  1.
    10030    2    1    2    0    0  0.00000000000E+00  0.00000000000E+00 -0.39501858551E+03  0.31523102463E+04  0.31274622629E+04 0.  0.
        4    1    3    3  502    0 -0.47000622196E+03  0.61670249240E+03 -0.15662473776E+04  0.17476728165E+04  0.12699999809E+01 0.  1.
       -4    1    3    3    0  502  0.47000622196E+03 -0.61670249240E+03  0.11712287921E+04  0.14046374298E+04  0.12699999809E+01 0. -1.
</event>
<event>
 5   0  0.3807334E-06  0.3108108E+04  0.7818609E-02  0.8213516E-01
       -1   -1    0    0    0  501  0.00000000000E+00  0.00000000000E+00  0.15645212102E+04  0.15645212102E+04  0.50400001928E-02 0.  1.
        1   -1    0    0  501    0  0.00000000000E+00  0.00000000000E+00 -0.15436563268E+04  0.15436563268E+04  0.50400001928E-02 0. -1.
    10030    2    1    2    0    0  0.00000000000E+00  0.00000000000E+00  0.20864883335E+02  0.31081775370E+04  0.31081075043E+04 0.  0.
        4    1    3    3  502    0 -0.70261622211E+03 -0.96990678131E+03 -0.97988918619E+03  0.15474408390E+04  0.12699999809E+01 0. -1.
       -4    1    3    3    0  502  0.70261622211E+03  0.96990678131E+03  0.10007540695E+04  0.15607366980E+04  0.12699999809E+01 0.  1.
</event>
<event>
 5   0  0.4250961E-06  0.2380915E+04  0.7818609E-02  0.8446683E-01
        1   -1    0    0  501    0  0.00000000000E+00  0.00000000000E+00  0.10997000862E+04  0.10997000862E+04  0.50400001928E-02 0.  1.
       -1   -1    0    0    0  501  0.00000000000E+00  0.00000000000E+00 -0.12887055120E+04  0.12887055120E+04  0.50400001928E-02 0. -1.
    10030    2    1    2    0    0  0.00000000000E+00  0.00000000000E+00 -0.18900542583E+03  0.23884055982E+04  0.23809154228E+04 0.  0.
        1    1    3    3  502    0 -0.21864120768E+03  0.85854330069E+03 -0.89217025502E+03  0.12573258690E+04  0.50400001928E-02 0. -1.
       -1    1    3    3    0  502  0.21864120768E+03 -0.85854330069E+03  0.70316482920E+03  0.11310797292E+04  0.50400001928E-02 0.  1.
</event>
<event>
 5   0  0.3838525E-06  0.2330100E+04  0.7818609E-02  0.8466147E-01
        1   -1    0    0  501    0  0.00000000000E+00  0.00000000000E+00  0.12006563909E+04  0.12006563909E+04  0.50400001928E-02 0.  1.
       -1   -1    0    0    0  501  0.00000000000E+00  0.00000000000E+00 -0.11304994516E+04  0.11304994516E+04  0.50400001928E-02 0. -1.
    10030    2    1    2    0    0  0.00000000000E+00  0.00000000000E+00  0.70156939337E+02  0.23311558425E+04  0.23300999047E+04 0.  0.
        3    1    3    3  502    0 -0.28381288675E+03 -0.10353483574E+04 -0.41772513931E+03  0.11519506404E+04  0.10100000352E+00 0. -1.
       -3    1    3    3    0  502  0.28381288675E+03  0.10353483574E+04  0.48788207865E+03  0.11792052021E+04  0.10100000352E+00 0.  1.
</event>
<event>
 5   0  0.3807334E-06  0.3180781E+04  0.7818609E-02  0.8193911E-01
        1   -1    0    0  501    0  0.00000000000E+00  0.00000000000E+00  0.16405292560E+04  0.16405292560E+04  0.50400001928E-02 0. -1.
       -1   -1    0    0    0  501  0.00000000000E+00  0.00000000000E+00 -0.15417842539E+04  0.15417842539E+04  0.50400001928E-02 0.  1.
    10030    2    1    2    0    0  0.00000000000E+00  0.00000000000E+00  0.98745002088E+02  0.31823135099E+04  0.31807811462E+04 0.  0.
        4    1    3    3  502    0 -0.54315576004E+03 -0.98622841797E+03  0.11731571002E+04  0.16260270191E+04  0.12699999809E+01 0. -1.
       -4    1    3    3    0  502  0.54315576004E+03  0.98622841797E+03 -0.10744120981E+04  0.15562864908E+04  0.12699999809E+01 0.  1.
</event>
<event>
 5   0  0.1007567E-05  0.2798628E+04  0.7818609E-02  0.8303695E-01
       -2   -1    0    0    0  501  0.00000000000E+00  0.00000000000E+00  0.13205159432E+04  0.13205159432E+04  0.25500000920E-02 0. -1.
        2   -1    0    0  501    0  0.00000000000E+00  0.00000000000E+00 -0.14828138793E+04  0.14828138793E+04  0.25500000920E-02 0.  1.
    10030    2    1    2    0    0  0.00000000000E+00  0.00000000000E+00 -0.16229793611E+03  0.28033298225E+04  0.27986277840E+04 0.  0.
        3    1    3    3  502    0 -0.13161754012E+04 -0.23689643911E+03 -0.49371685986E+03  0.14255504051E+04  0.10100000352E+00 0.  1.
       -3    1    3    3    0  502  0.13161754012E+04  0.23689643911E+03  0.33141892375E+03  0.13777794174E+04  0.10100000352E+00 0. -1.
</event>
<event>
 5   0  0.3848286E-06  0.3203651E+04  0.7818609E-02  0.8187854E-01
       -1   -1    0    0    0  501  0.00000000000E+00  0.00000000000E+00  0.16185018179E+04  0.16185018179E+04  0.50400001928E-02 0. -1.
        1   -1    0    0  501    0  0.00000000000E+00  0.00000000000E+00 -0.15853211630E+04  0.15853211630E+04  0.50400001928E-02 0.  1.
    10030    2    1    2    0    0  0.00000000000E+00  0.00000000000E+00  0.33180654930E+02  0.32038229809E+04  0.32036511573E+04 0.  0.
        2    1    3    3  502    0  0.16082004959E+03 -0.11664464259E+04  0.11026434313E+04  0.16131592883E+04  0.25500000920E-02 0. -1.
       -2    1    3    3    0  502 -0.16082004959E+03  0.11664464259E+04 -0.10694627764E+04  0.15906636926E+04  0.25500000920E-02 0.  1.
</event>
<event>
 5   0  0.3838525E-06  0.3098057E+04  0.7818609E-02  0.8216271E-01
        1   -1    0    0  501    0  0.00000000000E+00  0.00000000000E+00  0.17387518351E+04  0.17387518351E+04  0.50400001928E-02 0. -1.
       -1   -1    0    0    0  501  0.00000000000E+00  0.00000000000E+00 -0.13800066897E+04  0.13800066898E+04  0.50400001928E-02 0.  1.
    10030    2    1    2    0    0  0.00000000000E+00  0.00000000000E+00  0.35874514532E+03  0.31187585248E+04  0.30980569163E+04 0.  0.
        3    1    3    3  502    0 -0.41287840158E+03  0.14138188569E+03 -0.13168401249E+04  0.13872726253E+04  0.10100000352E+00 0.  1.
       -3    1    3    3    0  502  0.41287840158E+03 -0.14138188569E+03  0.16755852703E+04  0.17314858995E+04  0.10100000352E+00 0. -1.
</event>
<event>
 5   0  0.3848286E-06  0.3161102E+04  0.7818609E-02  0.8199166E-01
       -1   -1    0    0    0  501  0.00000000000E+00  0.00000000000E+00  0.29542532386E+04  0.29542532386E+04  0.50400001928E-02 0. -1.
        1   -1    0    0  501    0  0.00000000000E+00  0.00000000000E+00 -0.84560865060E+03  0.84560865061E+03  0.50400001928E-02 0.  1.
    10030    2    1    2    0    0  0.00000000000E+00  0.00000000000E+00  0.21086445880E+04  0.37998618892E+04  0.31611023993E+04 0.  0.
        2    1    3    3  502    0  0.80630798908E+02 -0.96823033221E+03  0.25528977628E+04  0.27315303933E+04  0.25500000920E-02 0. -1.
       -2    1    3    3    0  502 -0.80630798908E+02  0.96823033221E+03 -0.44425317480E+03  0.10683314960E+04  0.25500000920E-02 0.  1.
</event>
<event>
 5   0  0.9797278E-06  0.2103635E+04  0.7818609E-02  0.8559644E-01
       -2   -1    0    0    0  501  0.00000000000E+00  0.00000000000E+00  0.75064276048E+03  0.75064276048E+03  0.25500000920E-02 0.  1.
        2   -1    0    0  501    0  0.00000000000E+00  0.00000000000E+00 -0.14738300758E+04  0.14738300758E+04  0.25500000920E-02 0. -1.
    10030    2    1    2    0    0  0.00000000000E+00  0.00000000000E+00 -0.72318731535E+03  0.22244728363E+04  0.21036348320E+04 0.  0.
        1    1    3    3  502    0 -0.44965771454E+03  0.83056173420E+03  0.12791772494E+03  0.95309380385E+03  0.50400001928E-02 0. -1.
       -1    1    3    3    0  502  0.44965771454E+03 -0.83056173420E+03 -0.85110504030E+03  0.12713790325E+04  0.50400001928E-02 0.  1.
</event>
<event>
 5   0  0.4250961E-06  0.2920469E+04  0.7818609E-02  0.8266813E-01
        1   -1    0    0  501    0  0.00000000000E+00  0.00000000000E+00  0.19859198009E+04  0.19859198009E+04  0.50400001928E-02 0.  1.
       -1   -1    0    0    0  501  0.00000000000E+00  0.00000000000E+00 -0.10737016622E+04  0.10737016623E+04  0.50400001928E-02 0. -1.
    10030    2    1    2    0    0  0.00000000000E+00  0.00000000000E+00  0.91221813866E+03  0.30596214632E+04  0.29204694084E+04 0.  0.
        1    1    3    3  502    0 -0.29205552914E+03 -0.43282889944E+03  0.18847741279E+04  0.19557634830E+04  0.50400001928E-02 0.  1.
       -1    1    3    3    0  502  0.29205552914E+03  0.43282889944E+03 -0.97255598919E+03  0.11038579802E+04  0.50400001928E-02 0. -1.
</event>
<event>
 5   0  0.1119100E-05  0.3148790E+04  0.7818609E-02  0.8202474E-01
       -2   -1    0    0    0  501  0.00000000000E+00  0.00000000000E+00  0.14265770923E+04  0.14265770923E+04  0.25500000920E-02 0. -1.
        2   -1    0    0  501    0  0.00000000000E+00  0.00000000000E+00 -0.17375290627E+04  0.17375290627E+04  0.25500000920E-02 0.  1.
    10030    2    1    2    0    0  0.00000000000E+00  0.00000000000E+00 -0.31095197042E+03  0.31641061551E+04  0.31487897092E+04 0.  0.
        2    1    3    3  502    0 -0.93176354455E+03  0.62790366651E+03  0.95273612760E+03  0.14731437290E+04  0.25500000920E-02 0. -1.
       -2    1    3    3    0  502  0.93176354455E+03 -0.62790366651E+03 -0.12636880980E+04  0.16909624261E+04  0.25500000920E-02 0.  1.
</event>
<event>
 5   0  0.4139628E-06  0.2651753E+04  0.7818609E-02  0.8350831E-01
       -1   -1    0    0    0  501  0.00000000000E+00  0.00000000000E+00  0.15054527071E+04  0.15054527071E+04  0.50400001928E-02 0. -1.
        1   -1    0    0  501    0  0.00000000000E+00  0.00000000000E+00 -0.11677212313E+04  0.11677212313E+04  0.50400001928E-02 0.  1.
    10030    2    1    2    0    0  0.00000000000E+00  0.00000000000E+00  0.33773147583E+03  0.26731739384E+04  0.26517534492E+04 0.  0.
        5    1    3    3  502    0 -0.10195130135E+04 -0.84127279314E+03  0.64198797307E+02  0.13233632430E+04  0.46999998093E+01 0. -1.
       -5    1    3    3    0  502  0.10195130135E+04  0.84127279314E+03  0.27353267852E+03  0.13498106954E+04  0.46999998093E+01 0.  1.
</event>
<event>
 5   0  0.3807334E-06  0.3151426E+04  0.7818609E-02  0.8201764E-01
        1   -1    0    0  501    0  0.00000000000E+00  0.00000000000E+00  0.16350619374E+04  0.16350619374E+04  0.50400001928E-02 0. -1.
       -1   -1    0    0    0  501  0.00000000000E+00  0.00000000000E+00 -0.15185187313E+04  0.15185187313E+04  0.50400001928E-02 0.  1.
    10030    2    1    2    0    0  0.00000000000E+00  0.00000000000E+00  0.11654320613E+03  0.31535806687E+04  0.31514264572E+04 0.  0.
        4    1    3    3  502    0  0.13553757611E+04  0.54024964105E+03  0.65362150885E+03  0.15987919871E+04  0.12699999809E+01 0. -1.
       -4    1    3    3    0  502 -0.13553757611E+04 -0.54024964105E+03 -0.53707830272E+03  0.15547886816E+04  0.12699999809E+01 0.  1.
</event>
<event>
 5   0  0.3838525E-06  0.3043964E+04  0.7818609E-02  0.8231287E-01
        1   -1    0    0  501    0  0.00000000000E+00  0.00000000000E+00  0.14298733722E+04  0.14298733722E+04  0.50400001928E-02 0.  1.
       -1   -1    0    0    0  501  0.00000000000E+00  0.00000000000E+00 -0.16200237166E+04  0.16200237166E+04  0.50400001928E-02 0. -1.
    10030    2    1    2    0    0  0.00000000000E+00  0.00000000000E+00 -0.19015034440E+03  0.30498970888E+04  0.30439637150E+04 0.  0.
        3    1    3    3  502    0 -0.92586549863E+03 -0.45531111707E+02  0.11143936550E+04  0.14495424217E+04  0.10100000352E+00 0.  1.
       -3    1    3    3    0  502  0.92586549863E+03  0.45531111707E+02 -0.13045439994E+04  0.16003546671E+04  0.10100000352E+00 0. -1.
</event>
<event>
 5   0  0.1007567E-05  0.2834977E+04  0.7818609E-02  0.8292491E-01
        2   -1    0    0  501    0  0.00000000000E+00  0.00000000000E+00  0.15253012687E+04  0.15253012687E+04  0.25500000920E-02 0.  1.
       -2   -1    0    0    0  501  0.00000000000E+00  0.00000000000E+00 -0.13172960408E+04  0.13172960408E+04  0.25500000920E-02 0. -1.
    10030    2    1    2    0    0  0.00000000000E+00  0.00000000000E+00  0.20800522790E+03  0.28425973095E+04  0.28349767705E+04 0.  0.
        3    1    3    3  502    0 -0.12133963737E+04 -0.66164420284E+02 -0.62772942995E+03  0.13677546336E+04  0.10100000352E+00 0. -1.
       -3    1    3    3    0  502  0.12133963737E+04  0.66164420284E+02  0.83573465786E+03  0.14748426759E+04  0.10100000352E+00 0.  1.
</event>
<event>
 5   0  0.1108153E-05  0.2550340E+04  0.7818609E-02  0.8385268E-01
       -2   -1    0    0    0  501  0.00000000000E+00  0.00000000000E+00  0.10509082307E+04  0.10509082307E+04  0.25500000920E-02 0.  1.
        2   -1    0    0  501    0  0.00000000000E+00  0.00000000000E+00 -0.15472889220E+04  0.15472889220E+04  0.25500000920E-02 0. -1.
    10030    2    1    2    0    0  0.00000000000E+00  0.00000000000E+00 -0.49638069133E+03  0.25981971527E+04  0.25503401055E+04 0.  0.
        4    1    3    3  502    0 -0.10310428597E+04  0.33439533103E+03  0.43611904556E+03  0.11683625511E+04  0.12699999809E+01 0.  1.
       -4    1    3    3    0  502  0.10310428597E+04 -0.33439533103E+03 -0.93249973688E+03  0.14298346017E+04  0.12699999809E+01 0. -1.
</event>
<event>
 5   0  0.3807334E-06  0.3025111E+04  0.7818609E-02  0.8236596E-01
       -1   -1    0    0    0  501  0.00000000000E+00  0.00000000000E+00  0.10953113263E+04  0.10953113263E+04  0.50400001928E-02 0. -1.
        1   -1    0    0  501    0  0.00000000000E+00  0.00000000000E+00 -0.20887432875E+04  0.20887432875E+04  0.50400001928E-02 0.  1.
    10030    2    1    2    0    0  0.00000000000E+00  0.00000000000E+00 -0.99343196117E+03  0.31840546138E+04  0.30251110265E+04 0.  0.
        4    1    3    3  502    0 -0.13866734679E+04 -0.59652087252E+03 -0.59724393223E+03  0.16233922464E+04  0.12699999809E+01 0. -1.
       -4    1    3    3    0  502  0.13866734679E+04  0.59652087252E+03 -0.39618802895E+03  0.15606623675E+04  0.12699999809E+01 0.  1.
</event>
<event>
 5   0  0.4139628E-06  0.2933012E+04  0.7818609E-02  0.8263123E-01
       -1   -1    0    0    0  501  0.00000000000E+00  0.00000000000E+00  0.10174019733E+04  0.10174019733E+04  0.50400001928E-02 0. -1.
        1   -1    0    0  501    0  0.00000000000E+00  0.00000000000E+00 -0.21138542851E+04  0.21138542851E+04  0.50400001928E-02 0.  1.
    10030    2    1    2    0    0  0.00000000000E+00  0.00000000000E+00 -0.10964523118E+04  0.31312562584E+04  0.29330117770E+04 0.  0.
        5    1    3    3  502    0 -0.10361288639E+04 -0.86198258475E+03  0.68801063322E+02  0.13495675883E+04  0.46999998093E+01 0.  1.
       -5    1    3    3    0  502  0.10361288639E+04  0.86198258475E+03 -0.11652533751E+04  0.17816886701E+04  0.46999998093E+01 0. -1.
</event>
<event>
 5   0  0.1007567E-05  0.3035016E+04  0.7818609E-02  0.8233802E-01
        2   -1    0    0  501    0  0.00000000000E+00  0.00000000000E+00  0.19161316305E+04  0.19161316305E+04  0.25500000920E-02 0. -1.
       -2   -1    0    0    0  501  0.00000000000E+00  0.00000000000E+00 -0.12018126589E+04  0.12018126589E+04  0.25500000920E-02 0.  1.
    10030    2    1    2    0    0  0.00000000000E+00  0.00000000000E+00  0.71431897153E+03  0.31179442894E+04  0.30350164742E+04 0.  0.
        3    1    3    3  502    0  0.69792666843E+03  0.44217724630E+03 -0.95049438407E+03  0.12593895092E+04  0.10100000352E+00 0.  1.
       -3    1    3    3    0  502 -0.69792666843E+03 -0.44217724630E+03  0.16648133556E+04  0.18585547802E+04  0.10100000352E+00 0. -1.
</event>
<event>
 5   0  0.3807334E-06  0.1527154E+04  0.7818609E-02  0.8866594E-01
       -1   -1    0    0    0  501  0.00000000000E+00  0.00000000000E+00  0.53008062410E+03  0.53008062413E+03  0.50400001928E-02 0.  1.
        1   -1    0    0  501    0  0.00000000000E+00  0.00000000000E+00 -0.10999269454E+04  0.10999269454E+04  0.50400001928E-02 0. -1.
    10030    2    1    2    0    0  0.00000000000E+00  0.00000000000E+00 -0.56984632132E+03  0.16300075696E+04  0.15271541661E+04 0.  0.
        4    1    3    3  502    0  0.11709632032E+03 -0.72526369762E+03 -0.50709956031E+03  0.89267606458E+03  0.12699999809E+01 0. -1.
       -4    1    3    3    0  502 -0.11709632032E+03  0.72526369762E+03 -0.62746761019E+02  0.73733150498E+03  0.12699999809E+01 0.  1.
</event>
<event>
 5   0  0.1007567E-05  0.3073086E+04  0.7818609E-02  0.8223163E-01
       -2   -1    0    0    0  501  0.00000000000E+00  0.00000000000E+00  0.11642351947E+04  0.11642351947E+04  0.25500000920E-02 0. -1.
        2   -1    0    0  501    0  0.00000000000E+00  0.00000000000E+00 -0.20279099786E+04  0.20279099786E+04  0.25500000920E-02 0.  1.
    10030    2    1    2    0    0  0.00000000000E+00  0.00000000000E+00 -0.86367478389E+03  0.31921451732E+04  0.30730858554E+04 0.  0.
        3    1    3    3  502    0  0.88224566265E+02 -0.65974106021E+03 -0.18703823753E+04  0.19852889161E+04  0.10100000352E+00 0.  1.
       -3    1    3    3    0  502 -0.88224566265E+02  0.65974106021E+03  0.10067075914E+04  0.12068562571E+04  0.10100000352E+00 0. -1.
</event>
<event>
 5   0  0.4139628E-06  0.3098678E+04  0.7818609E-02  0.8216101E-01
        1   -1    0    0  501    0  0.00000000000E+00  0.00000000000E+00  0.17450607400E+04  0.17450607400E+04  0.50400001928E-02 0. -1.
       -1   -1    0    0    0  501  0.00000000000E+00  0.00000000000E+00 -0.13755692076E+04  0.13755692076E+04  0.50400001928E-02 0.  1.
    10030    2    1    2    0    0  0.00000000000E+00  0.00000000000E+00  0.36949153242E+03  0.31206299476E+04  0.30986783114E+04 0.  0.
        5    1    3    3  502    0 -0.36986259982E+03  0.75711801026E+03 -0.11246200470E+04  0.14052823077E+04  0.46999998093E+01 0.  1.
       -5    1    3    3    0  502  0.36986259982E+03 -0.75711801026E+03  0.14941115794E+04  0.17153476399E+04  0.46999998093E+01 0. -1.
</event>
<event>
 5   0  0.3848286E-06  0.3080400E+04  0.7818609E-02  0.8221138E-01
        1   -1    0    0  501    0  0.00000000000E+00  0.00000000000E+00  0.19785300884E+04  0.19785300884E+04  0.50400001928E-02 0.  1.
       -1   -1    0    0    0  501  0.00000000000E+00  0.00000000000E+00 -0.11989793046E+04  0.11989793046E+04  0.50400001928E-02 0. -1.
    10030    2    1    2    0    0  0.00000000000E+00  0.00000000000E+00  0.77955078382E+03  0.31775093930E+04  0.30804003827E+04 0.  0.
        2    1    3    3  502    0  0.17383982755E+03  0.13763040171E+04 -0.30048628854E+03  0.14194101038E+04  0.25500000920E-02 0. -1.
       -2    1    3    3    0  502 -0.17383982755E+03 -0.13763040171E+04  0.10800370724E+04  0.17580992892E+04  0.25500000920E-02 0.  1.
</event>
<event>
 5   0  0.1001961E-05  0.3131726E+04  0.7818609E-02  0.8207085E-01
       -2   -1    0    0    0  501  0.00000000000E+00  0.00000000000E+00  0.28069527334E+04  0.28069527334E+04  0.25500000920E-02 0.  1.
        2   -1    0    0  501    0  0.00000000000E+00  0.00000000000E+00 -0.87351887550E+03  0.87351887550E+03  0.25500000920E-02 0. -1.
    10030    2    1    2    0    0  0.00000000000E+00  0.00000000000E+00  0.19334338579E+04  0.36804716089E+04  0.31317255277E+04 0.  0.
        5    1    3    3  502    0 -0.11154277805E+04  0.21234058425E+03 -0.30047309842E+03  0.11745526085E+04  0.46999998093E+01 0. -1.
       -5    1    3    3    0  502  0.11154277805E+04 -0.21234058425E+03  0.22339069563E+04  0.25059190004E+04  0.46999998093E+01 0.  1.
</event>
<event>
 5   0  0.4250961E-06  0.2748910E+04  0.7818609E-02  0.8319308E-01
       -1   -1    0    0    0  501  0.00000000000E+00  0.00000000000E+00  0.96609912923E+03  0.96609912924E+03  0.50400001928E-02 0.  1.
        1   -1    0    0  501    0  0.00000000000E+00  0.00000000000E+00 -0.19554164675E+04  0.19554164675E+04  0.50400001928E-02 0. -1.
    10030    2    1    2    0    0  0.00000000000E+00  0.00000000000E+00 -0.98931733831E+03  0.29215155968E+04  0.27489097087E+04 0.  0.
        1    1    3    3  502    0  0.11551456976E+04  0.68402148128E+03 -0.80791913046E+03  0.15668376722E+04  0.50400001928E-02 0. -1.
       -1    1    3    3    0  502 -0.11551456976E+04 -0.68402148128E+03 -0.18139820786E+03  0.13546779246E+04  0.50400001928E-02 0.  1.
</event>
<event>
 5   0  0.4250961E-06  0.1708033E+04  0.7818609E-02  0.8756796E-01
        1   -1    0    0  501    0  0.00000000000E+00  0.00000000000E+00  0.48855543737E+03  0.48855543740E+03  0.50400001928E-02 0.  1.
       -1   -1    0    0    0  501  0.00000000000E+00  0.00000000000E+00 -0.14928594320E+04  0.14928594320E+04  0.50400001928E-02 0. -1.
    10030    2    1    2    0    0  0.00000000000E+00  0.00000000000E+00 -0.10043039946E+04  0.19814148694E+04  0.17080334807E+04 0.  0.
        1    1    3    3  502    0 -0.28083274843E+03 -0.67144476560E+03  0.16173127430E+02  0.72798810150E+03  0.50400001928E-02 0.  1.
       -1    1    3    3    0  502  0.28083274843E+03  0.67144476560E+03 -0.10204771221E+04  0.12534267679E+04  0.50400001928E-02 0. -1.
</event>
<event>
 5   0  0.1007567E-05  0.3077714E+04  0.7818609E-02  0.8221881E-01
       -2   -1    0    0    0  501  0.00000000000E+00  0.00000000000E+00  0.15082982442E+04  0.15082982442E+04  0.25500000920E-02 0.  1.
        2   -1    0    0  501    0  0.00000000000E+00  0.00000000000E+00 -0.15700346925E+04  0.15700346925E+04  0.25500000920E-02 0. -1.
    10030    2    1    2    0    0  0.00000000000E+00  0.00000000000E+00 -0.61736448279E+02  0.30783329366E+04  0.30777138073E+04 0.  0.
        3    1    3    3  502    0 -0.14762967850E+04  0.37840612267E+03  0.18233461672E+03  0.15348906520E+04  0.10100000352E+00 0. -1.
       -3    1    3    3    0  502  0.14762967850E+04 -0.37840612267E+03 -0.24407106500E+03  0.15434422846E+04  0.10100000352E+00 0.  1.
</event>
<event>
 5   0  0.3807334E-06  0.3077012E+04  0.7818609E-02  0.8222075E-01
       -1   -1    0    0    0  501  0.00000000000E+00  0.00000000000E+00  0.10711467584E+04  0.10711467584E+04  0.50400001928E-02 0. -1.
        1   -1    0    0  501    0  0.00000000000E+00  0.00000000000E+00 -0.22097814825E+04  0.22097814825E+04  0.50400001928E-02 0.  1.
    10030    2    1    2    0    0  0.00000000000E+00  0.00000000000E+00 -0.11386347241E+04  0.32809282409E+04  0.30770117138E+04 0.  0.
        4    1    3    3  502    0 -0.69784992456E+03  0.77006027895E+03 -0.17789646712E+04  0.20602680080E+04  0.12699999809E+01 0.  1.
       -4    1    3    3    0  502  0.69784992456E+03 -0.77006027895E+03  0.64032994703E+03  0.12206602330E+04  0.12699999809E+01 0. -1.
</event>
<event>
 5   0  0.4250961E-06  0.2884864E+04  0.7818609E-02  0.8277395E-01
        1   -1    0    0  501    0  0.00000000000E+00  0.00000000000E+00  0.10694236816E+04  0.10694236816E+04  0.50400001928E-02 0. -1.
       -1   -1    0    0    0  501  0.00000000000E+00  0.00000000000E+00 -0.19455433316E+04  0.19455433316E+04  0.50400001928E-02 0.  1.
    10030    2    1    2    0    0  0.00000000000E+00  0.00000000000E+00 -0.87611965003E+03  0.30149670132E+04  0.28848640262E+04 0.  0.
        1    1    3    3  502    0  0.77586505241E+03  0.38713338742E+03 -0.16427693164E+04  0.18575601918E+04  0.50400001928E-02 0.  1.
       -1    1    3    3    0  502 -0.77586505241E+03 -0.38713338742E+03  0.76664966639E+03  0.11574068214E+04  0.50400001928E-02 0. -1.
</event>
<event>
 5   0  0.1001961E-05  0.2319037E+04  0.7818609E-02  0.8470453E-01
        2   -1    0    0  501    0  0.00000000000E+00  0.00000000000E+00  0.20244814237E+04  0.20244814237E+04  0.25500000920E-02 0.  1.
       -2   -1    0    0    0  501  0.00000000000E+00  0.00000000000E+00 -0.66411252193E+03  0.66411252193E+03  0.25500000920E-02 0. -1.
    10030    2    1    2    0    0  0.00000000000E+00  0.00000000000E+00  0.13603689018E+04  0.26885939456E+04  0.23190372691E+04 0.  0.
        5    1    3    3  502    0 -0.91930636491E+02  0.22458155164E+03  0.19947005311E+04  0.20094129526E+04  0.46999998093E+01 0.  1.
       -5    1    3    3    0  502  0.91930636491E+02 -0.22458155164E+03 -0.63433162936E+03  0.67918099301E+03  0.46999998093E+01 0. -1.
</event>
<event>
 5   0  0.4139628E-06  0.3134663E+04  0.7818609E-02  0.8206289E-01
        1   -1    0    0  501    0  0.00000000000E+00  0.00000000000E+00  0.10578928607E+04  0.10578928607E+04  0.50400001928E-02 0. -1.
       -1   -1    0    0    0  501  0.00000000000E+00  0.00000000000E+00 -0.23220954714E+04  0.23220954714E+04  0.50400001928E-02 0.  1.
    10030    2    1    2    0    0  0.00000000000E+00  0.00000000000E+00 -0.12642026107E+04  0.33799883321E+04  0.31346631213E+04 0.  0.
        5    1    3    3  502    0 -0.13050156723E+04 -0.66036442649E+03 -0.24666363490E+02  0.14627978672E+04  0.46999998093E+01 0. -1.
       -5    1    3    3    0  502  0.13050156723E+04  0.66036442649E+03 -0.12395362472E+04  0.19171904649E+04  0.46999998093E+01 0.  1.
</event>
<event>
 5   0  0.1007567E-05  0.2992279E+04  0.7818609E-02  0.8245939E-01
        2   -1    0    0  501    0  0.00000000000E+00  0.00000000000E+00  0.17195057759E+04  0.17195057759E+04  0.25500000920E-02 0. -1.
       -2   -1    0    0    0  501  0.00000000000E+00  0.00000000000E+00 -0.13017891220E+04  0.13017891220E+04  0.25500000920E-02 0.  1.
    10030    2    1    2    0    0  0.00000000000E+00  0.00000000000E+00  0.41771665385E+03  0.30212948979E+04  0.29922793415E+04 0.  0.
        3    1    3    3  502    0  0.11810057828E+04  0.63751018926E+03 -0.45879486201E+03  0.14183393938E+04  0.10100000352E+00 0.  1.
       -3    1    3    3    0  502 -0.11810057828E+04 -0.63751018926E+03  0.87651151586E+03  0.16029555041E+04  0.10100000352E+00 0. -1.
</event>
<event>
 5   0  0.3848286E-06  0.3110494E+04  0.7818609E-02  0.8212864E-01
       -1   -1    0    0    0  501  0.00000000000E+00  0.00000000000E+00  0.16702884407E+04  0.16702884407E+04  0.50400001928E-02 0.  1.
        1   -1    0    0  501    0  0.00000000000E+00  0.00000000000E+00 -0.14481287676E+04  0.14481287676E+04  0.50400001928E-02 0. -1.
    10030    2    1    2    0    0  0.00000000000E+00  0.00000000000E+00  0.22215967308E+03  0.31184172083E+04  0.31104936850E+04 0.  0.
        2    1    3    3  502    0 -0.32028429396E+03 -0.11119632978E+04  0.11528362101E+04  0.16334245412E+04  0.25500000920E-02 0.  1.
       -2    1    3    3    0  502  0.32028429396E+03  0.11119632978E+04 -0.93067653698E+03  0.14849926670E+04  0.25500000920E-02 0. -1.
</event>
<event>
 5   0  0.3807334E-06  0.2989381E+04  0.7818609E-02  0.8246770E-01
       -1   -1    0    0    0  501  0.00000000000E+00  0.00000000000E+00  0.10067540036E+04  0.10067540036E+04  0.50400001928E-02 0.  1.
        1   -1    0    0  501    0  0.00000000000E+00  0.00000000000E+00 -0.22191114570E+04  0.22191114570E+04  0.50400001928E-02 0. -1.
    10030    2    1    2    0    0  0.00000000000E+00  0.00000000000E+00 -0.12123574534E+04  0.32258654607E+04  0.29893807679E+04 0.  0.
        4    1    3    3  502    0  0.22891747291E+03 -0.14218193056E+04 -0.10379897753E+04  0.17752176581E+04  0.12699999809E+01 0.  1.
       -4    1    3    3    0  502 -0.22891747291E+03  0.14218193056E+04 -0.17436767806E+03  0.14506478026E+04  0.12699999809E+01 0. -1.
</event>
<event>
 5   0  0.4250961E-06  0.3286801E+04  0.7818609E-02  0.8166262E-01
        1   -1    0    0  501    0  0.00000000000E+00  0.00000000000E+00  0.91464751216E+03  0.91464751218E+03  0.50400001928E-02 0. -1.
       -1   -1    0    0    0  501  0.00000000000E+00  0.00000000000E+00 -0.29527937278E+04  0.29527937278E+04  0.50400001928E-02 0.  1.
    10030    2    1    2    0    0  0.00000000000E+00  0.00000000000E+00 -0.20381462156E+04  0.38674412400E+04  0.32868011422E+04 0.  0.
        1    1    3    3  502    0 -0.40965894111E+03  0.60380697897E+03  0.71359826785E+03  0.10206007073E+04  0.50400001928E-02 0. -1.
       -1    1    3    3    0  502  0.40965894111E+03 -0.60380697897E+03 -0.27517444835E+04  0.28468405326E+04  0.50400001928E-02 0.  1.
</event>
<event>
 5   0  0.3807334E-06  0.3064203E+04  0.7818609E-02  0.8225631E-01
        1   -1    0    0  501    0  0.00000000000E+00  0.00000000000E+00  0.24028230529E+04  0.24028230529E+04  0.50400001928E-02 0.  1.
       -1   -1    0    0    0  501  0.00000000000E+00  0.00000000000E+00 -0.97690714508E+03  0.97690714509E+03  0.50400001928E-02 0. -1.
    10030    2    1    2    0    0  0.00000000000E+00  0.00000000000E+00  0.14259159078E+04  0.33797301980E+04  0.30642030016E+04 0.  0.
        4    1    3    3  502    0 -0.89699625702E+03  0.48245769310E+03  0.19753506065E+04  0.22224714491E+04  0.12699999809E+01 0.  1.
       -4    1    3    3    0  502  0.89699625702E+03 -0.48245769310E+03 -0.54943469869E+03  0.11572587488E+04  0.12699999809E+01 0. -1.
</event>
<event>
 5   0  0.1119100E-05  0.2970409E+04  0.7818609E-02  0.8252231E-01
        2   -1    0    0  501    0  0.00000000000E+00  0.00000000000E+00  0.12060662692E+04  0.12060662692E+04  0.25500000920E-02 0. -1.
       -2   -1    0    0    0  501  0.00000000000E+00  0.00000000000E+00 -0.18289483869E+04  0.18289483869E+04  0.25500000920E-02 0.  1.
    10030    2    1    2    0    0  0.00000000000E+00  0.00000000000E+00 -0.62288211771E+03  0.30350146561E+04  0.29704093708E+04 0.  0.
        2    1    3    3  502    0  0.12556367700E+04 -0.56314497347E+02  0.49699339136E+03  0.13515907117E+04  0.25500000920E-02 0. -1.
       -2    1    3    3    0  502 -0.12556367700E+04  0.56314497347E+02 -0.11198755091E+04  0.16834239444E+04  0.25500000920E-02 0.  1.
</event>
<event>
 5   0  0.9797278E-06  0.3062300E+04  0.7818609E-02  0.8226161E-01
        2   -1    0    0  501    0  0.00000000000E+00  0.00000000000E+00  0.23715958378E+04  0.23715958378E+04  0.25500000920E-02 0. -1.
       -2   -1    0    0    0  501  0.00000000000E+00  0.00000000000E+00 -0.98854139460E+03  0.98854139460E+03  0.25500000920E-02 0.  1.
    10030    2    1    2    0    0  0.00000000000E+00  0.00000000000E+00  0.13830544432E+04  0.33601372324E+04  0.30623002184E+04 0.  0.
        1    1    3    3  502    0  0.10710539357E+04 -0.46224703558E+03  0.17797472124E+04  0.21279870759E+04  0.50400001928E-02 0. -1.
       -1    1    3    3    0  502 -0.10710539357E+04  0.46224703558E+03 -0.39669276915E+03  0.12321501565E+04  0.50400001928E-02 0.  1.
</event>
<event>
 5   0  0.1007567E-05  0.3147170E+04  0.7818609E-02  0.8202910E-01
       -2   -1    0    0    0  501  0.00000000000E+00  0.00000000000E+00  0.11460059156E+04  0.11460059156E+04  0.25500000920E-02 0. -1.
        2   -1    0    0  501    0  0.00000000000E+00  0.00000000000E+00 -0.21606953303E+04  0.21606953303E+04  0.25500000920E-02 0.  1.
    10030    2    1    2    0    0  0.00000000000E+00  0.00000000000E+00 -0.10146894147E+04  0.33067012459E+04  0.31471699226E+04 0.  0.
        3    1    3    3  502    0 -0.77399804290E+03 -0.12625925153E+04 -0.10662456307E+04  0.18248541271E+04  0.10100000352E+00 0.  1.
       -3    1    3    3    0  502  0.77399804290E+03  0.12625925153E+04  0.51556215987E+02  0.14818471189E+04  0.10100000352E+00 0. -1.
</event>
<event>
 5   0  0.9797278E-06  0.3212540E+04  0.7818609E-02  0.8185513E-01
       -2   -1    0    0    0  501  0.00000000000E+00  0.00000000000E+00  0.18687672390E+04  0.18687672390E+04  0.25500000920E-02 0. -1.
        2   -1    0    0  501    0  0.00000000000E+00  0.00000000000E+00 -0.13806445663E+04  0.13806445663E+04  0.25500000920E-02 0.  1.
    10030    2    1    2    0    0  0.00000000000E+00  0.00000000000E+00  0.48812267271E+03  0.32494118052E+04  0.32125400132E+04 0.  0.
        1    1    3    3  502    0 -0.11403627125E+04  0.23027171501E+03 -0.87619328557E+03  0.14564226215E+04  0.50400001928E-02 0.  1.
       -1    1    3    3    0  502  0.11403627125E+04 -0.23027171501E+03  0.13643159583E+04  0.17929891837E+04  0.50400001928E-02 0. -1.
</event>
<event>
 5   0  0.1108153E-05  0.3078881E+04  0.7818609E-02  0.8221558E-01
       -2   -1    0    0    0  501  0.00000000000E+00  0.00000000000E+00  0.18825872028E+04  0.18825872028E+04  0.25500000920E-02 0. -1.
        2   -1    0    0  501    0  0.00000000000E+00  0.00000000000E+00 -0.12588401376E+04  0.12588401376E+04  0.25500000920E-02 0.  1.
    10030    2    1    2    0    0  0.00000000000E+00  0.00000000000E+00  0.62374706525E+03  0.31414273404E+04  0.30788805325E+04 0.  0.
        4    1    3    3  502    0 -0.89264019781E+03 -0.23862648808E+03 -0.94445080069E+03  0.13212638084E+04  0.12699999809E+01 0.  1.
       -4    1    3    3    0  502  0.89264019781E+03  0.23862648808E+03  0.15681978659E+04  0.18201635320E+04  0.12699999809E+01 0. -1.
</event>
<event>
 5   0  0.3838525E-06  0.2748593E+04  0.7818609E-02  0.8319408E-01
       -1   -1    0    0    0  501  0.00000000000E+00  0.00000000000E+00  0.89677511277E+03  0.89677511278E+03  0.50400001928E-02 0.  1.
        1   -1    0    0  501    0  0.00000000000E+00  0.00000000000E+00 -0.21060927195E+04  0.21060927195E+04  0.50400001928E-02 0. -1.
    10030    2    1    2    0    0  0.00000000000E+00  0.00000000000E+00 -0.12093176068E+04  0.30028678323E+04  0.27485934847E+04 0.  0.
        3    1    3    3  502    0 -0.86103467088E+03 -0.68189495673E+03 -0.15071084237E+04  0.18648692307E+04  0.10100000352E+00 0.  1.
       -3    1    3    3    0  502  0.86103467088E+03  0.68189495673E+03  0.29779081696E+03  0.11379986016E+04  0.10100000352E+00 0. -1.
</event>
<event>
 5   0  0.4250961E-06  0.3129958E+04  0.7818609E-02  0.8207564E-01
       -1   -1    0    0    0  501  0.00000000000E+00  0.00000000000E+00  0.12058011421E+04  0.12058011421E+04  0.50400001928E-02 0. -1.
        1   -1    0    0  501    0  0.00000000000E+00  0.00000000000E+00 -0.20311463932E+04  0.20311463932E+04  0.50400001928E-02 0.  1.
    10030    2    1    2    0    0  0.00000000000E+00  0.00000000000E+00 -0.82534525113E+03  0.32369475354E+04  0.31299575977E+04 0.  0.
        1    1    3    3  502    0  0.11078995498E+04 -0.72545767002E+03  0.44975650361E+03  0.13985746873E+04  0.50400001928E-02 0. -1.
       -1    1    3    3    0  502 -0.11078995498E+04  0.72545767002E+03 -0.12751017547E+04  0.18383728480E+04  0.50400001928E-02 0.  1.
</event>
<event>
 5   0  0.4139628E-06  0.3081076E+04  0.7818609E-02  0.8220951E-01
       -1   -1    0    0    0  501  0.00000000000E+00  0.00000000000E+00  0.11710807354E+04  0.11710807354E+04  0.50400001928E-02 0.  1.
        1   -1    0    0  501    0  0.00000000000E+00  0.00000000000E+00 -0.20265530780E+04  0.20265530781E+04  0.50400001928E-02 0. -1.
    10030    2    1    2    0    0  0.00000000000E+00  0.00000000000E+00 -0.85547234267E+03  0.31976338134E+04  0.30810759607E+04 0.  0.
        5    1    3    3  502    0  0.12283047537E+04 -0.75100590131E+03  0.14117350339E+03  0.14466148346E+04  0.46999998093E+01 0.  1.
       -5    1    3    3    0  502 -0.12283047537E+04  0.75100590131E+03 -0.99664584606E+03  0.17510189788E+04  0.46999998093E+01 0. -1.
</event>
<event>
 5   0  0.4250961E-06  0.2906836E+04  0.7818609E-02  0.8270846E-01
       -1   -1    0    0    0  501  0.00000000000E+00  0.00000000000E+00  0.73439430485E+03  0.73439430487E+03  0.50400001928E-02 0.  1.
        1   -1    0    0  501    0  0.00000000000E+00  0.00000000000E+00 -0.28764165624E+04  0.28764165624E+04  0.50400001928E-02 0. -1.
    10030    2    1    2    0    0  0.00000000000E+00  0.00000000000E+00 -0.21420222576E+04  0.36108108673E+04  0.29068360407E+04 0.  0.
        1    1    3    3  502    0 -0.40447238963E+03 -0.78695638519E+03 -0.25033064362E+04  0.26550784131E+04  0.50400001928E-02 0. -1.
       -1    1    3    3    0  502  0.40447238963E+03  0.78695638519E+03  0.36128417867E+03  0.95573245417E+03  0.50400001928E-02 0.  1.
</event>
<event>
 5   0  0.3807334E-06  0.2587539E+04  0.7818609E-02  0.8372446E-01
       -1   -1    0    0    0  501  0.00000000000E+00  0.00000000000E+00  0.11318029158E+04  0.11318029158E+04  0.50400001928E-02 0. -1.
        1   -1    0    0  501    0  0.00000000000E+00  0.00000000000E+00 -0.14789138430E+04  0.14789138430E+04  0.50400001928E-02 0.  1.
    10030    2    1    2    0    0  0.00000000000E+00  0.00000000000E+00 -0.34711092714E+03  0.26107167588E+04  0.25875385986E+04 0.  0.
        4    1    3    3  502    0  0.97625156410E+03  0.37725786211E+03  0.59381419339E+03  0.12033318412E+04  0.12699999809E+01 0. -1.
       -4    1    3    3    0  502 -0.97625156410E+03 -0.37725786211E+03 -0.94092512053E+03  0.14073849176E+04  0.12699999809E+01 0.  1.
</event>
<event>
 5   0  0.3838525E-06  0.3221690E+04  0.7818609E-02  0.8183112E-01
        1   -1    0    0  501    0  0.00000000000E+00  0.00000000000E+00  0.12652835563E+04  0.12652835563E+04  0.50400001928E-02 0. -1.
       -1   -1    0    0    0  501  0.00000000000E+00  0.00000000000E+00 -0.20507830173E+04  0.20507830173E+04  0.50400001928E-02 0.  1.
    10030    2    1    2    0    0  0.00000000000E+00  0.00000000000E+00 -0.78549946098E+03  0.33160665736E+04  0.32216902578E+04 0.  0.
        3    1    3    3  502    0  0.46395748260E+03  0.17917318052E+03  0.11842760158E+04  0.12844723687E+04  0.10100000352E+00 0. -1.
       -3    1    3    3    0  502 -0.46395748260E+03 -0.17917318052E+03 -0.19697754768E+04  0.20315942049E+04  0.10100000352E+00 0.  1.
</event>
<event>
 5   0  0.1108153E-05  0.3038578E+04  0.7818609E-02  0.8232800E-01
        2   -1    0    0  501    0  0.00000000000E+00  0.00000000000E+00  0.17900161501E+04  0.17900161501E+04  0.25500000920E-02 0. -1.
       -2   -1    0    0    0  501  0.00000000000E+00  0.00000000000E+00 -0.12895074504E+04  0.12895074504E+04  0.25500000920E-02 0.  1.
    10030    2    1    2    0    0  0.00000000000E+00  0.00000000000E+00  0.50050869966E+03  0.30795236005E+04  0.30385780635E+04 0.  0.
        4    1    3    3  502    0  0.13190251038E+04 -0.69853092053E+03 -0.37231396041E+02  0.14930373274E+04  0.12699999809E+01 0.  1.
       -4    1    3    3    0  502 -0.13190251038E+04  0.69853092053E+03  0.53774009570E+03  0.15864862731E+04  0.12699999809E+01 0. -1.
</event>
<event>
 5   0  0.3848286E-06  0.2650539E+04  0.7818609E-02  0.8351234E-01
        1   -1    0    0  501    0  0.00000000000E+00  0.00000000000E+00  0.16403951866E+04  0.16403951866E+04  0.50400001928E-02 0. -1.
       -1   -1    0    0    0  501  0.00000000000E+00  0.00000000000E+00 -0.10706809194E+04  0.10706809194E+04  0.50400001928E-02 0.  1.
    10030    2    1    2    0    0  0.00000000000E+00  0.00000000000E+00  0.56971426718E+03  0.27110761060E+04  0.26505394369E+04 0.  0.
        2    1    3    3  502    0  0.23903146830E+03 -0.90606272348E+02  0.16149394184E+04  0.16350458295E+04  0.25500000920E-02 0. -1.
       -2    1    3    3    0  502 -0.23903146830E+03  0.90606272348E+02 -0.10452251512E+04  0.10760302766E+04  0.25500000920E-02 0.  1.
</event>
<event>
 5   0  0.3838525E-06  0.2656683E+04  0.7818609E-02  0.8349198E-01
        1   -1    0    0  501    0  0.00000000000E+00  0.00000000000E+00  0.13536327581E+04  0.13536327581E+04  0.50400001928E-02 0.  1.
       -1   -1    0    0    0  501  0.00000000000E+00  0.00000000000E+00 -0.13035224666E+04  0.13035224666E+04  0.50400001928E-02 0. -1.
    10030    2    1    2    0    0  0.00000000000E+00  0.00000000000E+00  0.50110291485E+02  0.26571552247E+04  0.26566826771E+04 0.  0.
        3    1    3    3  502    0  0.10025854862E+04 -0.71961042011E+03 -0.46643218657E+03  0.13193088375E+04  0.10100000352E+00 0. -1.
       -3    1    3    3    0  502 -0.10025854862E+04  0.71961042011E+03  0.51654247805E+03  0.13378463872E+04  0.10100000352E+00 0.  1.
</event>
<event>
 5   0  0.1001961E-05  0.3129869E+04  0.7818609E-02  0.8207588E-01
       -2   -1    0    0    0  501  0.00000000000E+00  0.00000000000E+00  0.11914578894E+04  0.11914578894E+04  0.25500000920E-02 0.  1.
        2   -1    0    0  501    0  0.00000000000E+00  0.00000000000E+00 -0.20554817730E+04  0.20554817730E+04  0.25500000920E-02 0. -1.
    10030    2    1    2    0    0  0.00000000000E+00  0.00000000000E+00 -0.86402388366E+03  0.32469396624E+04  0.31298689908E+04 0.  0.
        5    1    3    3  502    0 -0.10025515886E+04  0.96787328088E+03  0.30674051151E+03  0.14268847911E+04  0.46999998093E+01 0.  1.
       -5    1    3    3    0  502  0.10025515886E+04 -0.96787328088E+03 -0.11707643952E+04  0.18200548713E+04  0.46999998093E+01 0. -1.
</event>
<event>
 5   0  0.3848286E-06  0.3203943E+04  0.7818609E-02  0.8187777E-01
       -1   -1    0    0    0  501  0.00000000000E+00  0.00000000000E+00  0.12599976800E+04  0.12599976800E+04  0.50400001928E-02 0.  1.
        1   -1    0    0  501    0  0.00000000000E+00  0.00000000000E+00 -0.20367598372E+04  0.20367598372E+04  0.50400001928E-02 0. -1.
    10030    2    1    2    0    0  0.00000000000E+00  0.00000000000E+00 -0.77676215717E+03  0.32967575172E+04  0.32039429892E+04 0.  0.
        2    1    3    3  502    0  0.84281428694E+02 -0.67295542199E+03  0.11049857319E+04  0.12965206619E+04  0.25500000920E-02 0.  1.
       -2    1    3    3    0  502 -0.84281428694E+02  0.67295542199E+03 -0.18817478890E+04  0.20002368552E+04  0.25500000920E-02 0. -1.
</event>
<event>
 5   0  0.3838525E-06  0.3118156E+04  0.7818609E-02  0.8210773E-01
       -1   -1    0    0    0  501  0.00000000000E+00  0.00000000000E+00  0.11815122664E+04  0.11815122665E+04  0.50400001928E-02 0.  1.
        1   -1    0    0  501    0  0.00000000000E+00  0.00000000000E+00 -0.20572987395E+04  0.20572987395E+04  0.50400001928E-02 0. -1.
    10030    2    1    2    0    0  0.00000000000E+00  0.00000000000E+00 -0.87578647305E+03  0.32388110060E+04  0.31181556706E+04 0.  0.
        3    1    3    3  502    0  0.13362495516E+04 -0.43911725065E+03  0.26069103584E+03  0.14305057324E+04  0.10100000352E+00 0.  1.
       -3    1    3    3    0  502 -0.13362495516E+04  0.43911725065E+03 -0.11364775089E+04  0.18083052736E+04  0.10100000352E+00 0. -1.
</event>
<event>
 5   0  0.4139628E-06  0.3154017E+04  0.7818609E-02  0.8201068E-01
        1   -1    0    0  501    0  0.00000000000E+00  0.00000000000E+00  0.18601477759E+04  0.18601477759E+04  0.50400001928E-02 0.  1.
       -1   -1    0    0    0  501  0.00000000000E+00  0.00000000000E+00 -0.13369665369E+04  0.13369665369E+04  0.50400001928E-02 0. -1.
    10030    2    1    2    0    0  0.00000000000E+00  0.00000000000E+00  0.52318123900E+03  0.31971143128E+04  0.31540166962E+04 0.  0.
        5    1    3    3  502    0 -0.13225495560E+04  0.27970793998E+03  0.10848205035E+04  0.17332718987E+04  0.46999998093E+01 0.  1.
       -5    1    3    3    0  502  0.13225495560E+04 -0.27970793998E+03 -0.56163926454E+03  0.14638424141E+04  0.46999998093E+01 0. -1.
</event>
<event>
 5   0  0.1119100E-05  0.3146425E+04  0.7818609E-02  0.8203111E-01
        2   -1    0    0  501    0  0.00000000000E+00  0.00000000000E+00  0.22993256188E+04  0.22993256188E+04  0.25500000920E-02 0. -1.
       -2   -1    0    0    0  501  0.00000000000E+00  0.00000000000E+00 -0.10764016539E+04  0.10764016539E+04  0.25500000920E-02 0.  1.
    10030    2    1    2    0    0  0.00000000000E+00  0.00000000000E+00  0.12229239649E+04  0.33757272727E+04  0.31464252090E+04 0.  0.
        2    1    3    3  502    0  0.11657439133E+04  0.51125769777E+03 -0.38038632184E+03  0.13285469728E+04  0.25500000920E-02 0.  1.
       -2    1    3    3    0  502 -0.11657439133E+04 -0.51125769777E+03  0.16033102867E+04  0.20471803000E+04  0.25500000920E-02 0. -1.
</event>
<event>
 5   0  0.1119100E-05  0.1805102E+04  0.7818609E-02  0.8703591E-01
        2   -1    0    0  501    0  0.00000000000E+00  0.00000000000E+00  0.15794172327E+04  0.15794172327E+04  0.25500000920E-02 0.  1.
       -2   -1    0    0    0  501  0.00000000000E+00  0.00000000000E+00 -0.51575870679E+03  0.51575870679E+03  0.25500000920E-02 0. -1.
    10030    2    1    2    0    0  0.00000000000E+00  0.00000000000E+00  0.10636585259E+04  0.20951759395E+04  0.18051018691E+04 0.  0.
        2    1    3    3  502    0  0.67541332492E+03  0.35103886475E+03  0.10947214275E+04  0.13333515845E+04  0.25500000920E-02 0.  1.
       -2    1    3    3    0  502 -0.67541332492E+03 -0.35103886475E+03 -0.31062901564E+02  0.76182435502E+03  0.25500000920E-02 0. -1.
</event>
<event>
 5   0  0.1001961E-05  0.1736327E+04  0.7818609E-02  0.8740913E-01
        2   -1    0    0  501    0  0.00000000000E+00  0.00000000000E+00  0.15890597704E+04  0.15890597704E+04  0.25500000920E-02 0. -1.
       -2   -1    0    0    0  501  0.00000000000E+00  0.00000000000E+00 -0.47431062566E+03  0.47431062567E+03  0.25500000920E-02 0.  1.
    10030    2    1    2    0    0  0.00000000000E+00  0.00000000000E+00  0.11147491448E+04  0.20633703961E+04  0.17363270820E+04 0.  0.
        5    1    3    3  502    0  0.68806226257E+03  0.96888194961E+02 -0.61104748876E+02  0.69754776168E+03  0.46999998093E+01 0.  1.
       -5    1    3    3    0  502 -0.68806226257E+03 -0.96888194961E+02  0.11758538936E+04  0.13658226344E+04  0.46999998093E+01 0. -1.
</event>
<event>
 5   0  0.1108153E-05  0.3106051E+04  0.7818609E-02  0.8214079E-01
        2   -1    0    0  501    0  0.00000000000E+00  0.00000000000E+00  0.15119237648E+04  0.15119237648E+04  0.25500000920E-02 0.  1.
       -2   -1    0    0    0  501  0.00000000000E+00  0.00000000000E+00 -0.15952447571E+04  0.15952447571E+04  0.25500000920E-02 0. -1.
    10030    2    1    2    0    0  0.00000000000E+00  0.00000000000E+00 -0.83320992321E+02  0.31071685218E+04  0.31060511643E+04 0.  0.
        4    1    3    3  502    0  0.31905963268E+03 -0.69923365832E+03  0.13083286135E+04  0.15173833174E+04  0.12699999809E+01 0.  1.
       -4    1    3    3    0  502 -0.31905963268E+03  0.69923365832E+03 -0.13916496058E+04  0.15897852045E+04  0.12699999809E+01 0. -1.
</event>
<event>
 5   0  0.4250961E-06  0.2649035E+04  0.7818609E-02  0.8351733E-01
       -1   -1    0    0    0  501  0.00000000000E+00  0.00000000000E+00  0.10593650046E+04  0.10593650046E+04  0.50400001928E-02 0.  1.
        1   -1    0    0  501    0  0.00000000000E+00  0.00000000000E+00 -0.16560363943E+04  0.16560363943E+04  0.50400001928E-02 0. -1.
    10030    2    1    2    0    0  0.00000000000E+00  0.00000000000E+00 -0.59667138970E+03  0.27154013990E+04  0.26490352981E+04 0.  0.
        1    1    3    3  502    0 -0.61880581513E+02 -0.11523701541E+04 -0.96466805890E+03  0.15041178951E+04  0.50400001928E-02 0. -1.
       -1    1    3    3    0  502  0.61880581513E+02  0.11523701541E+04  0.36799666920E+03  0.12112835039E+04  0.50400001928E-02 0.  1.
</event>
<event>
 5   0  0.9797278E-06  0.3138115E+04  0.7818609E-02  0.8205355E-01
        2   -1    0    0  501    0  0.00000000000E+00  0.00000000000E+00  0.18260217646E+04  0.18260217646E+04  0.25500000920E-02 0. -1.
       -2   -1    0    0    0  501  0.00000000000E+00  0.00000000000E+00 -0.13482545491E+04  0.13482545491E+04  0.25500000920E-02 0.  1.
    10030    2    1    2    0    0  0.00000000000E+00  0.00000000000E+00  0.47776721551E+03  0.31742763138E+04  0.31381154542E+04 0.  0.
        1    1    3    3  502    0  0.39622637696E+03  0.32392868840E+03  0.17392206456E+04  0.18129571399E+04  0.50400001928E-02 0. -1.
       -1    1    3    3    0  502 -0.39622637696E+03 -0.32392868840E+03 -0.12614534301E+04  0.13613191739E+04  0.50400001928E-02 0.  1.
</event>
<event>
 5   0  0.3807334E-06  0.3094354E+04  0.7818609E-02  0.8217289E-01
       -1   -1    0    0    0  501  0.00000000000E+00  0.00000000000E+00  0.13351042914E+04  0.13351042914E+04  0.50400001928E-02 0.  1.
        1   -1    0    0  501    0  0.00000000000E+00  0.00000000000E+00 -0.17929359567E+04  0.17929359567E+04  0.50400001928E-02 0. -1.
    10030    2    1    2    0    0  0.00000000000E+00  0.00000000000E+00 -0.45783166534E+03  0.31280402481E+04  0.30943538841E+04 0.  0.
        4    1    3    3  502    0 -0.80764257267E+03 -0.12668906430E+04 -0.60233739150E+03  0.16186754995E+04  0.12699999809E+01 0. -1.
       -4    1    3    3    0  502  0.80764257267E+03  0.12668906430E+04  0.14450572616E+03  0.15093647486E+04  0.12699999809E+01 0.  1.
</event>
<event>
 5   0  0.9797278E-06  0.3117456E+04  0.7818609E-02  0.8210964E-01
       -2   -1    0    0    0  501  0.00000000000E+00  0.00000000000E+00  0.13724746737E+04  0.13724746737E+04  0.25500000920E-02 0. -1.
        2   -1    0    0  501    0  0.00000000000E+00  0.00000000000E+00 -0.17702571640E+04  0.17702571640E+04  0.25500000920E-02 0.  1.
    10030    2    1    2    0    0  0.00000000000E+00  0.00000000000E+00 -0.39778249030E+03  0.31427318376E+04  0.31174560933E+04 0.  0.
        1    1    3    3  502    0  0.25150601584E+03 -0.14438724144E+04 -0.73386348402E+03  0.16390785333E+04  0.50400001928E-02 0.  1.
       -1    1    3    3    0  502 -0.25150601584E+03  0.14438724144E+04  0.33608099371E+03  0.15036533043E+04  0.50400001928E-02 0. -1.
</event>
<event>
 5   0  0.3838525E-06  0.1790106E+04  0.7818609E-02  0.8711579E-01
        1   -1    0    0  501    0  0.00000000000E+00  0.00000000000E+00  0.97842539184E+03  0.97842539185E+03  0.50400001928E-02 0. -1.
       -1   -1    0    0    0  501  0.00000000000E+00  0.00000000000E+00 -0.81878496246E+03  0.81878496247E+03  0.50400001928E-02 0.  1.
    10030    2    1    2    0    0  0.00000000000E+00  0.00000000000E+00  0.15964042938E+03  0.17972103543E+04  0.17901061396E+04 0.  0.
        3    1    3    3  502    0 -0.38860316755E+03  0.67025891045E+03 -0.37013310790E+03  0.85863726720E+03  0.10100000352E+00 0.  1.
       -3    1    3    3    0  502  0.38860316755E+03 -0.67025891045E+03  0.52977353728E+03  0.93857308712E+03  0.10100000352E+00 0. -1.
</event>
<event>
 5   0  0.1007567E-05  0.3107474E+04  0.7818609E-02  0.8213690E-01
       -2   -1    0    0    0  501  0.00000000000E+00  0.00000000000E+00  0.12677788728E+04  0.12677788728E+04  0.25500000920E-02 0. -1.
        2   -1    0    0  501    0  0.00000000000E+00  0.00000000000E+00 -0.19041952807E+04  0.19041952807E+04  0.25500000920E-02 0.  1.
    10030    2    1    2    0    0  0.00000000000E+00  0.00000000000E+00 -0.63641640784E+03  0.31719741535E+04  0.31074739237E+04 0.  0.
        3    1    3    3  502    0 -0.58467134343E+03 -0.24510974706E+03  0.11297481506E+04  0.12954729877E+04  0.10100000352E+00 0. -1.
       -3    1    3    3    0  502  0.58467134343E+03  0.24510974706E+03 -0.17661645584E+04  0.18765011659E+04  0.10100000352E+00 0.  1.
</event>
<event>
 5   0  0.4139628E-06  0.3071732E+04  0.7818609E-02  0.8223539E-01
       -1   -1    0    0    0  501  0.00000000000E+00  0.00000000000E+00  0.99087696061E+03  0.99087696062E+03  0.50400001928E-02 0. -1.
        1   -1    0    0  501    0  0.00000000000E+00  0.00000000000E+00 -0.23806029185E+04  0.23806029185E+04  0.50400001928E-02 0.  1.
    10030    2    1    2    0    0  0.00000000000E+00  0.00000000000E+00 -0.13897259579E+04  0.33714798791E+04  0.30717321396E+04 0.  0.
        5    1    3    3  502    0  0.19231382936E+03 -0.11860093755E+04 -0.17449115490E+04  0.21185705680E+04  0.46999998093E+01 0.  1.
       -5    1    3    3    0  502 -0.19231382936E+03  0.11860093755E+04  0.35518559117E+03  0.12529093111E+04  0.46999998093E+01 0. -1.
</event>
<event>
 5   0  0.9797278E-06  0.2034575E+04  0.7818609E-02  0.8590624E-01
       -2   -1    0    0    0  501  0.00000000000E+00  0.00000000000E+00  0.65903487439E+03  0.65903487440E+03  0.25500000920E-02 0. -1.
        2   -1    0    0  501    0  0.00000000000E+00  0.00000000000E+00 -0.15702866946E+04  0.15702866946E+04  0.25500000920E-02 0.  1.
    10030    2    1    2    0    0  0.00000000000E+00  0.00000000000E+00 -0.91125182022E+03  0.22293215690E+04  0.20345748397E+04 0.  0.
        1    1    3    3  502    0  0.54055641875E+03 -0.86178336548E+03 -0.45412207686E+03  0.11140460815E+04  0.50400001928E-02 0. -1.
       -1    1    3    3    0  502 -0.54055641875E+03  0.86178336548E+03 -0.45712974336E+03  0.11152754876E+04  0.50400001928E-02 0.  1.
</event>
<event>
 5   0  0.1007567E-05  0.3221781E+04  0.7818609E-02  0.8183089E-01
        2   -1    0    0  501    0  0.00000000000E+00  0.00000000000E+00  0.13170665324E+04  0.13170665324E+04  0.25500000920E-02 0.  1.
       -2   -1    0    0    0  501  0.00000000000E+00  0.00000000000E+00 -0.19702630693E+04  0.19702630693E+04  0.25500000920E-02 0. -1.
    10030    2    1    2    0    0  0.00000000000E+00  0.00000000000E+00 -0.65319653689E+03  0.32873296017E+04  0.32217805937E+04 0.  0.
        3    1    3    3  502    0 -0.15624290848E+04 -0.39213236436E+03 -0.32263307008E+03  0.16428769109E+04  0.10100000352E+00 0. -1.
       -3    1    3    3    0  502  0.15624290848E+04  0.39213236436E+03 -0.33056346681E+03  0.16444526908E+04  0.10100000352E+00 0.  1.
</event>
<event>
 5   0  0.4139628E-06  0.2653533E+04  0.7818609E-02  0.8350241E-01
        1   -1    0    0  501    0  0.00000000000E+00  0.00000000000E+00  0.26912387370E+04  0.26912387370E+04  0.50400001928E-02 0. -1.
       -1   -1    0    0    0  501  0.00000000000E+00  0.00000000000E+00 -0.65408909452E+03  0.65408909454E+03  0.50400001928E-02 0.  1.
    10030    2    1    2    0    0  0.00000000000E+00  0.00000000000E+00  0.20371496425E+04  0.33453278316E+04  0.26535334245E+04 0.  0.
        5    1    3    3  502    0 -0.10339964804E+04  0.10621986724E+03 -0.20920952890E+02  0.10396591547E+04  0.46999998093E+01 0.  1.
       -5    1    3    3    0  502  0.10339964804E+04 -0.10621986724E+03  0.20580705954E+04  0.23056686769E+04  0.46999998093E+01 0. -1.
</event>
<event>
 5   0  0.3807334E-06  0.2349147E+04  0.7818609E-02  0.8458791E-01
        1   -1    0    0  501    0  0.00000000000E+00  0.00000000000E+00  0.74248997482E+03  0.74248997484E+03  0.50400001928E-02 0. -1.
       -1   -1    0    0    0  501  0.00000000000E+00  0.00000000000E+00 -0.18581037997E+04  0.18581037997E+04  0.50400001928E-02 0.  1.
    10030    2    1    2    0    0  0.00000000000E+00  0.00000000000E+00 -0.11156138249E+04  0.26005937746E+04  0.23491474569E+04 0.  0.
        4    1    3    3  502    0  0.54878706940E+03 -0.71737985465E+03  0.27344519394E+03  0.94370280830E+03  0.12699999809E+01 0. -1.
       -4    1    3    3    0  502 -0.54878706940E+03  0.71737985465E+03 -0.13890590188E+04  0.16568909663E+04  0.12699999809E+01 0.  1.
</event>
<event>
 5   0  0.3848286E-06  0.2949979E+04  0.7818609E-02  0.8258161E-01
        1   -1    0    0  501    0  0.00000000000E+00  0.00000000000E+00  0.30016546144E+04  0.30016546144E+04  0.50400001928E-02 0. -1.
       -1   -1    0    0    0  501  0.00000000000E+00  0.00000000000E+00 -0.72479814482E+03  0.72479814484E+03  0.50400001928E-02 0.  1.
    10030    2    1    2    0    0  0.00000000000E+00  0.00000000000E+00  0.22768564696E+04  0.37264527592E+04  0.29499787768E+04 0.  0.
        2    1    3    3  502    0 -0.69366365840E+03  0.21649998634E+03 -0.48299472198E+03  0.87253963608E+03  0.25500000920E-02 0.  1.
       -2    1    3    3    0  502  0.69366365840E+03 -0.21649998634E+03  0.27598511915E+04  0.28539131231E+04  0.25500000920E-02 0. -1.
</event>
<event>
 5   0  0.1108153E-05  0.3230051E+04  0.7818609E-02  0.8180926E-01
       -2   -1    0    0    0  501  0.00000000000E+00  0.00000000000E+00  0.13905281077E+04  0.13905281077E+04  0.25500000920E-02 0.  1.
        2   -1    0    0  501    0  0.00000000000E+00  0.00000000000E+00 -0.18757674415E+04  0.18757674415E+04  0.25500000920E-02 0. -1.
    10030    2    1    2    0    0  0.00000000000E+00  0.00000000000E+00 -0.48523933376E+03  0.32662955492E+04  0.32300509909E+04 0.  0.
        4    1    3    3  502    0 -0.36409172267E+03  0.93124465077E+03  0.10398886538E+04  0.14426189404E+04  0.12699999809E+01 0.  1.
       -4    1    3    3    0  502  0.36409172267E+03 -0.93124465077E+03 -0.15251279875E+04  0.18236766088E+04  0.12699999809E+01 0. -1.
</event>
<event>
 5   0  0.9797278E-06  0.3005298E+04  0.7818609E-02  0.8242220E-01
       -2   -1    0    0    0  501  0.00000000000E+00  0.00000000000E+00  0.11187587574E+04  0.11187587574E+04  0.25500000920E-02 0. -1.
        2   -1    0    0  501    0  0.00000000000E+00  0.00000000000E+00 -0.20182667811E+04  0.20182667811E+04  0.25500000920E-02 0.  1.
    10030    2    1    2    0    0  0.00000000000E+00  0.00000000000E+00 -0.89950802368E+03  0.31370255385E+04  0.30052977464E+04 0.  0.
        1    1    3    3  502    0  0.46785871361E+03  0.64769909667E+03 -0.17781496039E+04  0.19494157868E+04  0.50400001928E-02 0.  1.
       -1    1    3    3    0  502 -0.46785871361E+03 -0.64769909667E+03  0.87864158027E+03  0.11876097517E+04  0.50400001928E-02 0. -1.
</event>
<event>
 5   0  0.4250961E-06  0.3089020E+04  0.7818609E-02  0.8218758E-01
        1   -1    0    0  501    0  0.00000000000E+00  0.00000000000E+00  0.20761991460E+04  0.20761991460E+04  0.50400001928E-02 0.  1.
       -1   -1    0    0    0  501  0.00000000000E+00  0.00000000000E+00 -0.11489796388E+04  0.11489796388E+04  0.50400001928E-02 0. -1.
    10030    2    1    2    0    0  0.00000000000E+00  0.00000000000E+00  0.92721950722E+03  0.32251787848E+04  0.30890196146E+04 0.  0.
        1    1    3    3  502    0  0.63584447316E+03  0.75407888364E+03  0.17045168076E+04  0.19693427087E+04  0.50400001928E-02 0.  1.
       -1    1    3    3    0  502 -0.63584447316E+03 -0.75407888364E+03 -0.77729730039E+03  0.12558360761E+04  0.50400001928E-02 0. -1.
</event>
<event>
 5   0  0.1001961E-05  0.3158235E+04  0.7818609E-02  0.8199935E-01
       -2   -1    0    0    0  501  0.00000000000E+00  0.00000000000E+00  0.77713943008E+03  0.77713943008E+03  0.25500000920E-02 0.  1.
        2   -1    0    0  501    0  0.00000000000E+00  0.00000000000E+00 -0.32087063652E+04  0.32087063652E+04  0.25500000920E-02 0. -1.
    10030    2    1    2    0    0  0.00000000000E+00  0.00000000000E+00 -0.24315669351E+04  0.39858457952E+04  0.31582350995E+04 0.  0.
        5    1    3    3  502    0 -0.42185440689E+03  0.15166348493E+04 -0.13726421273E+04  0.20886145902E+04  0.46999998093E+01 0. -1.
       -5    1    3    3    0  502  0.42185440689E+03 -0.15166348493E+04 -0.10589248078E+04  0.18972312050E+04  0.46999998093E+01 0.  1.
</event>
<event>
 5   0  0.3807334E-06  0.2789979E+04  0.7818609E-02  0.8306386E-01
       -1   -1    0    0    0  501  0.00000000000E+00  0.00000000000E+00  0.14128410760E+04  0.14128410760E+04  0.50400001928E-02 0. -1.
        1   -1    0    0  501    0  0.00000000000E+00  0.00000000000E+00 -0.13773636578E+04  0.13773636578E+04  0.50400001928E-02 0.  1.
    10030    2    1    2    0    0  0.00000000000E+00  0.00000000000E+00  0.35477418234E+02  0.27902047338E+04  0.27899791772E+04 0.  0.
        4    1    3    3  502    0  0.81648287412E+03 -0.46540141188E+03 -0.10132430683E+04  0.13819934465E+04  0.12699999809E+01 0.  1.
       -4    1    3    3    0  502 -0.81648287412E+03  0.46540141188E+03  0.10487204865E+04  0.14082112873E+04  0.12699999809E+01 0. -1.
</event>
<event>
 5   0  0.3838525E-06  0.2934249E+04  0.7818609E-02  0.8262760E-01
        1   -1    0    0  501    0  0.00000000000E+00  0.00000000000E+00  0.14884862932E+04  0.14884862932E+04  0.50400001928E-02 0. -1.
       -1   -1    0    0    0  501  0.00000000000E+00  0.00000000000E+00 -0.14460695423E+04  0.14460695423E+04  0.50400001928E-02 0.  1.
    10030    2    1    2    0    0  0.00000000000E+00  0.00000000000E+00  0.42416750949E+02  0.29345558355E+04  0.29342492687E+04 0.  0.
        3    1    3    3  502    0 -0.12078232817E+04  0.43452727789E+03  0.73177796074E+03  0.14775486554E+04  0.10100000352E+00 0.  1.
       -3    1    3    3    0  502  0.12078232817E+04 -0.43452727789E+03 -0.68936120979E+03  0.14570071801E+04  0.10100000352E+00 0. -1.
</event>
<event>
 5   0  0.3848286E-06  0.2878373E+04  0.7818609E-02  0.8279341E-01
        1   -1    0    0  501    0  0.00000000000E+00  0.00000000000E+00  0.22111806114E+04  0.22111806114E+04  0.50400001928E-02 0. -1.
       -1   -1    0    0    0  501  0.00000000000E+00  0.00000000000E+00 -0.93672014684E+03  0.93672014685E+03  0.50400001928E-02 0.  1.
    10030    2    1    2    0    0  0.00000000000E+00  0.00000000000E+00  0.12744604645E+04  0.31479007582E+04  0.28783727535E+04 0.  0.
        2    1    3    3  502    0  0.27790504323E+03  0.11056863025E+04 -0.32335844464E+03  0.11850460313E+04  0.25500000920E-02 0.  1.
       -2    1    3    3    0  502 -0.27790504323E+03 -0.11056863025E+04  0.15978189092E+04  0.19628547270E+04  0.25500000920E-02 0. -1.
</event>
<event>
 5   0  0.1108153E-05  0.3049578E+04  0.7818609E-02  0.8229714E-01
        2   -1    0    0  501    0  0.00000000000E+00  0.00000000000E+00  0.94526676701E+03  0.94526676702E+03  0.25500000920E-02 0. -1.
       -2   -1    0    0    0  501  0.00000000000E+00  0.00000000000E+00 -0.24596028771E+04  0.24596028771E+04  0.25500000920E-02 0.  1.
    10030    2    1    2    0    0  0.00000000000E+00  0.00000000000E+00 -0.15143361101E+04  0.34048696441E+04  0.30495775837E+04 0.  0.
        4    1    3    3  502    0  0.12225151734E+04 -0.54879534490E+03  0.55092122096E+02  0.13411772570E+04  0.12699999809E+01 0. -1.
       -4    1    3    3    0  502 -0.12225151734E+04  0.54879534490E+03 -0.15694282322E+04  0.20636923871E+04  0.12699999809E+01 0.  1.
</event>
<event>
 5   0  0.4250961E-06  0.3117710E+04  0.7818609E-02  0.8210894E-01
        1   -1    0    0  501    0  0.00000000000E+00  0.00000000000E+00  0.89484262774E+03  0.89484262775E+03  0.50400001928E-02 0. -1.
       -1   -1    0    0    0  501  0.00000000000E+00  0.00000000000E+00 -0.27155938995E+04  0.27155938995E+04  0.50400001928E-02 0.  1.
    10030    2    1    2    0    0  0.00000000000E+00  0.00000000000E+00 -0.18207512717E+04  0.36104365272E+04  0.31177101731E+04 0.  0.
        1    1    3    3  502    0  0.87450400693E+03 -0.99545350633E+03 -0.18613412207E+04  0.22847923497E+04  0.50400001928E-02 0.  1.
       -1    1    3    3    0  502 -0.87450400693E+03  0.99545350633E+03  0.40589948968E+02  0.13256441775E+04  0.50400001928E-02 0. -1.
</event>
<event>
 5   0  0.3838525E-06  0.3043474E+04  0.7818609E-02  0.8231425E-01
        1   -1    0    0  501    0  0.00000000000E+00  0.00000000000E+00  0.16958398475E+04  0.16958398475E+04  0.50400001928E-02 0.  1.
       -1   -1    0    0    0  501  0.00000000000E+00  0.00000000000E+00 -0.13655081124E+04  0.13655081124E+04  0.50400001928E-02 0. -1.
    10030    2    1    2    0    0  0.00000000000E+00  0.00000000000E+00  0.33033173506E+03  0.30613479599E+04  0.30434737187E+04 0.  0.
        3    1    3    3  502    0  0.15545034513E+03  0.14302142159E+04 -0.33373652694E+03  0.14768404087E+04  0.10100000352E+00 0. -1.
       -3    1    3    3    0  502 -0.15545034513E+03 -0.14302142159E+04  0.66406826201E+03  0.15845075512E+04  0.10100000352E+00 0.  1.
</event>
<event>
 5   0  0.1119100E-05  0.3129888E+04  0.7818609E-02  0.8207583E-01
       -2   -1    0    0    0  501  0.00000000000E+00  0.00000000000E+00  0.23869021412E+04  0.23869021412E+04  0.25500000920E-02 0.  1.
        2   -1    0    0  501    0  0.00000000000E+00  0.00000000000E+00 -0.10260369898E+04  0.10260369898E+04  0.25500000920E-02 0. -1.
    10030    2    1    2    0    0  0.00000000000E+00  0.00000000000E+00  0.13608651514E+04  0.34129391310E+04  0.31298881053E+04 0.  0.
        2    1    3    3  502    0 -0.51246368733E+03  0.10416246380E+04 -0.46397815627E+03  0.12501506497E+04  0.25500000920E-02 0. -1.
       -2    1    3    3    0  502  0.51246368733E+03 -0.10416246380E+04  0.18248433077E+04  0.21627884814E+04  0.25500000920E-02 0.  1.
</event>
<event>
 5   0  0.1108153E-05  0.3066571E+04  0.7818609E-02  0.8224973E-01
       -2   -1    0    0    0  501  0.00000000000E+00  0.00000000000E+00  0.15382858336E+04  0.15382858336E+04  0.25500000920E-02 0.  1.
        2   -1    0    0  501    0  0.00000000000E+00  0.00000000000E+00 -0.15283012038E+04  0.15283012038E+04  0.25500000920E-02 0. -1.
    10030    2    1    2    0    0  0.00000000000E+00  0.00000000000E+00  0.99846298099E+01  0.30665870374E+04  0.30665707827E+04 0.  0.
        4    1    3    3  502    0 -0.13453321124E+04 -0.24378267025E+03  0.69898013974E+03  0.15355531029E+04  0.12699999809E+01 0.  1.
       -4    1    3    3    0  502  0.13453321124E+04  0.24378267025E+03 -0.68899550993E+03  0.15310339345E+04  0.12699999809E+01 0. -1.
</event>
<event>
 5   0  0.4139628E-06  0.1545483E+04  0.7818609E-02  0.8854758E-01
       -1   -1    0    0    0  501  0.00000000000E+00  0.00000000000E+00  0.12388325933E+04  0.12388325934E+04  0.50400001928E-02 0.  1.
        1   -1    0    0  501    0  0.00000000000E+00  0.00000000000E+00 -0.48201002244E+03  0.48201002247E+03  0.50400001928E-02 0. -1.
    10030    2    1    2    0    0  0.00000000000E+00  0.00000000000E+00  0.75682257091E+03  0.17208426158E+04  0.15454833886E+04 0.  0.
        5    1    3    3  502    0 -0.61471727866E+03 -0.41212462217E+03  0.62585030205E+03  0.96924441060E+03  0.46999998093E+01 0.  1.
       -5    1    3    3    0  502  0.61471727866E+03  0.41212462217E+03  0.13097226885E+03  0.75159820522E+03  0.46999998093E+01 0. -1.
</event>
<event>
 5   0  0.9797278E-06  0.2957249E+04  0.7818609E-02  0.8256045E-01
        2   -1    0    0  501    0  0.00000000000E+00  0.00000000000E+00  0.20207615472E+04  0.20207615472E+04  0.25500000920E-02 0. -1.
       -2   -1    0    0    0  501  0.00000000000E+00  0.00000000000E+00 -0.10819339710E+04  0.10819339710E+04  0.25500000920E-02 0.  1.
    10030    2    1    2    0    0  0.00000000000E+00  0.00000000000E+00  0.93882757623E+03  0.31026955183E+04  0.29572491037E+04 0.  0.
        1    1    3    3  502    0  0.10466168336E+04  0.59022291145E+03  0.13735153614E+04  0.18249148828E+04  0.50400001928E-02 0. -1.
       -1    1    3    3    0  502 -0.10466168336E+04 -0.59022291145E+03 -0.43468778515E+03  0.12777806354E+04  0.50400001928E-02 0.  1.
</event>
<event>
 5   0  0.3848286E-06  0.3085675E+04  0.7818609E-02  0.8219680E-01
        1   -1    0    0  501    0  0.00000000000E+00  0.00000000000E+00  0.15363704911E+04  0.15363704911E+04  0.50400001928E-02 0.  1.
       -1   -1    0    0    0  501  0.00000000000E+00  0.00000000000E+00 -0.15493314249E+04  0.15493314250E+04  0.50400001928E-02 0. -1.
    10030    2    1    2    0    0  0.00000000000E+00  0.00000000000E+00 -0.12960933863E+02  0.30857019160E+04  0.30856746959E+04 0.  0.
        2    1    3    3  502    0 -0.42602490314E+03  0.11345222417E+04  0.94836257383E+03  0.15388403122E+04  0.25500000920E-02 0.  1.
       -2    1    3    3    0  502  0.42602490314E+03 -0.11345222417E+04 -0.96132350769E+03  0.15468616038E+04  0.25500000920E-02 0. -1.
</event>
<event>
 5   0  0.1001961E-05  0.3123994E+04  0.7818609E-02  0.8209184E-01
       -2   -1    0    0    0  501  0.00000000000E+00  0.00000000000E+00  0.92847179707E+03  0.92847179707E+03  0.25500000920E-02 0. -1.
        2   -1    0    0  501    0  0.00000000000E+00  0.00000000000E+00 -0.26277958491E+04  0.26277958491E+04  0.25500000920E-02 0.  1.
    10030    2    1    2    0    0  0.00000000000E+00  0.00000000000E+00 -0.16993240520E+04  0.35562676462E+04  0.31239938120E+04 0.  0.
        5    1    3    3  502    0 -0.41382030222E+03  0.14111195928E+04 -0.25019638533E+03  0.14916856468E+04  0.46999998093E+01 0. -1.
       -5    1    3    3    0  502  0.41382030222E+03 -0.14111195928E+04 -0.14491276667E+04  0.20645819994E+04  0.46999998093E+01 0.  1.
</event>
<event>
 5   0  0.3807334E-06  0.3107411E+04  0.7818609E-02  0.8213707E-01
       -1   -1    0    0    0  501  0.00000000000E+00  0.00000000000E+00  0.13581772692E+04  0.13581772692E+04  0.50400001928E-02 0. -1.
        1   -1    0    0  501    0  0.00000000000E+00  0.00000000000E+00 -0.17773824349E+04  0.17773824349E+04  0.50400001928E-02 0.  1.
    10030    2    1    2    0    0  0.00000000000E+00  0.00000000000E+00 -0.41920516572E+03  0.31355597042E+04  0.31074107690E+04 0.  0.
        4    1    3    3  502    0  0.11552641526E+04 -0.51123551881E+03  0.70302488402E+03  0.14457671384E+04  0.12699999809E+01 0. -1.
       -4    1    3    3    0  502 -0.11552641526E+04  0.51123551881E+03 -0.11222300497E+04  0.16897925658E+04  0.12699999809E+01 0.  1.
</event>
<event>
 5   0  0.1007567E-05  0.3371680E+04  0.7818609E-02  0.8144892E-01
        2   -1    0    0  501    0  0.00000000000E+00  0.00000000000E+00  0.18592149695E+04  0.18592149695E+04  0.25500000920E-02 0.  1.
       -2   -1    0    0    0  501  0.00000000000E+00  0.00000000000E+00 -0.15286324205E+04  0.15286324205E+04  0.25500000920E-02 0. -1.
    10030    2    1    2    0    0  0.00000000000E+00  0.00000000000E+00  0.33058254898E+03  0.33878473900E+04  0.33716798656E+04 0.  0.
        3    1    3    3  502    0  0.32581026144E+03 -0.38133791837E+03 -0.14519248961E+04  0.15361174592E+04  0.10100000352E+00 0. -1.
       -3    1    3    3    0  502 -0.32581026144E+03  0.38133791837E+03  0.17825074451E+04  0.18517299308E+04  0.10100000352E+00 0.  1.
</event>
<event>
 5   0  0.3493125E-06  0.1712119E+04  0.7818609E-02  0.8754482E-01
        4   -1    0    0  501    0  0.00000000000E+00  0.00000000000E+00  0.12928786319E+04  0.12928792556E+04  0.12699999809E+01 0.  1.
       -4   -1    0    0    0  501  0.00000000000E+00  0.00000000000E+00 -0.56682503233E+03  0.56682645508E+03  0.12699999809E+01 0. -1.
    10030    2    1    2    0    0  0.00000000000E+00  0.00000000000E+00  0.72605359953E+03  0.18597057107E+04  0.17121190090E+04 0.  0.
        4    1    3    3  502    0 -0.77416288925E+02 -0.84350015435E+03  0.22844971490E+03  0.87731218920E+03  0.12699999809E+01 0. -1.
       -4    1    3    3    0  502  0.77416288925E+02  0.84350015435E+03  0.49760388463E+03  0.98239352150E+03  0.12699999809E+01 0.  1.
</event>
<event>
 5   0  0.1119100E-05  0.1659187E+04  0.7818609E-02  0.8784990E-01
        2   -1    0    0  501    0  0.00000000000E+00  0.00000000000E+00  0.13231799519E+04  0.13231799519E+04  0.25500000920E-02 0.  1.
       -2   -1    0    0    0  501  0.00000000000E+00  0.00000000000E+00 -0.52013003421E+03  0.52013003421E+03  0.25500000920E-02 0. -1.
    10030    2    1    2    0    0  0.00000000000E+00  0.00000000000E+00  0.80304991772E+03  0.18433099861E+04  0.16591873115E+04 0.  0.
        2    1    3    3  502    0  0.19789978931E+02 -0.67709207438E+03 -0.13056005689E+03  0.68984871451E+03  0.25500000920E-02 0. -1.
       -2    1    3    3    0  502 -0.19789978931E+02  0.67709207438E+03  0.93360997461E+03  0.11534612716E+04  0.25500000920E-02 0.  1.
</event>
<event>
 5   0  0.3493125E-06  0.3086091E+04  0.7818609E-02  0.8219565E-01
        3   -1    0    0  501    0  0.00000000000E+00  0.00000000000E+00  0.94340552097E+03  0.94340552638E+03  0.10100000352E+00 0. -1.
       -3   -1    0    0    0  501  0.00000000000E+00  0.00000000000E+00 -0.25238245418E+04  0.25238245438E+04  0.10100000352E+00 0.  1.
    10030    2    1    2    0    0  0.00000000000E+00  0.00000000000E+00 -0.15804190208E+04  0.34672300702E+04  0.30860913918E+04 0.  0.
        1    1    3    3  502    0  0.78200807640E+02 -0.25533160659E+03  0.91724768099E+03  0.95532868896E+03  0.50400001928E-02 0. -1.
       -1    1    3    3    0  502 -0.78200807640E+02  0.25533160659E+03 -0.24976667018E+04  0.25119013812E+04  0.50400001928E-02 0.  1.
</event>
<event>
 5   0  0.1108153E-05  0.2825835E+04  0.7818609E-02  0.8295292E-01
       -2   -1    0    0    0  501  0.00000000000E+00  0.00000000000E+00  0.13052889817E+04  0.13052889817E+04  0.25500000920E-02 0.  1.
        2   -1    0    0  501    0  0.00000000000E+00  0.00000000000E+00 -0.15294206216E+04  0.15294206216E+04  0.25500000920E-02 0. -1.
    10030    2    1    2    0    0  0.00000000000E+00  0.00000000000E+00 -0.22413163985E+03  0.28347096033E+04  0.28258350170E+04 0.  0.
        4    1    3    3  502    0  0.11471485716E+04 -0.82403441408E+03 -0.75184720441E+02  0.14144387283E+04  0.12699999809E+01 0.  1.
       -4    1    3    3    0  502 -0.11471485716E+04  0.82403441408E+03 -0.14894691941E+03  0.14202708751E+04  0.12699999809E+01 0. -1.
</event>
<event>
 5   0  0.1001961E-05  0.3047387E+04  0.7818609E-02  0.8230327E-01
        2   -1    0    0  501    0  0.00000000000E+00  0.00000000000E+00  0.18981614230E+04  0.18981614230E+04  0.25500000920E-02 0. -1.
       -2   -1    0    0    0  501  0.00000000000E+00  0.00000000000E+00 -0.12231002525E+04  0.12231002525E+04  0.25500000920E-02 0.  1.
    10030    2    1    2    0    0  0.00000000000E+00  0.00000000000E+00  0.67506117049E+03  0.31212616755E+04  0.30473868909E+04 0.  0.
        5    1    3    3  502    0 -0.59695142884E+03  0.10784265550E+04  0.12549363167E+04  0.17590457902E+04  0.46999998093E+01 0. -1.
       -5    1    3    3    0  502  0.59695142884E+03 -0.10784265550E+04 -0.57987514622E+03  0.13622158853E+04  0.46999998093E+01 0.  1.
</event>
<event>
 5   0  0.3807334E-06  0.3023738E+04  0.7818609E-02  0.8236985E-01
        1   -1    0    0  501    0  0.00000000000E+00  0.00000000000E+00  0.20094265462E+04  0.20094265462E+04  0.50400001928E-02 0. -1.
       -1   -1    0    0    0  501  0.00000000000E+00  0.00000000000E+00 -0.11375123166E+04  0.11375123166E+04  0.50400001928E-02 0.  1.
    10030    2    1    2    0    0  0.00000000000E+00  0.00000000000E+00  0.87191422957E+03  0.31469388629E+04  0.30237377173E+04 0.  0.
        4    1    3    3  502    0 -0.10174908376E+04 -0.49773278665E+03  0.14781163764E+04  0.18622178086E+04  0.12699999809E+01 0. -1.
       -4    1    3    3    0  502  0.10174908376E+04  0.49773278665E+03 -0.60620214680E+03  0.12847210543E+04  0.12699999809E+01 0.  1.
</event>
<event>
 5   0  0.3848286E-06  0.3032028E+04  0.7818609E-02  0.8234644E-01
       -1   -1    0    0    0  501  0.00000000000E+00  0.00000000000E+00  0.20037705779E+04  0.20037705779E+04  0.50400001928E-02 0.  1.
        1   -1    0    0  501    0  0.00000000000E+00  0.00000000000E+00 -0.11469865946E+04  0.11469865946E+04  0.50400001928E-02 0. -1.
    10030    2    1    2    0    0  0.00000000000E+00  0.00000000000E+00  0.85678398329E+03  0.31507571725E+04  0.30320276988E+04 0.  0.
        2    1    3    3  502    0  0.62103215732E+02  0.72938922569E+03  0.18079438178E+04  0.19505194949E+04  0.25500000920E-02 0.  1.
       -2    1    3    3    0  502 -0.62103215732E+02 -0.72938922569E+03 -0.95115983447E+03  0.12002376776E+04  0.25500000920E-02 0. -1.
</event>
<event>
 5   0  0.1001961E-05  0.3146602E+04  0.7818609E-02  0.8203063E-01
        2   -1    0    0  501    0  0.00000000000E+00  0.00000000000E+00  0.26184682401E+04  0.26184682401E+04  0.25500000920E-02 0.  1.
       -2   -1    0    0    0  501  0.00000000000E+00  0.00000000000E+00 -0.94531470587E+03  0.94531470588E+03  0.25500000920E-02 0. -1.
    10030    2    1    2    0    0  0.00000000000E+00  0.00000000000E+00  0.16731535343E+04  0.35637829460E+04  0.31466023163E+04 0.  0.
        5    1    3    3  502    0  0.30379949815E+03 -0.15245337055E+04  0.11111133769E+04  0.19107831327E+04  0.46999998093E+01 0.  1.
       -5    1    3    3    0  502 -0.30379949815E+03  0.15245337055E+04  0.56204015741E+03  0.16529998133E+04  0.46999998093E+01 0. -1.
</event>
<event>
 5   0  0.3838525E-06  0.2624872E+04  0.7818609E-02  0.8359801E-01
        1   -1    0    0  501    0  0.00000000000E+00  0.00000000000E+00  0.19088197177E+04  0.19088197177E+04  0.50400001928E-02 0. -1.
       -1   -1    0    0    0  501  0.00000000000E+00  0.00000000000E+00 -0.90238427680E+03  0.90238427681E+03  0.50400001928E-02 0.  1.
    10030    2    1    2    0    0  0.00000000000E+00  0.00000000000E+00  0.10064354409E+04  0.28112039945E+04  0.26248724926E+04 0.  0.
        3    1    3    3  502    0  0.35071259012E+03 -0.12788424620E+03  0.18507623287E+04  0.18880346683E+04  0.10100000352E+00 0. -1.
       -3    1    3    3    0  502 -0.35071259012E+03  0.12788424620E+03 -0.84432688776E+03  0.92316932623E+03  0.10100000352E+00 0.  1.
</event>
<event>
 5   0  0.9797278E-06  0.3060902E+04  0.7818609E-02  0.8226551E-01
       -2   -1    0    0    0  501  0.00000000000E+00  0.00000000000E+00  0.73059666979E+03  0.73059666979E+03  0.25500000920E-02 0.  1.
        2   -1    0    0  501    0  0.00000000000E+00  0.00000000000E+00 -0.32059832335E+04  0.32059832335E+04  0.25500000920E-02 0. -1.
    10030    2    1    2    0    0  0.00000000000E+00  0.00000000000E+00 -0.24753865638E+04  0.39365799033E+04  0.30609022682E+04 0.  0.
        1    1    3    3  502    0  0.70095329612E+03  0.10041360432E+03  0.50724573977E+03  0.87104342935E+03  0.50400001928E-02 0.  1.
       -1    1    3    3    0  502 -0.70095329612E+03 -0.10041360432E+03 -0.29826323035E+04  0.30655364740E+04  0.50400001928E-02 0. -1.
</event>
<event>
 5   0  0.4250961E-06  0.2052369E+04  0.7818609E-02  0.8582520E-01
       -1   -1    0    0    0  501  0.00000000000E+00  0.00000000000E+00  0.74188804896E+03  0.74188804898E+03  0.50400001928E-02 0.  1.
        1   -1    0    0  501    0  0.00000000000E+00  0.00000000000E+00 -0.14194257903E+04  0.14194257903E+04  0.50400001928E-02 0. -1.
    10030    2    1    2    0    0  0.00000000000E+00  0.00000000000E+00 -0.67753774134E+03  0.21613138393E+04  0.20523693919E+04 0.  0.
        1    1    3    3  502    0 -0.98350028691E+03  0.25399748615E+03 -0.49234384568E+03  0.11288002479E+04  0.50400001928E-02 0.  1.
       -1    1    3    3    0  502  0.98350028691E+03 -0.25399748615E+03 -0.18519389566E+03  0.10325135914E+04  0.50400001928E-02 0. -1.
</event>
<event>
 5   0  0.9797278E-06  0.3213001E+04  0.7818609E-02  0.8185392E-01
       -2   -1    0    0    0  501  0.00000000000E+00  0.00000000000E+00  0.17690169589E+04  0.17690169589E+04  0.25500000920E-02 0. -1.
        2   -1    0    0  501    0  0.00000000000E+00  0.00000000000E+00 -0.14589144440E+04  0.14589144440E+04  0.25500000920E-02 0.  1.
    10030    2    1    2    0    0  0.00000000000E+00  0.00000000000E+00  0.31010251488E+03  0.32279314029E+04  0.32130013340E+04 0.  0.
        1    1    3    3  502    0  0.80124452314E+03  0.12540797341E+04 -0.45285188238E+03  0.15555653611E+04  0.50400001928E-02 0.  1.
       -1    1    3    3    0  502 -0.80124452314E+03 -0.12540797341E+04  0.76295439725E+03  0.16723660418E+04  0.50400001928E-02 0. -1.
</event>
<event>
 5   0  0.9797278E-06  0.3032166E+04  0.7818609E-02  0.8234605E-01
       -2   -1    0    0    0  501  0.00000000000E+00  0.00000000000E+00  0.14273005257E+04  0.14273005257E+04  0.25500000920E-02 0.  1.
        2   -1    0    0  501    0  0.00000000000E+00  0.00000000000E+00 -0.16103878936E+04  0.16103878937E+04  0.25500000920E-02 0. -1.
    10030    2    1    2    0    0  0.00000000000E+00  0.00000000000E+00 -0.18308736791E+03  0.30376884194E+04  0.30321658842E+04 0.  0.
        1    1    3    3  502    0  0.17579105683E+03  0.14190983614E+04  0.41312456989E+03  0.14884268760E+04  0.50400001928E-02 0.  1.
       -1    1    3    3    0  502 -0.17579105683E+03 -0.14190983614E+04 -0.59621193780E+03  0.15492615434E+04  0.50400001928E-02 0. -1.
</event>
<event>
 5   0  0.1001961E-05  0.3085957E+04  0.7818609E-02  0.8219602E-01
        2   -1    0    0  501    0  0.00000000000E+00  0.00000000000E+00  0.25803791394E+04  0.25803791394E+04  0.25500000920E-02 0. -1.
       -2   -1    0    0    0  501  0.00000000000E+00  0.00000000000E+00 -0.92264855342E+03  0.92264855342E+03  0.25500000920E-02 0.  1.
    10030    2    1    2    0    0  0.00000000000E+00  0.00000000000E+00  0.16577305860E+04  0.35030276929E+04  0.30859572779E+04 0.  0.
        5    1    3    3  502    0 -0.10724648344E+04 -0.82887331019E+03 -0.80337931805E+01  0.13554698142E+04  0.46999998093E+01 0.  1.
       -5    1    3    3    0  502  0.10724648344E+04  0.82887331019E+03  0.16657643792E+04  0.21475578787E+04  0.46999998093E+01 0. -1.
</event>
<event>
 5   0  0.1007567E-05  0.3118548E+04  0.7818609E-02  0.8210666E-01
        2   -1    0    0  501    0  0.00000000000E+00  0.00000000000E+00  0.19179839914E+04  0.19179839914E+04  0.25500000920E-02 0. -1.
       -2   -1    0    0    0  501  0.00000000000E+00  0.00000000000E+00 -0.12676514005E+04  0.12676514005E+04  0.25500000920E-02 0.  1.
    10030    2    1    2    0    0  0.00000000000E+00  0.00000000000E+00  0.65033259093E+03  0.31856353919E+04  0.31185477985E+04 0.  0.
        3    1    3    3  502    0  0.10711375233E+04 -0.70847827844E+03 -0.57819847341E+03  0.14083999964E+04  0.10100000352E+00 0.  1.
       -3    1    3    3    0  502 -0.10711375233E+04  0.70847827844E+03  0.12285310643E+04  0.17772353955E+04  0.10100000352E+00 0. -1.
</event>
<event>
 5   0  0.3848286E-06  0.1765283E+04  0.7818609E-02  0.8724982E-01
        1   -1    0    0  501    0  0.00000000000E+00  0.00000000000E+00  0.66392446673E+03  0.66392446675E+03  0.50400001928E-02 0. -1.
       -1   -1    0    0    0  501  0.00000000000E+00  0.00000000000E+00 -0.11734112383E+04  0.11734112383E+04  0.50400001928E-02 0.  1.
    10030    2    1    2    0    0  0.00000000000E+00  0.00000000000E+00 -0.50948677159E+03  0.18373357051E+04  0.17652834681E+04 0.  0.
        2    1    3    3  502    0 -0.60596299388E+03 -0.25696702208E+03  0.35733553239E+03  0.74894050706E+03  0.25500000920E-02 0. -1.
       -2    1    3    3    0  502  0.60596299388E+03  0.25696702208E+03 -0.86682230398E+03  0.10883951980E+04  0.25500000920E-02 0.  1.
</event>
<event>
 5   0  0.3838525E-06  0.3051428E+04  0.7818609E-02  0.8229196E-01
       -1   -1    0    0    0  501  0.00000000000E+00  0.00000000000E+00  0.12941135465E+04  0.12941135465E+04  0.50400001928E-02 0. -1.
        1   -1    0    0  501    0  0.00000000000E+00  0.00000000000E+00 -0.17987627746E+04  0.17987627746E+04  0.50400001928E-02 0.  1.
    10030    2    1    2    0    0  0.00000000000E+00  0.00000000000E+00 -0.50464922814E+03  0.30928763211E+04  0.30514280418E+04 0.  0.
        3    1    3    3  502    0 -0.58213834804E+03  0.74767014787E+03 -0.14643547029E+04  0.17441990748E+04  0.10100000352E+00 0.  1.
       -3    1    3    3    0  502  0.58213834804E+03 -0.74767014787E+03  0.95970547477E+03  0.13486772463E+04  0.10100000352E+00 0. -1.
</event>
<event>
 5   0  0.3493125E-06  0.3171891E+04  0.7818609E-02  0.8196280E-01
       -3   -1    0    0    0  501  0.00000000000E+00  0.00000000000E+00  0.82955415206E+03  0.82955415820E+03  0.10100000352E+00 0. -1.
        3   -1    0    0  501    0  0.00000000000E+00  0.00000000000E+00 -0.30320177713E+04  0.30320177730E+04  0.10100000352E+00 0.  1.
    10030    2    1    2    0    0  0.00000000000E+00  0.00000000000E+00 -0.22024636193E+04  0.38615719312E+04  0.31718908849E+04 0.  0.
        5    1    3    3  502    0  0.62794600225E+03  0.47285527000E+03 -0.27781545068E+04  0.28872258037E+04  0.46999998093E+01 0.  1.
       -5    1    3    3    0  502 -0.62794600225E+03 -0.47285527000E+03  0.57569088754E+03  0.97434612746E+03  0.46999998093E+01 0. -1.
</event>
<event>
 5   0  0.3848286E-06  0.3139243E+04  0.7818609E-02  0.8205050E-01
       -1   -1    0    0    0  501  0.00000000000E+00  0.00000000000E+00  0.14923999797E+04  0.14923999797E+04  0.50400001928E-02 0.  1.
        1   -1    0    0  501    0  0.00000000000E+00  0.00000000000E+00 -0.16508388551E+04  0.16508388551E+04  0.50400001928E-02 0. -1.
    10030    2    1    2    0    0  0.00000000000E+00  0.00000000000E+00 -0.15843887541E+03  0.31432388348E+04  0.31392431405E+04 0.  0.
        2    1    3    3  502    0  0.46014758561E+03 -0.14729507171E+04 -0.36662530539E+03  0.15861064688E+04  0.25500000920E-02 0.  1.
       -2    1    3    3    0  502 -0.46014758561E+03  0.14729507171E+04  0.20818642999E+03  0.15571323660E+04  0.25500000920E-02 0. -1.
</event>
<event>
 5   0  0.4250961E-06  0.3097830E+04  0.7818609E-02  0.8216334E-01
       -1   -1    0    0    0  501  0.00000000000E+00  0.00000000000E+00  0.97529208916E+03  0.97529208917E+03  0.50400001928E-02 0.  1.
        1   -1    0    0  501    0  0.00000000000E+00  0.00000000000E+00 -0.24599172321E+04  0.24599172321E+04  0.50400001928E-02 0. -1.
    10030    2    1    2    0    0  0.00000000000E+00  0.00000000000E+00 -0.14846251429E+04  0.34352093212E+04  0.30978300899E+04 0.  0.
        1    1    3    3  502    0  0.13427082705E+04 -0.51273887628E+03 -0.13825773708E+04  0.19943136266E+04  0.50400001928E-02 0.  1.
       -1    1    3    3    0  502 -0.13427082705E+04  0.51273887628E+03 -0.10204777206E+03  0.14408956946E+04  0.50400001928E-02 0. -1.
</event>
<event>
 5   0  0.9797278E-06  0.1824246E+04  0.7818609E-02  0.8693511E-01
        2   -1    0    0  501    0  0.00000000000E+00  0.00000000000E+00  0.16125427676E+04  0.16125427676E+04  0.25500000920E-02 0. -1.
       -2   -1    0    0    0  501  0.00000000000E+00  0.00000000000E+00 -0.51593586841E+03  0.51593586841E+03  0.25500000920E-02 0.  1.
    10030    2    1    2    0    0  0.00000000000E+00  0.00000000000E+00  0.10966068992E+04  0.21284786360E+04  0.18242463136E+04 0.  0.
        1    1    3    3  502    0  0.25963809895E+03 -0.84681662187E+03  0.29412308606E+03  0.93328383854E+03  0.50400001928E-02 0. -1.
       -1    1    3    3    0  502 -0.25963809895E+03  0.84681662187E+03  0.80248381310E+03  0.11951947974E+04  0.50400001928E-02 0.  1.
</event>
<event>
 5   0  0.3838525E-06  0.3070001E+04  0.7818609E-02  0.8224019E-01
       -1   -1    0    0    0  501  0.00000000000E+00  0.00000000000E+00  0.13490139464E+04  0.13490139464E+04  0.50400001928E-02 0.  1.
        1   -1    0    0  501    0  0.00000000000E+00  0.00000000000E+00 -0.17466289107E+04  0.17466289107E+04  0.50400001928E-02 0. -1.
    10030    2    1    2    0    0  0.00000000000E+00  0.00000000000E+00 -0.39761496436E+03  0.30956428571E+04  0.30700011464E+04 0.  0.
        3    1    3    3  502    0 -0.26010747301E+03 -0.12591666037E+04 -0.10443037484E+04  0.16564198630E+04  0.10100000352E+00 0. -1.
       -3    1    3    3    0  502  0.26010747301E+03  0.12591666037E+04  0.64668878405E+03  0.14392229942E+04  0.10100000352E+00 0.  1.
</event>
<event>
 5   0  0.1119100E-05  0.2706546E+04  0.7818609E-02  0.8332884E-01
        2   -1    0    0  501    0  0.00000000000E+00  0.00000000000E+00  0.16321531343E+04  0.16321531343E+04  0.25500000920E-02 0.  1.
       -2   -1    0    0    0  501  0.00000000000E+00  0.00000000000E+00 -0.11220440159E+04  0.11220440159E+04  0.25500000920E-02 0. -1.
    10030    2    1    2    0    0  0.00000000000E+00  0.00000000000E+00  0.51010911842E+03  0.27541971502E+04  0.27065458853E+04 0.  0.
        2    1    3    3  502    0  0.92692347539E+03 -0.79713359418E+03 -0.33545380868E+03  0.12677296060E+04  0.25500000920E-02 0. -1.
       -2    1    3    3    0  502 -0.92692347539E+03  0.79713359418E+03  0.84556292710E+03  0.14864675442E+04  0.25500000920E-02 0.  1.
</event>
<event>
 5   0  0.4139628E-06  0.2186120E+04  0.7818609E-02  0.8524228E-01
       -1   -1    0    0    0  501  0.00000000000E+00  0.00000000000E+00  0.10511249317E+04  0.10511249317E+04  0.50400001928E-02 0. -1.
        1   -1    0    0  501    0  0.00000000000E+00  0.00000000000E+00 -0.11366677038E+04  0.11366677038E+04  0.50400001928E-02 0.  1.
    10030    2    1    2    0    0  0.00000000000E+00  0.00000000000E+00 -0.85542772112E+02  0.21877926355E+04  0.21861196331E+04 0.  0.
        5    1    3    3  502    0  0.46701446449E+03 -0.27282201903E+03  0.90780988403E+03  0.10567285553E+04  0.46999998093E+01 0. -1.
       -5    1    3    3    0  502 -0.46701446449E+03  0.27282201903E+03 -0.99335265614E+03  0.11310640802E+04  0.46999998093E+01 0.  1.
</event>
<event>
 5   0  0.1108153E-05  0.3127267E+04  0.7818609E-02  0.8208294E-01
       -2   -1    0    0    0  501  0.00000000000E+00  0.00000000000E+00  0.16221480769E+04  0.16221480769E+04  0.25500000920E-02 0.  1.
        2   -1    0    0  501    0  0.00000000000E+00  0.00000000000E+00 -0.15072296839E+04  0.15072296839E+04  0.25500000920E-02 0. -1.
    10030    2    1    2    0    0  0.00000000000E+00  0.00000000000E+00  0.11491839301E+03  0.31293777609E+04  0.31272670070E+04 0.  0.
        4    1    3    3  502    0 -0.11268755695E+04  0.65087974489E+03 -0.80999101122E+03  0.15328339906E+04  0.12699999809E+01 0.  1.
       -4    1    3    3    0  502  0.11268755695E+04 -0.65087974489E+03  0.92490940423E+03  0.15965437703E+04  0.12699999809E+01 0. -1.
</event>
<event>
 5   0  0.9797278E-06  0.3233803E+04  0.7818609E-02  0.8179946E-01
        2   -1    0    0  501    0  0.00000000000E+00  0.00000000000E+00  0.14399740328E+04  0.14399740328E+04  0.25500000920E-02 0. -1.
       -2   -1    0    0    0  501  0.00000000000E+00  0.00000000000E+00 -0.18155681217E+04  0.18155681217E+04  0.25500000920E-02 0.  1.
    10030    2    1    2    0    0  0.00000000000E+00  0.00000000000E+00 -0.37559408893E+03  0.32555421545E+04  0.32338033026E+04 0.  0.
        1    1    3    3  502    0 -0.51201012764E+03 -0.46121795214E+03 -0.16603310006E+04  0.17976583106E+04  0.50400001928E-02 0.  1.
       -1    1    3    3    0  502  0.51201012764E+03  0.46121795214E+03  0.12847369116E+04  0.14578838439E+04  0.50400001928E-02 0. -1.
</event>
<event>
 5   0  0.9797278E-06  0.3118102E+04  0.7818609E-02  0.8210787E-01
        2   -1    0    0  501    0  0.00000000000E+00  0.00000000000E+00  0.19246261024E+04  0.19246261024E+04  0.25500000920E-02 0. -1.
       -2   -1    0    0    0  501  0.00000000000E+00  0.00000000000E+00 -0.12629155983E+04  0.12629155983E+04  0.25500000920E-02 0.  1.
    10030    2    1    2    0    0  0.00000000000E+00  0.00000000000E+00  0.66171050411E+03  0.31875417007E+04  0.31181021957E+04 0.  0.
        1    1    3    3  502    0 -0.95602717399E+03 -0.12217644561E+04  0.17267082758E+03  0.15609329128E+04  0.50400001928E-02 0.  1.
       -1    1    3    3    0  502  0.95602717399E+03  0.12217644561E+04  0.48903967653E+03  0.16266087879E+04  0.50400001928E-02 0. -1.
</event>
<event>
 5   0  0.3807334E-06  0.1593493E+04  0.7818609E-02  0.8824556E-01
       -1   -1    0    0    0  501  0.00000000000E+00  0.00000000000E+00  0.47849379873E+03  0.47849379876E+03  0.50400001928E-02 0.  1.
        1   -1    0    0  501    0  0.00000000000E+00  0.00000000000E+00 -0.13266731549E+04  0.13266731549E+04  0.50400001928E-02 0. -1.
    10030    2    1    2    0    0  0.00000000000E+00  0.00000000000E+00 -0.84817935616E+03  0.18051669537E+04  0.15934928649E+04 0.  0.
        4    1    3    3  502    0 -0.23174720518E+03 -0.42914871155E+03  0.28962241280E+03  0.56723728600E+03  0.12699999809E+01 0.  1.
       -4    1    3    3    0  502  0.23174720518E+03  0.42914871155E+03 -0.11378017690E+04  0.12379296677E+04  0.12699999809E+01 0. -1.
</event>
<event>
 5   0  0.9797278E-06  0.2057444E+04  0.7818609E-02  0.8580225E-01
        2   -1    0    0  501    0  0.00000000000E+00  0.00000000000E+00  0.13429358266E+04  0.13429358266E+04  0.25500000920E-02 0.  1.
       -2   -1    0    0    0  501  0.00000000000E+00  0.00000000000E+00 -0.78802645400E+03  0.78802645400E+03  0.25500000920E-02 0. -1.
    10030    2    1    2    0    0  0.00000000000E+00  0.00000000000E+00  0.55490937260E+03  0.21309622806E+04  0.20574440040E+04 0.  0.
        1    1    3    3  502    0 -0.10561861784E+03  0.98183660149E+03 -0.21135702356E+02  0.98772725101E+03  0.50400001928E-02 0.  1.
       -1    1    3    3    0  502  0.10561861784E+03 -0.98183660149E+03  0.57604507495E+03  0.11432350296E+04  0.50400001928E-02 0. -1.
</event>
<event>
 5   0  0.1108153E-05  0.1777524E+04  0.7818609E-02  0.8718344E-01
        2   -1    0    0  501    0  0.00000000000E+00  0.00000000000E+00  0.51410704627E+03  0.51410704628E+03  0.25500000920E-02 0. -1.
       -2   -1    0    0    0  501  0.00000000000E+00  0.00000000000E+00 -0.15364455742E+04  0.15364455742E+04  0.25500000920E-02 0.  1.
    10030    2    1    2    0    0  0.00000000000E+00  0.00000000000E+00 -0.10223385279E+04  0.20505526205E+04  0.17775235536E+04 0.  0.
        4    1    3    3  502    0  0.17992047711E+03 -0.68560220336E+03 -0.11296909537E+04  0.13336510125E+04  0.12699999809E+01 0.  1.
       -4    1    3    3    0  502 -0.17992047711E+03  0.68560220336E+03  0.10735242577E+03  0.71690160800E+03  0.12699999809E+01 0. -1.
</event>
<event>
 5   0  0.3848286E-06  0.2363630E+04  0.7818609E-02  0.8453247E-01
       -1   -1    0    0    0  501  0.00000000000E+00  0.00000000000E+00  0.10017220792E+04  0.10017220793E+04  0.50400001928E-02 0. -1.
        1   -1    0    0  501    0  0.00000000000E+00  0.00000000000E+00 -0.13942856522E+04  0.13942856522E+04  0.50400001928E-02 0.  1.
    10030    2    1    2    0    0  0.00000000000E+00  0.00000000000E+00 -0.39256357295E+03  0.23960077315E+04  0.23636300240E+04 0.  0.
        2    1    3    3  502    0 -0.90559342063E+03  0.35651923100E+02 -0.96516791544E+03  0.13239787038E+04  0.25500000920E-02 0.  1.
       -2    1    3    3    0  502  0.90559342063E+03 -0.35651923100E+02  0.57260434249E+03  0.10720290277E+04  0.25500000920E-02 0. -1.
</event>
<event>
 5   0  0.9797278E-06  0.3077832E+04  0.7818609E-02  0.8221848E-01
        2   -1    0    0  501    0  0.00000000000E+00  0.00000000000E+00  0.14074608826E+04  0.14074608826E+04  0.25500000920E-02 0.  1.
       -2   -1    0    0    0  501  0.00000000000E+00  0.00000000000E+00 -0.16826488565E+04  0.16826488565E+04  0.25500000920E-02 0. -1.
    10030    2    1    2    0    0  0.00000000000E+00  0.00000000000E+00 -0.27518797393E+03  0.30901097391E+04  0.30778319932E+04 0.  0.
        1    1    3    3  502    0  0.62072319565E+03 -0.11618825163E+04 -0.93637705537E+03  0.16161900436E+04  0.50400001928E-02 0. -1.
       -1    1    3    3    0  502 -0.62072319565E+03  0.11618825163E+04  0.66118908144E+03  0.14739196954E+04  0.50400001928E-02 0.  1.
</event>
<event>
 5   0  0.3838525E-06  0.2918193E+04  0.7818609E-02  0.8267485E-01
        1   -1    0    0  501    0  0.00000000000E+00  0.00000000000E+00  0.17416666501E+04  0.17416666501E+04  0.50400001928E-02 0.  1.
       -1   -1    0    0    0  501  0.00000000000E+00  0.00000000000E+00 -0.12223707901E+04  0.12223707901E+04  0.50400001928E-02 0. -1.
    10030    2    1    2    0    0  0.00000000000E+00  0.00000000000E+00  0.51929586003E+03  0.29640374402E+04  0.29181928923E+04 0.  0.
        3    1    3    3  502    0 -0.30206948876E+03  0.11089120003E+04 -0.65337902927E+03  0.13220574748E+04  0.10100000352E+00 0. -1.
       -3    1    3    3    0  502  0.30206948876E+03 -0.11089120003E+04  0.11726748893E+04  0.16419799654E+04  0.10100000352E+00 0.  1.
</event>
<event>
 5   0  0.4139628E-06  0.3035259E+04  0.7818609E-02  0.8233734E-01
        1   -1    0    0  501    0  0.00000000000E+00  0.00000000000E+00  0.14849269344E+04  0.14849269344E+04  0.50400001928E-02 0.  1.
       -1   -1    0    0    0  501  0.00000000000E+00  0.00000000000E+00 -0.15510521532E+04  0.15510521533E+04  0.50400001928E-02 0. -1.
    10030    2    1    2    0    0  0.00000000000E+00  0.00000000000E+00 -0.66125218894E+02  0.30359790876E+04  0.30352588812E+04 0.  0.
        5    1    3    3  502    0 -0.66050660641E+03 -0.13504196549E+04  0.17501272881E+03  0.15134575537E+04  0.46999998093E+01 0. -1.
       -5    1    3    3    0  502  0.66050660641E+03  0.13504196549E+04 -0.24113794771E+03  0.15225215340E+04  0.46999998093E+01 0.  1.
</event>
<event>
 5   0  0.4139628E-06  0.2353512E+04  0.7818609E-02  0.8457116E-01
       -1   -1    0    0    0  501  0.00000000000E+00  0.00000000000E+00  0.11266965769E+04  0.11266965769E+04  0.50400001928E-02 0.  1.
        1   -1    0    0  501    0  0.00000000000E+00  0.00000000000E+00 -0.12290391986E+04  0.12290391986E+04  0.50400001928E-02 0. -1.
    10030    2    1    2    0    0  0.00000000000E+00  0.00000000000E+00 -0.10234262172E+03  0.23557357755E+04  0.23535116383E+04 0.  0.
        5    1    3    3  502    0  0.13936890466E+03 -0.11666598235E+04 -0.11614284132E+03  0.11806905119E+04  0.46999998093E+01 0. -1.
       -5    1    3    3    0  502 -0.13936890466E+03  0.11666598235E+04  0.13800219594E+02  0.11750452635E+04  0.46999998093E+01 0.  1.
</event>
<event>
 5   0  0.3848286E-06  0.3145087E+04  0.7818609E-02  0.8203472E-01
       -1   -1    0    0    0  501  0.00000000000E+00  0.00000000000E+00  0.11889026148E+04  0.11889026148E+04  0.50400001928E-02 0.  1.
        1   -1    0    0  501    0  0.00000000000E+00  0.00000000000E+00 -0.20799799962E+04  0.20799799962E+04  0.50400001928E-02 0. -1.
    10030    2    1    2    0    0  0.00000000000E+00  0.00000000000E+00 -0.89107738137E+03  0.32688826110E+04  0.31450873796E+04 0.  0.
        2    1    3    3  502    0 -0.91933724601E+03 -0.12625863852E+04 -0.25505374964E+03  0.15825162771E+04  0.25500000920E-02 0. -1.
       -2    1    3    3    0  502  0.91933724601E+03  0.12625863852E+04 -0.63602363174E+03  0.16863663339E+04  0.25500000920E-02 0.  1.
</event>
<event>
 5   0  0.1007567E-05  0.3108549E+04  0.7818609E-02  0.8213396E-01
        2   -1    0    0  501    0  0.00000000000E+00  0.00000000000E+00  0.22450554262E+04  0.22450554262E+04  0.25500000920E-02 0.  1.
       -2   -1    0    0    0  501  0.00000000000E+00  0.00000000000E+00 -0.10760397210E+04  0.10760397210E+04  0.25500000920E-02 0. -1.
    10030    2    1    2    0    0  0.00000000000E+00  0.00000000000E+00  0.11690157052E+04  0.33210951472E+04  0.31085487382E+04 0.  0.
        3    1    3    3  502    0 -0.11017497082E+04  0.10911561840E+04  0.47096535904E+03  0.16205809504E+04  0.10100000352E+00 0. -1.
       -3    1    3    3    0  502  0.11017497082E+04 -0.10911561840E+04  0.69805034619E+03  0.17005141968E+04  0.10100000352E+00 0.  1.
</event>
<event>
 5   0  0.1001961E-05  0.2673753E+04  0.7818609E-02  0.8343572E-01
       -2   -1    0    0    0  501  0.00000000000E+00  0.00000000000E+00  0.14304485459E+04  0.14304485459E+04  0.25500000920E-02 0.  1.
        2   -1    0    0  501    0  0.00000000000E+00  0.00000000000E+00 -0.12494252292E+04  0.12494252292E+04  0.25500000920E-02 0. -1.
    10030    2    1    2    0    0  0.00000000000E+00  0.00000000000E+00  0.18102331663E+03  0.26798737751E+04  0.26737527951E+04 0.  0.
        5    1    3    3  502    0  0.52217600515E+03 -0.80567908121E+03 -0.84190285004E+03  0.12769530380E+04  0.46999998093E+01 0. -1.
       -5    1    3    3    0  502 -0.52217600515E+03  0.80567908121E+03  0.10229261667E+04  0.14029207371E+04  0.46999998093E+01 0.  1.
</event>
<event>
 5   0  0.1119100E-05  0.2867295E+04  0.7818609E-02  0.8282675E-01
        2   -1    0    0  501    0  0.00000000000E+00  0.00000000000E+00  0.16603868937E+04  0.16603868937E+04  0.25500000920E-02 0.  1.
       -2   -1    0    0    0  501  0.00000000000E+00  0.00000000000E+00 -0.12378711320E+04  0.12378711320E+04  0.25500000920E-02 0. -1.
    10030    2    1    2    0    0  0.00000000000E+00  0.00000000000E+00  0.42251576174E+03  0.28982580257E+04  0.28672948950E+04 0.  0.
        2    1    3    3  502    0  0.10240167439E+04 -0.50281374709E+03  0.10889158801E+04  0.15770763298E+04  0.25500000920E-02 0.  1.
       -2    1    3    3    0  502 -0.10240167439E+04  0.50281374709E+03 -0.66640011835E+03  0.13211816960E+04  0.25500000920E-02 0. -1.
</event>
<event>
 5   0  0.3848286E-06  0.2975577E+04  0.7818609E-02  0.8250740E-01
       -1   -1    0    0    0  501  0.00000000000E+00  0.00000000000E+00  0.13555537035E+04  0.13555537035E+04  0.50400001928E-02 0.  1.
        1   -1    0    0  501    0  0.00000000000E+00  0.00000000000E+00 -0.16329223146E+04  0.16329223146E+04  0.50400001928E-02 0. -1.
    10030    2    1    2    0    0  0.00000000000E+00  0.00000000000E+00 -0.27736861112E+03  0.29884760181E+04  0.29755765096E+04 0.  0.
        2    1    3    3  502    0  0.63937539422E+03  0.46117971270E+03  0.11285407998E+04  0.13766233904E+04  0.25500000920E-02 0.  1.
       -2    1    3    3    0  502 -0.63937539422E+03 -0.46117971270E+03 -0.14059094109E+04  0.16118526278E+04  0.25500000920E-02 0. -1.
</event>
<event>
 5   0  0.9797278E-06  0.3085550E+04  0.7818609E-02  0.8219715E-01
       -2   -1    0    0    0  501  0.00000000000E+00  0.00000000000E+00  0.13926161939E+04  0.13926161939E+04  0.25500000920E-02 0. -1.
        2   -1    0    0  501    0  0.00000000000E+00  0.00000000000E+00 -0.17091245064E+04  0.17091245064E+04  0.25500000920E-02 0.  1.
    10030    2    1    2    0    0  0.00000000000E+00  0.00000000000E+00 -0.31650831242E+03  0.31017407003E+04  0.30855498473E+04 0.  0.
        1    1    3    3  502    0  0.56924716256E+03 -0.11533247785E+04  0.69824610468E+03  0.14634712158E+04  0.50400001928E-02 0. -1.
       -1    1    3    3    0  502 -0.56924716256E+03  0.11533247785E+04 -0.10147544171E+04  0.16382694845E+04  0.50400001928E-02 0.  1.
</event>
<event>
 5   0  0.3848286E-06  0.3097180E+04  0.7818609E-02  0.8216512E-01
       -1   -1    0    0    0  501  0.00000000000E+00  0.00000000000E+00  0.18013869876E+04  0.18013869876E+04  0.50400001928E-02 0. -1.
        1   -1    0    0  501    0  0.00000000000E+00  0.00000000000E+00 -0.13312689487E+04  0.13312689487E+04  0.50400001928E-02 0.  1.
    10030    2    1    2    0    0  0.00000000000E+00  0.00000000000E+00  0.47011803890E+03  0.31326559364E+04  0.30971797244E+04 0.  0.
        2    1    3    3  502    0 -0.66503205035E+03  0.57443207514E+02 -0.11782881129E+04  0.13542268005E+04  0.25500000920E-02 0.  1.
       -2    1    3    3    0  502  0.66503205035E+03 -0.57443207514E+02  0.16484061518E+04  0.17784291359E+04  0.25500000920E-02 0. -1.
</event>
<event>
 5   0  0.4250961E-06  0.3113811E+04  0.7818609E-02  0.8211958E-01
        1   -1    0    0  501    0  0.00000000000E+00  0.00000000000E+00  0.27873238754E+04  0.27873238754E+04  0.50400001928E-02 0.  1.
       -1   -1    0    0    0  501  0.00000000000E+00  0.00000000000E+00 -0.86963494924E+03  0.86963494926E+03  0.50400001928E-02 0. -1.
    10030    2    1    2    0    0  0.00000000000E+00  0.00000000000E+00  0.19176889262E+04  0.36569588247E+04  0.31138106924E+04 0.  0.
        1    1    3    3  502    0  0.21875343281E+03 -0.82977226500E+03  0.24845121366E+04  0.26285310790E+04  0.50400001928E-02 0.  1.
       -1    1    3    3    0  502 -0.21875343281E+03  0.82977226500E+03 -0.56682321047E+03  0.10284277457E+04  0.50400001928E-02 0. -1.
</event>
<event>
 5   0  0.3838525E-06  0.3100129E+04  0.7818609E-02  0.8215703E-01
        1   -1    0    0  501    0  0.00000000000E+00  0.00000000000E+00  0.14078993708E+04  0.14078993708E+04  0.50400001928E-02 0.  1.
       -1   -1    0    0    0  501  0.00000000000E+00  0.00000000000E+00 -0.17065849901E+04  0.17065849901E+04  0.50400001928E-02 0. -1.
    10030    2    1    2    0    0  0.00000000000E+00  0.00000000000E+00 -0.29868561928E+03  0.31144843610E+04  0.31001289869E+04 0.  0.
        3    1    3    3  502    0 -0.85345010901E+03  0.60971279290E+03  0.99724534476E+03  0.14472819581E+04  0.10100000352E+00 0.  1.
       -3    1    3    3    0  502  0.85345010901E+03 -0.60971279290E+03 -0.12959309640E+04  0.16672024029E+04  0.10100000352E+00 0. -1.
</event>
<event>
 5   0  0.3848286E-06  0.1616606E+04  0.7818609E-02  0.8810410E-01
        1   -1    0    0  501    0  0.00000000000E+00  0.00000000000E+00  0.60752729601E+03  0.60752729603E+03  0.50400001928E-02 0. -1.
       -1   -1    0    0    0  501  0.00000000000E+00  0.00000000000E+00 -0.10754317316E+04  0.10754317316E+04  0.50400001928E-02 0.  1.
    10030    2    1    2    0    0  0.00000000000E+00  0.00000000000E+00 -0.46790443555E+03  0.16829590276E+04  0.16166064851E+04 0.  0.
        2    1    3    3  502    0  0.15200361976E+03 -0.79186332936E+03 -0.29285637142E+03  0.85785633243E+03  0.25500000920E-02 0.  1.
       -2    1    3    3    0  502 -0.15200361976E+03  0.79186332936E+03 -0.17504806414E+03  0.82510269517E+03  0.25500000920E-02 0. -1.
</event>
<event>
 5   0  0.3838525E-06  0.3033363E+04  0.7818609E-02  0.8234267E-01
       -1   -1    0    0    0  501  0.00000000000E+00  0.00000000000E+00  0.12545438920E+04  0.12545438920E+04  0.50400001928E-02 0. -1.
        1   -1    0    0  501    0  0.00000000000E+00  0.00000000000E+00 -0.18335934590E+04  0.18335934590E+04  0.50400001928E-02 0.  1.
    10030    2    1    2    0    0  0.00000000000E+00  0.00000000000E+00 -0.57904956703E+03  0.30881373510E+04  0.30333634628E+04 0.  0.
        3    1    3    3  502    0 -0.29530224079E+03 -0.79221091937E+03  0.99238741653E+03  0.13037002527E+04  0.10100000352E+00 0. -1.
       -3    1    3    3    0  502  0.29530224079E+03  0.79221091937E+03 -0.15714369836E+04  0.17844370983E+04  0.10100000352E+00 0.  1.
</event>
<event>
 5   0  0.3807334E-06  0.2509505E+04  0.7818609E-02  0.8399607E-01
       -1   -1    0    0    0  501  0.00000000000E+00  0.00000000000E+00  0.76478125779E+03  0.76478125780E+03  0.50400001928E-02 0.  1.
        1   -1    0    0  501    0  0.00000000000E+00  0.00000000000E+00 -0.20586327698E+04  0.20586327698E+04  0.50400001928E-02 0. -1.
    10030    2    1    2    0    0  0.00000000000E+00  0.00000000000E+00 -0.12938515120E+04  0.28234140276E+04  0.25095049385E+04 0.  0.
        4    1    3    3  502    0  0.20122270898E+03 -0.31941180479E+03  0.69937158359E+03  0.79475575146E+03  0.12699999809E+01 0.  1.
       -4    1    3    3    0  502 -0.20122270898E+03  0.31941180479E+03 -0.19932230956E+04  0.20286582761E+04  0.12699999809E+01 0. -1.
</event>
<event>
 5   0  0.3848286E-06  0.3086809E+04  0.7818609E-02  0.8219367E-01
       -1   -1    0    0    0  501  0.00000000000E+00  0.00000000000E+00  0.16083977140E+04  0.16083977140E+04  0.50400001928E-02 0.  1.
        1   -1    0    0  501    0  0.00000000000E+00  0.00000000000E+00 -0.14810375879E+04  0.14810375879E+04  0.50400001928E-02 0. -1.
    10030    2    1    2    0    0  0.00000000000E+00  0.00000000000E+00  0.12736012615E+03  0.30894353019E+04  0.30868090130E+04 0.  0.
        2    1    3    3  502    0 -0.13007508445E+04  0.76059761389E+03 -0.27072391999E+03  0.15309320464E+04  0.25500000920E-02 0. -1.
       -2    1    3    3    0  502  0.13007508445E+04 -0.76059761389E+03  0.39808404614E+03  0.15585032555E+04  0.25500000920E-02 0.  1.
</event>
<event>
 5   0  0.1119100E-05  0.3011066E+04  0.7818609E-02  0.8240578E-01
        2   -1    0    0  501    0  0.00000000000E+00  0.00000000000E+00  0.93253932824E+03  0.93253932824E+03  0.25500000920E-02 0. -1.
       -2   -1    0    0    0  501  0.00000000000E+00  0.00000000000E+00 -0.24305994319E+04  0.24305994319E+04  0.25500000920E-02 0.  1.
    10030    2    1    2    0    0  0.00000000000E+00  0.00000000000E+00 -0.14980601037E+04  0.33631387602E+04  0.30110659650E+04 0.  0.
        2    1    3    3  502    0 -0.94239414984E+03 -0.81401627573E+03 -0.16940713725E+04  0.21025239703E+04  0.25500000920E-02 0.  1.
       -2    1    3    3    0  502  0.94239414984E+03  0.81401627573E+03  0.19601126879E+03  0.12606147898E+04  0.25500000920E-02 0. -1.
</event>
<event>
 5   0  0.3848286E-06  0.1896984E+04  0.7818609E-02  0.8656359E-01
       -1   -1    0    0    0  501  0.00000000000E+00  0.00000000000E+00  0.57304945899E+03  0.57304945901E+03  0.50400001928E-02 0. -1.
        1   -1    0    0  501    0  0.00000000000E+00  0.00000000000E+00 -0.15699113835E+04  0.15699113835E+04  0.50400001928E-02 0.  1.
    10030    2    1    2    0    0  0.00000000000E+00  0.00000000000E+00 -0.99686192454E+03  0.21429608425E+04  0.18969837838E+04 0.  0.
        2    1    3    3  502    0  0.79373258793E+03  0.18921502302E+03 -0.10446846041E+04  0.13255865374E+04  0.25500000920E-02 0.  1.
       -2    1    3    3    0  502 -0.79373258793E+03 -0.18921502302E+03  0.47822679520E+02  0.81737430518E+03  0.25500000920E-02 0. -1.
</event>
<event>
 5   0  0.4139628E-06  0.3136489E+04  0.7818609E-02  0.8205795E-01
        1   -1    0    0  501    0  0.00000000000E+00  0.00000000000E+00  0.16223787315E+04  0.16223787315E+04  0.50400001928E-02 0.  1.
       -1   -1    0    0    0  501  0.00000000000E+00  0.00000000000E+00 -0.15159166911E+04  0.15159166911E+04  0.50400001928E-02 0. -1.
    10030    2    1    2    0    0  0.00000000000E+00  0.00000000000E+00  0.10646204044E+03  0.31382954226E+04  0.31364891190E+04 0.  0.
        5    1    3    3  502    0  0.16350869192E+03 -0.13885528592E+04 -0.65749824372E+03  0.15450372700E+04  0.46999998093E+01 0. -1.
       -5    1    3    3    0  502 -0.16350869192E+03  0.13885528592E+04  0.76396028416E+03  0.15932581526E+04  0.46999998093E+01 0.  1.
</event>
<event>
 5   0  0.3493125E-06  0.2562479E+04  0.7818609E-02  0.8381059E-01
        3   -1    0    0  501    0  0.00000000000E+00  0.00000000000E+00  0.80083814008E+03  0.80083814645E+03  0.10100000352E+00 0. -1.
       -3   -1    0    0    0  501  0.00000000000E+00  0.00000000000E+00 -0.20498200709E+04  0.20498200734E+04  0.10100000352E+00 0.  1.
    10030    2    1    2    0    0  0.00000000000E+00  0.00000000000E+00 -0.12489819308E+04  0.28506582198E+04  0.25624785702E+04 0.  0.
        3    1    3    3  502    0  0.29941094743E+03 -0.10897436366E+04  0.47039533529E+02  0.11311060237E+04  0.10100000352E+00 0. -1.
       -3    1    3    3    0  502 -0.29941094743E+03  0.10897436366E+04 -0.12960214643E+04  0.17195521961E+04  0.10100000352E+00 0.  1.
</event>
<event>
 5   0  0.1007567E-05  0.2998069E+04  0.7818609E-02  0.8244283E-01
       -2   -1    0    0    0  501  0.00000000000E+00  0.00000000000E+00  0.13663816652E+04  0.13663816652E+04  0.25500000920E-02 0. -1.
        2   -1    0    0  501    0  0.00000000000E+00  0.00000000000E+00 -0.16445653333E+04  0.16445653333E+04  0.25500000920E-02 0.  1.
    10030    2    1    2    0    0  0.00000000000E+00  0.00000000000E+00 -0.27818366807E+03  0.30109469985E+04  0.29980686574E+04 0.  0.
        3    1    3    3  502    0  0.94254704375E+03 -0.11142064022E+04 -0.48298508416E+03  0.15372460564E+04  0.10100000352E+00 0.  1.
       -3    1    3    3    0  502 -0.94254704375E+03  0.11142064022E+04  0.20480141610E+03  0.14737009420E+04  0.10100000352E+00 0. -1.
</event>
<event>
 5   0  0.1007567E-05  0.3166506E+04  0.7818609E-02  0.8197719E-01
       -2   -1    0    0    0  501  0.00000000000E+00  0.00000000000E+00  0.17014691428E+04  0.17014691428E+04  0.25500000920E-02 0. -1.
        2   -1    0    0  501    0  0.00000000000E+00  0.00000000000E+00 -0.14732506669E+04  0.14732506669E+04  0.25500000920E-02 0.  1.
    10030    2    1    2    0    0  0.00000000000E+00  0.00000000000E+00  0.22821847592E+03  0.31747198098E+04  0.31665063079E+04 0.  0.
        3    1    3    3  502    0 -0.74040829976E+03  0.13936170640E+04  0.24218081527E+03  0.15965664812E+04  0.10100000352E+00 0. -1.
       -3    1    3    3    0  502  0.74040829976E+03 -0.13936170640E+04 -0.13962339357E+02  0.15781533286E+04  0.10100000352E+00 0.  1.
</event>
<event>
 5   0  0.1108153E-05  0.2717723E+04  0.7818609E-02  0.8329277E-01
        2   -1    0    0  501    0  0.00000000000E+00  0.00000000000E+00  0.17650532919E+04  0.17650532919E+04  0.25500000920E-02 0.  1.
       -2   -1    0    0    0  501  0.00000000000E+00  0.00000000000E+00 -0.10461463201E+04  0.10461463201E+04  0.25500000920E-02 0. -1.
    10030    2    1    2    0    0  0.00000000000E+00  0.00000000000E+00  0.71890697183E+03  0.28111996120E+04  0.27177225805E+04 0.  0.
        4    1    3    3  502    0  0.61773781960E+03  0.12102063785E+04  0.34145081935E+03  0.14009959912E+04  0.12699999809E+01 0. -1.
       -4    1    3    3    0  502 -0.61773781960E+03 -0.12102063785E+04  0.37745615248E+03  0.14102036208E+04  0.12699999809E+01 0.  1.
</event>
<event>
 5   0  0.1007567E-05  0.1865884E+04  0.7818609E-02  0.8672027E-01
        2   -1    0    0  501    0  0.00000000000E+00  0.00000000000E+00  0.83641103405E+03  0.83641103405E+03  0.25500000920E-02 0. -1.
       -2   -1    0    0    0  501  0.00000000000E+00  0.00000000000E+00 -0.10406136867E+04  0.10406136867E+04  0.25500000920E-02 0.  1.
    10030    2    1    2    0    0  0.00000000000E+00  0.00000000000E+00 -0.20420265265E+03  0.18770247208E+04  0.18658839940E+04 0.  0.
        3    1    3    3  502    0 -0.47979058546E+03  0.78452723321E+03  0.55995463383E+02  0.92131291517E+03  0.10100000352E+00 0. -1.
       -3    1    3    3    0  502  0.47979058546E+03 -0.78452723321E+03 -0.26019811603E+03  0.95571180558E+03  0.10100000352E+00 0.  1.
</event>
<event>
 5   0  0.9797278E-06  0.3085258E+04  0.7818609E-02  0.8219795E-01
       -2   -1    0    0    0  501  0.00000000000E+00  0.00000000000E+00  0.13729609856E+04  0.13729609856E+04  0.25500000920E-02 0. -1.
        2   -1    0    0  501    0  0.00000000000E+00  0.00000000000E+00 -0.17332640786E+04  0.17332640786E+04  0.25500000920E-02 0.  1.
    10030    2    1    2    0    0  0.00000000000E+00  0.00000000000E+00 -0.36030309304E+03  0.31062250642E+04  0.30852578224E+04 0.  0.
        1    1    3    3  502    0  0.81599561164E+03 -0.90285997036E+03  0.77428835056E+03  0.14424033465E+04  0.50400001928E-02 0. -1.
       -1    1    3    3    0  502 -0.81599561164E+03  0.90285997036E+03 -0.11345914436E+04  0.16638217177E+04  0.50400001928E-02 0.  1.
</event>
<event>
 5   0  0.1007567E-05  0.3127353E+04  0.7818609E-02  0.8208271E-01
       -2   -1    0    0    0  501  0.00000000000E+00  0.00000000000E+00  0.22617720616E+04  0.22617720616E+04  0.25500000920E-02 0.  1.
        2   -1    0    0  501    0  0.00000000000E+00  0.00000000000E+00 -0.10810477401E+04  0.10810477401E+04  0.25500000920E-02 0. -1.
    10030    2    1    2    0    0  0.00000000000E+00  0.00000000000E+00  0.11807243216E+04  0.33428198017E+04  0.31273526029E+04 0.  0.
        3    1    3    3  502    0  0.57271328919E+03 -0.38387994252E+03  0.20905245748E+04  0.22012853813E+04  0.10100000352E+00 0.  1.
       -3    1    3    3    0  502 -0.57271328919E+03  0.38387994252E+03 -0.90980025326E+03  0.11415344204E+04  0.10100000352E+00 0. -1.
</event>
<event>
 5   0  0.1001961E-05  0.3231078E+04  0.7818609E-02  0.8180657E-01
       -2   -1    0    0    0  501  0.00000000000E+00  0.00000000000E+00  0.13282252017E+04  0.13282252017E+04  0.25500000920E-02 0. -1.
        2   -1    0    0  501    0  0.00000000000E+00  0.00000000000E+00 -0.19650026080E+04  0.19650026080E+04  0.25500000920E-02 0.  1.
    10030    2    1    2    0    0  0.00000000000E+00  0.00000000000E+00 -0.63677740628E+03  0.32932278096E+04  0.32310778296E+04 0.  0.
        5    1    3    3  502    0 -0.50708848415E+03 -0.14414175681E+04  0.21621981863E+03  0.15432421834E+04  0.46999998093E+01 0. -1.
       -5    1    3    3    0  502  0.50708848415E+03  0.14414175681E+04 -0.85299722491E+03  0.17499856263E+04  0.46999998093E+01 0.  1.
</event>
<event>
 5   0  0.3838525E-06  0.1718394E+04  0.7818609E-02  0.8750943E-01
       -1   -1    0    0    0  501  0.00000000000E+00  0.00000000000E+00  0.13415265168E+04  0.13415265168E+04  0.50400001928E-02 0. -1.
        1   -1    0    0  501    0  0.00000000000E+00  0.00000000000E+00 -0.55028308898E+03  0.55028308900E+03  0.50400001928E-02 0.  1.
    10030    2    1    2    0    0  0.00000000000E+00  0.00000000000E+00  0.79124342785E+03  0.18918096058E+04  0.17183938497E+04 0.  0.
        3    1    3    3  502    0 -0.67428610538E+03 -0.68864345961E+02  0.97693870117E+03  0.11890388076E+04  0.10100000352E+00 0. -1.
       -3    1    3    3    0  502  0.67428610538E+03  0.68864345961E+02 -0.18569527332E+03  0.70277079819E+03  0.10100000352E+00 0.  1.
</event>
<event>
 5   0  0.4250961E-06  0.2625474E+04  0.7818609E-02  0.8359599E-01
        1   -1    0    0  501    0  0.00000000000E+00  0.00000000000E+00  0.18947848372E+04  0.18947848372E+04  0.50400001928E-02 0. -1.
       -1   -1    0    0    0  501  0.00000000000E+00  0.00000000000E+00 -0.90948510827E+03  0.90948510828E+03  0.50400001928E-02 0.  1.
    10030    2    1    2    0    0  0.00000000000E+00  0.00000000000E+00  0.98529972889E+03  0.28042699454E+04  0.26254741231E+04 0.  0.
        1    1    3    3  502    0  0.12497622451E+04 -0.17392078753E+03  0.87942092369E+03  0.15380296716E+04  0.50400001928E-02 0.  1.
       -1    1    3    3    0  502 -0.12497622451E+04  0.17392078753E+03  0.10587880520E+03  0.12662402738E+04  0.50400001928E-02 0. -1.
</event>
<event>
 5   0  0.3838525E-06  0.2927005E+04  0.7818609E-02  0.8264888E-01
       -1   -1    0    0    0  501  0.00000000000E+00  0.00000000000E+00  0.74427229141E+03  0.74427229142E+03  0.50400001928E-02 0. -1.
        1   -1    0    0  501    0  0.00000000000E+00  0.00000000000E+00 -0.28777640623E+04  0.28777640623E+04  0.50400001928E-02 0.  1.
    10030    2    1    2    0    0  0.00000000000E+00  0.00000000000E+00 -0.21334917709E+04  0.36220363537E+04  0.29270053316E+04 0.  0.
        3    1    3    3  502    0 -0.26193119785E+01 -0.10586409489E+04  0.18370342863E+03  0.10744647409E+04  0.10100000352E+00 0. -1.
       -3    1    3    3    0  502  0.26193119785E+01  0.10586409489E+04 -0.23171951995E+04  0.25475716128E+04  0.10100000352E+00 0.  1.
</event>
<event>
 5   0  0.4250961E-06  0.3114846E+04  0.7818609E-02  0.8211675E-01
        1   -1    0    0  501    0  0.00000000000E+00  0.00000000000E+00  0.18088580706E+04  0.18088580706E+04  0.50400001928E-02 0.  1.
       -1   -1    0    0    0  501  0.00000000000E+00  0.00000000000E+00 -0.13409377276E+04  0.13409377276E+04  0.50400001928E-02 0. -1.
    10030    2    1    2    0    0  0.00000000000E+00  0.00000000000E+00  0.46792034300E+03  0.31497957982E+04  0.31148457623E+04 0.  0.
        1    1    3    3  502    0 -0.89178264060E+03  0.81067170294E+03 -0.76356725219E+03  0.14267094437E+04  0.50400001928E-02 0. -1.
       -1    1    3    3    0  502  0.89178264060E+03 -0.81067170294E+03  0.12314875952E+04  0.17230863545E+04  0.50400001928E-02 0.  1.
</event>
<event>
 5   0  0.3807334E-06  0.2653603E+04  0.7818609E-02  0.8350218E-01
       -1   -1    0    0    0  501  0.00000000000E+00  0.00000000000E+00  0.20656386430E+04  0.20656386430E+04  0.50400001928E-02 0. -1.
        1   -1    0    0  501    0  0.00000000000E+00  0.00000000000E+00 -0.85223155045E+03  0.85223155046E+03  0.50400001928E-02 0.  1.
    10030    2    1    2    0    0  0.00000000000E+00  0.00000000000E+00  0.12134070926E+04  0.29178701935E+04  0.26536031530E+04 0.  0.
        4    1    3    3  502    0 -0.14506524958E+03 -0.13068929972E+04  0.80151249144E+03  0.15399471158E+04  0.12699999809E+01 0.  1.
       -4    1    3    3    0  502  0.14506524958E+03  0.13068929972E+04  0.41189460112E+03  0.13779230777E+04  0.12699999809E+01 0. -1.
</event>
<event>
 5   0  0.1108153E-05  0.2671986E+04  0.7818609E-02  0.8344152E-01
       -2   -1    0    0    0  501  0.00000000000E+00  0.00000000000E+00  0.18547467879E+04  0.18547467879E+04  0.25500000920E-02 0.  1.
        2   -1    0    0  501    0  0.00000000000E+00  0.00000000000E+00 -0.96232921801E+03  0.96232921802E+03  0.25500000920E-02 0. -1.
    10030    2    1    2    0    0  0.00000000000E+00  0.00000000000E+00  0.89241756985E+03  0.28170760059E+04  0.26719857979E+04 0.  0.
        4    1    3    3  502    0 -0.94390602438E+03 -0.77815353717E+03  0.10123926076E+04  0.15878985846E+04  0.12699999809E+01 0.  1.
       -4    1    3    3    0  502  0.94390602438E+03  0.77815353717E+03 -0.11997503776E+03  0.12291774212E+04  0.12699999809E+01 0. -1.
</event>
<event>
 5   0  0.1001961E-05  0.3093779E+04  0.7818609E-02  0.8217447E-01
        2   -1    0    0  501    0  0.00000000000E+00  0.00000000000E+00  0.23189853552E+04  0.23189853552E+04  0.25500000920E-02 0.  1.
       -2   -1    0    0    0  501  0.00000000000E+00  0.00000000000E+00 -0.10318597054E+04  0.10318597054E+04  0.25500000920E-02 0. -1.
    10030    2    1    2    0    0  0.00000000000E+00  0.00000000000E+00  0.12871256498E+04  0.33508450606E+04  0.30937792717E+04 0.  0.
        5    1    3    3  502    0  0.10460938949E+04  0.21260254248E+02  0.18775649898E+04  0.21494270903E+04  0.46999998093E+01 0.  1.
       -5    1    3    3    0  502 -0.10460938949E+04 -0.21260254248E+02 -0.59043934000E+03  0.12014179704E+04  0.46999998093E+01 0. -1.
</event>
<event>
 5   0  0.3807334E-06  0.3065513E+04  0.7818609E-02  0.8225267E-01
        1   -1    0    0  501    0  0.00000000000E+00  0.00000000000E+00  0.24177600476E+04  0.24177600476E+04  0.50400001928E-02 0.  1.
       -1   -1    0    0    0  501  0.00000000000E+00  0.00000000000E+00 -0.97170210527E+03  0.97170210528E+03  0.50400001928E-02 0. -1.
    10030    2    1    2    0    0  0.00000000000E+00  0.00000000000E+00  0.14460579423E+04  0.33894621529E+04  0.30655130261E+04 0.  0.
        4    1    3    3  502    0  0.11805193421E+04 -0.70096731490E+02 -0.35510452668E+03  0.12347632594E+04  0.12699999809E+01 0. -1.
       -4    1    3    3    0  502 -0.11805193421E+04  0.70096731490E+02  0.18011624690E+04  0.21546988935E+04  0.12699999809E+01 0.  1.
</event>
<event>
 5   0  0.1007567E-05  0.3017279E+04  0.7818609E-02  0.8238814E-01
       -2   -1    0    0    0  501  0.00000000000E+00  0.00000000000E+00  0.85001724357E+03  0.85001724358E+03  0.25500000920E-02 0.  1.
        2   -1    0    0  501    0  0.00000000000E+00  0.00000000000E+00 -0.26775847592E+04  0.26775847592E+04  0.25500000920E-02 0. -1.
    10030    2    1    2    0    0  0.00000000000E+00  0.00000000000E+00 -0.18275675156E+04  0.35276020027E+04  0.30172790500E+04 0.  0.
        3    1    3    3  502    0  0.65439849780E+03  0.70458632593E+03 -0.22728550179E+04  0.24679038124E+04  0.10100000352E+00 0. -1.
       -3    1    3    3    0  502 -0.65439849780E+03 -0.70458632593E+03  0.44528750235E+03  0.10596981903E+04  0.10100000352E+00 0.  1.
</event>
<event>
 5   0  0.9797278E-06  0.3068833E+04  0.7818609E-02  0.8224344E-01
       -2   -1    0    0    0  501  0.00000000000E+00  0.00000000000E+00  0.13164824126E+04  0.13164824126E+04  0.25500000920E-02 0.  1.
        2   -1    0    0  501    0  0.00000000000E+00  0.00000000000E+00 -0.17884274903E+04  0.17884274903E+04  0.25500000920E-02 0. -1.
    10030    2    1    2    0    0  0.00000000000E+00  0.00000000000E+00 -0.47194507767E+03  0.31049099029E+04  0.30688325709E+04 0.  0.
        1    1    3    3  502    0  0.80524430493E+03 -0.22924582467E+00 -0.15574726889E+04  0.17533224518E+04  0.50400001928E-02 0. -1.
       -1    1    3    3    0  502 -0.80524430493E+03  0.22924582467E+00  0.10855276112E+04  0.13515874511E+04  0.50400001928E-02 0.  1.
</event>
<event>
 5   0  0.1119100E-05  0.3098587E+04  0.7818609E-02  0.8216126E-01
       -2   -1    0    0    0  501  0.00000000000E+00  0.00000000000E+00  0.15819619808E+04  0.15819619808E+04  0.25500000920E-02 0. -1.
        2   -1    0    0  501    0  0.00000000000E+00  0.00000000000E+00 -0.15172994710E+04  0.15172994710E+04  0.25500000920E-02 0.  1.
    10030    2    1    2    0    0  0.00000000000E+00  0.00000000000E+00  0.64662509844E+02  0.30992614518E+04  0.30985868241E+04 0.  0.
        2    1    3    3  502    0 -0.99266270951E+02  0.59405037438E+03  0.14600734491E+04  0.15794189174E+04  0.25500000920E-02 0. -1.
       -2    1    3    3    0  502  0.99266270951E+02 -0.59405037438E+03 -0.13954109393E+04  0.15198425344E+04  0.25500000920E-02 0.  1.
</event>
<event>
 5   0  0.3848286E-06  0.1680617E+04  0.7818609E-02  0.8772497E-01
        1   -1    0    0  501    0  0.00000000000E+00  0.00000000000E+00  0.10345859612E+04  0.10345859613E+04  0.50400001928E-02 0.  1.
       -1   -1    0    0    0  501  0.00000000000E+00  0.00000000000E+00 -0.68251288539E+03  0.68251288541E+03  0.50400001928E-02 0. -1.
    10030    2    1    2    0    0  0.00000000000E+00  0.00000000000E+00  0.35207307585E+03  0.17170988467E+04  0.16806168506E+04 0.  0.
        2    1    3    3  502    0  0.18318897930E+02  0.75893064582E+03 -0.19207170539E+03  0.78307269599E+03  0.25500000920E-02 0. -1.
       -2    1    3    3    0  502 -0.18318897930E+02 -0.75893064582E+03  0.54414478124E+03  0.93402615067E+03  0.25500000920E-02 0.  1.
</event>
<event>
 5   0  0.3807334E-06  0.3078133E+04  0.7818609E-02  0.8221765E-01
        1   -1    0    0  501    0  0.00000000000E+00  0.00000000000E+00  0.18033849940E+04  0.18033849940E+04  0.50400001928E-02 0.  1.
       -1   -1    0    0    0  501  0.00000000000E+00  0.00000000000E+00 -0.13134890013E+04  0.13134890013E+04  0.50400001928E-02 0. -1.
    10030    2    1    2    0    0  0.00000000000E+00  0.00000000000E+00  0.48989599271E+03  0.31168739954E+04  0.30781334310E+04 0.  0.
        4    1    3    3  502    0  0.34949516833E+03  0.90988004643E+03 -0.96113307641E+03  0.13688706933E+04  0.12699999809E+01 0. -1.
       -4    1    3    3    0  502 -0.34949516833E+03 -0.90988004643E+03  0.14510290691E+04  0.17480033020E+04  0.12699999809E+01 0.  1.
</event>
<event>
 5   0  0.1001961E-05  0.3023758E+04  0.7818609E-02  0.8236979E-01
       -2   -1    0    0    0  501  0.00000000000E+00  0.00000000000E+00  0.96712652393E+03  0.96712652393E+03  0.25500000920E-02 0.  1.
        2   -1    0    0  501    0  0.00000000000E+00  0.00000000000E+00 -0.23634732974E+04  0.23634732975E+04  0.25500000920E-02 0. -1.
    10030    2    1    2    0    0  0.00000000000E+00  0.00000000000E+00 -0.13963467735E+04  0.33305998214E+04  0.30237577380E+04 0.  0.
        5    1    3    3  502    0 -0.36265506234E+03 -0.34615850781E+03  0.87289406966E+03  0.10066332766E+04  0.46999998093E+01 0.  1.
       -5    1    3    3    0  502  0.36265506234E+03  0.34615850781E+03 -0.22692408432E+04  0.23239665448E+04  0.46999998093E+01 0. -1.
</event>
<event>
 5   0  0.3493125E-06  0.3086056E+04  0.7818609E-02  0.8219575E-01
       -4   -1    0    0    0  501  0.00000000000E+00  0.00000000000E+00  0.15936720393E+04  0.15936725453E+04  0.12699999809E+01 0. -1.
        4   -1    0    0  501    0  0.00000000000E+00  0.00000000000E+00 -0.14939926698E+04  0.14939932096E+04  0.12699999809E+01 0.  1.
    10030    2    1    2    0    0  0.00000000000E+00  0.00000000000E+00  0.99679369447E+02  0.30876657550E+04  0.30860563568E+04 0.  0.
        4    1    3    3  502    0  0.81634034425E+03  0.13060128442E+04 -0.44301040024E+02  0.15407937247E+04  0.12699999809E+01 0. -1.
       -4    1    3    3    0  502 -0.81634034425E+03 -0.13060128442E+04  0.14398040947E+03  0.15468720303E+04  0.12699999809E+01 0.  1.
</event>
<event>
 5   0  0.4139628E-06  0.2995296E+04  0.7818609E-02  0.8245075E-01
        1   -1    0    0  501    0  0.00000000000E+00  0.00000000000E+00  0.24723305901E+04  0.24723305901E+04  0.50400001928E-02 0.  1.
       -1   -1    0    0    0  501  0.00000000000E+00  0.00000000000E+00 -0.90722084189E+03  0.90722084191E+03  0.50400001928E-02 0. -1.
    10030    2    1    2    0    0  0.00000000000E+00  0.00000000000E+00  0.15651097483E+04  0.33795514321E+04  0.29952962054E+04 0.  0.
        5    1    3    3  502    0 -0.73710007514E+03 -0.11269156236E+04  0.42970008087E+02  0.13472653247E+04  0.46999998093E+01 0. -1.
       -5    1    3    3    0  502  0.73710007514E+03  0.11269156236E+04  0.15221397402E+04  0.20322861074E+04  0.46999998093E+01 0.  1.
</event>
<event>
 5   0  0.3807334E-06  0.3205660E+04  0.7818609E-02  0.8187324E-01
        1   -1    0    0  501    0  0.00000000000E+00  0.00000000000E+00  0.14509193096E+04  0.14509193096E+04  0.50400001928E-02 0.  1.
       -1   -1    0    0    0  501  0.00000000000E+00  0.00000000000E+00 -0.17706456262E+04  0.17706456262E+04  0.50400001928E-02 0. -1.
    10030    2    1    2    0    0  0.00000000000E+00  0.00000000000E+00 -0.31972631663E+03  0.32215649358E+04  0.32056599505E+04 0.  0.
        4    1    3    3  502    0  0.67171317566E+03 -0.86697337060E+03 -0.13345169929E+04  0.17273617551E+04  0.12699999809E+01 0. -1.
       -4    1    3    3    0  502 -0.67171317566E+03  0.86697337060E+03  0.10147906763E+04  0.14942031807E+04  0.12699999809E+01 0.  1.
</event>
<event>
 5   0  0.3838525E-06  0.2134134E+04  0.7818609E-02  0.8546354E-01
        1   -1    0    0  501    0  0.00000000000E+00  0.00000000000E+00  0.11765178036E+04  0.11765178036E+04  0.50400001928E-02 0. -1.
       -1   -1    0    0    0  501  0.00000000000E+00  0.00000000000E+00 -0.96779812648E+03  0.96779812650E+03  0.50400001928E-02 0.  1.
    10030    2    1    2    0    0  0.00000000000E+00  0.00000000000E+00  0.20871967716E+03  0.21443159301E+04  0.21341337598E+04 0.  0.
        3    1    3    3  502    0  0.13469019421E+03 -0.42703652077E+03 -0.86883246593E+03  0.97743107304E+03  0.10100000352E+00 0.  1.
       -3    1    3    3    0  502 -0.13469019421E+03  0.42703652077E+03  0.10775521431E+04  0.11668848571E+04  0.10100000352E+00 0. -1.
</event>
<event>
 5   0  0.4139628E-06  0.3187649E+04  0.7818609E-02  0.8192087E-01
       -1   -1    0    0    0  501  0.00000000000E+00  0.00000000000E+00  0.11331385550E+04  0.11331385550E+04  0.50400001928E-02 0. -1.
        1   -1    0    0  501    0  0.00000000000E+00  0.00000000000E+00 -0.22418057734E+04  0.22418057734E+04  0.50400001928E-02 0.  1.
    10030    2    1    2    0    0  0.00000000000E+00  0.00000000000E+00 -0.11086672185E+04  0.33749443284E+04  0.31876490112E+04 0.  0.
        5    1    3    3  502    0 -0.14058321888E+02  0.42033112682E+03 -0.21819901377E+04  0.22221563724E+04  0.46999998093E+01 0.  1.
       -5    1    3    3    0  502  0.14058321888E+02 -0.42033112682E+03  0.10733229192E+04  0.11527879560E+04  0.46999998093E+01 0. -1.
</event>
<event>
 5   0  0.4250961E-06  0.3120868E+04  0.7818609E-02  0.8210034E-01
        1   -1    0    0  501    0  0.00000000000E+00  0.00000000000E+00  0.23810965745E+04  0.23810965745E+04  0.50400001928E-02 0. -1.
       -1   -1    0    0    0  501  0.00000000000E+00  0.00000000000E+00 -0.10226191543E+04  0.10226191543E+04  0.50400001928E-02 0.  1.
    10030    2    1    2    0    0  0.00000000000E+00  0.00000000000E+00  0.13584774201E+04  0.34037157288E+04  0.31208684466E+04 0.  0.
        1    1    3    3  502    0  0.25385117833E+03  0.24233803209E+02  0.23582179573E+04  0.23719653522E+04  0.50400001928E-02 0. -1.
       -1    1    3    3    0  502 -0.25385117833E+03 -0.24233803209E+02 -0.99974053713E+03  0.10317503766E+04  0.50400001928E-02 0.  1.
</event>
<event>
 5   0  0.3493125E-06  0.1753817E+04  0.7818609E-02  0.8731252E-01
       -3   -1    0    0    0  501  0.00000000000E+00  0.00000000000E+00  0.74795308417E+03  0.74795309099E+03  0.10100000352E+00 0.  1.
        3   -1    0    0  501    0  0.00000000000E+00  0.00000000000E+00 -0.10280977137E+04  0.10280977186E+04  0.10100000352E+00 0. -1.
    10030    2    1    2    0    0  0.00000000000E+00  0.00000000000E+00 -0.28014462951E+03  0.17760508096E+04  0.17538173978E+04 0.  0.
        3    1    3    3  502    0  0.53812508929E+03 -0.53633660573E+03  0.30335227605E+03  0.81808201298E+03  0.10100000352E+00 0.  1.
       -3    1    3    3    0  502 -0.53812508929E+03  0.53633660573E+03 -0.58349690556E+03  0.95796879666E+03  0.10100000352E+00 0. -1.
</event>
<event>
 5   0  0.9797278E-06  0.2133301E+04  0.7818609E-02  0.8546714E-01
        2   -1    0    0  501    0  0.00000000000E+00  0.00000000000E+00  0.11875872799E+04  0.11875872799E+04  0.25500000920E-02 0. -1.
       -2   -1    0    0    0  501  0.00000000000E+00  0.00000000000E+00 -0.95802917648E+03  0.95802917649E+03  0.25500000920E-02 0.  1.
    10030    2    1    2    0    0  0.00000000000E+00  0.00000000000E+00  0.22955810343E+03  0.21456164564E+04  0.21333009762E+04 0.  0.
        1    1    3    3  502    0 -0.71751300459E+03  0.10795350778E+03 -0.67156844431E+03  0.98867742314E+03  0.50400001928E-02 0.  1.
       -1    1    3    3    0  502  0.71751300459E+03 -0.10795350778E+03  0.90112654775E+03  0.11569390333E+04  0.50400001928E-02 0. -1.
</event>
<event>
 5   0  0.4250961E-06  0.2630418E+04  0.7818609E-02  0.8357942E-01
       -1   -1    0    0    0  501  0.00000000000E+00  0.00000000000E+00  0.10813380639E+04  0.10813380639E+04  0.50400001928E-02 0. -1.
        1   -1    0    0  501    0  0.00000000000E+00  0.00000000000E+00 -0.15996609624E+04  0.15996609624E+04  0.50400001928E-02 0.  1.
    10030    2    1    2    0    0  0.00000000000E+00  0.00000000000E+00 -0.51832289856E+03  0.26809990263E+04  0.26304176763E+04 0.  0.
        1    1    3    3  502    0  0.11547315033E+04  0.82577291144E+02 -0.89530303686E+03  0.14634860373E+04  0.50400001928E-02 0.  1.
       -1    1    3    3    0  502 -0.11547315033E+04 -0.82577291144E+02  0.37698013830E+03  0.12175129890E+04  0.50400001928E-02 0. -1.
</event>
<event>
 5   0  0.9797278E-06  0.3120397E+04  0.7818609E-02  0.8210162E-01
        2   -1    0    0  501    0  0.00000000000E+00  0.00000000000E+00  0.21968085734E+04  0.21968085734E+04  0.25500000920E-02 0.  1.
       -2   -1    0    0    0  501  0.00000000000E+00  0.00000000000E+00 -0.11080705743E+04  0.11080705743E+04  0.25500000920E-02 0. -1.
    10030    2    1    2    0    0  0.00000000000E+00  0.00000000000E+00  0.10887379991E+04  0.33048791477E+04  0.31203967296E+04 0.  0.
        1    1    3    3  502    0  0.59179995181E+03  0.67344251023E+03 -0.80802042963E+03  0.12069171522E+04  0.50400001928E-02 0. -1.
       -1    1    3    3    0  502 -0.59179995181E+03 -0.67344251023E+03  0.18967584288E+04  0.20979619955E+04  0.50400001928E-02 0.  1.
</event>
<event>
 5   0  0.1001961E-05  0.3061728E+04  0.7818609E-02  0.8226320E-01
        2   -1    0    0  501    0  0.00000000000E+00  0.00000000000E+00  0.22662328036E+04  0.22662328036E+04  0.25500000920E-02 0. -1.
       -2   -1    0    0    0  501  0.00000000000E+00  0.00000000000E+00 -0.10341146855E+04  0.10341146855E+04  0.25500000920E-02 0.  1.
    10030    2    1    2    0    0  0.00000000000E+00  0.00000000000E+00  0.12321181181E+04  0.33003474892E+04  0.30617280239E+04 0.  0.
        5    1    3    3  502    0 -0.10156531386E+04  0.24885545094E+03  0.18212487178E+04  0.21001069771E+04  0.46999998093E+01 0. -1.
       -5    1    3    3    0  502  0.10156531386E+04 -0.24885545094E+03 -0.58913059964E+03  0.12002405121E+04  0.46999998093E+01 0.  1.
</event>
<event>
 5   0  0.3848286E-06  0.3369713E+04  0.7818609E-02  0.8145380E-01
       -1   -1    0    0    0  501  0.00000000000E+00  0.00000000000E+00  0.18676859304E+04  0.18676859304E+04  0.50400001928E-02 0. -1.
        1   -1    0    0  501    0  0.00000000000E+00  0.00000000000E+00 -0.15199245826E+04  0.15199245827E+04  0.50400001928E-02 0.  1.
    10030    2    1    2    0    0  0.00000000000E+00  0.00000000000E+00  0.34776134775E+03  0.33876105131E+04  0.33697131975E+04 0.  0.
        2    1    3    3  502    0  0.17155545604E+03  0.43386525035E+03  0.18014517424E+04  0.18608865388E+04  0.25500000920E-02 0. -1.
       -2    1    3    3    0  502 -0.17155545604E+03 -0.43386525035E+03 -0.14536903947E+04  0.15267239743E+04  0.25500000920E-02 0.  1.
</event>
<event>
 5   0  0.4250961E-06  0.3021382E+04  0.7818609E-02  0.8237652E-01
       -1   -1    0    0    0  501  0.00000000000E+00  0.00000000000E+00  0.20611262899E+04  0.20611262899E+04  0.50400001928E-02 0. -1.
        1   -1    0    0  501    0  0.00000000000E+00  0.00000000000E+00 -0.11072521673E+04  0.11072521673E+04  0.50400001928E-02 0.  1.
    10030    2    1    2    0    0  0.00000000000E+00  0.00000000000E+00  0.95387412253E+03  0.31683784572E+04  0.30213815063E+04 0.  0.
        1    1    3    3  502    0 -0.58526367769E+03  0.24009176265E+03 -0.96167045302E+03  0.11510810949E+04  0.50400001928E-02 0.  1.
       -1    1    3    3    0  502  0.58526367769E+03 -0.24009176265E+03  0.19155445755E+04  0.20172973623E+04  0.50400001928E-02 0. -1.
</event>
<event>
 5   0  0.1119100E-05  0.3083928E+04  0.7818609E-02  0.8220163E-01
       -2   -1    0    0    0  501  0.00000000000E+00  0.00000000000E+00  0.11088212385E+04  0.11088212385E+04  0.25500000920E-02 0. -1.
        2   -1    0    0  501    0  0.00000000000E+00  0.00000000000E+00 -0.21443072872E+04  0.21443072872E+04  0.25500000920E-02 0.  1.
    10030    2    1    2    0    0  0.00000000000E+00  0.00000000000E+00 -0.10354860487E+04  0.32531285257E+04  0.30839283143E+04 0.  0.
        2    1    3    3  502    0 -0.73068285592E+02 -0.50921587599E+02  0.11061058181E+04  0.11096855695E+04  0.25500000920E-02 0. -1.
       -2    1    3    3    0  502  0.73068285592E+02  0.50921587599E+02 -0.21415918668E+04  0.21434429562E+04  0.25500000920E-02 0.  1.
</event>
<event>
 5   0  0.3838525E-06  0.3030129E+04  0.7818609E-02  0.8235179E-01
        1   -1    0    0  501    0  0.00000000000E+00  0.00000000000E+00  0.19015021801E+04  0.19015021801E+04  0.50400001928E-02 0. -1.
       -1   -1    0    0    0  501  0.00000000000E+00  0.00000000000E+00 -0.12071616742E+04  0.12071616742E+04  0.50400001928E-02 0.  1.
    10030    2    1    2    0    0  0.00000000000E+00  0.00000000000E+00  0.69434050586E+03  0.31086638543E+04  0.30301290766E+04 0.  0.
        3    1    3    3  502    0 -0.80646996077E+03  0.11233654439E+04 -0.28780320986E+03  0.14125064304E+04  0.10100000352E+00 0.  1.
       -3    1    3    3    0  502  0.80646996077E+03 -0.11233654439E+04  0.98214371572E+03  0.16961574239E+04  0.10100000352E+00 0. -1.
</event>
<event>
 5   0  0.3838525E-06  0.3163539E+04  0.7818609E-02  0.8198513E-01
        1   -1    0    0  501    0  0.00000000000E+00  0.00000000000E+00  0.10894253283E+04  0.10894253283E+04  0.50400001928E-02 0.  1.
       -1   -1    0    0    0  501  0.00000000000E+00  0.00000000000E+00 -0.22966189767E+04  0.22966189767E+04  0.50400001928E-02 0. -1.
    10030    2    1    2    0    0  0.00000000000E+00  0.00000000000E+00 -0.12071936484E+04  0.33860443051E+04  0.31635390832E+04 0.  0.
        3    1    3    3  502    0  0.36367650918E+02 -0.28696739001E+03 -0.22680688253E+04  0.22864402672E+04  0.10100000352E+00 0. -1.
       -3    1    3    3    0  502 -0.36367650918E+02  0.28696739001E+03  0.10608751769E+04  0.10996040379E+04  0.10100000352E+00 0.  1.
</event>
<event>
 5   0  0.1119100E-05  0.2661733E+04  0.7818609E-02  0.8347529E-01
       -2   -1    0    0    0  501  0.00000000000E+00  0.00000000000E+00  0.12589741438E+04  0.12589741438E+04  0.25500000920E-02 0.  1.
        2   -1    0    0  501    0  0.00000000000E+00  0.00000000000E+00 -0.14068636757E+04  0.14068636757E+04  0.25500000920E-02 0. -1.
    10030    2    1    2    0    0  0.00000000000E+00  0.00000000000E+00 -0.14788953194E+03  0.26658378195E+04  0.26617325122E+04 0.  0.
        2    1    3    3  502    0  0.92570882008E+03 -0.57796397303E+03  0.68895562977E+03  0.12905963868E+04  0.25500000920E-02 0.  1.
       -2    1    3    3    0  502 -0.92570882008E+03  0.57796397303E+03 -0.83684516171E+03  0.13752414328E+04  0.25500000920E-02 0. -1.
</event>
<event>
 5   0  0.4139628E-06  0.2730994E+04  0.7818609E-02  0.8325018E-01
       -1   -1    0    0    0  501  0.00000000000E+00  0.00000000000E+00  0.14257523626E+04  0.14257523626E+04  0.50400001928E-02 0.  1.
        1   -1    0    0  501    0  0.00000000000E+00  0.00000000000E+00 -0.13077877527E+04  0.13077877527E+04  0.50400001928E-02 0. -1.
    10030    2    1    2    0    0  0.00000000000E+00  0.00000000000E+00  0.11796460996E+03  0.27335401153E+04  0.27309935761E+04 0.  0.
        5    1    3    3  502    0  0.11175511518E+04 -0.21628268328E+03 -0.69594947011E+03  0.13341913397E+04  0.46999998093E+01 0.  1.
       -5    1    3    3    0  502 -0.11175511518E+04  0.21628268328E+03  0.81391408007E+03  0.13993487756E+04  0.46999998093E+01 0. -1.
</event>
<event>
 5   0  0.1007567E-05  0.1581540E+04  0.7818609E-02  0.8831970E-01
        2   -1    0    0  501    0  0.00000000000E+00  0.00000000000E+00  0.10237491386E+04  0.10237491386E+04  0.25500000920E-02 0.  1.
       -2   -1    0    0    0  501  0.00000000000E+00  0.00000000000E+00 -0.61081081516E+03  0.61081081517E+03  0.25500000920E-02 0. -1.
    10030    2    1    2    0    0  0.00000000000E+00  0.00000000000E+00  0.41293832340E+03  0.16345599537E+04  0.15815398140E+04 0.  0.
        3    1    3    3  502    0  0.67057056736E+03  0.38474628057E+03  0.37824094277E+03  0.86067462331E+03  0.10100000352E+00 0. -1.
       -3    1    3    3    0  502 -0.67057056736E+03 -0.38474628057E+03  0.34697380627E+02  0.77388533042E+03  0.10100000352E+00 0.  1.
</event>
<event>
 5   0  0.1007567E-05  0.3087098E+04  0.7818609E-02  0.8219288E-01
       -2   -1    0    0    0  501  0.00000000000E+00  0.00000000000E+00  0.13118823226E+04  0.13118823226E+04  0.25500000920E-02 0. -1.
        2   -1    0    0  501    0  0.00000000000E+00  0.00000000000E+00 -0.18161263475E+04  0.18161263475E+04  0.25500000920E-02 0.  1.
    10030    2    1    2    0    0  0.00000000000E+00  0.00000000000E+00 -0.50424402489E+03  0.31280086702E+04  0.30870983470E+04 0.  0.
        3    1    3    3  502    0  0.57238723970E+03  0.86198348627E+03 -0.14126832837E+04  0.17510901613E+04  0.10100000352E+00 0.  1.
       -3    1    3    3    0  502 -0.57238723970E+03 -0.86198348627E+03  0.90843925885E+03  0.13769185088E+04  0.10100000352E+00 0. -1.
</event>
<event>
 5   0  0.1119100E-05  0.3010318E+04  0.7818609E-02  0.8240791E-01
       -2   -1    0    0    0  501  0.00000000000E+00  0.00000000000E+00  0.27473331670E+04  0.27473331670E+04  0.25500000920E-02 0. -1.
        2   -1    0    0  501    0  0.00000000000E+00  0.00000000000E+00 -0.82461927058E+03  0.82461927058E+03  0.25500000920E-02 0.  1.
    10030    2    1    2    0    0  0.00000000000E+00  0.00000000000E+00  0.19227138964E+04  0.35719524376E+04  0.30103181707E+04 0.  0.
        2    1    3    3  502    0  0.13407429614E+04 -0.54187818424E+03  0.14567128178E+04  0.20526168392E+04  0.25500000920E-02 0. -1.
       -2    1    3    3    0  502 -0.13407429614E+04  0.54187818424E+03  0.46600107867E+03  0.15193355984E+04  0.25500000920E-02 0.  1.
</event>
<event>
 5   0  0.3807334E-06  0.3165307E+04  0.7818609E-02  0.8198040E-01
       -1   -1    0    0    0  501  0.00000000000E+00  0.00000000000E+00  0.11291214877E+04  0.11291214877E+04  0.50400001928E-02 0. -1.
        1   -1    0    0  501    0  0.00000000000E+00  0.00000000000E+00 -0.22183544581E+04  0.22183544581E+04  0.50400001928E-02 0.  1.
    10030    2    1    2    0    0  0.00000000000E+00  0.00000000000E+00 -0.10892329704E+04  0.33474759458E+04  0.31653067377E+04 0.  0.
        4    1    3    3  502    0 -0.12376752293E+04 -0.92011208348E+03 -0.16871094841E+03  0.15514223204E+04  0.12699999809E+01 0.  1.
       -4    1    3    3    0  502  0.12376752293E+04  0.92011208348E+03 -0.92052202197E+03  0.17960536254E+04  0.12699999809E+01 0. -1.
</event>
<event>
 5   0  0.9797278E-06  0.3173307E+04  0.7818609E-02  0.8195902E-01
       -2   -1    0    0    0  501  0.00000000000E+00  0.00000000000E+00  0.83642094013E+03  0.83642094013E+03  0.25500000920E-02 0. -1.
        2   -1    0    0  501    0  0.00000000000E+00  0.00000000000E+00 -0.30098120017E+04  0.30098120017E+04  0.25500000920E-02 0.  1.
    10030    2    1    2    0    0  0.00000000000E+00  0.00000000000E+00 -0.21733910615E+04  0.38462329418E+04  0.31733072868E+04 0.  0.
        1    1    3    3  502    0 -0.10308421518E+04 -0.91146312412E+03 -0.20441978490E+04  0.24641723589E+04  0.50400001928E-02 0.  1.
       -1    1    3    3    0  502  0.10308421518E+04  0.91146312412E+03 -0.12919321258E+03  0.13820605829E+04  0.50400001928E-02 0. -1.
</event>
<event>
 5   0  0.1119100E-05  0.3044592E+04  0.7818609E-02  0.8231111E-01
       -2   -1    0    0    0  501  0.00000000000E+00  0.00000000000E+00  0.10522778608E+04  0.10522778608E+04  0.25500000920E-02 0. -1.
        2   -1    0    0  501    0  0.00000000000E+00  0.00000000000E+00 -0.22022558645E+04  0.22022558645E+04  0.25500000920E-02 0.  1.
    10030    2    1    2    0    0  0.00000000000E+00  0.00000000000E+00 -0.11499780038E+04  0.32545337253E+04  0.30445919858E+04 0.  0.
        2    1    3    3  502    0 -0.90678945484E+03  0.11074312626E+04 -0.11291102474E+04  0.18230636488E+04  0.25500000920E-02 0.  1.
       -2    1    3    3    0  502  0.90678945484E+03 -0.11074312626E+04 -0.20867756387E+02  0.14314700765E+04  0.25500000920E-02 0. -1.
</event>
<event>
 5   0  0.9797278E-06  0.2349002E+04  0.7818609E-02  0.8458847E-01
       -2   -1    0    0    0  501  0.00000000000E+00  0.00000000000E+00  0.62597986153E+03  0.62597986153E+03  0.25500000920E-02 0.  1.
        2   -1    0    0  501    0  0.00000000000E+00  0.00000000000E+00 -0.22036688202E+04  0.22036688202E+04  0.25500000920E-02 0. -1.
    10030    2    1    2    0    0  0.00000000000E+00  0.00000000000E+00 -0.15776889587E+04  0.28296486817E+04  0.23490017479E+04 0.  0.
        1    1    3    3  502    0 -0.40923919444E+03 -0.89179163304E+03 -0.15664372412E+04  0.18483762241E+04  0.50400001928E-02 0. -1.
       -1    1    3    3    0  502  0.40923919444E+03  0.89179163304E+03 -0.11251717477E+02  0.98127245768E+03  0.50400001928E-02 0.  1.
</event>
<event>
 5   0  0.1007567E-05  0.2083107E+04  0.7818609E-02  0.8568722E-01
        2   -1    0    0  501    0  0.00000000000E+00  0.00000000000E+00  0.80954997099E+03  0.80954997100E+03  0.25500000920E-02 0.  1.
       -2   -1    0    0    0  501  0.00000000000E+00  0.00000000000E+00 -0.13400454716E+04  0.13400454716E+04  0.25500000920E-02 0. -1.
    10030    2    1    2    0    0  0.00000000000E+00  0.00000000000E+00 -0.53049550056E+03  0.21495954426E+04  0.20831070761E+04 0.  0.
        3    1    3    3  502    0  0.50688513787E+02  0.98458176169E+02 -0.13339532570E+04  0.13385419829E+04  0.10100000352E+00 0. -1.
       -3    1    3    3    0  502 -0.50688513787E+02 -0.98458176169E+02  0.80345775643E+03  0.81105345968E+03  0.10100000352E+00 0.  1.
</event>
<event>
 5   0  0.3848286E-06  0.1997874E+04  0.7818609E-02  0.8607615E-01
        1   -1    0    0  501    0  0.00000000000E+00  0.00000000000E+00  0.67091736826E+03  0.67091736828E+03  0.50400001928E-02 0. -1.
       -1   -1    0    0    0  501  0.00000000000E+00  0.00000000000E+00 -0.14873297710E+04  0.14873297710E+04  0.50400001928E-02 0.  1.
    10030    2    1    2    0    0  0.00000000000E+00  0.00000000000E+00 -0.81641240273E+03  0.21582471393E+04  0.19978742460E+04 0.  0.
        2    1    3    3  502    0  0.51174282555E+03 -0.71244722847E+03 -0.92449655106E+03  0.12744236524E+04  0.25500000920E-02 0. -1.
       -2    1    3    3    0  502 -0.51174282555E+03  0.71244722847E+03  0.10808414833E+03  0.88382348689E+03  0.25500000920E-02 0.  1.
</event>
<event>
 5   0  0.1007567E-05  0.3186927E+04  0.7818609E-02  0.8192278E-01
        2   -1    0    0  501    0  0.00000000000E+00  0.00000000000E+00  0.20740146633E+04  0.20740146633E+04  0.25500000920E-02 0.  1.
       -2   -1    0    0    0  501  0.00000000000E+00  0.00000000000E+00 -0.12242564077E+04  0.12242564077E+04  0.25500000920E-02 0. -1.
    10030    2    1    2    0    0  0.00000000000E+00  0.00000000000E+00  0.84975825563E+03  0.32982710710E+04  0.31869268841E+04 0.  0.
        3    1    3    3  502    0 -0.27688612458E+03  0.15069228841E+04  0.87794461740E+03  0.17658621877E+04  0.10100000352E+00 0.  1.
       -3    1    3    3    0  502  0.27688612458E+03 -0.15069228841E+04 -0.28186361772E+02  0.15324088833E+04  0.10100000352E+00 0. -1.
</event>
<event>
 5   0  0.1108153E-05  0.2756141E+04  0.7818609E-02  0.8317016E-01
        2   -1    0    0  501    0  0.00000000000E+00  0.00000000000E+00  0.13655012532E+04  0.13655012532E+04  0.25500000920E-02 0.  1.
       -2   -1    0    0    0  501  0.00000000000E+00  0.00000000000E+00 -0.13907550327E+04  0.13907550327E+04  0.25500000920E-02 0. -1.
    10030    2    1    2    0    0  0.00000000000E+00  0.00000000000E+00 -0.25253779480E+02  0.27562562859E+04  0.27561405915E+04 0.  0.
        4    1    3    3  502    0  0.73305743748E+03 -0.32385728146E+03  0.11084997306E+04  0.13678559906E+04  0.12699999809E+01 0.  1.
       -4    1    3    3    0  502 -0.73305743748E+03  0.32385728146E+03 -0.11337535101E+04  0.13884002953E+04  0.12699999809E+01 0. -1.
</event>
<event>
 5   0  0.4250961E-06  0.3039571E+04  0.7818609E-02  0.8232521E-01
       -1   -1    0    0    0  501  0.00000000000E+00  0.00000000000E+00  0.23938631308E+04  0.23938631308E+04  0.50400001928E-02 0. -1.
        1   -1    0    0  501    0  0.00000000000E+00  0.00000000000E+00 -0.96486191663E+03  0.96486191665E+03  0.50400001928E-02 0.  1.
    10030    2    1    2    0    0  0.00000000000E+00  0.00000000000E+00  0.14290012142E+04  0.33587250474E+04  0.30395706069E+04 0.  0.
        1    1    3    3  502    0 -0.40492746659E+03  0.72074103270E+03  0.21236737179E+04  0.22789084996E+04  0.50400001928E-02 0. -1.
       -1    1    3    3    0  502  0.40492746659E+03 -0.72074103270E+03 -0.69467250377E+03  0.10798165478E+04  0.50400001928E-02 0.  1.
</event>
<event>
 5   0  0.3848286E-06  0.3171641E+04  0.7818609E-02  0.8196347E-01
        1   -1    0    0  501    0  0.00000000000E+00  0.00000000000E+00  0.19356053297E+04  0.19356053297E+04  0.50400001928E-02 0.  1.
       -1   -1    0    0    0  501  0.00000000000E+00  0.00000000000E+00 -0.12992459827E+04  0.12992459827E+04  0.50400001928E-02 0. -1.
    10030    2    1    2    0    0  0.00000000000E+00  0.00000000000E+00  0.63635934702E+03  0.32348513124E+04  0.31716414984E+04 0.  0.
        2    1    3    3  502    0  0.59096354187E+03 -0.58667161448E+03 -0.10583120619E+04  0.13466424586E+04  0.25500000920E-02 0. -1.
       -2    1    3    3    0  502 -0.59096354187E+03  0.58667161448E+03  0.16946714089E+04  0.18882088537E+04  0.25500000920E-02 0.  1.
</event>
<event>
 5   0  0.4139628E-06  0.1576511E+04  0.7818609E-02  0.8835110E-01
        1   -1    0    0  501    0  0.00000000000E+00  0.00000000000E+00  0.10368993658E+04  0.10368993658E+04  0.50400001928E-02 0. -1.
       -1   -1    0    0    0  501  0.00000000000E+00  0.00000000000E+00 -0.59923531521E+03  0.59923531523E+03  0.50400001928E-02 0.  1.
    10030    2    1    2    0    0  0.00000000000E+00  0.00000000000E+00  0.43766405059E+03  0.16361346810E+04  0.15765109810E+04 0.  0.
        5    1    3    3  502    0  0.22984199707E+03  0.51723801092E+03 -0.35051620161E+03  0.66576737765E+03  0.46999998093E+01 0.  1.
       -5    1    3    3    0  502 -0.22984199707E+03 -0.51723801092E+03  0.78818025219E+03  0.97036730340E+03  0.46999998093E+01 0. -1.
</event>
<event>
 5   0  0.3493125E-06  0.3180993E+04  0.7818609E-02  0.8193855E-01
        3   -1    0    0  501    0  0.00000000000E+00  0.00000000000E+00  0.16013332714E+04  0.16013332746E+04  0.10100000352E+00 0.  1.
       -3   -1    0    0    0  501  0.00000000000E+00  0.00000000000E+00 -0.15797326643E+04  0.15797326675E+04  0.10100000352E+00 0. -1.
    10030    2    1    2    0    0  0.00000000000E+00  0.00000000000E+00  0.21600607148E+02  0.31810659421E+04  0.31809926032E+04 0.  0.
        1    1    3    3  502    0 -0.96208886029E+02  0.11275815260E+04  0.11284048087E+04  0.15981219165E+04  0.50400001928E-02 0.  1.
       -1    1    3    3    0  502  0.96208886029E+02 -0.11275815260E+04 -0.11068042016E+04  0.15829440256E+04  0.50400001928E-02 0. -1.
</event>
<event>
 5   0  0.3838525E-06  0.2719301E+04  0.7818609E-02  0.8328770E-01
       -1   -1    0    0    0  501  0.00000000000E+00  0.00000000000E+00  0.10306507789E+04  0.10306507789E+04  0.50400001928E-02 0. -1.
        1   -1    0    0  501    0  0.00000000000E+00  0.00000000000E+00 -0.17936717793E+04  0.17936717793E+04  0.50400001928E-02 0.  1.
    10030    2    1    2    0    0  0.00000000000E+00  0.00000000000E+00 -0.76302100037E+03  0.28243225582E+04  0.27193008046E+04 0.  0.
        3    1    3    3  502    0 -0.70268937721E+03  0.68535459292E+03  0.59565784043E+03  0.11481687820E+04  0.10100000352E+00 0. -1.
       -3    1    3    3    0  502  0.70268937721E+03 -0.68535459292E+03 -0.13586788408E+04  0.16761537762E+04  0.10100000352E+00 0.  1.
</event>
<event>
 5   0  0.1108153E-05  0.3191159E+04  0.7818609E-02  0.8191156E-01
       -2   -1    0    0    0  501  0.00000000000E+00  0.00000000000E+00  0.16737480358E+04  0.16737480358E+04  0.25500000920E-02 0.  1.
        2   -1    0    0  501    0  0.00000000000E+00  0.00000000000E+00 -0.15210618928E+04  0.15210618928E+04  0.25500000920E-02 0. -1.
    10030    2    1    2    0    0  0.00000000000E+00  0.00000000000E+00  0.15268614295E+03  0.31948099286E+04  0.31911592599E+04 0.  0.
        4    1    3    3  502    0  0.11023059525E+04 -0.82363821696E+03  0.88498884568E+03  0.16360517092E+04  0.12699999809E+01 0.  1.
       -4    1    3    3    0  502 -0.11023059525E+04  0.82363821696E+03 -0.73230270273E+03  0.15587582194E+04  0.12699999809E+01 0. -1.
</event>
<event>
 5   0  0.4250961E-06  0.3024457E+04  0.7818609E-02  0.8236781E-01
        1   -1    0    0  501    0  0.00000000000E+00  0.00000000000E+00  0.19211043056E+04  0.19211043056E+04  0.50400001928E-02 0. -1.
       -1   -1    0    0    0  501  0.00000000000E+00  0.00000000000E+00 -0.11903751470E+04  0.11903751470E+04  0.50400001928E-02 0.  1.
    10030    2    1    2    0    0  0.00000000000E+00  0.00000000000E+00  0.73072915860E+03  0.31114794527E+04  0.30244568572E+04 0.  0.
        1    1    3    3  502    0  0.45188006644E+03  0.64804369170E+03 -0.96118564389E+03  0.12442001699E+04  0.50400001928E-02 0.  1.
       -1    1    3    3    0  502 -0.45188006644E+03 -0.64804369170E+03  0.16919148025E+04  0.18672792827E+04  0.50400001928E-02 0. -1.
</event>
<event>
 5   0  0.1001961E-05  0.3073400E+04  0.7818609E-02  0.8223076E-01
       -2   -1    0    0    0  501  0.00000000000E+00  0.00000000000E+00  0.15894755529E+04  0.15894755529E+04  0.25500000920E-02 0.  1.
        2   -1    0    0  501    0  0.00000000000E+00  0.00000000000E+00 -0.14856771509E+04  0.14856771509E+04  0.25500000920E-02 0. -1.
    10030    2    1    2    0    0  0.00000000000E+00  0.00000000000E+00  0.10379840195E+03  0.30751527038E+04  0.30734004040E+04 0.  0.
        5    1    3    3  502    0  0.72561006892E+03  0.59137989222E+03 -0.11674774069E+04  0.14964176338E+04  0.46999998093E+01 0. -1.
       -5    1    3    3    0  502 -0.72561006892E+03 -0.59137989222E+03  0.12712758089E+04  0.15787350700E+04  0.46999998093E+01 0.  1.
</event>
<event>
 5   0  0.1001961E-05  0.2873755E+04  0.7818609E-02  0.8280729E-01
       -2   -1    0    0    0  501  0.00000000000E+00  0.00000000000E+00  0.11947188955E+04  0.11947188955E+04  0.25500000920E-02 0. -1.
        2   -1    0    0  501    0  0.00000000000E+00  0.00000000000E+00 -0.17281196587E+04  0.17281196587E+04  0.25500000920E-02 0.  1.
    10030    2    1    2    0    0  0.00000000000E+00  0.00000000000E+00 -0.53340076319E+03  0.29228385542E+04  0.28737551809E+04 0.  0.
        5    1    3    3  502    0 -0.54933786055E+03  0.57997416108E+03 -0.14814416739E+04  0.16831023842E+04  0.46999998093E+01 0.  1.
       -5    1    3    3    0  502  0.54933786055E+03 -0.57997416108E+03  0.94804091075E+03  0.12397361699E+04  0.46999998093E+01 0. -1.
</event>
<event>
 5   0  0.1001961E-05  0.3147694E+04  0.7818609E-02  0.8202769E-01
       -2   -1    0    0    0  501  0.00000000000E+00  0.00000000000E+00  0.12529943104E+04  0.12529943104E+04  0.25500000920E-02 0. -1.
        2   -1    0    0  501    0  0.00000000000E+00  0.00000000000E+00 -0.19768596027E+04  0.19768596027E+04  0.25500000920E-02 0.  1.
    10030    2    1    2    0    0  0.00000000000E+00  0.00000000000E+00 -0.72386529227E+03  0.32298539131E+04  0.31476936538E+04 0.  0.
        5    1    3    3  502    0 -0.14448196865E+04 -0.61714267972E+03 -0.26676077777E+03  0.15935973193E+04  0.46999998093E+01 0. -1.
       -5    1    3    3    0  502  0.14448196865E+04  0.61714267972E+03 -0.45710451449E+03  0.16362565938E+04  0.46999998093E+01 0.  1.
</event>
<event>
 5   0  0.1119100E-05  0.3092099E+04  0.7818609E-02  0.8217910E-01
        2   -1    0    0  501    0  0.00000000000E+00  0.00000000000E+00  0.21602690328E+04  0.21602690328E+04  0.25500000920E-02 0.  1.
       -2   -1    0    0    0  501  0.00000000000E+00  0.00000000000E+00 -0.11064679032E+04  0.11064679032E+04  0.25500000920E-02 0. -1.
    10030    2    1    2    0    0  0.00000000000E+00  0.00000000000E+00  0.10538011296E+04  0.32667369360E+04  0.30920985411E+04 0.  0.
        2    1    3    3  502    0 -0.52240228801E+03 -0.22442387966E+03 -0.99200536574E+03  0.11433918287E+04  0.25500000920E-02 0. -1.
       -2    1    3    3    0  502  0.52240228801E+03  0.22442387966E+03  0.20458064953E+04  0.21233451073E+04  0.25500000920E-02 0.  1.
</event>
<event>
 5   0  0.3807334E-06  0.2237321E+04  0.7818609E-02  0.8503053E-01
       -1   -1    0    0    0  501  0.00000000000E+00  0.00000000000E+00  0.72505042687E+03  0.72505042688E+03  0.50400001928E-02 0.  1.
        1   -1    0    0  501    0  0.00000000000E+00  0.00000000000E+00 -0.17259511892E+04  0.17259511892E+04  0.50400001928E-02 0. -1.
    10030    2    1    2    0    0  0.00000000000E+00  0.00000000000E+00 -0.10009007623E+04  0.24510016161E+04  0.22373212970E+04 0.  0.
        4    1    3    3  502    0  0.79558302444E+03  0.41499811964E+03 -0.12322494000E+04  0.15243411641E+04  0.12699999809E+01 0.  1.
       -4    1    3    3    0  502 -0.79558302444E+03 -0.41499811964E+03  0.23134863767E+03  0.92666045191E+03  0.12699999809E+01 0. -1.
</event>
<event>
 5   0  0.9797278E-06  0.3075756E+04  0.7818609E-02  0.8222423E-01
        2   -1    0    0  501    0  0.00000000000E+00  0.00000000000E+00  0.24243603716E+04  0.24243603716E+04  0.25500000920E-02 0. -1.
       -2   -1    0    0    0  501  0.00000000000E+00  0.00000000000E+00 -0.97554357901E+03  0.97554357901E+03  0.25500000920E-02 0.  1.
    10030    2    1    2    0    0  0.00000000000E+00  0.00000000000E+00  0.14488167926E+04  0.33999039506E+04  0.30757562932E+04 0.  0.
        1    1    3    3  502    0 -0.13199474153E+04  0.27917507027E+03  0.15403534127E+04  0.20476543983E+04  0.50400001928E-02 0. -1.
       -1    1    3    3    0  502  0.13199474153E+04 -0.27917507027E+03 -0.91536620077E+02  0.13522495523E+04  0.50400001928E-02 0.  1.
</event>
<event>
 5   0  0.1001961E-05  0.2795402E+04  0.7818609E-02  0.8304697E-01
       -2   -1    0    0    0  501  0.00000000000E+00  0.00000000000E+00  0.15618442799E+04  0.15618442799E+04  0.25500000920E-02 0.  1.
        2   -1    0    0  501    0  0.00000000000E+00  0.00000000000E+00 -0.12508086876E+04  0.12508086876E+04  0.25500000920E-02 0. -1.
    10030    2    1    2    0    0  0.00000000000E+00  0.00000000000E+00  0.31103559236E+03  0.28126529675E+04  0.27954022208E+04 0.  0.
        5    1    3    3  502    0  0.10887594420E+04 -0.58298739314E+03 -0.50294788807E+03  0.13335104391E+04  0.46999998093E+01 0. -1.
       -5    1    3    3    0  502 -0.10887594420E+04  0.58298739314E+03  0.81398348042E+03  0.14791425284E+04  0.46999998093E+01 0.  1.
</event>
<event>
 5   0  0.9797278E-06  0.3043647E+04  0.7818609E-02  0.8231376E-01
        2   -1    0    0  501    0  0.00000000000E+00  0.00000000000E+00  0.22573693776E+04  0.22573693776E+04  0.25500000920E-02 0.  1.
       -2   -1    0    0    0  501  0.00000000000E+00  0.00000000000E+00 -0.10259492188E+04  0.10259492188E+04  0.25500000920E-02 0. -1.
    10030    2    1    2    0    0  0.00000000000E+00  0.00000000000E+00  0.12314201588E+04  0.32833185964E+04  0.30436467268E+04 0.  0.
        1    1    3    3  502    0 -0.68640807822E+03  0.16266686571E+03 -0.83892853018E+03  0.10960919842E+04  0.50400001928E-02 0. -1.
       -1    1    3    3    0  502  0.68640807822E+03 -0.16266686571E+03  0.20703486890E+04  0.21872266122E+04  0.50400001928E-02 0.  1.
</event>
<event>
 5   0  0.1007567E-05  0.3042820E+04  0.7818609E-02  0.8231608E-01
        2   -1    0    0  501    0  0.00000000000E+00  0.00000000000E+00  0.21990938612E+04  0.21990938612E+04  0.25500000920E-02 0.  1.
       -2   -1    0    0    0  501  0.00000000000E+00  0.00000000000E+00 -0.10525646683E+04  0.10525646683E+04  0.25500000920E-02 0. -1.
    10030    2    1    2    0    0  0.00000000000E+00  0.00000000000E+00  0.11465291929E+04  0.32516585295E+04  0.30428200740E+04 0.  0.
        3    1    3    3  502    0 -0.74158515609E+03 -0.26740525803E+03  0.19638164804E+04  0.21161354622E+04  0.10100000352E+00 0.  1.
       -3    1    3    3    0  502  0.74158515609E+03  0.26740525803E+03 -0.81728728754E+03  0.11355230673E+04  0.10100000352E+00 0. -1.
</event>
<event>
 5   0  0.1001961E-05  0.3093676E+04  0.7818609E-02  0.8217476E-01
        2   -1    0    0  501    0  0.00000000000E+00  0.00000000000E+00  0.25090114656E+04  0.25090114656E+04  0.25500000920E-02 0.  1.
       -2   -1    0    0    0  501  0.00000000000E+00  0.00000000000E+00 -0.95364573341E+03  0.95364573341E+03  0.25500000920E-02 0. -1.
    10030    2    1    2    0    0  0.00000000000E+00  0.00000000000E+00  0.15553657322E+04  0.34626571991E+04  0.30936761817E+04 0.  0.
        5    1    3    3  502    0 -0.75405817251E+03  0.10778621526E+04  0.16885615273E+04  0.21404795418E+04  0.46999998093E+01 0.  1.
       -5    1    3    3    0  502  0.75405817251E+03 -0.10778621526E+04 -0.13319579507E+03  0.13221776572E+04  0.46999998093E+01 0. -1.
</event>
<event>
 5   0  0.3807334E-06  0.2630221E+04  0.7818609E-02  0.8358008E-01
       -1   -1    0    0    0  501  0.00000000000E+00  0.00000000000E+00  0.11009414065E+04  0.11009414065E+04  0.50400001928E-02 0.  1.
        1   -1    0    0  501    0  0.00000000000E+00  0.00000000000E+00 -0.15709427710E+04  0.15709427710E+04  0.50400001928E-02 0. -1.
    10030    2    1    2    0    0  0.00000000000E+00  0.00000000000E+00 -0.47000136443E+03  0.26718841775E+04  0.26302212408E+04 0.  0.
        4    1    3    3  502    0  0.35749808478E+03  0.57872515509E+03  0.90834376164E+03  0.11348205532E+04  0.12699999809E+01 0.  1.
       -4    1    3    3    0  502 -0.35749808478E+03 -0.57872515509E+03 -0.13783451261E+04  0.15370636243E+04  0.12699999809E+01 0. -1.
</event>
<event>
 5   0  0.3838525E-06  0.3144604E+04  0.7818609E-02  0.8203602E-01
        1   -1    0    0  501    0  0.00000000000E+00  0.00000000000E+00  0.11377762934E+04  0.11377762934E+04  0.50400001928E-02 0. -1.
       -1   -1    0    0    0  501  0.00000000000E+00  0.00000000000E+00 -0.21727769084E+04  0.21727769085E+04  0.50400001928E-02 0.  1.
    10030    2    1    2    0    0  0.00000000000E+00  0.00000000000E+00 -0.10350006151E+04  0.33105532018E+04  0.31446043040E+04 0.  0.
        3    1    3    3  502    0 -0.26618757319E+03  0.85264282535E+03 -0.18797239352E+04  0.20811577774E+04  0.10100000352E+00 0.  1.
       -3    1    3    3    0  502  0.26618757319E+03 -0.85264282535E+03  0.84472332015E+03  0.12293954244E+04  0.10100000352E+00 0. -1.
</event>
<event>
 5   0  0.4139628E-06  0.2949604E+04  0.7818609E-02  0.8258270E-01
        1   -1    0    0  501    0  0.00000000000E+00  0.00000000000E+00  0.28888563787E+04  0.28888563788E+04  0.50400001928E-02 0. -1.
       -1   -1    0    0    0  501  0.00000000000E+00  0.00000000000E+00 -0.75290746644E+03  0.75290746645E+03  0.50400001928E-02 0.  1.
    10030    2    1    2    0    0  0.00000000000E+00  0.00000000000E+00  0.21359489123E+04  0.36417638452E+04  0.29496044054E+04 0.  0.
        5    1    3    3  502    0 -0.10238241980E+04  0.53355080465E+03 -0.65043524435E+02  0.11563499469E+04  0.46999998093E+01 0. -1.
       -5    1    3    3    0  502  0.10238241980E+04 -0.53355080465E+03  0.22009924367E+04  0.24854138984E+04  0.46999998093E+01 0.  1.
</event>
<event>
 5   0  0.9797278E-06  0.3042632E+04  0.7818609E-02  0.8231661E-01
        2   -1    0    0  501    0  0.00000000000E+00  0.00000000000E+00  0.88829827767E+03  0.88829827767E+03  0.25500000920E-02 0. -1.
       -2   -1    0    0    0  501  0.00000000000E+00  0.00000000000E+00 -0.26054340845E+04  0.26054340845E+04  0.25500000920E-02 0.  1.
    10030    2    1    2    0    0  0.00000000000E+00  0.00000000000E+00 -0.17171358068E+04  0.34937323622E+04  0.30426321564E+04 0.  0.
        1    1    3    3  502    0 -0.10895498489E+03  0.15173701985E+04 -0.87109929424E+03  0.17530252390E+04  0.50400001928E-02 0.  1.
       -1    1    3    3    0  502  0.10895498489E+03 -0.15173701985E+04 -0.84603651260E+03  0.17407071232E+04  0.50400001928E-02 0. -1.
</event>
<event>
 5   0  0.1001961E-05  0.3253075E+04  0.7818609E-02  0.8174939E-01
       -2   -1    0    0    0  501  0.00000000000E+00  0.00000000000E+00  0.11490345688E+04  0.11490345688E+04  0.25500000920E-02 0.  1.
        2   -1    0    0  501    0  0.00000000000E+00  0.00000000000E+00 -0.23024760751E+04  0.23024760751E+04  0.25500000920E-02 0. -1.
    10030    2    1    2    0    0  0.00000000000E+00  0.00000000000E+00 -0.11534415064E+04  0.34515106439E+04  0.32530752245E+04 0.  0.
        5    1    3    3  502    0 -0.15473618031E+04  0.43682195215E+03 -0.83760697647E+03  0.18129394652E+04  0.46999998093E+01 0. -1.
       -5    1    3    3    0  502  0.15473618031E+04 -0.43682195215E+03 -0.31583452990E+03  0.16385711787E+04  0.46999998093E+01 0.  1.
</event>
<event>
 5   0  0.4139628E-06  0.3102458E+04  0.7818609E-02  0.8215064E-01
       -1   -1    0    0    0  501  0.00000000000E+00  0.00000000000E+00  0.12967284452E+04  0.12967284453E+04  0.50400001928E-02 0.  1.
        1   -1    0    0  501    0  0.00000000000E+00  0.00000000000E+00 -0.18556782670E+04  0.18556782670E+04  0.50400001928E-02 0. -1.
    10030    2    1    2    0    0  0.00000000000E+00  0.00000000000E+00 -0.55894982175E+03  0.31524067123E+04  0.31024576027E+04 0.  0.
        5    1    3    3  502    0  0.71216761645E+03 -0.75286750885E+02  0.11187013390E+04  0.13282942388E+04  0.46999998093E+01 0.  1.
       -5    1    3    3    0  502 -0.71216761645E+03  0.75286750885E+02 -0.16776511608E+04  0.18241124735E+04  0.46999998093E+01 0. -1.
</event>
<event>
 5   0  0.4250961E-06  0.2781033E+04  0.7818609E-02  0.8309181E-01
        1   -1    0    0  501    0  0.00000000000E+00  0.00000000000E+00  0.14370265699E+04  0.14370265699E+04  0.50400001928E-02 0. -1.
       -1   -1    0    0    0  501  0.00000000000E+00  0.00000000000E+00 -0.13455119998E+04  0.13455119998E+04  0.50400001928E-02 0.  1.
    10030    2    1    2    0    0  0.00000000000E+00  0.00000000000E+00  0.91514570170E+02  0.27825385697E+04  0.27810332568E+04 0.  0.
        1    1    3    3  502    0  0.10873662291E+04 -0.81051137608E+03  0.35291284388E+03  0.14013712864E+04  0.50400001928E-02 0.  1.
       -1    1    3    3    0  502 -0.10873662291E+04  0.81051137608E+03 -0.26139827371E+03  0.13811672833E+04  0.50400001928E-02 0. -1.
</event>
<event>
 5   0  0.1108153E-05  0.3032835E+04  0.7818609E-02  0.8234416E-01
       -2   -1    0    0    0  501  0.00000000000E+00  0.00000000000E+00  0.14251920235E+04  0.14251920235E+04  0.25500000920E-02 0.  1.
        2   -1    0    0  501    0  0.00000000000E+00  0.00000000000E+00 -0.16134823747E+04  0.16134823747E+04  0.25500000920E-02 0. -1.
    10030    2    1    2    0    0  0.00000000000E+00  0.00000000000E+00 -0.18829035125E+03  0.30386743982E+04  0.30328351162E+04 0.  0.
        4    1    3    3  502    0  0.86005711787E+03  0.10516336034E+03  0.11527439917E+04  0.14420741665E+04  0.12699999809E+01 0.  1.
       -4    1    3    3    0  502 -0.86005711787E+03 -0.10516336034E+03 -0.13410343429E+04  0.15966002318E+04  0.12699999809E+01 0. -1.
</event>
<event>
 5   0  0.4250961E-06  0.3118297E+04  0.7818609E-02  0.8210734E-01
        1   -1    0    0  501    0  0.00000000000E+00  0.00000000000E+00  0.16988148553E+04  0.16988148553E+04  0.50400001928E-02 0.  1.
       -1   -1    0    0    0  501  0.00000000000E+00  0.00000000000E+00 -0.14309646489E+04  0.14309646489E+04  0.50400001928E-02 0. -1.
    10030    2    1    2    0    0  0.00000000000E+00  0.00000000000E+00  0.26785020642E+03  0.31297795042E+04  0.31182969730E+04 0.  0.
        1    1    3    3  502    0 -0.10995514421E+04  0.33199977997E+03  0.11921827012E+04  0.16554566805E+04  0.50400001928E-02 0.  1.
       -1    1    3    3    0  502  0.10995514421E+04 -0.33199977997E+03 -0.92433249482E+03  0.14743228238E+04  0.50400001928E-02 0. -1.
</event>
<event>
 5   0  0.1108153E-05  0.3120822E+04  0.7818609E-02  0.8210047E-01
        2   -1    0    0  501    0  0.00000000000E+00  0.00000000000E+00  0.18903948766E+04  0.18903948766E+04  0.25500000920E-02 0.  1.
       -2   -1    0    0    0  501  0.00000000000E+00  0.00000000000E+00 -0.12880288948E+04  0.12880288948E+04  0.25500000920E-02 0. -1.
    10030    2    1    2    0    0  0.00000000000E+00  0.00000000000E+00  0.60236598184E+03  0.31784237714E+04  0.31208224708E+04 0.  0.
        4    1    3    3  502    0 -0.13030102459E+04  0.85571716218E+03  0.37170000681E+03  0.16025760733E+04  0.12699999809E+01 0. -1.
       -4    1    3    3    0  502  0.13030102459E+04 -0.85571716218E+03  0.23066597504E+03  0.15758476981E+04  0.12699999809E+01 0.  1.
</event>
<event>
 5   0  0.9797278E-06  0.3130689E+04  0.7818609E-02  0.8207366E-01
        2   -1    0    0  501    0  0.00000000000E+00  0.00000000000E+00  0.19962246826E+04  0.19962246826E+04  0.25500000920E-02 0.  1.
       -2   -1    0    0    0  501  0.00000000000E+00  0.00000000000E+00 -0.12274687631E+04  0.12274687631E+04  0.25500000920E-02 0. -1.
    10030    2    1    2    0    0  0.00000000000E+00  0.00000000000E+00  0.76875591955E+03  0.32236934457E+04  0.31306890245E+04 0.  0.
        1    1    3    3  502    0  0.67242712533E+03 -0.11920141838E+04  0.11667166237E+04  0.17984114472E+04  0.50400001928E-02 0.  1.
       -1    1    3    3    0  502 -0.67242712533E+03  0.11920141838E+04 -0.39796070415E+03  0.14252819986E+04  0.50400001928E-02 0. -1.
</event>
<event>
 5   0  0.1001961E-05  0.3080551E+04  0.7818609E-02  0.8221096E-01
        2   -1    0    0  501    0  0.00000000000E+00  0.00000000000E+00  0.19416171635E+04  0.19416171635E+04  0.25500000920E-02 0.  1.
       -2   -1    0    0    0  501  0.00000000000E+00  0.00000000000E+00 -0.12218932608E+04  0.12218932608E+04  0.25500000920E-02 0. -1.
    10030    2    1    2    0    0  0.00000000000E+00  0.00000000000E+00  0.71972390273E+03  0.31635104244E+04  0.30805512021E+04 0.  0.
        5    1    3    3  502    0  0.11558174147E+04 -0.84644744876E+03 -0.22109337365E+03  0.14495832330E+04  0.46999998093E+01 0. -1.
       -5    1    3    3    0  502 -0.11558174147E+04  0.84644744876E+03  0.94081727638E+03  0.17139271913E+04  0.46999998093E+01 0.  1.
</event>
<event>
 5   0  0.4250961E-06  0.3150132E+04  0.7818609E-02  0.8202113E-01
        1   -1    0    0  501    0  0.00000000000E+00  0.00000000000E+00  0.26356732469E+04  0.26356732469E+04  0.50400001928E-02 0.  1.
       -1   -1    0    0    0  501  0.00000000000E+00  0.00000000000E+00 -0.94125215805E+03  0.94125215806E+03  0.50400001928E-02 0. -1.
    10030    2    1    2    0    0  0.00000000000E+00  0.00000000000E+00  0.16944210889E+04  0.35769254050E+04  0.31501321443E+04 0.  0.
        1    1    3    3  502    0 -0.94464886664E+03  0.96820728854E+03 -0.68982620290E+02  0.13544539257E+04  0.50400001928E-02 0. -1.
       -1    1    3    3    0  502  0.94464886664E+03 -0.96820728854E+03  0.17634037092E+04  0.22224714793E+04  0.50400001928E-02 0.  1.
</event>
<event>
 5   0  0.3493125E-06  0.2969204E+04  0.7818609E-02  0.8252580E-01
        3   -1    0    0  501    0  0.00000000000E+00  0.00000000000E+00  0.91371755212E+03  0.91371755770E+03  0.10100000352E+00 0.  1.
       -3   -1    0    0    0  501  0.00000000000E+00  0.00000000000E+00 -0.24121705109E+04  0.24121705130E+04  0.10100000352E+00 0. -1.
    10030    2    1    2    0    0  0.00000000000E+00  0.00000000000E+00 -0.14984529588E+04  0.33258880707E+04  0.29692036288E+04 0.  0.
        4    1    3    3  502    0 -0.11740362190E+04  0.30630149474E+03  0.20902928474E+03  0.12312093664E+04  0.12699999809E+01 0.  1.
       -4    1    3    3    0  502  0.11740362190E+04 -0.30630149474E+03 -0.17074822435E+04  0.20946787043E+04  0.12699999809E+01 0. -1.
</event>
<event>
 5   0  0.1108153E-05  0.3118495E+04  0.7818609E-02  0.8210680E-01
        2   -1    0    0  501    0  0.00000000000E+00  0.00000000000E+00  0.17393842009E+04  0.17393842009E+04  0.25500000920E-02 0. -1.
       -2   -1    0    0    0  501  0.00000000000E+00  0.00000000000E+00 -0.13977664177E+04  0.13977664177E+04  0.25500000920E-02 0.  1.
    10030    2    1    2    0    0  0.00000000000E+00  0.00000000000E+00  0.34161778318E+03  0.31371506186E+04  0.31184950367E+04 0.  0.
        4    1    3    3  502    0  0.54677330587E+03  0.12322539096E+04 -0.61735778671E+03  0.14827484600E+04  0.12699999809E+01 0.  1.
       -4    1    3    3    0  502 -0.54677330587E+03 -0.12322539096E+04  0.95897556989E+03  0.16544021586E+04  0.12699999809E+01 0. -1.
</event>
<event>
 5   0  0.3807334E-06  0.3284213E+04  0.7818609E-02  0.8166924E-01
        1   -1    0    0  501    0  0.00000000000E+00  0.00000000000E+00  0.15730863081E+04  0.15730863081E+04  0.50400001928E-02 0.  1.
       -1   -1    0    0    0  501  0.00000000000E+00  0.00000000000E+00 -0.17141550249E+04  0.17141550249E+04  0.50400001928E-02 0. -1.
    10030    2    1    2    0    0  0.00000000000E+00  0.00000000000E+00 -0.14106871673E+03  0.32872413330E+04  0.32842130258E+04 0.  0.
        4    1    3    3  502    0 -0.10365075261E+04  0.57388947335E+02 -0.13440561199E+04  0.16982725957E+04  0.12699999809E+01 0. -1.
       -4    1    3    3    0  502  0.10365075261E+04 -0.57388947335E+02  0.12029874032E+04  0.15889687373E+04  0.12699999809E+01 0.  1.
</event>
<event>
 5   0  0.1108153E-05  0.3081164E+04  0.7818609E-02  0.8220926E-01
       -2   -1    0    0    0  501  0.00000000000E+00  0.00000000000E+00  0.11664647890E+04  0.11664647890E+04  0.25500000920E-02 0.  1.
        2   -1    0    0  501    0  0.00000000000E+00  0.00000000000E+00 -0.20346892302E+04  0.20346892302E+04  0.25500000920E-02 0. -1.
    10030    2    1    2    0    0  0.00000000000E+00  0.00000000000E+00 -0.86822444120E+03  0.32011540191E+04  0.30811642887E+04 0.  0.
        4    1    3    3  502    0 -0.46964637089E+03 -0.14524743605E+04 -0.21831636206E+03  0.15420483547E+04  0.12699999809E+01 0.  1.
       -4    1    3    3    0  502  0.46964637089E+03  0.14524743605E+04 -0.64990807913E+03  0.16591056644E+04  0.12699999809E+01 0. -1.
</event>
<event>
 5   0  0.3848286E-06  0.2995927E+04  0.7818609E-02  0.8244895E-01
       -1   -1    0    0    0  501  0.00000000000E+00  0.00000000000E+00  0.18116177911E+04  0.18116177911E+04  0.50400001928E-02 0.  1.
        1   -1    0    0  501    0  0.00000000000E+00  0.00000000000E+00 -0.12386136568E+04  0.12386136568E+04  0.50400001928E-02 0. -1.
    10030    2    1    2    0    0  0.00000000000E+00  0.00000000000E+00  0.57300413434E+03  0.30502314479E+04  0.29959269263E+04 0.  0.
        2    1    3    3  502    0  0.12710400425E+03  0.18423513853E+03  0.17944965407E+04  0.18084014623E+04  0.25500000920E-02 0.  1.
       -2    1    3    3    0  502 -0.12710400425E+03 -0.18423513853E+03 -0.12214924064E+04  0.12418299856E+04  0.25500000920E-02 0. -1.
</event>
<event>
 5   0  0.9797278E-06  0.3442617E+04  0.7818609E-02  0.8127525E-01
       -2   -1    0    0    0  501  0.00000000000E+00  0.00000000000E+00  0.18839483623E+04  0.18839483623E+04  0.25500000920E-02 0.  1.
        2   -1    0    0  501    0  0.00000000000E+00  0.00000000000E+00 -0.15727087811E+04  0.15727087811E+04  0.25500000920E-02 0. -1.
    10030    2    1    2    0    0  0.00000000000E+00  0.00000000000E+00  0.31123958114E+03  0.34566571434E+04  0.34426165238E+04 0.  0.
        1    1    3    3  502    0 -0.11704617289E+04  0.46907577456E+03  0.13321021804E+04  0.18342597853E+04  0.50400001928E-02 0.  1.
       -1    1    3    3    0  502  0.11704617289E+04 -0.46907577456E+03 -0.10208625992E+04  0.16223973581E+04  0.50400001928E-02 0. -1.
</event>
<event>
 5   0  0.3838525E-06  0.2365816E+04  0.7818609E-02  0.8452414E-01
        1   -1    0    0  501    0  0.00000000000E+00  0.00000000000E+00  0.16728522740E+04  0.16728522740E+04  0.50400001928E-02 0.  1.
       -1   -1    0    0    0  501  0.00000000000E+00  0.00000000000E+00 -0.83645828234E+03  0.83645828236E+03  0.50400001928E-02 0. -1.
    10030    2    1    2    0    0  0.00000000000E+00  0.00000000000E+00  0.83639399166E+03  0.25093105564E+04  0.23658158337E+04 0.  0.
        3    1    3    3  502    0 -0.88089071079E+03 -0.62616249362E+03  0.92821933523E+03  0.14246540132E+04  0.10100000352E+00 0.  1.
       -3    1    3    3    0  502  0.88089071079E+03  0.62616249362E+03 -0.91825343565E+02  0.10846565432E+04  0.10100000352E+00 0. -1.
</event>
<event>
 5   0  0.4250961E-06  0.2070181E+04  0.7818609E-02  0.8574494E-01
       -1   -1    0    0    0  501  0.00000000000E+00  0.00000000000E+00  0.10080427565E+04  0.10080427565E+04  0.50400001928E-02 0. -1.
        1   -1    0    0  501    0  0.00000000000E+00  0.00000000000E+00 -0.10628634985E+04  0.10628634985E+04  0.50400001928E-02 0.  1.
    10030    2    1    2    0    0  0.00000000000E+00  0.00000000000E+00 -0.54820742049E+02  0.20709062550E+04  0.20701805243E+04 0.  0.
        1    1    3    3  502    0 -0.17450452465E+03 -0.49078786525E+03 -0.92219992999E+03  0.10591398721E+04  0.50400001928E-02 0.  1.
       -1    1    3    3    0  502  0.17450452465E+03  0.49078786525E+03  0.86737918795E+03  0.10117663829E+04  0.50400001928E-02 0. -1.
</event>
<event>
 5   0  0.3838525E-06  0.2885228E+04  0.7818609E-02  0.8277286E-01
        1   -1    0    0  501    0  0.00000000000E+00  0.00000000000E+00  0.16280831802E+04  0.16280831803E+04  0.50400001928E-02 0. -1.
       -1   -1    0    0    0  501  0.00000000000E+00  0.00000000000E+00 -0.12782729480E+04  0.12782729480E+04  0.50400001928E-02 0.  1.
    10030    2    1    2    0    0  0.00000000000E+00  0.00000000000E+00  0.34981023226E+03  0.29063561282E+04  0.28852276766E+04 0.  0.
        3    1    3    3  502    0  0.62019942009E+03  0.59660087149E+03  0.13412071111E+04  0.15935546573E+04  0.10100000352E+00 0. -1.
       -3    1    3    3    0  502 -0.62019942009E+03 -0.59660087149E+03 -0.99139687888E+03  0.13128014710E+04  0.10100000352E+00 0.  1.
</event>
<event>
 5   0  0.1007567E-05  0.3053920E+04  0.7818609E-02  0.8228499E-01
       -2   -1    0    0    0  501  0.00000000000E+00  0.00000000000E+00  0.12618949783E+04  0.12618949783E+04  0.25500000920E-02 0. -1.
        2   -1    0    0  501    0  0.00000000000E+00  0.00000000000E+00 -0.18477032980E+04  0.18477032980E+04  0.25500000920E-02 0.  1.
    10030    2    1    2    0    0  0.00000000000E+00  0.00000000000E+00 -0.58580831964E+03  0.31095982763E+04  0.30539204398E+04 0.  0.
        3    1    3    3  502    0  0.45604448715E+02 -0.13383140846E+04 -0.10400691184E+04  0.16955554063E+04  0.10100000352E+00 0.  1.
       -3    1    3    3    0  502 -0.45604448715E+02  0.13383140846E+04  0.45426079872E+03  0.14140428700E+04  0.10100000352E+00 0. -1.
</event>
<event>
 5   0  0.1119100E-05  0.3053264E+04  0.7818609E-02  0.8228682E-01
       -2   -1    0    0    0  501  0.00000000000E+00  0.00000000000E+00  0.17160272294E+04  0.17160272294E+04  0.25500000920E-02 0.  1.
        2   -1    0    0  501    0  0.00000000000E+00  0.00000000000E+00 -0.13581403480E+04  0.13581403480E+04  0.25500000920E-02 0. -1.
    10030    2    1    2    0    0  0.00000000000E+00  0.00000000000E+00  0.35788688135E+03  0.30741675774E+04  0.30532643636E+04 0.  0.
        2    1    3    3  502    0  0.14655495636E+03 -0.39288656605E+03 -0.12990188325E+04  0.13650231266E+04  0.25500000920E-02 0. -1.
       -2    1    3    3    0  502 -0.14655495636E+03  0.39288656605E+03  0.16569057139E+04  0.17091444508E+04  0.25500000920E-02 0.  1.
</event>
<event>
 5   0  0.3807334E-06  0.3052738E+04  0.7818609E-02  0.8228830E-01
       -1   -1    0    0    0  501  0.00000000000E+00  0.00000000000E+00  0.10360064507E+04  0.10360064507E+04  0.50400001928E-02 0.  1.
        1   -1    0    0  501    0  0.00000000000E+00  0.00000000000E+00 -0.22488297768E+04  0.22488297768E+04  0.50400001928E-02 0. -1.
    10030    2    1    2    0    0  0.00000000000E+00  0.00000000000E+00 -0.12128233262E+04  0.32848362275E+04  0.30527378893E+04 0.  0.
        4    1    3    3  502    0  0.14284793897E+04  0.34055707334E+03 -0.10543141310E+04  0.18077921304E+04  0.12699999809E+01 0. -1.
       -4    1    3    3    0  502 -0.14284793897E+04 -0.34055707334E+03 -0.15850919516E+03  0.14770440971E+04  0.12699999809E+01 0.  1.
</event>
<event>
 5   0  0.9797278E-06  0.2588413E+04  0.7818609E-02  0.8372148E-01
        2   -1    0    0  501    0  0.00000000000E+00  0.00000000000E+00  0.11580812143E+04  0.11580812143E+04  0.25500000920E-02 0. -1.
       -2   -1    0    0    0  501  0.00000000000E+00  0.00000000000E+00 -0.14463324201E+04  0.14463324201E+04  0.25500000920E-02 0.  1.
    10030    2    1    2    0    0  0.00000000000E+00  0.00000000000E+00 -0.28825120580E+03  0.26044136345E+04  0.25884129543E+04 0.  0.
        1    1    3    3  502    0 -0.10574028654E+04 -0.12481303842E+03 -0.88439861287E+03  0.13841387289E+04  0.50400001928E-02 0.  1.
       -1    1    3    3    0  502  0.10574028654E+04  0.12481303842E+03  0.59614740707E+03  0.12202749056E+04  0.50400001928E-02 0. -1.
</event>
<event>
 5   0  0.1001961E-05  0.2669742E+04  0.7818609E-02  0.8344890E-01
       -2   -1    0    0    0  501  0.00000000000E+00  0.00000000000E+00  0.13847094855E+04  0.13847094855E+04  0.25500000920E-02 0. -1.
        2   -1    0    0  501    0  0.00000000000E+00  0.00000000000E+00 -0.12868266996E+04  0.12868266996E+04  0.25500000920E-02 0.  1.
    10030    2    1    2    0    0  0.00000000000E+00  0.00000000000E+00  0.97882785819E+02  0.26715361851E+04  0.26697424124E+04 0.  0.
        5    1    3    3  502    0 -0.53424812863E+03 -0.55276833566E+03  0.11409514552E+04  0.13757784011E+04  0.46999998093E+01 0. -1.
       -5    1    3    3    0  502  0.53424812863E+03  0.55276833566E+03 -0.10430686693E+04  0.12957577840E+04  0.46999998093E+01 0.  1.
</event>
<event>
 5   0  0.3807334E-06  0.2735006E+04  0.7818609E-02  0.8323735E-01
       -1   -1    0    0    0  501  0.00000000000E+00  0.00000000000E+00  0.15140706622E+04  0.15140706622E+04  0.50400001928E-02 0.  1.
        1   -1    0    0  501    0  0.00000000000E+00  0.00000000000E+00 -0.12351238807E+04  0.12351238807E+04  0.50400001928E-02 0. -1.
    10030    2    1    2    0    0  0.00000000000E+00  0.00000000000E+00  0.27894678156E+03  0.27491945429E+04  0.27350062756E+04 0.  0.
        4    1    3    3  502    0  0.97951110996E+03  0.61664728634E+03  0.87151459635E+03  0.14488737677E+04  0.12699999809E+01 0.  1.
       -4    1    3    3    0  502 -0.97951110996E+03 -0.61664728634E+03 -0.59256781479E+03  0.13003207752E+04  0.12699999809E+01 0. -1.
</event>
<event>
 5   0  0.9797278E-06  0.3052647E+04  0.7818609E-02  0.8228855E-01
        2   -1    0    0  501    0  0.00000000000E+00  0.00000000000E+00  0.12257574983E+04  0.12257574983E+04  0.25500000920E-02 0.  1.
       -2   -1    0    0    0  501  0.00000000000E+00  0.00000000000E+00 -0.19005911270E+04  0.19005911270E+04  0.25500000920E-02 0. -1.
    10030    2    1    2    0    0  0.00000000000E+00  0.00000000000E+00 -0.67483362872E+03  0.31263486252E+04  0.30526472610E+04 0.  0.
        1    1    3    3  502    0 -0.10871589441E+04 -0.87342199318E+03 -0.97278476251E+03  0.17003207762E+04  0.50400001928E-02 0. -1.
       -1    1    3    3    0  502  0.10871589441E+04  0.87342199318E+03  0.29795113379E+03  0.14260278490E+04  0.50400001928E-02 0.  1.
</event>
<event>
 5   0  0.4250961E-06  0.1775576E+04  0.7818609E-02  0.8719397E-01
       -1   -1    0    0    0  501  0.00000000000E+00  0.00000000000E+00  0.11374372874E+04  0.11374372874E+04  0.50400001928E-02 0.  1.
        1   -1    0    0  501    0  0.00000000000E+00  0.00000000000E+00 -0.69293259663E+03  0.69293259665E+03  0.50400001928E-02 0. -1.
    10030    2    1    2    0    0  0.00000000000E+00  0.00000000000E+00  0.44450469078E+03  0.18303698841E+04  0.17755758200E+04 0.  0.
        1    1    3    3  502    0  0.74429707255E+03 -0.15611948509E+03 -0.24993993899E+03  0.80051320974E+03  0.50400001928E-02 0. -1.
       -1    1    3    3    0  502 -0.74429707255E+03  0.15611948509E+03  0.69444462978E+03  0.10298566743E+04  0.50400001928E-02 0.  1.
</event>
<event>
 5   0  0.9797278E-06  0.3091847E+04  0.7818609E-02  0.8217979E-01
       -2   -1    0    0    0  501  0.00000000000E+00  0.00000000000E+00  0.78880938520E+03  0.78880938520E+03  0.25500000920E-02 0. -1.
        2   -1    0    0  501    0  0.00000000000E+00  0.00000000000E+00 -0.30297306441E+04  0.30297306441E+04  0.25500000920E-02 0.  1.
    10030    2    1    2    0    0  0.00000000000E+00  0.00000000000E+00 -0.22409212589E+04  0.38185400293E+04  0.30918473227E+04 0.  0.
        1    1    3    3  502    0  0.49130687429E+03 -0.13482933542E+04 -0.18305817163E+04  0.23260066280E+04  0.50400001928E-02 0.  1.
       -1    1    3    3    0  502 -0.49130687429E+03  0.13482933542E+04 -0.41033954269E+03  0.14925334013E+04  0.50400001928E-02 0. -1.
</event>
<event>
 5   0  0.3807334E-06  0.3057616E+04  0.7818609E-02  0.8227467E-01
       -1   -1    0    0    0  501  0.00000000000E+00  0.00000000000E+00  0.10897182147E+04  0.10897182148E+04  0.50400001928E-02 0. -1.
        1   -1    0    0  501    0  0.00000000000E+00  0.00000000000E+00 -0.21448245137E+04  0.21448245137E+04  0.50400001928E-02 0.  1.
    10030    2    1    2    0    0  0.00000000000E+00  0.00000000000E+00 -0.10551062989E+04  0.32345427284E+04  0.30576162873E+04 0.  0.
        4    1    3    3  502    0  0.47601879867E+03  0.14216388328E+04 -0.21089663965E+03  0.15139781614E+04  0.12699999809E+01 0. -1.
       -4    1    3    3    0  502 -0.47601879867E+03 -0.14216388328E+04 -0.84420965928E+03  0.17205645670E+04  0.12699999809E+01 0.  1.
</event>
<event>
 5   0  0.1119100E-05  0.3057531E+04  0.7818609E-02  0.8227491E-01
       -2   -1    0    0    0  501  0.00000000000E+00  0.00000000000E+00  0.17584686042E+04  0.17584686042E+04  0.25500000920E-02 0.  1.
        2   -1    0    0  501    0  0.00000000000E+00  0.00000000000E+00 -0.13290677041E+04  0.13290677041E+04  0.25500000920E-02 0. -1.
    10030    2    1    2    0    0  0.00000000000E+00  0.00000000000E+00  0.42940090019E+03  0.30875363083E+04  0.30575309192E+04 0.  0.
        2    1    3    3  502    0 -0.19117359841E+03  0.14605885596E+04  0.62768525732E+03  0.16012042554E+04  0.25500000920E-02 0.  1.
       -2    1    3    3    0  502  0.19117359841E+03 -0.14605885596E+04 -0.19828435712E+03  0.14863320529E+04  0.25500000920E-02 0. -1.
</event>
<event>
 5   0  0.1119100E-05  0.3098385E+04  0.7818609E-02  0.8216181E-01
        2   -1    0    0  501    0  0.00000000000E+00  0.00000000000E+00  0.34495865821E+04  0.34495865821E+04  0.25500000920E-02 0. -1.
       -2   -1    0    0    0  501  0.00000000000E+00  0.00000000000E+00 -0.69573490758E+03  0.69573490758E+03  0.25500000920E-02 0.  1.
    10030    2    1    2    0    0  0.00000000000E+00  0.00000000000E+00  0.27538516745E+04  0.41453214896E+04  0.30983852581E+04 0.  0.
        2    1    3    3  502    0  0.10161230343E+04 -0.84654306844E+02  0.29373555400E+04  0.31092973388E+04  0.25500000920E-02 0. -1.
       -2    1    3    3    0  502 -0.10161230343E+04  0.84654306844E+02 -0.18350386552E+03  0.10360241509E+04  0.25500000920E-02 0.  1.
</event>
<event>
 5   0  0.3807334E-06  0.2973085E+04  0.7818609E-02  0.8251459E-01
        1   -1    0    0  501    0  0.00000000000E+00  0.00000000000E+00  0.11689552457E+04  0.11689552457E+04  0.50400001928E-02 0. -1.
       -1   -1    0    0    0  501  0.00000000000E+00  0.00000000000E+00 -0.18904134770E+04  0.18904134770E+04  0.50400001928E-02 0.  1.
    10030    2    1    2    0    0  0.00000000000E+00  0.00000000000E+00 -0.72145823132E+03  0.30593687227E+04  0.29730850983E+04 0.  0.
        4    1    3    3  502    0 -0.22332341702E+02  0.14173906362E+04 -0.82128058281E+03  0.16382912921E+04  0.12699999809E+01 0. -1.
       -4    1    3    3    0  502  0.22332341702E+02 -0.14173906362E+04  0.99822351494E+02  0.14210774306E+04  0.12699999809E+01 0.  1.
</event>
<event>
 5   0  0.4139628E-06  0.3119058E+04  0.7818609E-02  0.8210527E-01
       -1   -1    0    0    0  501  0.00000000000E+00  0.00000000000E+00  0.12600234239E+04  0.12600234239E+04  0.50400001928E-02 0.  1.
        1   -1    0    0  501    0  0.00000000000E+00  0.00000000000E+00 -0.19302268966E+04  0.19302268966E+04  0.50400001928E-02 0. -1.
    10030    2    1    2    0    0  0.00000000000E+00  0.00000000000E+00 -0.67020347274E+03  0.31902503205E+04  0.31190582574E+04 0.  0.
        5    1    3    3  502    0 -0.57713375037E+02 -0.59956288025E+03  0.11362390331E+04  0.12860278813E+04  0.46999998093E+01 0.  1.
       -5    1    3    3    0  502  0.57713375037E+02  0.59956288025E+03 -0.18064425059E+04  0.19042224392E+04  0.46999998093E+01 0. -1.
</event>
<event>
 5   0  0.3848286E-06  0.1633559E+04  0.7818609E-02  0.8800193E-01
       -1   -1    0    0    0  501  0.00000000000E+00  0.00000000000E+00  0.43658376479E+03  0.43658376482E+03  0.50400001928E-02 0.  1.
        1   -1    0    0  501    0  0.00000000000E+00  0.00000000000E+00 -0.15280654260E+04  0.15280654260E+04  0.50400001928E-02 0. -1.
    10030    2    1    2    0    0  0.00000000000E+00  0.00000000000E+00 -0.10914816612E+04  0.19646491909E+04  0.16335587612E+04 0.  0.
        2    1    3    3  502    0  0.23819845773E+03 -0.27859354230E+02  0.39328531727E+03  0.46063867582E+03  0.25500000920E-02 0.  1.
       -2    1    3    3    0  502 -0.23819845773E+03  0.27859354230E+02 -0.14847669785E+04  0.15040105150E+04  0.25500000920E-02 0. -1.
</event>
<event>
 5   0  0.1007567E-05  0.3144127E+04  0.7818609E-02  0.8203731E-01
        2   -1    0    0  501    0  0.00000000000E+00  0.00000000000E+00  0.12988946705E+04  0.12988946705E+04  0.25500000920E-02 0. -1.
       -2   -1    0    0    0  501  0.00000000000E+00  0.00000000000E+00 -0.19026823206E+04  0.19026823206E+04  0.25500000920E-02 0.  1.
    10030    2    1    2    0    0  0.00000000000E+00  0.00000000000E+00 -0.60378765008E+03  0.32015769911E+04  0.31441271768E+04 0.  0.
        3    1    3    3  502    0  0.13758834099E+04 -0.42239619585E+03  0.34204571445E+03  0.14793474862E+04  0.10100000352E+00 0. -1.
       -3    1    3    3    0  502 -0.13758834099E+04  0.42239619585E+03 -0.94583336453E+03  0.17222295049E+04  0.10100000352E+00 0.  1.
</event>
<event>
 5   0  0.3848286E-06  0.2064913E+04  0.7818609E-02  0.8576859E-01
        1   -1    0    0  501    0  0.00000000000E+00  0.00000000000E+00  0.12857906392E+04  0.12857906392E+04  0.50400001928E-02 0.  1.
       -1   -1    0    0    0  501  0.00000000000E+00  0.00000000000E+00 -0.82903547737E+03  0.82903547739E+03  0.50400001928E-02 0. -1.
    10030    2    1    2    0    0  0.00000000000E+00  0.00000000000E+00  0.45675516187E+03  0.21148261166E+04  0.20649126436E+04 0.  0.
        2    1    3    3  502    0 -0.10077876399E+04 -0.11771314113E+02  0.45782773412E+03  0.11069691618E+04  0.25500000920E-02 0. -1.
       -2    1    3    3    0  502  0.10077876399E+04  0.11771314113E+02 -0.10725722517E+01  0.10078569548E+04  0.25500000920E-02 0.  1.
</event>
<event>
 5   0  0.4250961E-06  0.3048346E+04  0.7818609E-02  0.8230059E-01
       -1   -1    0    0    0  501  0.00000000000E+00  0.00000000000E+00  0.12102609833E+04  0.12102609833E+04  0.50400001928E-02 0. -1.
        1   -1    0    0  501    0  0.00000000000E+00  0.00000000000E+00 -0.19195061966E+04  0.19195061966E+04  0.50400001928E-02 0.  1.
    10030    2    1    2    0    0  0.00000000000E+00  0.00000000000E+00 -0.70924521336E+03  0.31297671799E+04  0.30483460807E+04 0.  0.
        1    1    3    3  502    0 -0.36234553116E+03 -0.52973243962E+03  0.10647617077E+04  0.12432329773E+04  0.50400001928E-02 0. -1.
       -1    1    3    3    0  502  0.36234553116E+03  0.52973243962E+03 -0.17740069211E+04  0.18865342026E+04  0.50400001928E-02 0.  1.
</event>
<event>
 5   0  0.9797278E-06  0.3166261E+04  0.7818609E-02  0.8197785E-01
       -2   -1    0    0    0  501  0.00000000000E+00  0.00000000000E+00  0.14209099568E+04  0.14209099568E+04  0.25500000920E-02 0. -1.
        2   -1    0    0  501    0  0.00000000000E+00  0.00000000000E+00 -0.17638710084E+04  0.17638710084E+04  0.25500000920E-02 0.  1.
    10030    2    1    2    0    0  0.00000000000E+00  0.00000000000E+00 -0.34296105156E+03  0.31847809652E+04  0.31662608094E+04 0.  0.
        1    1    3    3  502    0  0.10791050667E+04 -0.13327624580E+03 -0.13288942151E+04  0.17170294516E+04  0.50400001928E-02 0.  1.
       -1    1    3    3    0  502 -0.10791050667E+04  0.13327624580E+03  0.98593316355E+03  0.14677515136E+04  0.50400001928E-02 0. -1.
</event>
<event>
 5   0  0.4139628E-06  0.2273851E+04  0.7818609E-02  0.8488303E-01
       -1   -1    0    0    0  501  0.00000000000E+00  0.00000000000E+00  0.62261574298E+03  0.62261574300E+03  0.50400001928E-02 0. -1.
        1   -1    0    0  501    0  0.00000000000E+00  0.00000000000E+00 -0.20760798425E+04  0.20760798425E+04  0.50400001928E-02 0.  1.
    10030    2    1    2    0    0  0.00000000000E+00  0.00000000000E+00 -0.14534640995E+04  0.26986955855E+04  0.22738513528E+04 0.  0.
        5    1    3    3  502    0  0.79572832469E+03 -0.65612450372E+03 -0.12945510951E+04  0.16551639070E+04  0.46999998093E+01 0.  1.
       -5    1    3    3    0  502 -0.79572832469E+03  0.65612450372E+03 -0.15891300439E+03  0.10435316785E+04  0.46999998093E+01 0. -1.
</event>
<event>
 5   0  0.4139628E-06  0.3054140E+04  0.7818609E-02  0.8228438E-01
        1   -1    0    0  501    0  0.00000000000E+00  0.00000000000E+00  0.21562386978E+04  0.21562386978E+04  0.50400001928E-02 0.  1.
       -1   -1    0    0    0  501  0.00000000000E+00  0.00000000000E+00 -0.10814861156E+04  0.10814861156E+04  0.50400001928E-02 0. -1.
    10030    2    1    2    0    0  0.00000000000E+00  0.00000000000E+00  0.10747525822E+04  0.32377248134E+04  0.30541396259E+04 0.  0.
        5    1    3    3  502    0  0.74553628093E+03  0.54503879033E+03 -0.75188016952E+03  0.11908977741E+04  0.46999998093E+01 0. -1.
       -5    1    3    3    0  502 -0.74553628093E+03 -0.54503879033E+03  0.18266327517E+04  0.20468270393E+04  0.46999998093E+01 0.  1.
</event>
<event>
 5   0  0.1119100E-05  0.3074112E+04  0.7818609E-02  0.8222879E-01
        2   -1    0    0  501    0  0.00000000000E+00  0.00000000000E+00  0.17596703508E+04  0.17596703508E+04  0.25500000920E-02 0. -1.
       -2   -1    0    0    0  501  0.00000000000E+00  0.00000000000E+00 -0.13426044396E+04  0.13426044396E+04  0.25500000920E-02 0.  1.
    10030    2    1    2    0    0  0.00000000000E+00  0.00000000000E+00  0.41706591121E+03  0.31022747905E+04  0.30741120509E+04 0.  0.
        2    1    3    3  502    0  0.45322097185E+02 -0.53275280321E+02 -0.13409975604E+04  0.13428204664E+04  0.25500000920E-02 0.  1.
       -2    1    3    3    0  502 -0.45322097185E+02  0.53275280321E+02  0.17580634716E+04  0.17594543240E+04  0.25500000920E-02 0. -1.
</event>
<event>
 5   0  0.1119100E-05  0.3034818E+04  0.7818609E-02  0.8233858E-01
       -2   -1    0    0    0  501  0.00000000000E+00  0.00000000000E+00  0.11246959516E+04  0.11246959516E+04  0.25500000920E-02 0. -1.
        2   -1    0    0  501    0  0.00000000000E+00  0.00000000000E+00 -0.20472472778E+04  0.20472472778E+04  0.25500000920E-02 0.  1.
    10030    2    1    2    0    0  0.00000000000E+00  0.00000000000E+00 -0.92255132621E+03  0.31719432293E+04  0.30348184296E+04 0.  0.
        2    1    3    3  502    0  0.44959549262E+03  0.14489133133E+04 -0.42749134046E+03  0.15761455335E+04  0.25500000920E-02 0. -1.
       -2    1    3    3    0  502 -0.44959549262E+03 -0.14489133133E+04 -0.49505998575E+03  0.15957976958E+04  0.25500000920E-02 0.  1.
</event>
<event>
 5   0  0.3838525E-06  0.3079458E+04  0.7818609E-02  0.8221398E-01
       -1   -1    0    0    0  501  0.00000000000E+00  0.00000000000E+00  0.15109696601E+04  0.15109696602E+04  0.50400001928E-02 0.  1.
        1   -1    0    0  501    0  0.00000000000E+00  0.00000000000E+00 -0.15690353504E+04  0.15690353504E+04  0.50400001928E-02 0. -1.
    10030    2    1    2    0    0  0.00000000000E+00  0.00000000000E+00 -0.58065690234E+02  0.30800050105E+04  0.30794576212E+04 0.  0.
        3    1    3    3  502    0  0.70645835206E+03 -0.13626286780E+04  0.93154670035E+02  0.15376989693E+04  0.10100000352E+00 0. -1.
       -3    1    3    3    0  502 -0.70645835206E+03  0.13626286780E+04 -0.15122036027E+03  0.15423060413E+04  0.10100000352E+00 0.  1.
</event>
<event>
 5   0  0.1001961E-05  0.1580209E+04  0.7818609E-02  0.8832799E-01
       -2   -1    0    0    0  501  0.00000000000E+00  0.00000000000E+00  0.52826284729E+03  0.52826284729E+03  0.25500000920E-02 0.  1.
        2   -1    0    0  501    0  0.00000000000E+00  0.00000000000E+00 -0.11817321343E+04  0.11817321343E+04  0.25500000920E-02 0. -1.
    10030    2    1    2    0    0  0.00000000000E+00  0.00000000000E+00 -0.65346928702E+03  0.17099949816E+04  0.15802090773E+04 0.  0.
        5    1    3    3  502    0 -0.37897212646E+03  0.24559068710E+03 -0.10282938624E+04  0.11230961738E+04  0.46999998093E+01 0. -1.
       -5    1    3    3    0  502  0.37897212646E+03 -0.24559068710E+03  0.37482457540E+03  0.58689880776E+03  0.46999998093E+01 0.  1.
</event>
<event>
 5   0  0.3807334E-06  0.3236062E+04  0.7818609E-02  0.8179358E-01
        1   -1    0    0  501    0  0.00000000000E+00  0.00000000000E+00  0.20886474682E+04  0.20886474682E+04  0.50400001928E-02 0. -1.
       -1   -1    0    0    0  501  0.00000000000E+00  0.00000000000E+00 -0.12534547289E+04  0.12534547289E+04  0.50400001928E-02 0.  1.
    10030    2    1    2    0    0  0.00000000000E+00  0.00000000000E+00  0.83519273925E+03  0.33421021971E+04  0.32360624506E+04 0.  0.
        4    1    3    3  502    0  0.25847302501E+03  0.18414664793E+02 -0.12318853546E+04  0.12588449246E+04  0.12699999809E+01 0.  1.
       -4    1    3    3    0  502 -0.25847302501E+03 -0.18414664793E+02  0.20670780938E+04  0.20832572725E+04  0.12699999809E+01 0. -1.
</event>
<event>
 5   0  0.1119100E-05  0.3324558E+04  0.7818609E-02  0.8156674E-01
       -2   -1    0    0    0  501  0.00000000000E+00  0.00000000000E+00  0.12110026820E+04  0.12110026820E+04  0.25500000920E-02 0.  1.
        2   -1    0    0  501    0  0.00000000000E+00  0.00000000000E+00 -0.22817225061E+04  0.22817225061E+04  0.25500000920E-02 0. -1.
    10030    2    1    2    0    0  0.00000000000E+00  0.00000000000E+00 -0.10707198240E+04  0.34927251881E+04  0.33245583614E+04 0.  0.
        2    1    3    3  502    0 -0.15029897154E+04  0.67070371605E+03 -0.29043537943E+03  0.16712792313E+04  0.25500000920E-02 0.  1.
       -2    1    3    3    0  502  0.15029897154E+04 -0.67070371605E+03 -0.78028444459E+03  0.18214459568E+04  0.25500000920E-02 0. -1.
</event>
<event>
 5   0  0.3838525E-06  0.3061390E+04  0.7818609E-02  0.8226415E-01
       -1   -1    0    0    0  501  0.00000000000E+00  0.00000000000E+00  0.96823752859E+03  0.96823752860E+03  0.50400001928E-02 0.  1.
        1   -1    0    0  501    0  0.00000000000E+00  0.00000000000E+00 -0.24198881271E+04  0.24198881271E+04  0.50400001928E-02 0. -1.
    10030    2    1    2    0    0  0.00000000000E+00  0.00000000000E+00 -0.14516505985E+04  0.33881256557E+04  0.30613895535E+04 0.  0.
        3    1    3    3  502    0  0.13769814803E+04 -0.49956355175E+03 -0.23412812668E+03  0.14833939899E+04  0.10100000352E+00 0. -1.
       -3    1    3    3    0  502 -0.13769814803E+04  0.49956355175E+03 -0.12175224718E+04  0.19047316658E+04  0.10100000352E+00 0.  1.
</event>
<event>
 5   0  0.4139628E-06  0.3108904E+04  0.7818609E-02  0.8213299E-01
        1   -1    0    0  501    0  0.00000000000E+00  0.00000000000E+00  0.24547732433E+04  0.24547732433E+04  0.50400001928E-02 0. -1.
       -1   -1    0    0    0  501  0.00000000000E+00  0.00000000000E+00 -0.98433543049E+03  0.98433543051E+03  0.50400001928E-02 0.  1.
    10030    2    1    2    0    0  0.00000000000E+00  0.00000000000E+00  0.14704378128E+04  0.34391086738E+04  0.31089035219E+04 0.  0.
        5    1    3    3  502    0 -0.13698221415E+04  0.69379987525E+03  0.10028383149E+04  0.18339786645E+04  0.46999998093E+01 0. -1.
       -5    1    3    3    0  502  0.13698221415E+04 -0.69379987525E+03  0.46759949788E+03  0.16051300092E+04  0.46999998093E+01 0.  1.
</event>
<event>
 5   0  0.3848286E-06  0.1648200E+04  0.7818609E-02  0.8791472E-01
        1   -1    0    0  501    0  0.00000000000E+00  0.00000000000E+00  0.22162292944E+04  0.22162292944E+04  0.50400001928E-02 0. -1.
       -1   -1    0    0    0  501  0.00000000000E+00  0.00000000000E+00 -0.30643980296E+03  0.30643980300E+03  0.50400001928E-02 0.  1.
    10030    2    1    2    0    0  0.00000000000E+00  0.00000000000E+00  0.19097894915E+04  0.25226690974E+04  0.16482000708E+04 0.  0.
        2    1    3    3  502    0 -0.56215447969E+03 -0.44171438703E+03  0.15822593394E+04  0.17362816234E+04  0.25500000920E-02 0. -1.
       -2    1    3    3    0  502  0.56215447969E+03  0.44171438703E+03  0.32753015210E+03  0.78638747402E+03  0.25500000920E-02 0.  1.
</event>
<event>
 5   0  0.4139628E-06  0.3119083E+04  0.7818609E-02  0.8210520E-01
        1   -1    0    0  501    0  0.00000000000E+00  0.00000000000E+00  0.24678763234E+04  0.24678763234E+04  0.50400001928E-02 0.  1.
       -1   -1    0    0    0  501  0.00000000000E+00  0.00000000000E+00 -0.98553136077E+03  0.98553136078E+03  0.50400001928E-02 0. -1.
    10030    2    1    2    0    0  0.00000000000E+00  0.00000000000E+00  0.14823449627E+04  0.34534076842E+04  0.31190828853E+04 0.  0.
        5    1    3    3  502    0 -0.45320973491E+03 -0.14698743109E+04  0.10260830312E+04  0.18489991970E+04  0.46999998093E+01 0.  1.
       -5    1    3    3    0  502  0.45320973491E+03  0.14698743109E+04  0.45626193148E+03  0.16044084872E+04  0.46999998093E+01 0. -1.
</event>
<event>
 5   0  0.1119100E-05  0.3079873E+04  0.7818609E-02  0.8221283E-01
        2   -1    0    0  501    0  0.00000000000E+00  0.00000000000E+00  0.18314004506E+04  0.18314004506E+04  0.25500000920E-02 0.  1.
       -2   -1    0    0    0  501  0.00000000000E+00  0.00000000000E+00 -0.12948588091E+04  0.12948588091E+04  0.25500000920E-02 0. -1.
    10030    2    1    2    0    0  0.00000000000E+00  0.00000000000E+00  0.53654164156E+03  0.31262592597E+04  0.30798733782E+04 0.  0.
        2    1    3    3  502    0 -0.14783175558E+04  0.14910707477E+03  0.67902486051E+03  0.16336249498E+04  0.25500000920E-02 0. -1.
       -2    1    3    3    0  502  0.14783175558E+04 -0.14910707477E+03 -0.14248321895E+03  0.14926343099E+04  0.25500000920E-02 0.  1.
</event>
<event>
 5   0  0.1119100E-05  0.3093859E+04  0.7818609E-02  0.8217425E-01
       -2   -1    0    0    0  501  0.00000000000E+00  0.00000000000E+00  0.19788971004E+04  0.19788971004E+04  0.25500000920E-02 0. -1.
        2   -1    0    0  501    0  0.00000000000E+00  0.00000000000E+00 -0.12092547692E+04  0.12092547692E+04  0.25500000920E-02 0.  1.
    10030    2    1    2    0    0  0.00000000000E+00  0.00000000000E+00  0.76964233128E+03  0.31881518696E+04  0.30938589214E+04 0.  0.
        2    1    3    3  502    0 -0.22689929274E+03 -0.49125710921E+02 -0.11912010849E+04  0.12136130558E+04  0.25500000920E-02 0.  1.
       -2    1    3    3    0  502  0.22689929274E+03  0.49125710921E+02  0.19608434162E+04  0.19745388138E+04  0.25500000920E-02 0. -1.
</event>
<event>
 5   0  0.3807334E-06  0.1548373E+04  0.7818609E-02  0.8852907E-01
        1   -1    0    0  501    0  0.00000000000E+00  0.00000000000E+00  0.10543472672E+04  0.10543472672E+04  0.50400001928E-02 0.  1.
       -1   -1    0    0    0  501  0.00000000000E+00  0.00000000000E+00 -0.56847015840E+03  0.56847015842E+03  0.50400001928E-02 0. -1.
    10030    2    1    2    0    0  0.00000000000E+00  0.00000000000E+00  0.48587710878E+03  0.16228174256E+04  0.15483732857E+04 0.  0.
        4    1    3    3  502    0  0.10407350234E+03  0.67197967129E+03  0.63083449787E+03  0.92754609003E+03  0.12699999809E+01 0.  1.
       -4    1    3    3    0  502 -0.10407350234E+03 -0.67197967129E+03 -0.14495738910E+03  0.69527133558E+03  0.12699999809E+01 0. -1.
</event>
<event>
 5   0  0.1108153E-05  0.3107893E+04  0.7818609E-02  0.8213575E-01
        2   -1    0    0  501    0  0.00000000000E+00  0.00000000000E+00  0.19590800508E+04  0.19590800508E+04  0.25500000920E-02 0. -1.
       -2   -1    0    0    0  501  0.00000000000E+00  0.00000000000E+00 -0.12325939756E+04  0.12325939756E+04  0.25500000920E-02 0.  1.
    10030    2    1    2    0    0  0.00000000000E+00  0.00000000000E+00  0.72648607519E+03  0.31916740265E+04  0.31078933498E+04 0.  0.
        4    1    3    3  502    0 -0.38991244607E+03  0.68940341535E+03 -0.10097493924E+04  0.12833176665E+04  0.12699999809E+01 0. -1.
       -4    1    3    3    0  502  0.38991244607E+03 -0.68940341535E+03  0.17362354676E+04  0.19083563600E+04  0.12699999809E+01 0.  1.
</event>
<event>
 5   0  0.3493125E-06  0.2330064E+04  0.7818609E-02  0.8466161E-01
       -3   -1    0    0    0  501  0.00000000000E+00  0.00000000000E+00  0.78537076279E+03  0.78537076929E+03  0.10100000352E+00 0.  1.
        3   -1    0    0  501    0  0.00000000000E+00  0.00000000000E+00 -0.17282280935E+04  0.17282280964E+04  0.10100000352E+00 0. -1.
    10030    2    1    2    0    0  0.00000000000E+00  0.00000000000E+00 -0.94285733067E+03  0.25135988657E+04  0.23300642291E+04 0.  0.
        1    1    3    3  502    0  0.10266417586E+04  0.85649837876E+02  0.11545549648E+03  0.10366576904E+04  0.50400001928E-02 0. -1.
       -1    1    3    3    0  502 -0.10266417586E+04 -0.85649837876E+02 -0.10583128271E+04  0.14769411753E+04  0.50400001928E-02 0.  1.
</event>
<event>
 5   0  0.4139628E-06  0.1918317E+04  0.7818609E-02  0.8645792E-01
        1   -1    0    0  501    0  0.00000000000E+00  0.00000000000E+00  0.12363540887E+04  0.12363540887E+04  0.50400001928E-02 0. -1.
       -1   -1    0    0    0  501  0.00000000000E+00  0.00000000000E+00 -0.74411124537E+03  0.74411124539E+03  0.50400001928E-02 0.  1.
    10030    2    1    2    0    0  0.00000000000E+00  0.00000000000E+00  0.49224284331E+03  0.19804653341E+04  0.19183169505E+04 0.  0.
        5    1    3    3  502    0  0.73199613709E+03 -0.13666514663E+03 -0.37800285237E+03  0.83510715086E+03  0.46999998093E+01 0.  1.
       -5    1    3    3    0  502 -0.73199613709E+03  0.13666514663E+03  0.87024569568E+03  0.11453581832E+04  0.46999998093E+01 0. -1.
</event>
<event>
 5   0  0.3838525E-06  0.3079717E+04  0.7818609E-02  0.8221327E-01
       -1   -1    0    0    0  501  0.00000000000E+00  0.00000000000E+00  0.27407149456E+04  0.27407149456E+04  0.50400001928E-02 0.  1.
        1   -1    0    0  501    0  0.00000000000E+00  0.00000000000E+00 -0.86516260354E+03  0.86516260356E+03  0.50400001928E-02 0. -1.
    10030    2    1    2    0    0  0.00000000000E+00  0.00000000000E+00  0.18755523421E+04  0.36058775492E+04  0.30797169207E+04 0.  0.
        3    1    3    3  502    0 -0.67650294085E+03 -0.94913702111E+03  0.21160036923E+04  0.24157791600E+04  0.10100000352E+00 0.  1.
       -3    1    3    3    0  502  0.67650294085E+03  0.94913702111E+03 -0.24045135027E+03  0.11900983892E+04  0.10100000352E+00 0. -1.
</event>
<event>
 5   0  0.1119100E-05  0.3222625E+04  0.7818609E-02  0.8182867E-01
        2   -1    0    0  501    0  0.00000000000E+00  0.00000000000E+00  0.18916589673E+04  0.18916589673E+04  0.25500000920E-02 0.  1.
       -2   -1    0    0    0  501  0.00000000000E+00  0.00000000000E+00 -0.13725138001E+04  0.13725138001E+04  0.25500000920E-02 0. -1.
    10030    2    1    2    0    0  0.00000000000E+00  0.00000000000E+00  0.51914516716E+03  0.32641727674E+04  0.32226250404E+04 0.  0.
        2    1    3    3  502    0  0.13702882168E+04  0.28810742134E+03 -0.54797171900E+03  0.15036517842E+04  0.25500000920E-02 0.  1.
       -2    1    3    3    0  502 -0.13702882168E+04 -0.28810742134E+03  0.10671168862E+04  0.17605209832E+04  0.25500000920E-02 0. -1.
</event>
<event>
 5   0  0.4250961E-06  0.3299532E+04  0.7818609E-02  0.8163015E-01
       -1   -1    0    0    0  501  0.00000000000E+00  0.00000000000E+00  0.14132368630E+04  0.14132368630E+04  0.50400001928E-02 0.  1.
        1   -1    0    0  501    0  0.00000000000E+00  0.00000000000E+00 -0.19258819446E+04  0.19258819446E+04  0.50400001928E-02 0. -1.
    10030    2    1    2    0    0  0.00000000000E+00  0.00000000000E+00 -0.51264508162E+03  0.33391188076E+04  0.32995316988E+04 0.  0.
        1    1    3    3  502    0 -0.23086661758E+03 -0.28179542880E+03 -0.18846704866E+04  0.19195548708E+04  0.50400001928E-02 0. -1.
       -1    1    3    3    0  502  0.23086661758E+03  0.28179542880E+03  0.13720254050E+04  0.14195639368E+04  0.50400001928E-02 0.  1.
</event>
<event>
 5   0  0.1119100E-05  0.3152559E+04  0.7818609E-02  0.8201460E-01
       -2   -1    0    0    0  501  0.00000000000E+00  0.00000000000E+00  0.13285942330E+04  0.13285942330E+04  0.25500000920E-02 0.  1.
        2   -1    0    0  501    0  0.00000000000E+00  0.00000000000E+00 -0.18701393302E+04  0.18701393302E+04  0.25500000920E-02 0. -1.
    10030    2    1    2    0    0  0.00000000000E+00  0.00000000000E+00 -0.54154509714E+03  0.31987335632E+04  0.31525585349E+04 0.  0.
        2    1    3    3  502    0 -0.15122708320E+04  0.10350176561E+03  0.16797351600E+03  0.15250871408E+04  0.25500000920E-02 0. -1.
       -2    1    3    3    0  502  0.15122708320E+04 -0.10350176561E+03 -0.70951861314E+03  0.16736464224E+04  0.25500000920E-02 0.  1.
</event>
<event>
 5   0  0.1119100E-05  0.3100148E+04  0.7818609E-02  0.8215697E-01
        2   -1    0    0  501    0  0.00000000000E+00  0.00000000000E+00  0.15511536855E+04  0.15511536855E+04  0.25500000920E-02 0. -1.
       -2   -1    0    0    0  501  0.00000000000E+00  0.00000000000E+00 -0.15489948839E+04  0.15489948839E+04  0.25500000920E-02 0.  1.
    10030    2    1    2    0    0  0.00000000000E+00  0.00000000000E+00  0.21588015965E+01  0.31001485694E+04  0.31001478178E+04 0.  0.
        2    1    3    3  502    0  0.33487423758E+02 -0.15089292780E+04  0.35426520186E+03  0.15503202271E+04  0.25500000920E-02 0. -1.
       -2    1    3    3    0  502 -0.33487423758E+02  0.15089292780E+04 -0.35210640026E+03  0.15498283423E+04  0.25500000920E-02 0.  1.
</event>
<event>
 5   0  0.3838525E-06  0.2405369E+04  0.7818609E-02  0.8437496E-01
        1   -1    0    0  501    0  0.00000000000E+00  0.00000000000E+00  0.13350990616E+04  0.13350990616E+04  0.50400001928E-02 0.  1.
       -1   -1    0    0    0  501  0.00000000000E+00  0.00000000000E+00 -0.10834031401E+04  0.10834031401E+04  0.50400001928E-02 0. -1.
    10030    2    1    2    0    0  0.00000000000E+00  0.00000000000E+00  0.25169592149E+03  0.24185022016E+04  0.24053694233E+04 0.  0.
        3    1    3    3  502    0 -0.21529571681E+03 -0.10591248823E+04 -0.40462402556E+03  0.11540443554E+04  0.10100000352E+00 0. -1.
       -3    1    3    3    0  502  0.21529571681E+03  0.10591248823E+04  0.65631994704E+03  0.12644578463E+04  0.10100000352E+00 0.  1.
</event>
<event>
 5   0  0.4250961E-06  0.3092744E+04  0.7818609E-02  0.8217732E-01
       -1   -1    0    0    0  501  0.00000000000E+00  0.00000000000E+00  0.15581460183E+04  0.15581460183E+04  0.50400001928E-02 0. -1.
        1   -1    0    0  501    0  0.00000000000E+00  0.00000000000E+00 -0.15346867973E+04  0.15346867973E+04  0.50400001928E-02 0.  1.
    10030    2    1    2    0    0  0.00000000000E+00  0.00000000000E+00  0.23459220988E+02  0.30928328155E+04  0.30927438449E+04 0.  0.
        1    1    3    3  502    0  0.67377274223E+03 -0.11865573781E+04 -0.71587499430E+03  0.15408975071E+04  0.50400001928E-02 0.  1.
       -1    1    3    3    0  502 -0.67377274223E+03  0.11865573781E+04  0.73933421528E+03  0.15519353085E+04  0.50400001928E-02 0. -1.
</event>
<event>
 5   0  0.3838525E-06  0.3060049E+04  0.7818609E-02  0.8226788E-01
       -1   -1    0    0    0  501  0.00000000000E+00  0.00000000000E+00  0.99113103133E+03  0.99113103135E+03  0.50400001928E-02 0.  1.
        1   -1    0    0  501    0  0.00000000000E+00  0.00000000000E+00 -0.23619224213E+04  0.23619224213E+04  0.50400001928E-02 0. -1.
    10030    2    1    2    0    0  0.00000000000E+00  0.00000000000E+00 -0.13707913900E+04  0.33530534526E+04  0.30600487613E+04 0.  0.
        3    1    3    3  502    0 -0.13170965938E+04  0.57213034479E+03 -0.12640708682E+04  0.19131000337E+04  0.10100000352E+00 0. -1.
       -3    1    3    3    0  502  0.13170965938E+04 -0.57213034479E+03 -0.10672052180E+03  0.14399534190E+04  0.10100000352E+00 0.  1.
</event>
<event>
 5   0  0.3493125E-06  0.3238820E+04  0.7818609E-02  0.8178640E-01
       -3   -1    0    0    0  501  0.00000000000E+00  0.00000000000E+00  0.11962115772E+04  0.11962115815E+04  0.10100000352E+00 0. -1.
        3   -1    0    0  501    0  0.00000000000E+00  0.00000000000E+00 -0.21923278829E+04  0.21923278853E+04  0.10100000352E+00 0.  1.
    10030    2    1    2    0    0  0.00000000000E+00  0.00000000000E+00 -0.99611630574E+03  0.33885394667E+04  0.32388195416E+04 0.  0.
        4    1    3    3  502    0 -0.10902256570E+04 -0.45619662871E+03  0.66027075190E+03  0.13537601065E+04  0.12699999809E+01 0. -1.
       -4    1    3    3    0  502  0.10902256570E+04  0.45619662871E+03 -0.16563870576E+04  0.20347793602E+04  0.12699999809E+01 0.  1.
</event>
<event>
 5   0  0.3807334E-06  0.1528635E+04  0.7818609E-02  0.8865631E-01
        1   -1    0    0  501    0  0.00000000000E+00  0.00000000000E+00  0.72774363546E+03  0.72774363547E+03  0.50400001928E-02 0. -1.
       -1   -1    0    0    0  501  0.00000000000E+00  0.00000000000E+00 -0.80272908238E+03  0.80272908240E+03  0.50400001928E-02 0.  1.
    10030    2    1    2    0    0  0.00000000000E+00  0.00000000000E+00 -0.74985446929E+02  0.15304727179E+04  0.15286346597E+04 0.  0.
        4    1    3    3  502    0  0.26245866848E+03  0.52836669905E+03 -0.52400235971E+03  0.78907287826E+03  0.12699999809E+01 0.  1.
       -4    1    3    3    0  502 -0.26245866848E+03 -0.52836669905E+03  0.44901691278E+03  0.74139983962E+03  0.12699999809E+01 0. -1.
</event>
<event>
 5   0  0.3807334E-06  0.3191422E+04  0.7818609E-02  0.8191086E-01
       -1   -1    0    0    0  501  0.00000000000E+00  0.00000000000E+00  0.11244287322E+04  0.11244287322E+04  0.50400001928E-02 0. -1.
        1   -1    0    0  501    0  0.00000000000E+00  0.00000000000E+00 -0.22645213548E+04  0.22645213548E+04  0.50400001928E-02 0.  1.
    10030    2    1    2    0    0  0.00000000000E+00  0.00000000000E+00 -0.11400926226E+04  0.33889500871E+04  0.31914215492E+04 0.  0.
        4    1    3    3  502    0 -0.13555539281E+04 -0.38620502422E+03 -0.13644183026E+04  0.19617134577E+04  0.12699999809E+01 0.  1.
       -4    1    3    3    0  502  0.13555539281E+04  0.38620502422E+03  0.22432567997E+03  0.14272366294E+04  0.12699999809E+01 0. -1.
</event>
<event>
 5   0  0.9797278E-06  0.3099712E+04  0.7818609E-02  0.8215817E-01
        2   -1    0    0  501    0  0.00000000000E+00  0.00000000000E+00  0.17635473743E+04  0.17635473743E+04  0.25500000920E-02 0. -1.
       -2   -1    0    0    0  501  0.00000000000E+00  0.00000000000E+00 -0.13620575066E+04  0.13620575066E+04  0.25500000920E-02 0.  1.
    10030    2    1    2    0    0  0.00000000000E+00  0.00000000000E+00  0.40148986765E+03  0.31256048809E+04  0.30997115604E+04 0.  0.
        1    1    3    3  502    0  0.70451226005E+03  0.11956953897E+04 -0.49496630610E+03  0.14734370138E+04  0.50400001928E-02 0. -1.
       -1    1    3    3    0  502 -0.70451226005E+03 -0.11956953897E+04  0.89645617375E+03  0.16521678671E+04  0.50400001928E-02 0.  1.
</event>
<event>
 5   0  0.1007567E-05  0.3040984E+04  0.7818609E-02  0.8232124E-01
        2   -1    0    0  501    0  0.00000000000E+00  0.00000000000E+00  0.20920337176E+04  0.20920337176E+04  0.25500000920E-02 0. -1.
       -2   -1    0    0    0  501  0.00000000000E+00  0.00000000000E+00 -0.11050948147E+04  0.11050948147E+04  0.25500000920E-02 0.  1.
    10030    2    1    2    0    0  0.00000000000E+00  0.00000000000E+00  0.98693890284E+03  0.31971285323E+04  0.30409837971E+04 0.  0.
        3    1    3    3  502    0 -0.10308049734E+04 -0.11163944311E+04  0.43588304739E+03  0.15807876076E+04  0.10100000352E+00 0. -1.
       -3    1    3    3    0  502  0.10308049734E+04  0.11163944311E+04  0.55105585544E+03  0.16163409248E+04  0.10100000352E+00 0.  1.
</event>
<event>
 5   0  0.4139628E-06  0.2736479E+04  0.7818609E-02  0.8323265E-01
        1   -1    0    0  501    0  0.00000000000E+00  0.00000000000E+00  0.28258782430E+04  0.28258782430E+04  0.50400001928E-02 0.  1.
       -1   -1    0    0    0  501  0.00000000000E+00  0.00000000000E+00 -0.66247714362E+03  0.66247714364E+03  0.50400001928E-02 0. -1.
    10030    2    1    2    0    0  0.00000000000E+00  0.00000000000E+00  0.21634010994E+04  0.34883553867E+04  0.27364793050E+04 0.  0.
        5    1    3    3  502    0 -0.13423093845E+04  0.39472644086E+02  0.74756476366E+03  0.15369540459E+04  0.46999998093E+01 0. -1.
       -5    1    3    3    0  502  0.13423093845E+04 -0.39472644086E+02  0.14158363357E+04  0.19514013408E+04  0.46999998093E+01 0.  1.
</event>
<event>
 5   0  0.1119100E-05  0.3186483E+04  0.7818609E-02  0.8192396E-01
       -2   -1    0    0    0  501  0.00000000000E+00  0.00000000000E+00  0.91142024161E+03  0.91142024161E+03  0.25500000920E-02 0.  1.
        2   -1    0    0  501    0  0.00000000000E+00  0.00000000000E+00 -0.27851249022E+04  0.27851249022E+04  0.25500000920E-02 0. -1.
    10030    2    1    2    0    0  0.00000000000E+00  0.00000000000E+00 -0.18737046606E+04  0.36965451438E+04  0.31864834607E+04 0.  0.
        2    1    3    3  502    0  0.12001482317E+04  0.27923036485E+03  0.23481523446E+03  0.12543777617E+04  0.25500000920E-02 0.  1.
       -2    1    3    3    0  502 -0.12001482317E+04 -0.27923036485E+03 -0.21085198951E+04  0.24421673822E+04  0.25500000920E-02 0. -1.
</event>
<event>
 5   0  0.1108153E-05  0.2172240E+04  0.7818609E-02  0.8530072E-01
        2   -1    0    0  501    0  0.00000000000E+00  0.00000000000E+00  0.10428872289E+04  0.10428872289E+04  0.25500000920E-02 0. -1.
       -2   -1    0    0    0  501  0.00000000000E+00  0.00000000000E+00 -0.11311454955E+04  0.11311454955E+04  0.25500000920E-02 0.  1.
    10030    2    1    2    0    0  0.00000000000E+00  0.00000000000E+00 -0.88258266577E+02  0.21740327244E+04  0.21722404943E+04 0.  0.
        4    1    3    3  502    0  0.74420971985E+03  0.75069910876E+03  0.20559290323E+03  0.10768785046E+04  0.12699999809E+01 0.  1.
       -4    1    3    3    0  502 -0.74420971985E+03 -0.75069910876E+03 -0.29385116981E+03  0.10971542197E+04  0.12699999809E+01 0. -1.
</event>
<event>
 5   0  0.3807334E-06  0.3276558E+04  0.7818609E-02  0.8168886E-01
        1   -1    0    0  501    0  0.00000000000E+00  0.00000000000E+00  0.16065245815E+04  0.16065245815E+04  0.50400001928E-02 0. -1.
       -1   -1    0    0    0  501  0.00000000000E+00  0.00000000000E+00 -0.16706611156E+04  0.16706611156E+04  0.50400001928E-02 0.  1.
    10030    2    1    2    0    0  0.00000000000E+00  0.00000000000E+00 -0.64136534143E+02  0.32771856971E+04  0.32765580413E+04 0.  0.
        4    1    3    3  502    0 -0.52494270014E+03 -0.31544018371E+03  0.14877257494E+04  0.16088495475E+04  0.12699999809E+01 0. -1.
       -4    1    3    3    0  502  0.52494270014E+03  0.31544018371E+03 -0.15518622836E+04  0.16683361496E+04  0.12699999809E+01 0.  1.
</event>
<event>
 5   0  0.1001961E-05  0.2992753E+04  0.7818609E-02  0.8245803E-01
       -2   -1    0    0    0  501  0.00000000000E+00  0.00000000000E+00  0.14832934395E+04  0.14832934395E+04  0.25500000920E-02 0.  1.
        2   -1    0    0  501    0  0.00000000000E+00  0.00000000000E+00 -0.15095752288E+04  0.15095752288E+04  0.25500000920E-02 0. -1.
    10030    2    1    2    0    0  0.00000000000E+00  0.00000000000E+00 -0.26281789271E+02  0.29928686683E+04  0.29927532697E+04 0.  0.
        5    1    3    3  502    0  0.60286909663E+03  0.24102387007E+03 -0.13613684205E+04  0.15082737550E+04  0.46999998093E+01 0. -1.
       -5    1    3    3    0  502 -0.60286909663E+03 -0.24102387007E+03  0.13350866313E+04  0.14845949133E+04  0.46999998093E+01 0.  1.
</event>
<event>
 5   0  0.1007567E-05  0.2162823E+04  0.7818609E-02  0.8534063E-01
        2   -1    0    0  501    0  0.00000000000E+00  0.00000000000E+00  0.14130860541E+04  0.14130860541E+04  0.25500000920E-02 0. -1.
       -2   -1    0    0    0  501  0.00000000000E+00  0.00000000000E+00 -0.82758676762E+03  0.82758676763E+03  0.25500000920E-02 0.  1.
    10030    2    1    2    0    0  0.00000000000E+00  0.00000000000E+00  0.58549928647E+03  0.22406728217E+04  0.21628234509E+04 0.  0.
        3    1    3    3  502    0 -0.27602635413E+03  0.21091757913E+03 -0.76820897204E+03  0.84310248978E+03  0.10100000352E+00 0.  1.
       -3    1    3    3    0  502  0.27602635413E+03 -0.21091757913E+03  0.13537082585E+04  0.13975703319E+04  0.10100000352E+00 0. -1.
</event>
<event>
 5   0  0.3807334E-06  0.2591081E+04  0.7818609E-02  0.8371237E-01
       -1   -1    0    0    0  501  0.00000000000E+00  0.00000000000E+00  0.73937365246E+03  0.73937365247E+03  0.50400001928E-02 0.  1.
        1   -1    0    0  501    0  0.00000000000E+00  0.00000000000E+00 -0.22700637375E+04  0.22700637375E+04  0.50400001928E-02 0. -1.
    10030    2    1    2    0    0  0.00000000000E+00  0.00000000000E+00 -0.15306900850E+04  0.30094373900E+04  0.25910811002E+04 0.  0.
        4    1    3    3  502    0  0.31011862841E+03  0.20314729672E+02 -0.22261264508E+04  0.22477159162E+04  0.12699999809E+01 0. -1.
       -4    1    3    3    0  502 -0.31011862841E+03 -0.20314729672E+02  0.69543636576E+03  0.76172147381E+03  0.12699999809E+01 0.  1.
</event>
<event>
 5   0  0.3838525E-06  0.3128371E+04  0.7818609E-02  0.8207995E-01
        1   -1    0    0  501    0  0.00000000000E+00  0.00000000000E+00  0.20685333398E+04  0.20685333398E+04  0.50400001928E-02 0. -1.
       -1   -1    0    0    0  501  0.00000000000E+00  0.00000000000E+00 -0.11828069384E+04  0.11828069384E+04  0.50400001928E-02 0.  1.
    10030    2    1    2    0    0  0.00000000000E+00  0.00000000000E+00  0.88572640144E+03  0.32513402783E+04  0.31283705578E+04 0.  0.
        3    1    3    3  502    0  0.84881559086E+03  0.97014704638E+03  0.13636937530E+04  0.18765217454E+04  0.10100000352E+00 0. -1.
       -3    1    3    3    0  502 -0.84881559086E+03 -0.97014704638E+03 -0.47796735154E+03  0.13748185328E+04  0.10100000352E+00 0.  1.
</event>
<event>
 5   0  0.1108153E-05  0.3168938E+04  0.7818609E-02  0.8197069E-01
        2   -1    0    0  501    0  0.00000000000E+00  0.00000000000E+00  0.14387625419E+04  0.14387625419E+04  0.25500000920E-02 0.  1.
       -2   -1    0    0    0  501  0.00000000000E+00  0.00000000000E+00 -0.17449310673E+04  0.17449310673E+04  0.25500000920E-02 0. -1.
    10030    2    1    2    0    0  0.00000000000E+00  0.00000000000E+00 -0.30616852541E+03  0.31836936091E+04  0.31689376502E+04 0.  0.
        4    1    3    3  502    0 -0.10715554068E+04  0.60020368937E+03 -0.11587771646E+04  0.16885619884E+04  0.12699999809E+01 0. -1.
       -4    1    3    3    0  502  0.10715554068E+04 -0.60020368937E+03  0.85260863920E+03  0.14951316207E+04  0.12699999809E+01 0.  1.
</event>
<event>
 5   0  0.1007567E-05  0.1616300E+04  0.7818609E-02  0.8810597E-01
        2   -1    0    0  501    0  0.00000000000E+00  0.00000000000E+00  0.79083546148E+03  0.79083546148E+03  0.25500000920E-02 0.  1.
       -2   -1    0    0    0  501  0.00000000000E+00  0.00000000000E+00 -0.82584330700E+03  0.82584330701E+03  0.25500000920E-02 0. -1.
    10030    2    1    2    0    0  0.00000000000E+00  0.00000000000E+00 -0.35007845526E+02  0.16166787685E+04  0.16162996910E+04 0.  0.
        3    1    3    3  502    0  0.72746129275E+01  0.54888432987E+03 -0.61075282741E+03  0.82118570005E+03  0.10100000352E+00 0. -1.
       -3    1    3    3    0  502 -0.72746129275E+01 -0.54888432987E+03  0.57574498189E+03  0.79549306844E+03  0.10100000352E+00 0.  1.
</event>
<event>
 5   0  0.1119100E-05  0.3214092E+04  0.7818609E-02  0.8185106E-01
       -2   -1    0    0    0  501  0.00000000000E+00  0.00000000000E+00  0.14038670956E+04  0.14038670956E+04  0.25500000920E-02 0. -1.
        2   -1    0    0  501    0  0.00000000000E+00  0.00000000000E+00 -0.18396301291E+04  0.18396301291E+04  0.25500000920E-02 0.  1.
    10030    2    1    2    0    0  0.00000000000E+00  0.00000000000E+00 -0.43576303341E+03  0.32434972247E+04  0.32140916019E+04 0.  0.
        2    1    3    3  502    0  0.75568770819E+03  0.21993260591E+03 -0.16318292103E+04  0.18117121281E+04  0.25500000920E-02 0.  1.
       -2    1    3    3    0  502 -0.75568770819E+03 -0.21993260591E+03  0.11960661769E+04  0.14317850966E+04  0.25500000920E-02 0. -1.
</event>
<event>
 5   0  0.1119100E-05  0.3098593E+04  0.7818609E-02  0.8216124E-01
       -2   -1    0    0    0  501  0.00000000000E+00  0.00000000000E+00  0.14932639316E+04  0.14932639316E+04  0.25500000920E-02 0.  1.
        2   -1    0    0  501    0  0.00000000000E+00  0.00000000000E+00 -0.16074312752E+04  0.16074312752E+04  0.25500000920E-02 0. -1.
    10030    2    1    2    0    0  0.00000000000E+00  0.00000000000E+00 -0.11416734368E+03  0.31006952068E+04  0.30985926778E+04 0.  0.
        2    1    3    3  502    0  0.13568063826E+04 -0.56079172931E+03  0.43813415552E+03  0.15321137235E+04  0.25500000920E-02 0.  1.
       -2    1    3    3    0  502 -0.13568063826E+04  0.56079172931E+03 -0.55230149920E+03  0.15685814833E+04  0.25500000920E-02 0. -1.
</event>
<event>
 5   0  0.1108153E-05  0.3146265E+04  0.7818609E-02  0.8203154E-01
        2   -1    0    0  501    0  0.00000000000E+00  0.00000000000E+00  0.23291609851E+04  0.23291609851E+04  0.25500000920E-02 0.  1.
       -2   -1    0    0    0  501  0.00000000000E+00  0.00000000000E+00 -0.10625055590E+04  0.10625055590E+04  0.25500000920E-02 0. -1.
    10030    2    1    2    0    0  0.00000000000E+00  0.00000000000E+00  0.12666554261E+04  0.33916665441E+04  0.31462654017E+04 0.  0.
        4    1    3    3  502    0 -0.58648395405E+03  0.14484149164E+04  0.82878649432E+03  0.17688295182E+04  0.12699999809E+01 0. -1.
       -4    1    3    3    0  502  0.58648395405E+03 -0.14484149164E+04  0.43786893178E+03  0.16228370259E+04  0.12699999809E+01 0.  1.
</event>
<event>
 5   0  0.1001961E-05  0.3125336E+04  0.7818609E-02  0.8208819E-01
       -2   -1    0    0    0  501  0.00000000000E+00  0.00000000000E+00  0.18765033253E+04  0.18765033253E+04  0.25500000920E-02 0.  1.
        2   -1    0    0  501    0  0.00000000000E+00  0.00000000000E+00 -0.13013203793E+04  0.13013203793E+04  0.25500000920E-02 0. -1.
    10030    2    1    2    0    0  0.00000000000E+00  0.00000000000E+00  0.57518294594E+03  0.31778237046E+04  0.31253364740E+04 0.  0.
        5    1    3    3  502    0 -0.65248778839E+03 -0.92051275954E+02  0.17283195372E+04  0.18496822063E+04  0.46999998093E+01 0.  1.
       -5    1    3    3    0  502  0.65248778839E+03  0.92051275954E+02 -0.11531365913E+04  0.13281414983E+04  0.46999998093E+01 0. -1.
</event>
<event>
 5   0  0.1001961E-05  0.2356177E+04  0.7818609E-02  0.8456095E-01
       -2   -1    0    0    0  501  0.00000000000E+00  0.00000000000E+00  0.86260707828E+03  0.86260707828E+03  0.25500000920E-02 0.  1.
        2   -1    0    0  501    0  0.00000000000E+00  0.00000000000E+00 -0.16089504595E+04  0.16089504595E+04  0.25500000920E-02 0. -1.
    10030    2    1    2    0    0  0.00000000000E+00  0.00000000000E+00 -0.74634338125E+03  0.24715575378E+04  0.23561766105E+04 0.  0.
        5    1    3    3  502    0 -0.51365901188E+02 -0.17625465962E+03 -0.15938431941E+04  0.16043884749E+04  0.46999998093E+01 0. -1.
       -5    1    3    3    0  502  0.51365901188E+02  0.17625465962E+03  0.84749981289E+03  0.86716906293E+03  0.46999998093E+01 0.  1.
</event>
<event>
 5   0  0.1007567E-05  0.3064846E+04  0.7818609E-02  0.8225452E-01
        2   -1    0    0  501    0  0.00000000000E+00  0.00000000000E+00  0.26967116331E+04  0.26967116331E+04  0.25500000920E-02 0.  1.
       -2   -1    0    0    0  501  0.00000000000E+00  0.00000000000E+00 -0.87080895163E+03  0.87080895163E+03  0.25500000920E-02 0. -1.
    10030    2    1    2    0    0  0.00000000000E+00  0.00000000000E+00  0.18259026815E+04  0.35675205847E+04  0.30648462474E+04 0.  0.
        3    1    3    3  502    0  0.62450184313E+03 -0.12918766335E+04  0.28678939217E+03  0.14632825954E+04  0.10100000352E+00 0. -1.
       -3    1    3    3    0  502 -0.62450184313E+03  0.12918766335E+04  0.15391132893E+04  0.21042379893E+04  0.10100000352E+00 0.  1.
</event>
<event>
 5   0  0.4250961E-06  0.3340467E+04  0.7818609E-02  0.8152674E-01
        1   -1    0    0  501    0  0.00000000000E+00  0.00000000000E+00  0.84407001494E+03  0.84407001496E+03  0.50400001928E-02 0.  1.
       -1   -1    0    0    0  501  0.00000000000E+00  0.00000000000E+00 -0.33050346583E+04  0.33050346583E+04  0.50400001928E-02 0. -1.
    10030    2    1    2    0    0  0.00000000000E+00  0.00000000000E+00 -0.24609646433E+04  0.41491046732E+04  0.33404674244E+04 0.  0.
        1    1    3    3  502    0  0.42302403960E+03 -0.14682828714E+04 -0.39277172703E+03  0.15776798022E+04  0.50400001928E-02 0.  1.
       -1    1    3    3    0  502 -0.42302403960E+03  0.14682828714E+04 -0.20681929163E+04  0.25714248711E+04  0.50400001928E-02 0. -1.
</event>
<event>
 5   0  0.4250961E-06  0.3131658E+04  0.7818609E-02  0.8207103E-01
       -1   -1    0    0    0  501  0.00000000000E+00  0.00000000000E+00  0.11827682954E+04  0.11827682954E+04  0.50400001928E-02 0. -1.
        1   -1    0    0  501    0  0.00000000000E+00  0.00000000000E+00 -0.20729501201E+04  0.20729501201E+04  0.50400001928E-02 0.  1.
    10030    2    1    2    0    0  0.00000000000E+00  0.00000000000E+00 -0.89018182468E+03  0.32557184155E+04  0.31316575036E+04 0.  0.
        1    1    3    3  502    0 -0.92551093487E+03  0.57010633770E+03  0.72660093992E+03  0.13074940355E+04  0.50400001928E-02 0. -1.
       -1    1    3    3    0  502  0.92551093487E+03 -0.57010633770E+03 -0.16167827646E+04  0.19482243800E+04  0.50400001928E-02 0.  1.
</event>
<event>
 5   0  0.1119100E-05  0.2067533E+04  0.7818609E-02  0.8575682E-01
        2   -1    0    0  501    0  0.00000000000E+00  0.00000000000E+00  0.14680018364E+04  0.14680018364E+04  0.25500000920E-02 0.  1.
       -2   -1    0    0    0  501  0.00000000000E+00  0.00000000000E+00 -0.72797774814E+03  0.72797774814E+03  0.25500000920E-02 0. -1.
    10030    2    1    2    0    0  0.00000000000E+00  0.00000000000E+00  0.74002408825E+03  0.21959795845E+04  0.20675325111E+04 0.  0.
        2    1    3    3  502    0  0.12790476491E+03 -0.47670801006E+03  0.13347722447E+04  0.14231047400E+04  0.25500000920E-02 0.  1.
       -2    1    3    3    0  502 -0.12790476491E+03  0.47670801006E+03 -0.59474815645E+03  0.77287484455E+03  0.25500000920E-02 0. -1.
</event>
<event>
 5   0  0.1108153E-05  0.3034440E+04  0.7818609E-02  0.8233964E-01
        2   -1    0    0  501    0  0.00000000000E+00  0.00000000000E+00  0.17500449858E+04  0.17500449858E+04  0.25500000920E-02 0. -1.
       -2   -1    0    0    0  501  0.00000000000E+00  0.00000000000E+00 -0.13153701031E+04  0.13153701031E+04  0.25500000920E-02 0.  1.
    10030    2    1    2    0    0  0.00000000000E+00  0.00000000000E+00  0.43467488272E+03  0.30654150889E+04  0.30344402142E+04 0.  0.
        4    1    3    3  502    0 -0.96309292750E+03 -0.96253217575E+03  0.89345182417E+03  0.16285803485E+04  0.12699999809E+01 0. -1.
       -4    1    3    3    0  502  0.96309292750E+03  0.96253217575E+03 -0.45877694145E+03  0.14368347404E+04  0.12699999809E+01 0.  1.
</event>
<event>
 5   0  0.4139628E-06  0.3134435E+04  0.7818609E-02  0.8206351E-01
       -1   -1    0    0    0  501  0.00000000000E+00  0.00000000000E+00  0.17519634509E+04  0.17519634509E+04  0.50400001928E-02 0. -1.
        1   -1    0    0  501    0  0.00000000000E+00  0.00000000000E+00 -0.14019529440E+04  0.14019529441E+04  0.50400001928E-02 0.  1.
    10030    2    1    2    0    0  0.00000000000E+00  0.00000000000E+00  0.35001050688E+03  0.31539163950E+04  0.31344347611E+04 0.  0.
        5    1    3    3  502    0  0.14932047941E+03 -0.64931738127E+03  0.16023558973E+04  0.17353605328E+04  0.46999998093E+01 0. -1.
       -5    1    3    3    0  502 -0.14932047941E+03  0.64931738127E+03 -0.12523453904E+04  0.14185558622E+04  0.46999998093E+01 0.  1.
</event>
<event>
 5   0  0.9797278E-06  0.3060156E+04  0.7818609E-02  0.8226758E-01
       -2   -1    0    0    0  501  0.00000000000E+00  0.00000000000E+00  0.17530980708E+04  0.17530980708E+04  0.25500000920E-02 0.  1.
        2   -1    0    0  501    0  0.00000000000E+00  0.00000000000E+00 -0.13354297309E+04  0.13354297310E+04  0.25500000920E-02 0. -1.
    10030    2    1    2    0    0  0.00000000000E+00  0.00000000000E+00  0.41766833982E+03  0.30885278017E+04  0.30601563914E+04 0.  0.
        1    1    3    3  502    0  0.54860252399E+02 -0.14435402856E+04  0.71781224384E+03  0.16130941141E+04  0.50400001928E-02 0.  1.
       -1    1    3    3    0  502 -0.54860252399E+02  0.14435402856E+04 -0.30014390402E+03  0.14754336876E+04  0.50400001928E-02 0. -1.
</event>
<event>
 5   0  0.4139628E-06  0.2848878E+04  0.7818609E-02  0.8288252E-01
        1   -1    0    0  501    0  0.00000000000E+00  0.00000000000E+00  0.17033960167E+04  0.17033960167E+04  0.50400001928E-02 0. -1.
       -1   -1    0    0    0  501  0.00000000000E+00  0.00000000000E+00 -0.11911654842E+04  0.11911654842E+04  0.50400001928E-02 0.  1.
    10030    2    1    2    0    0  0.00000000000E+00  0.00000000000E+00  0.51223053251E+03  0.28945615010E+04  0.28488780536E+04 0.  0.
        5    1    3    3  502    0 -0.10291696595E+04 -0.98386418190E+03  0.29952668447E+03  0.14549629690E+04  0.46999998093E+01 0. -1.
       -5    1    3    3    0  502  0.10291696595E+04  0.98386418190E+03  0.21270384804E+03  0.14395985320E+04  0.46999998093E+01 0.  1.
</event>
<event>
 5   0  0.3807334E-06  0.3051443E+04  0.7818609E-02  0.8229192E-01
        1   -1    0    0  501    0  0.00000000000E+00  0.00000000000E+00  0.10873866408E+04  0.10873866408E+04  0.50400001928E-02 0. -1.
       -1   -1    0    0    0  501  0.00000000000E+00  0.00000000000E+00 -0.21407525062E+04  0.21407525062E+04  0.50400001928E-02 0.  1.
    10030    2    1    2    0    0  0.00000000000E+00  0.00000000000E+00 -0.10533658654E+04  0.32281391470E+04  0.30514427254E+04 0.  0.
        4    1    3    3  502    0 -0.10180852579E+04  0.10837320600E+04 -0.16505348699E+03  0.14960671899E+04  0.12699999809E+01 0. -1.
       -4    1    3    3    0  502  0.10180852579E+04 -0.10837320600E+04 -0.88831237838E+03  0.17320719571E+04  0.12699999809E+01 0.  1.
</event>
<event>
 5   0  0.4250961E-06  0.3104012E+04  0.7818609E-02  0.8214638E-01
       -1   -1    0    0    0  501  0.00000000000E+00  0.00000000000E+00  0.11367197420E+04  0.11367197420E+04  0.50400001928E-02 0. -1.
        1   -1    0    0  501    0  0.00000000000E+00  0.00000000000E+00 -0.21190119753E+04  0.21190119753E+04  0.50400001928E-02 0.  1.
    10030    2    1    2    0    0  0.00000000000E+00  0.00000000000E+00 -0.98229223333E+03  0.32557317173E+04  0.31040120785E+04 0.  0.
        1    1    3    3  502    0  0.82103687310E+03 -0.26018562819E+03 -0.18453473055E+04  0.20364441525E+04  0.50400001928E-02 0.  1.
       -1    1    3    3    0  502 -0.82103687310E+03  0.26018562819E+03  0.86305507220E+03  0.12192875648E+04  0.50400001928E-02 0. -1.
</event>
<event>
 5   0  0.4250961E-06  0.3092987E+04  0.7818609E-02  0.8217665E-01
       -1   -1    0    0    0  501  0.00000000000E+00  0.00000000000E+00  0.17730450825E+04  0.17730450825E+04  0.50400001928E-02 0.  1.
        1   -1    0    0  501    0  0.00000000000E+00  0.00000000000E+00 -0.13488893028E+04  0.13488893029E+04  0.50400001928E-02 0. -1.
    10030    2    1    2    0    0  0.00000000000E+00  0.00000000000E+00  0.42415577968E+03  0.31219343854E+04  0.30929866119E+04 0.  0.
        1    1    3    3  502    0 -0.46305163358E+03 -0.82974448619E+03  0.14436403592E+04  0.17282911255E+04  0.50400001928E-02 0.  1.
       -1    1    3    3    0  502  0.46305163358E+03  0.82974448619E+03 -0.10194845796E+04  0.13936432598E+04  0.50400001928E-02 0. -1.
</event>
<event>
 5   0  0.4250961E-06  0.3093783E+04  0.7818609E-02  0.8217446E-01
       -1   -1    0    0    0  501  0.00000000000E+00  0.00000000000E+00  0.21487974830E+04  0.21487974830E+04  0.50400001928E-02 0.  1.
        1   -1    0    0  501    0  0.00000000000E+00  0.00000000000E+00 -0.11135868426E+04  0.11135868426E+04  0.50400001928E-02 0. -1.
    10030    2    1    2    0    0  0.00000000000E+00  0.00000000000E+00  0.10352106404E+04  0.32623843257E+04  0.30937825422E+04 0.  0.
        1    1    3    3  502    0 -0.29095642143E+03  0.14198472786E+04  0.10876686374E+04  0.18120830551E+04  0.50400001928E-02 0.  1.
       -1    1    3    3    0  502  0.29095642143E+03 -0.14198472786E+04 -0.52457997023E+02  0.14503012705E+04  0.50400001928E-02 0. -1.
</event>
<event>
 5   0  0.3848286E-06  0.1538228E+04  0.7818609E-02  0.8859422E-01
       -1   -1    0    0    0  501  0.00000000000E+00  0.00000000000E+00  0.48959219946E+03  0.48959219949E+03  0.50400001928E-02 0. -1.
        1   -1    0    0  501    0  0.00000000000E+00  0.00000000000E+00 -0.12082220875E+04  0.12082220875E+04  0.50400001928E-02 0.  1.
    10030    2    1    2    0    0  0.00000000000E+00  0.00000000000E+00 -0.71862988799E+03  0.16978142870E+04  0.15382276935E+04 0.  0.
        2    1    3    3  502    0 -0.35502100207E+03 -0.28557771120E+03  0.32460004985E+03  0.55942804132E+03  0.25500000920E-02 0. -1.
       -2    1    3    3    0  502  0.35502100207E+03  0.28557771120E+03 -0.10432299378E+04  0.11383862456E+04  0.25500000920E-02 0.  1.
</event>
<event>
 5   0  0.4139628E-06  0.1636017E+04  0.7818609E-02  0.8798722E-01
       -1   -1    0    0    0  501  0.00000000000E+00  0.00000000000E+00  0.91150835286E+03  0.91150835287E+03  0.50400001928E-02 0.  1.
        1   -1    0    0  501    0  0.00000000000E+00  0.00000000000E+00 -0.73409919286E+03  0.73409919288E+03  0.50400001928E-02 0. -1.
    10030    2    1    2    0    0  0.00000000000E+00  0.00000000000E+00  0.17740916000E+03  0.16456075458E+04  0.16360165600E+04 0.  0.
        5    1    3    3  502    0  0.46493540773E+03 -0.47892006505E+03 -0.38691636265E+03  0.77152817431E+03  0.46999998093E+01 0. -1.
       -5    1    3    3    0  502 -0.46493540773E+03  0.47892006505E+03  0.56432552265E+03  0.87407937144E+03  0.46999998093E+01 0.  1.
</event>
<event>
 5   0  0.1007567E-05  0.3113918E+04  0.7818609E-02  0.8211929E-01
       -2   -1    0    0    0  501  0.00000000000E+00  0.00000000000E+00  0.10212189148E+04  0.10212189148E+04  0.25500000920E-02 0.  1.
        2   -1    0    0  501    0  0.00000000000E+00  0.00000000000E+00 -0.23737529610E+04  0.23737529610E+04  0.25500000920E-02 0. -1.
    10030    2    1    2    0    0  0.00000000000E+00  0.00000000000E+00 -0.13525340462E+04  0.33949718758E+04  0.31139180611E+04 0.  0.
        3    1    3    3  502    0  0.87028670513E+03 -0.38827891682E+03 -0.20186398438E+04  0.22322782746E+04  0.10100000352E+00 0. -1.
       -3    1    3    3    0  502 -0.87028670513E+03  0.38827891682E+03  0.66610579753E+03  0.11626936011E+04  0.10100000352E+00 0.  1.
</event>
<event>
 5   0  0.3838525E-06  0.3091349E+04  0.7818609E-02  0.8218116E-01
       -1   -1    0    0    0  501  0.00000000000E+00  0.00000000000E+00  0.14163853451E+04  0.14163853451E+04  0.50400001928E-02 0. -1.
        1   -1    0    0  501    0  0.00000000000E+00  0.00000000000E+00 -0.16867656940E+04  0.16867656941E+04  0.50400001928E-02 0.  1.
    10030    2    1    2    0    0  0.00000000000E+00  0.00000000000E+00 -0.27038034894E+03  0.31031510392E+04  0.30913493557E+04 0.  0.
        3    1    3    3  502    0 -0.80849353014E+03  0.12548878186E+04  0.26722049409E+03  0.15165131151E+04  0.10100000352E+00 0. -1.
       -3    1    3    3    0  502  0.80849353014E+03 -0.12548878186E+04 -0.53760084303E+03  0.15866379241E+04  0.10100000352E+00 0.  1.
</event>
<event>
 5   0  0.3848286E-06  0.3074938E+04  0.7818609E-02  0.8222650E-01
       -1   -1    0    0    0  501  0.00000000000E+00  0.00000000000E+00  0.10440985255E+04  0.10440985255E+04  0.50400001928E-02 0.  1.
        1   -1    0    0  501    0  0.00000000000E+00  0.00000000000E+00 -0.22639732510E+04  0.22639732510E+04  0.50400001928E-02 0. -1.
    10030    2    1    2    0    0  0.00000000000E+00  0.00000000000E+00 -0.12198747256E+04  0.33080717765E+04  0.30749381347E+04 0.  0.
        2    1    3    3  502    0  0.10318659477E+03 -0.23896418198E+03  0.10202222790E+04  0.10529030592E+04  0.25500000920E-02 0.  1.
       -2    1    3    3    0  502 -0.10318659477E+03  0.23896418198E+03 -0.22400970046E+04  0.22551687173E+04  0.25500000920E-02 0. -1.
</event>
<event>
 5   0  0.1001961E-05  0.3090339E+04  0.7818609E-02  0.8218394E-01
       -2   -1    0    0    0  501  0.00000000000E+00  0.00000000000E+00  0.24049492392E+04  0.24049492392E+04  0.25500000920E-02 0. -1.
        2   -1    0    0  501    0  0.00000000000E+00  0.00000000000E+00 -0.99276468631E+03  0.99276468631E+03  0.25500000920E-02 0.  1.
    10030    2    1    2    0    0  0.00000000000E+00  0.00000000000E+00  0.14121845529E+04  0.33977139255E+04  0.30903389310E+04 0.  0.
        5    1    3    3  502    0  0.21287574530E+03  0.14781207611E+04  0.26993712449E+03  0.15175787322E+04  0.46999998093E+01 0. -1.
       -5    1    3    3    0  502 -0.21287574530E+03 -0.14781207611E+04  0.11422474284E+04  0.18801351933E+04  0.46999998093E+01 0.  1.
</event>
<event>
 5   0  0.1007567E-05  0.1700266E+04  0.7818609E-02  0.8761213E-01
        2   -1    0    0  501    0  0.00000000000E+00  0.00000000000E+00  0.99063341839E+03  0.99063341839E+03  0.25500000920E-02 0. -1.
       -2   -1    0    0    0  501  0.00000000000E+00  0.00000000000E+00 -0.72955972523E+03  0.72955972524E+03  0.25500000920E-02 0.  1.
    10030    2    1    2    0    0  0.00000000000E+00  0.00000000000E+00  0.26107369316E+03  0.17201931436E+04  0.17002661492E+04 0.  0.
        3    1    3    3  502    0 -0.15256060613E+03 -0.15498243840E+03 -0.70094180026E+03  0.73390306738E+03  0.10100000352E+00 0.  1.
       -3    1    3    3    0  502  0.15256060613E+03  0.15498243840E+03  0.96201549341E+03  0.98629007626E+03  0.10100000352E+00 0. -1.
</event>
<event>
 5   0  0.4250961E-06  0.3312008E+04  0.7818609E-02  0.8159847E-01
       -1   -1    0    0    0  501  0.00000000000E+00  0.00000000000E+00  0.24997360574E+04  0.24997360574E+04  0.50400001928E-02 0.  1.
        1   -1    0    0  501    0  0.00000000000E+00  0.00000000000E+00 -0.10970556208E+04  0.10970556208E+04  0.50400001928E-02 0. -1.
    10030    2    1    2    0    0  0.00000000000E+00  0.00000000000E+00  0.14026804366E+04  0.35967916782E+04  0.33120081475E+04 0.  0.
        1    1    3    3  502    0  0.41871126396E+03  0.15719611914E+04  0.10377649970E+04  0.19295951127E+04  0.50400001928E-02 0.  1.
       -1    1    3    3    0  502 -0.41871126396E+03 -0.15719611914E+04  0.36491543955E+03  0.16671965655E+04  0.50400001928E-02 0. -1.
</event>
<event>
 5   0  0.1108153E-05  0.3067771E+04  0.7818609E-02  0.8224639E-01
       -2   -1    0    0    0  501  0.00000000000E+00  0.00000000000E+00  0.13103020649E+04  0.13103020649E+04  0.25500000920E-02 0.  1.
        2   -1    0    0  501    0  0.00000000000E+00  0.00000000000E+00 -0.17956202318E+04  0.17956202318E+04  0.25500000920E-02 0. -1.
    10030    2    1    2    0    0  0.00000000000E+00  0.00000000000E+00 -0.48531816695E+03  0.31059222967E+04  0.30677711111E+04 0.  0.
        4    1    3    3  502    0  0.14278677718E+04 -0.61541115532E+02 -0.80655019790E+03  0.16410723681E+04  0.12699999809E+01 0. -1.
       -4    1    3    3    0  502 -0.14278677718E+04  0.61541115532E+02  0.32123203094E+03  0.14648499286E+04  0.12699999809E+01 0.  1.
</event>
<event>
 5   0  0.9797278E-06  0.3203201E+04  0.7818609E-02  0.8187972E-01
       -2   -1    0    0    0  501  0.00000000000E+00  0.00000000000E+00  0.93700360364E+03  0.93700360365E+03  0.25500000920E-02 0. -1.
        2   -1    0    0  501    0  0.00000000000E+00  0.00000000000E+00 -0.27375812169E+04  0.27375812169E+04  0.25500000920E-02 0.  1.
    10030    2    1    2    0    0  0.00000000000E+00  0.00000000000E+00 -0.18005776133E+04  0.36745848206E+04  0.32032005654E+04 0.  0.
        1    1    3    3  502    0  0.37158254003E+03 -0.34082387009E+03  0.84357949735E+03  0.98278220519E+03  0.50400001928E-02 0. -1.
       -1    1    3    3    0  502 -0.37158254003E+03  0.34082387009E+03 -0.26441571106E+04  0.26918026154E+04  0.50400001928E-02 0.  1.
</event>
<event>
 5   0  0.1007567E-05  0.3072873E+04  0.7818609E-02  0.8223222E-01
       -2   -1    0    0    0  501  0.00000000000E+00  0.00000000000E+00  0.36008191829E+04  0.36008191829E+04  0.25500000920E-02 0.  1.
        2   -1    0    0  501    0  0.00000000000E+00  0.00000000000E+00 -0.65558336813E+03  0.65558336814E+03  0.25500000920E-02 0. -1.
    10030    2    1    2    0    0  0.00000000000E+00  0.00000000000E+00  0.29452358148E+04  0.42564025511E+04  0.30728730322E+04 0.  0.
        3    1    3    3  502    0 -0.12052262261E+04  0.47240884748E+03  0.32628531131E+03  0.13349915692E+04  0.10100000352E+00 0. -1.
       -3    1    3    3    0  502  0.12052262261E+04 -0.47240884748E+03  0.26189505035E+04  0.29214109819E+04  0.10100000352E+00 0.  1.
</event>
<event>
 5   0  0.4139628E-06  0.3094129E+04  0.7818609E-02  0.8217351E-01
       -1   -1    0    0    0  501  0.00000000000E+00  0.00000000000E+00  0.20229728337E+04  0.20229728337E+04  0.50400001928E-02 0.  1.
        1   -1    0    0  501    0  0.00000000000E+00  0.00000000000E+00 -0.11831146486E+04  0.11831146486E+04  0.50400001928E-02 0. -1.
    10030    2    1    2    0    0  0.00000000000E+00  0.00000000000E+00  0.83985818508E+03  0.32060874824E+04  0.30941291462E+04 0.  0.
        5    1    3    3  502    0 -0.84623092528E+03  0.43855974377E+03  0.16826057623E+04  0.19338111772E+04  0.46999998093E+01 0.  1.
       -5    1    3    3    0  502  0.84623092528E+03 -0.43855974377E+03 -0.84274757722E+03  0.12722763052E+04  0.46999998093E+01 0. -1.
</event>
<event>
 5   0  0.3848286E-06  0.2074297E+04  0.7818609E-02  0.8572651E-01
        1   -1    0    0  501    0  0.00000000000E+00  0.00000000000E+00  0.10650004800E+04  0.10650004800E+04  0.50400001928E-02 0. -1.
       -1   -1    0    0    0  501  0.00000000000E+00  0.00000000000E+00 -0.10100244915E+04  0.10100244915E+04  0.50400001928E-02 0.  1.
    10030    2    1    2    0    0  0.00000000000E+00  0.00000000000E+00  0.54975988503E+02  0.20750249715E+04  0.20742965731E+04 0.  0.
        2    1    3    3  502    0 -0.87409962195E+03  0.20798825715E+03 -0.49073571602E+03  0.10237825976E+04  0.25500000920E-02 0.  1.
       -2    1    3    3    0  502  0.87409962195E+03 -0.20798825715E+03  0.54571170452E+03  0.10512423739E+04  0.25500000920E-02 0. -1.
</event>
<event>
 5   0  0.4250961E-06  0.1700133E+04  0.7818609E-02  0.8761289E-01
        1   -1    0    0  501    0  0.00000000000E+00  0.00000000000E+00  0.10911566180E+04  0.10911566180E+04  0.50400001928E-02 0. -1.
       -1   -1    0    0    0  501  0.00000000000E+00  0.00000000000E+00 -0.66224478202E+03  0.66224478204E+03  0.50400001928E-02 0.  1.
    10030    2    1    2    0    0  0.00000000000E+00  0.00000000000E+00  0.42891183598E+03  0.17534014001E+04  0.17001326733E+04 0.  0.
        1    1    3    3  502    0  0.71496427919E+02  0.11474517759E+03  0.10799977080E+04  0.10884269586E+04  0.50400001928E-02 0. -1.
       -1    1    3    3    0  502 -0.71496427919E+02 -0.11474517759E+03 -0.65108587201E+03  0.66497444142E+03  0.50400001928E-02 0.  1.
</event>
<event>
 5   0  0.1119100E-05  0.3070173E+04  0.7818609E-02  0.8223972E-01
        2   -1    0    0  501    0  0.00000000000E+00  0.00000000000E+00  0.24014004416E+04  0.24014004416E+04  0.25500000920E-02 0. -1.
       -2   -1    0    0    0  501  0.00000000000E+00  0.00000000000E+00 -0.98129822877E+03  0.98129822878E+03  0.25500000920E-02 0.  1.
    10030    2    1    2    0    0  0.00000000000E+00  0.00000000000E+00  0.14201022128E+04  0.33826986704E+04  0.30701726335E+04 0.  0.
        2    1    3    3  502    0  0.10350570187E+04  0.96943891499E+03  0.13575229905E+04  0.19631667050E+04  0.25500000920E-02 0. -1.
       -2    1    3    3    0  502 -0.10350570187E+04 -0.96943891499E+03  0.62579222338E+02  0.14195319654E+04  0.25500000920E-02 0.  1.
</event>
<event>
 5   0  0.1108153E-05  0.3073516E+04  0.7818609E-02  0.8223044E-01
       -2   -1    0    0    0  501  0.00000000000E+00  0.00000000000E+00  0.14174397780E+04  0.14174397780E+04  0.25500000920E-02 0.  1.
        2   -1    0    0  501    0  0.00000000000E+00  0.00000000000E+00 -0.16661199808E+04  0.16661199808E+04  0.25500000920E-02 0. -1.
    10030    2    1    2    0    0  0.00000000000E+00  0.00000000000E+00 -0.24868020281E+03  0.30835597588E+04  0.30735157300E+04 0.  0.
        4    1    3    3  502    0 -0.19487815353E+03  0.15238959940E+04 -0.86980962751E+02  0.15387669726E+04  0.12699999809E+01 0. -1.
       -4    1    3    3    0  502  0.19487815353E+03 -0.15238959940E+04 -0.16169924006E+03  0.15447927862E+04  0.12699999809E+01 0.  1.
</event>
<event>
 5   0  0.3848286E-06  0.3123187E+04  0.7818609E-02  0.8209403E-01
       -1   -1    0    0    0  501  0.00000000000E+00  0.00000000000E+00  0.24782507057E+04  0.24782507057E+04  0.50400001928E-02 0.  1.
        1   -1    0    0  501    0  0.00000000000E+00  0.00000000000E+00 -0.98398992955E+03  0.98398992956E+03  0.50400001928E-02 0. -1.
    10030    2    1    2    0    0  0.00000000000E+00  0.00000000000E+00  0.14942607761E+04  0.34622406352E+04  0.31231866658E+04 0.  0.
        2    1    3    3  502    0 -0.41458783057E+03 -0.91878883918E+03  0.20693029872E+04  0.23017538646E+04  0.25500000920E-02 0.  1.
       -2    1    3    3    0  502  0.41458783057E+03  0.91878883918E+03 -0.57504221111E+03  0.11604867706E+04  0.25500000920E-02 0. -1.
</event>
<event>
 5   0  0.4139628E-06  0.3057820E+04  0.7818609E-02  0.8227410E-01
        1   -1    0    0  501    0  0.00000000000E+00  0.00000000000E+00  0.15896560232E+04  0.15896560232E+04  0.50400001928E-02 0.  1.
       -1   -1    0    0    0  501  0.00000000000E+00  0.00000000000E+00 -0.14704849582E+04  0.14704849583E+04  0.50400001928E-02 0. -1.
    10030    2    1    2    0    0  0.00000000000E+00  0.00000000000E+00  0.11917106493E+03  0.30601409814E+04  0.30578196617E+04 0.  0.
        5    1    3    3  502    0 -0.25215224665E+03  0.91687037155E+03 -0.11385330539E+04  0.14834121607E+04  0.46999998093E+01 0. -1.
       -5    1    3    3    0  502  0.25215224665E+03 -0.91687037155E+03  0.12577041188E+04  0.15767288207E+04  0.46999998093E+01 0.  1.
</event>
<event>
 5   0  0.3848286E-06  0.2864153E+04  0.7818609E-02  0.8283624E-01
       -1   -1    0    0    0  501  0.00000000000E+00  0.00000000000E+00  0.15535288318E+04  0.15535288318E+04  0.50400001928E-02 0. -1.
        1   -1    0    0  501    0  0.00000000000E+00  0.00000000000E+00 -0.13201192016E+04  0.13201192016E+04  0.50400001928E-02 0.  1.
    10030    2    1    2    0    0  0.00000000000E+00  0.00000000000E+00  0.23340963023E+03  0.28736480334E+04  0.28641530972E+04 0.  0.
        2    1    3    3  502    0 -0.90732113300E+03 -0.10414248153E+04 -0.26276316816E+03  0.14060020508E+04  0.25500000920E-02 0.  1.
       -2    1    3    3    0  502  0.90732113300E+03  0.10414248153E+04  0.49617279839E+03  0.14676459826E+04  0.25500000920E-02 0. -1.
</event>
<event>
 5   0  0.1119100E-05  0.3193449E+04  0.7818609E-02  0.8190549E-01
        2   -1    0    0  501    0  0.00000000000E+00  0.00000000000E+00  0.26313422900E+04  0.26313422900E+04  0.25500000920E-02 0.  1.
       -2   -1    0    0    0  501  0.00000000000E+00  0.00000000000E+00 -0.96890819387E+03  0.96890819387E+03  0.25500000920E-02 0. -1.
    10030    2    1    2    0    0  0.00000000000E+00  0.00000000000E+00  0.16624340961E+04  0.36002504839E+04  0.31934489854E+04 0.  0.
        2    1    3    3  502    0  0.13866159880E+04  0.13749533341E+03  0.17102315424E+04  0.22060146857E+04  0.25500000920E-02 0.  1.
       -2    1    3    3    0  502 -0.13866159880E+04 -0.13749533341E+03 -0.47797446303E+02  0.13942357981E+04  0.25500000920E-02 0. -1.
</event>
<event>
 5   0  0.1007567E-05  0.1806953E+04  0.7818609E-02  0.8702611E-01
        2   -1    0    0  501    0  0.00000000000E+00  0.00000000000E+00  0.99259160525E+03  0.99259160526E+03  0.25500000920E-02 0. -1.
       -2   -1    0    0    0  501  0.00000000000E+00  0.00000000000E+00 -0.82236207229E+03  0.82236207230E+03  0.25500000920E-02 0.  1.
    10030    2    1    2    0    0  0.00000000000E+00  0.00000000000E+00  0.17022953296E+03  0.18149536776E+04  0.18069528931E+04 0.  0.
        3    1    3    3  502    0  0.19273227662E+03 -0.33102480790E+03  0.90699605801E+03  0.98456336178E+03  0.10100000352E+00 0. -1.
       -3    1    3    3    0  502 -0.19273227662E+03  0.33102480790E+03 -0.73676652506E+03  0.83039031578E+03  0.10100000352E+00 0.  1.
</event>
<event>
 5   0  0.1119100E-05  0.2424258E+04  0.7818609E-02  0.8430477E-01
       -2   -1    0    0    0  501  0.00000000000E+00  0.00000000000E+00  0.88437995007E+03  0.88437995007E+03  0.25500000920E-02 0. -1.
        2   -1    0    0  501    0  0.00000000000E+00  0.00000000000E+00 -0.16613416468E+04  0.16613416468E+04  0.25500000920E-02 0.  1.
    10030    2    1    2    0    0  0.00000000000E+00  0.00000000000E+00 -0.77696169670E+03  0.25457215968E+04  0.24242584372E+04 0.  0.
        2    1    3    3  502    0  0.48379216614E+03  0.29299096042E+03  0.73731535864E+03  0.92926449464E+03  0.25500000920E-02 0. -1.
       -2    1    3    3    0  502 -0.48379216614E+03 -0.29299096042E+03 -0.15142770553E+04  0.16164571022E+04  0.25500000920E-02 0.  1.
</event>
<event>
 5   0  0.3838525E-06  0.1633315E+04  0.7818609E-02  0.8800339E-01
        1   -1    0    0  501    0  0.00000000000E+00  0.00000000000E+00  0.14199318191E+04  0.14199318191E+04  0.50400001928E-02 0.  1.
       -1   -1    0    0    0  501  0.00000000000E+00  0.00000000000E+00 -0.46969119188E+03  0.46969119190E+03  0.50400001928E-02 0. -1.
    10030    2    1    2    0    0  0.00000000000E+00  0.00000000000E+00  0.95024062719E+03  0.18896230110E+04  0.16333149954E+04 0.  0.
        3    1    3    3  502    0 -0.71941862910E+03  0.14596196019E+03  0.61106965512E+02  0.73661531965E+03  0.10100000352E+00 0. -1.
       -3    1    3    3    0  502  0.71941862910E+03 -0.14596196019E+03  0.88913366167E+03  0.11530076913E+04  0.10100000352E+00 0.  1.
</event>
<event>
 5   0  0.4139628E-06  0.3170310E+04  0.7818609E-02  0.8196702E-01
       -1   -1    0    0    0  501  0.00000000000E+00  0.00000000000E+00  0.10633564308E+04  0.10633564308E+04  0.50400001928E-02 0. -1.
        1   -1    0    0  501    0  0.00000000000E+00  0.00000000000E+00 -0.23630052460E+04  0.23630052460E+04  0.50400001928E-02 0.  1.
    10030    2    1    2    0    0  0.00000000000E+00  0.00000000000E+00 -0.12996488153E+04  0.34263616768E+04  0.31703102841E+04 0.  0.
        5    1    3    3  502    0  0.45800943814E+03 -0.99116941336E+03 -0.18917669556E+04  0.21842604597E+04  0.46999998093E+01 0.  1.
       -5    1    3    3    0  502 -0.45800943814E+03  0.99116941336E+03  0.59211814037E+03  0.12421012171E+04  0.46999998093E+01 0. -1.
</event>
<event>
 5   0  0.1001961E-05  0.3125701E+04  0.7818609E-02  0.8208720E-01
       -2   -1    0    0    0  501  0.00000000000E+00  0.00000000000E+00  0.14305115474E+04  0.14305115474E+04  0.25500000920E-02 0.  1.
        2   -1    0    0  501    0  0.00000000000E+00  0.00000000000E+00 -0.17074320887E+04  0.17074320887E+04  0.25500000920E-02 0. -1.
    10030    2    1    2    0    0  0.00000000000E+00  0.00000000000E+00 -0.27692054130E+03  0.31379436362E+04  0.31257007658E+04 0.  0.
        5    1    3    3  502    0  0.45018688846E+03 -0.97759783376E+02  0.13607926541E+04  0.14366641735E+04  0.46999998093E+01 0.  1.
       -5    1    3    3    0  502 -0.45018688846E+03  0.97759783376E+02 -0.16377131954E+04  0.17012794627E+04  0.46999998093E+01 0. -1.
</event>
<event>
 5   0  0.4139628E-06  0.3094005E+04  0.7818609E-02  0.8217385E-01
       -1   -1    0    0    0  501  0.00000000000E+00  0.00000000000E+00  0.12637322136E+04  0.12637322136E+04  0.50400001928E-02 0.  1.
        1   -1    0    0  501    0  0.00000000000E+00  0.00000000000E+00 -0.18937692216E+04  0.18937692217E+04  0.50400001928E-02 0. -1.
    10030    2    1    2    0    0  0.00000000000E+00  0.00000000000E+00 -0.63003700805E+03  0.31575014353E+04  0.30940052815E+04 0.  0.
        5    1    3    3  502    0  0.19599326739E+03 -0.10747005681E+04  0.80281470765E+03  0.13557021121E+04  0.46999998093E+01 0.  1.
       -5    1    3    3    0  502 -0.19599326739E+03  0.10747005681E+04 -0.14328517157E+04  0.18017993232E+04  0.46999998093E+01 0. -1.
</event>
<event>
 5   0  0.3848286E-06  0.2891583E+04  0.7818609E-02  0.8275386E-01
        1   -1    0    0  501    0  0.00000000000E+00  0.00000000000E+00  0.23857407421E+04  0.23857407421E+04  0.50400001928E-02 0.  1.
       -1   -1    0    0    0  501  0.00000000000E+00  0.00000000000E+00 -0.87616917768E+03  0.87616917770E+03  0.50400001928E-02 0. -1.
    10030    2    1    2    0    0  0.00000000000E+00  0.00000000000E+00  0.15095715644E+04  0.32619099198E+04  0.28915826146E+04 0.  0.
        2    1    3    3  502    0 -0.13504746115E+04 -0.40040666692E+03  0.11224145704E+04  0.18010890159E+04  0.25500000920E-02 0.  1.
       -2    1    3    3    0  502  0.13504746115E+04  0.40040666692E+03  0.38715699399E+03  0.14608209039E+04  0.25500000920E-02 0. -1.
</event>
<event>
 5   0  0.1001961E-05  0.3073345E+04  0.7818609E-02  0.8223091E-01
       -2   -1    0    0    0  501  0.00000000000E+00  0.00000000000E+00  0.11835206818E+04  0.11835206818E+04  0.25500000920E-02 0.  1.
        2   -1    0    0  501    0  0.00000000000E+00  0.00000000000E+00 -0.19952014278E+04  0.19952014278E+04  0.25500000920E-02 0. -1.
    10030    2    1    2    0    0  0.00000000000E+00  0.00000000000E+00 -0.81168074591E+03  0.31787221096E+04  0.30733448581E+04 0.  0.
        5    1    3    3  502    0 -0.98904117833E+03 -0.45041545297E+03 -0.15294896116E+04  0.18762827865E+04  0.46999998093E+01 0. -1.
       -5    1    3    3    0  502  0.98904117833E+03  0.45041545297E+03  0.71780886573E+03  0.13024393231E+04  0.46999998093E+01 0.  1.
</event>
<event>
 5   0  0.4250961E-06  0.3083415E+04  0.7818609E-02  0.8220304E-01
       -1   -1    0    0    0  501  0.00000000000E+00  0.00000000000E+00  0.16137869363E+04  0.16137869364E+04  0.50400001928E-02 0.  1.
        1   -1    0    0  501    0  0.00000000000E+00  0.00000000000E+00 -0.14728473632E+04  0.14728473632E+04  0.50400001928E-02 0. -1.
    10030    2    1    2    0    0  0.00000000000E+00  0.00000000000E+00  0.14093957314E+03  0.30866342996E+04  0.30834148822E+04 0.  0.
        1    1    3    3  502    0 -0.55282459777E+02 -0.53531733399E+03 -0.13757673724E+04  0.14772801567E+04  0.50400001928E-02 0. -1.
       -1    1    3    3    0  502  0.55282459777E+02  0.53531733399E+03  0.15167069455E+04  0.16093541429E+04  0.50400001928E-02 0.  1.
</event>
<event>
 5   0  0.1007567E-05  0.2126886E+04  0.7818609E-02  0.8549491E-01
       -2   -1    0    0    0  501  0.00000000000E+00  0.00000000000E+00  0.10457176232E+04  0.10457176232E+04  0.25500000920E-02 0. -1.
        2   -1    0    0  501    0  0.00000000000E+00  0.00000000000E+00 -0.10814692970E+04  0.10814692970E+04  0.25500000920E-02 0.  1.
    10030    2    1    2    0    0  0.00000000000E+00  0.00000000000E+00 -0.35751673778E+02  0.21271869202E+04  0.21268864595E+04 0.  0.
        3    1    3    3  502    0  0.54534925952E+03  0.30382678289E+02 -0.93046436501E+03  0.10789313541E+04  0.10100000352E+00 0.  1.
       -3    1    3    3    0  502 -0.54534925952E+03 -0.30382678289E+02  0.89471269123E+03  0.10482555662E+04  0.10100000352E+00 0. -1.
</event>
<event>
 5   0  0.9797278E-06  0.3086613E+04  0.7818609E-02  0.8219421E-01
        2   -1    0    0  501    0  0.00000000000E+00  0.00000000000E+00  0.24842499342E+04  0.24842499342E+04  0.25500000920E-02 0.  1.
       -2   -1    0    0    0  501  0.00000000000E+00  0.00000000000E+00 -0.95875835327E+03  0.95875835328E+03  0.25500000920E-02 0. -1.
    10030    2    1    2    0    0  0.00000000000E+00  0.00000000000E+00  0.15254915809E+04  0.34430082875E+04  0.30866132742E+04 0.  0.
        1    1    3    3  502    0 -0.60487439582E+03  0.84050039331E+03  0.20392008248E+04  0.22870622969E+04  0.50400001928E-02 0.  1.
       -1    1    3    3    0  502  0.60487439582E+03 -0.84050039331E+03 -0.51370924389E+03  0.11559459906E+04  0.50400001928E-02 0. -1.
</event>
<event>
 5   0  0.1007567E-05  0.2327442E+04  0.7818609E-02  0.8467179E-01
       -2   -1    0    0    0  501  0.00000000000E+00  0.00000000000E+00  0.10633089189E+04  0.10633089189E+04  0.25500000920E-02 0.  1.
        2   -1    0    0  501    0  0.00000000000E+00  0.00000000000E+00 -0.12736152031E+04  0.12736152031E+04  0.25500000920E-02 0. -1.
    10030    2    1    2    0    0  0.00000000000E+00  0.00000000000E+00 -0.21030628420E+03  0.23369241221E+04  0.23274418616E+04 0.  0.
        3    1    3    3  502    0  0.50456706015E+03  0.15302456396E+03 -0.11468005321E+04  0.12622027991E+04  0.10100000352E+00 0. -1.
       -3    1    3    3    0  502 -0.50456706015E+03 -0.15302456396E+03  0.93649424794E+03  0.10747213229E+04  0.10100000352E+00 0.  1.
</event>
<event>
 5   0  0.3848286E-06  0.2814375E+04  0.7818609E-02  0.8298819E-01
       -1   -1    0    0    0  501  0.00000000000E+00  0.00000000000E+00  0.16274217561E+04  0.16274217561E+04  0.50400001928E-02 0.  1.
        1   -1    0    0  501    0  0.00000000000E+00  0.00000000000E+00 -0.12167565382E+04  0.12167565382E+04  0.50400001928E-02 0. -1.
    10030    2    1    2    0    0  0.00000000000E+00  0.00000000000E+00  0.41066521792E+03  0.28441782943E+04  0.28143745750E+04 0.  0.
        2    1    3    3  502    0  0.70878721104E+02  0.79533221689E+03  0.13763088085E+04  0.15911640596E+04  0.25500000920E-02 0.  1.
       -2    1    3    3    0  502 -0.70878721104E+02 -0.79533221689E+03 -0.96564359057E+03  0.12530142347E+04  0.25500000920E-02 0. -1.
</event>
<event>
 5   0  0.1108153E-05  0.3143670E+04  0.7818609E-02  0.8203854E-01
        2   -1    0    0  501    0  0.00000000000E+00  0.00000000000E+00  0.20171541775E+04  0.20171541775E+04  0.25500000920E-02 0. -1.
       -2   -1    0    0    0  501  0.00000000000E+00  0.00000000000E+00 -0.12248268373E+04  0.12248268373E+04  0.25500000920E-02 0.  1.
    10030    2    1    2    0    0  0.00000000000E+00  0.00000000000E+00  0.79232734018E+03  0.32419810148E+04  0.31436695574E+04 0.  0.
        4    1    3    3  502    0  0.11955923232E+04 -0.10095945472E+04  0.54892022762E+03  0.16583236060E+04  0.12699999809E+01 0. -1.
       -4    1    3    3    0  502 -0.11955923232E+04  0.10095945472E+04  0.24340711257E+03  0.15836574088E+04  0.12699999809E+01 0.  1.
</event>
<event>
 5   0  0.4139628E-06  0.2664843E+04  0.7818609E-02  0.8346503E-01
       -1   -1    0    0    0  501  0.00000000000E+00  0.00000000000E+00  0.10078397850E+04  0.10078397850E+04  0.50400001928E-02 0. -1.
        1   -1    0    0  501    0  0.00000000000E+00  0.00000000000E+00 -0.17615366806E+04  0.17615366807E+04  0.50400001928E-02 0.  1.
    10030    2    1    2    0    0  0.00000000000E+00  0.00000000000E+00 -0.75369689567E+03  0.27693764656E+04  0.26648427717E+04 0.  0.
        5    1    3    3  502    0  0.16260572134E+03  0.10608269931E+04 -0.11974628388E+04  0.16080217256E+04  0.46999998093E+01 0.  1.
       -5    1    3    3    0  502 -0.16260572134E+03 -0.10608269931E+04  0.44376594312E+03  0.11613547400E+04  0.46999998093E+01 0. -1.
</event>
<event>
 5   0  0.3493125E-06  0.2464184E+04  0.7818609E-02  0.8415857E-01
       -4   -1    0    0    0  501  0.00000000000E+00  0.00000000000E+00  0.18636166998E+04  0.18636171325E+04  0.12699999809E+01 0.  1.
        4   -1    0    0  501    0  0.00000000000E+00  0.00000000000E+00 -0.81457125206E+03  0.81457224208E+03  0.12699999809E+01 0. -1.
    10030    2    1    2    0    0  0.00000000000E+00  0.00000000000E+00  0.10490454477E+04  0.26781893746E+04  0.24641838354E+04 0.  0.
        1    1    3    3  502    0 -0.25180560565E+03  0.10256716273E+04  0.12141712194E+04  0.16092296604E+04  0.50400001928E-02 0.  1.
       -1    1    3    3    0  502  0.25180560565E+03 -0.10256716273E+04 -0.16512577165E+03  0.10689597142E+04  0.50400001928E-02 0. -1.
</event>
<event>
 5   0  0.3493125E-06  0.3112226E+04  0.7818609E-02  0.8212391E-01
        3   -1    0    0  501    0  0.00000000000E+00  0.00000000000E+00  0.11210667113E+04  0.11210667158E+04  0.10100000352E+00 0.  1.
       -3   -1    0    0    0  501  0.00000000000E+00  0.00000000000E+00 -0.21599852263E+04  0.21599852286E+04  0.10100000352E+00 0. -1.
    10030    2    1    2    0    0  0.00000000000E+00  0.00000000000E+00 -0.10389185150E+04  0.32810519445E+04  0.31122259207E+04 0.  0.
        3    1    3    3  502    0 -0.91469971553E+03 -0.14898059365E+03 -0.18373160761E+04  0.20578146565E+04  0.10100000352E+00 0. -1.
       -3    1    3    3    0  502  0.91469971553E+03  0.14898059365E+03  0.79839756111E+03  0.12232372880E+04  0.10100000352E+00 0.  1.
</event>
<event>
 5   0  0.3848286E-06  0.3139328E+04  0.7818609E-02  0.8205027E-01
       -1   -1    0    0    0  501  0.00000000000E+00  0.00000000000E+00  0.12610512653E+04  0.12610512653E+04  0.50400001928E-02 0. -1.
        1   -1    0    0  501    0  0.00000000000E+00  0.00000000000E+00 -0.19538029712E+04  0.19538029712E+04  0.50400001928E-02 0.  1.
    10030    2    1    2    0    0  0.00000000000E+00  0.00000000000E+00 -0.69275170592E+03  0.32148542365E+04  0.31393284052E+04 0.  0.
        2    1    3    3  502    0  0.12590897392E+04  0.78555008681E+03 -0.86999882681E+03  0.17202598260E+04  0.25500000920E-02 0.  1.
       -2    1    3    3    0  502 -0.12590897392E+04 -0.78555008681E+03  0.17724712089E+03  0.14945944105E+04  0.25500000920E-02 0. -1.
</event>
<event>
 5   0  0.3838525E-06  0.2771165E+04  0.7818609E-02  0.8312277E-01
        1   -1    0    0  501    0  0.00000000000E+00  0.00000000000E+00  0.13166409882E+04  0.13166409883E+04  0.50400001928E-02 0. -1.
       -1   -1    0    0    0  501  0.00000000000E+00  0.00000000000E+00 -0.14581340868E+04  0.14581340868E+04  0.50400001928E-02 0.  1.
    10030    2    1    2    0    0  0.00000000000E+00  0.00000000000E+00 -0.14149309857E+03  0.27747750751E+04  0.27711651738E+04 0.  0.
        3    1    3    3  502    0  0.71509537544E+03  0.50116313474E+03 -0.11479328652E+04  0.14423161085E+04  0.10100000352E+00 0.  1.
       -3    1    3    3    0  502 -0.71509537544E+03 -0.50116313474E+03  0.10064397666E+04  0.13324589666E+04  0.10100000352E+00 0. -1.
</event>
<event>
 5   0  0.4139628E-06  0.2354695E+04  0.7818609E-02  0.8456663E-01
        1   -1    0    0  501    0  0.00000000000E+00  0.00000000000E+00  0.21688163225E+04  0.21688163225E+04  0.50400001928E-02 0.  1.
       -1   -1    0    0    0  501  0.00000000000E+00  0.00000000000E+00 -0.63912586460E+03  0.63912586462E+03  0.50400001928E-02 0. -1.
    10030    2    1    2    0    0  0.00000000000E+00  0.00000000000E+00  0.15296904579E+04  0.28079421871E+04  0.23546945511E+04 0.  0.
        5    1    3    3  502    0  0.64016584386E+03  0.95404044582E+03  0.45821367490E+03  0.12369265709E+04  0.46999998093E+01 0. -1.
       -5    1    3    3    0  502 -0.64016584386E+03 -0.95404044582E+03  0.10714767830E+04  0.15710156162E+04  0.46999998093E+01 0.  1.
</event>
<event>
 5   0  0.1001961E-05  0.2114267E+04  0.7818609E-02  0.8554984E-01
       -2   -1    0    0    0  501  0.00000000000E+00  0.00000000000E+00  0.14462295098E+04  0.14462295099E+04  0.25500000920E-02 0.  1.
        2   -1    0    0  501    0  0.00000000000E+00  0.00000000000E+00 -0.77272077646E+03  0.77272077647E+03  0.25500000920E-02 0. -1.
    10030    2    1    2    0    0  0.00000000000E+00  0.00000000000E+00  0.67350873339E+03  0.22189502863E+04  0.21142673339E+04 0.  0.
        5    1    3    3  502    0 -0.37031359931E+03 -0.98991047697E+03  0.31437769511E+03  0.11026832453E+04  0.46999998093E+01 0.  1.
       -5    1    3    3    0  502  0.37031359931E+03  0.98991047697E+03  0.35913103828E+03  0.11162670410E+04  0.46999998093E+01 0. -1.
</event>
<event>
 5   0  0.4250961E-06  0.3040447E+04  0.7818609E-02  0.8232274E-01
        1   -1    0    0  501    0  0.00000000000E+00  0.00000000000E+00  0.13603564760E+04  0.13603564760E+04  0.50400001928E-02 0.  1.
       -1   -1    0    0    0  501  0.00000000000E+00  0.00000000000E+00 -0.16988782302E+04  0.16988782302E+04  0.50400001928E-02 0. -1.
    10030    2    1    2    0    0  0.00000000000E+00  0.00000000000E+00 -0.33852175415E+03  0.30592347062E+04  0.30404473371E+04 0.  0.
        1    1    3    3  502    0  0.33396968775E+03  0.35547894478E+03 -0.16180117460E+04  0.16899298929E+04  0.50400001928E-02 0. -1.
       -1    1    3    3    0  502 -0.33396968775E+03 -0.35547894478E+03  0.12794899919E+04  0.13693048133E+04  0.50400001928E-02 0.  1.
</event>
<event>
 5   0  0.4139628E-06  0.3113009E+04  0.7818609E-02  0.8212177E-01
       -1   -1    0    0    0  501  0.00000000000E+00  0.00000000000E+00  0.82974195193E+03  0.82974195194E+03  0.50400001928E-02 0.  1.
        1   -1    0    0  501    0  0.00000000000E+00  0.00000000000E+00 -0.29198311272E+04  0.29198311273E+04  0.50400001928E-02 0. -1.
    10030    2    1    2    0    0  0.00000000000E+00  0.00000000000E+00 -0.20900891753E+04  0.37495730792E+04  0.31130090773E+04 0.  0.
        5    1    3    3  502    0  0.74565196537E+03  0.12566698525E+04 -0.39924698453E+03  0.15148056694E+04  0.46999998093E+01 0.  1.
       -5    1    3    3    0  502 -0.74565196537E+03 -0.12566698525E+04 -0.16908421908E+04  0.22347674098E+04  0.46999998093E+01 0. -1.
</event>
<event>
 5   0  0.3807334E-06  0.3158528E+04  0.7818609E-02  0.8199856E-01
       -1   -1    0    0    0  501  0.00000000000E+00  0.00000000000E+00  0.11204494719E+04  0.11204494720E+04  0.50400001928E-02 0.  1.
        1   -1    0    0  501    0  0.00000000000E+00  0.00000000000E+00 -0.22259597608E+04  0.22259597608E+04  0.50400001928E-02 0. -1.
    10030    2    1    2    0    0  0.00000000000E+00  0.00000000000E+00 -0.11055102888E+04  0.33464092327E+04  0.31585284159E+04 0.  0.
        4    1    3    3  502    0 -0.51473842233E+03  0.98355997372E+03  0.63732750911E+03  0.12800522771E+04  0.12699999809E+01 0.  1.
       -4    1    3    3    0  502  0.51473842233E+03 -0.98355997372E+03 -0.17428377979E+04  0.20663569557E+04  0.12699999809E+01 0. -1.
</event>
<event>
 5   0  0.3848286E-06  0.2939665E+04  0.7818609E-02  0.8261173E-01
       -1   -1    0    0    0  501  0.00000000000E+00  0.00000000000E+00  0.10731827755E+04  0.10731827756E+04  0.50400001928E-02 0. -1.
        1   -1    0    0  501    0  0.00000000000E+00  0.00000000000E+00 -0.20130840785E+04  0.20130840785E+04  0.50400001928E-02 0.  1.
    10030    2    1    2    0    0  0.00000000000E+00  0.00000000000E+00 -0.93990130297E+03  0.30862668541E+04  0.29396647148E+04 0.  0.
        2    1    3    3  502    0 -0.33895162958E+03 -0.76055812601E+03 -0.17415817373E+04  0.19303999114E+04  0.25500000920E-02 0.  1.
       -2    1    3    3    0  502  0.33895162958E+03  0.76055812601E+03  0.80168043436E+03  0.11558669426E+04  0.25500000920E-02 0. -1.
</event>
<event>
 5   0  0.1119100E-05  0.3084073E+04  0.7818609E-02  0.8220123E-01
        2   -1    0    0  501    0  0.00000000000E+00  0.00000000000E+00  0.21272711788E+04  0.21272711788E+04  0.25500000920E-02 0. -1.
       -2   -1    0    0    0  501  0.00000000000E+00  0.00000000000E+00 -0.11178058317E+04  0.11178058317E+04  0.25500000920E-02 0.  1.
    10030    2    1    2    0    0  0.00000000000E+00  0.00000000000E+00  0.10094653470E+04  0.32450770105E+04  0.30840727160E+04 0.  0.
        2    1    3    3  502    0 -0.88296740337E+02  0.56952862299E+03 -0.10002211393E+04  0.11543835992E+04  0.25500000920E-02 0.  1.
       -2    1    3    3    0  502  0.88296740337E+02 -0.56952862299E+03  0.20096864863E+04  0.20906934113E+04  0.25500000920E-02 0. -1.
</event>
<event>
 5   0  0.1007567E-05  0.3007306E+04  0.7818609E-02  0.8241648E-01
        2   -1    0    0  501    0  0.00000000000E+00  0.00000000000E+00  0.19848015131E+04  0.19848015131E+04  0.25500000920E-02 0. -1.
       -2   -1    0    0    0  501  0.00000000000E+00  0.00000000000E+00 -0.11391427361E+04  0.11391427361E+04  0.25500000920E-02 0.  1.
    10030    2    1    2    0    0  0.00000000000E+00  0.00000000000E+00  0.84565877698E+03  0.31239442493E+04  0.30073059215E+04 0.  0.
        3    1    3    3  502    0  0.49228584561E+03  0.89259064723E+03  0.15711021459E+04  0.18728121583E+04  0.10100000352E+00 0. -1.
       -3    1    3    3    0  502 -0.49228584561E+03 -0.89259064723E+03 -0.72544336892E+03  0.12511320910E+04  0.10100000352E+00 0.  1.
</event>
<event>
 5   0  0.1108153E-05  0.3023906E+04  0.7818609E-02  0.8236937E-01
        2   -1    0    0  501    0  0.00000000000E+00  0.00000000000E+00  0.19478212954E+04  0.19478212954E+04  0.25500000920E-02 0.  1.
       -2   -1    0    0    0  501  0.00000000000E+00  0.00000000000E+00 -0.11736197445E+04  0.11736197446E+04  0.25500000920E-02 0. -1.
    10030    2    1    2    0    0  0.00000000000E+00  0.00000000000E+00  0.77420155084E+03  0.31214410399E+04  0.30239057731E+04 0.  0.
        4    1    3    3  502    0  0.34987599064E+03 -0.44414436721E+03  0.18345863865E+04  0.19197359845E+04  0.12699999809E+01 0.  1.
       -4    1    3    3    0  502 -0.34987599064E+03  0.44414436721E+03 -0.10603848356E+04  0.12017050555E+04  0.12699999809E+01 0. -1.
</event>
<event>
 5   0  0.4139628E-06  0.3063191E+04  0.7818609E-02  0.8225913E-01
       -1   -1    0    0    0  501  0.00000000000E+00  0.00000000000E+00  0.15578946663E+04  0.15578946663E+04  0.50400001928E-02 0. -1.
        1   -1    0    0  501    0  0.00000000000E+00  0.00000000000E+00 -0.15057398698E+04  0.15057398698E+04  0.50400001928E-02 0.  1.
    10030    2    1    2    0    0  0.00000000000E+00  0.00000000000E+00  0.52154796507E+02  0.30636345361E+04  0.30631905667E+04 0.  0.
        5    1    3    3  502    0 -0.99547861487E+03 -0.10982047774E+04 -0.35963458298E+03  0.15252509725E+04  0.46999998093E+01 0. -1.
       -5    1    3    3    0  502  0.99547861487E+03  0.10982047774E+04  0.41178937949E+03  0.15383835636E+04  0.46999998093E+01 0.  1.
</event>
<event>
 5   0  0.9797278E-06  0.3022282E+04  0.7818609E-02  0.8237397E-01
       -2   -1    0    0    0  501  0.00000000000E+00  0.00000000000E+00  0.11884000530E+04  0.11884000530E+04  0.25500000920E-02 0.  1.
        2   -1    0    0  501    0  0.00000000000E+00  0.00000000000E+00 -0.19215305572E+04  0.19215305572E+04  0.25500000920E-02 0. -1.
    10030    2    1    2    0    0  0.00000000000E+00  0.00000000000E+00 -0.73313050425E+03  0.31099306102E+04  0.30222819300E+04 0.  0.
        1    1    3    3  502    0  0.38180941724E+03 -0.29002582577E+03 -0.18411825378E+04  0.19025894324E+04  0.50400001928E-02 0. -1.
       -1    1    3    3    0  502 -0.38180941724E+03  0.29002582577E+03  0.11080520335E+04  0.12073411779E+04  0.50400001928E-02 0.  1.
</event>
<event>
 5   0  0.1001961E-05  0.3198309E+04  0.7818609E-02  0.8189264E-01
        2   -1    0    0  501    0  0.00000000000E+00  0.00000000000E+00  0.10310105471E+04  0.10310105471E+04  0.25500000920E-02 0. -1.
       -2   -1    0    0    0  501  0.00000000000E+00  0.00000000000E+00 -0.24803776644E+04  0.24803776644E+04  0.25500000920E-02 0.  1.
    10030    2    1    2    0    0  0.00000000000E+00  0.00000000000E+00 -0.14493671173E+04  0.35113882115E+04  0.31983092613E+04 0.  0.
        5    1    3    3  502    0  0.36102343460E+03 -0.15005620588E+04 -0.11842901016E+04  0.19454021557E+04  0.46999998093E+01 0.  1.
       -5    1    3    3    0  502 -0.36102343460E+03  0.15005620588E+04 -0.26507701563E+03  0.15659860558E+04  0.46999998093E+01 0. -1.
</event>
<event>
 5   0  0.3807334E-06  0.3110702E+04  0.7818609E-02  0.8212807E-01
       -1   -1    0    0    0  501  0.00000000000E+00  0.00000000000E+00  0.87390264597E+03  0.87390264598E+03  0.50400001928E-02 0. -1.
        1   -1    0    0  501    0  0.00000000000E+00  0.00000000000E+00 -0.27681768880E+04  0.27681768880E+04  0.50400001928E-02 0.  1.
    10030    2    1    2    0    0  0.00000000000E+00  0.00000000000E+00 -0.18942742420E+04  0.36420795340E+04  0.31107022403E+04 0.  0.
        4    1    3    3  502    0 -0.35526266938E+03 -0.13166988881E+04 -0.18226804814E+04  0.22764167624E+04  0.12699999809E+01 0.  1.
       -4    1    3    3    0  502  0.35526266938E+03  0.13166988881E+04 -0.71593760592E+02  0.13656627715E+04  0.12699999809E+01 0. -1.
</event>
<event>
 5   0  0.3848286E-06  0.2916125E+04  0.7818609E-02  0.8268096E-01
       -1   -1    0    0    0  501  0.00000000000E+00  0.00000000000E+00  0.14892417647E+04  0.14892417647E+04  0.50400001928E-02 0.  1.
        1   -1    0    0  501    0  0.00000000000E+00  0.00000000000E+00 -0.14275364896E+04  0.14275364896E+04  0.50400001928E-02 0. -1.
    10030    2    1    2    0    0  0.00000000000E+00  0.00000000000E+00  0.61705275052E+02  0.29167782543E+04  0.29161254850E+04 0.  0.
        2    1    3    3  502    0 -0.10226305949E+04  0.78955914594E+03  0.70685152770E+03  0.14726900763E+04  0.25500000920E-02 0.  1.
       -2    1    3    3    0  502  0.10226305949E+04 -0.78955914594E+03 -0.64514625264E+03  0.14440881780E+04  0.25500000920E-02 0. -1.
</event>
<event>
 5   0  0.3848286E-06  0.3129273E+04  0.7818609E-02  0.8207750E-01
       -1   -1    0    0    0  501  0.00000000000E+00  0.00000000000E+00  0.15426380563E+04  0.15426380564E+04  0.50400001928E-02 0. -1.
        1   -1    0    0  501    0  0.00000000000E+00  0.00000000000E+00 -0.15869488469E+04  0.15869488469E+04  0.50400001928E-02 0.  1.
    10030    2    1    2    0    0  0.00000000000E+00  0.00000000000E+00 -0.44310790593E+02  0.31295869033E+04  0.31292731966E+04 0.  0.
        2    1    3    3  502    0  0.72206153516E+03  0.13644880695E+04  0.23259966894E+03  0.15611864586E+04  0.25500000920E-02 0.  1.
       -2    1    3    3    0  502 -0.72206153516E+03 -0.13644880695E+04 -0.27691045953E+03  0.15684004447E+04  0.25500000920E-02 0. -1.
</event>
<event>
 5   0  0.3838525E-06  0.3075002E+04  0.7818609E-02  0.8222632E-01
       -1   -1    0    0    0  501  0.00000000000E+00  0.00000000000E+00  0.15210835250E+04  0.15210835250E+04  0.50400001928E-02 0.  1.
        1   -1    0    0  501    0  0.00000000000E+00  0.00000000000E+00 -0.15540959515E+04  0.15540959515E+04  0.50400001928E-02 0. -1.
    10030    2    1    2    0    0  0.00000000000E+00  0.00000000000E+00 -0.33012426546E+02  0.30751794765E+04  0.30750022752E+04 0.  0.
        3    1    3    3  502    0  0.38343509910E+03 -0.92190219962E+03 -0.11857543265E+04  0.15501417593E+04  0.10100000352E+00 0. -1.
       -3    1    3    3    0  502 -0.38343509910E+03  0.92190219962E+03  0.11527418999E+04  0.15250377172E+04  0.10100000352E+00 0.  1.
</event>
<event>
 5   0  0.3848286E-06  0.3157032E+04  0.7818609E-02  0.8200258E-01
        1   -1    0    0  501    0  0.00000000000E+00  0.00000000000E+00  0.22831429801E+04  0.22831429801E+04  0.50400001928E-02 0. -1.
       -1   -1    0    0    0  501  0.00000000000E+00  0.00000000000E+00 -0.10913517781E+04  0.10913517781E+04  0.50400001928E-02 0.  1.
    10030    2    1    2    0    0  0.00000000000E+00  0.00000000000E+00  0.11917912020E+04  0.33744947582E+04  0.31570316127E+04 0.  0.
        2    1    3    3  502    0 -0.82520783557E+03 -0.23584666235E+03 -0.82016976318E+03  0.11871268089E+04  0.25500000920E-02 0.  1.
       -2    1    3    3    0  502  0.82520783557E+03  0.23584666235E+03  0.20119609652E+04  0.21873679492E+04  0.25500000920E-02 0. -1.
</event>
<event>
 5   0  0.1119100E-05  0.3044447E+04  0.7818609E-02  0.8231151E-01
       -2   -1    0    0    0  501  0.00000000000E+00  0.00000000000E+00  0.25232234847E+04  0.25232234847E+04  0.25500000920E-02 0.  1.
        2   -1    0    0  501    0  0.00000000000E+00  0.00000000000E+00 -0.91833513584E+03  0.91833513584E+03  0.25500000920E-02 0. -1.
    10030    2    1    2    0    0  0.00000000000E+00  0.00000000000E+00  0.16048883489E+04  0.34415586206E+04  0.30444472612E+04 0.  0.
        2    1    3    3  502    0  0.20014530974E+03  0.36207585515E+03  0.24584518877E+04  0.24930188034E+04  0.25500000920E-02 0.  1.
       -2    1    3    3    0  502 -0.20014530974E+03 -0.36207585515E+03 -0.85356353883E+03  0.94853981716E+03  0.25500000920E-02 0. -1.
</event>
<event>
 5   0  0.1119100E-05  0.3106960E+04  0.7818609E-02  0.8213830E-01
        2   -1    0    0  501    0  0.00000000000E+00  0.00000000000E+00  0.18468392424E+04  0.18468392424E+04  0.25500000920E-02 0.  1.
       -2   -1    0    0    0  501  0.00000000000E+00  0.00000000000E+00 -0.13067192431E+04  0.13067192431E+04  0.25500000920E-02 0. -1.
    10030    2    1    2    0    0  0.00000000000E+00  0.00000000000E+00  0.54011999930E+03  0.31535584854E+04  0.31069601715E+04 0.  0.
        2    1    3    3  502    0 -0.55807317865E+03 -0.13732614400E+04  0.74179689213E+03  0.16575751218E+04  0.25500000920E-02 0.  1.
       -2    1    3    3    0  502  0.55807317865E+03  0.13732614400E+04 -0.20167689283E+03  0.14959833636E+04  0.25500000920E-02 0. -1.
</event>
<event>
 5   0  0.1007567E-05  0.3168575E+04  0.7818609E-02  0.8197166E-01
        2   -1    0    0  501    0  0.00000000000E+00  0.00000000000E+00  0.16316413506E+04  0.16316413506E+04  0.25500000920E-02 0.  1.
       -2   -1    0    0    0  501  0.00000000000E+00  0.00000000000E+00 -0.15383076798E+04  0.15383076798E+04  0.25500000920E-02 0. -1.
    10030    2    1    2    0    0  0.00000000000E+00  0.00000000000E+00  0.93333670796E+02  0.31699490303E+04  0.31685747081E+04 0.  0.
        3    1    3    3  502    0  0.68282338040E+03 -0.11077746490E+04 -0.85735886015E+03  0.15583570409E+04  0.10100000352E+00 0. -1.
       -3    1    3    3    0  502 -0.68282338040E+03  0.11077746490E+04  0.95069253095E+03  0.16115919894E+04  0.10100000352E+00 0.  1.
</event>
<event>
 5   0  0.4250961E-06  0.2961956E+04  0.7818609E-02  0.8254679E-01
        1   -1    0    0  501    0  0.00000000000E+00  0.00000000000E+00  0.18199533630E+04  0.18199533631E+04  0.50400001928E-02 0.  1.
       -1   -1    0    0    0  501  0.00000000000E+00  0.00000000000E+00 -0.12051383685E+04  0.12051383685E+04  0.50400001928E-02 0. -1.
    10030    2    1    2    0    0  0.00000000000E+00  0.00000000000E+00  0.61481499459E+03  0.30250917315E+04  0.29619558583E+04 0.  0.
        1    1    3    3  502    0  0.12589050327E+04 -0.34351290480E+02 -0.48848097644E+03  0.13507907155E+04  0.50400001928E-02 0.  1.
       -1    1    3    3    0  502 -0.12589050327E+04  0.34351290480E+02  0.11032959710E+04  0.16743010161E+04  0.50400001928E-02 0. -1.
</event>
<event>
 5   0  0.3848286E-06  0.2185023E+04  0.7818609E-02  0.8524688E-01
       -1   -1    0    0    0  501  0.00000000000E+00  0.00000000000E+00  0.10446770934E+04  0.10446770934E+04  0.50400001928E-02 0.  1.
        1   -1    0    0  501    0  0.00000000000E+00  0.00000000000E+00 -0.11425366117E+04  0.11425366117E+04  0.50400001928E-02 0. -1.
    10030    2    1    2    0    0  0.00000000000E+00  0.00000000000E+00 -0.97859518313E+02  0.21872137051E+04  0.21850234109E+04 0.  0.
        2    1    3    3  502    0 -0.21989802453E+03  0.14541450317E+03 -0.11102195512E+04  0.11410906935E+04  0.25500000920E-02 0. -1.
       -2    1    3    3    0  502  0.21989802453E+03 -0.14541450317E+03  0.10123600329E+04  0.10461230115E+04  0.25500000920E-02 0.  1.
</event>
<event>
 5   0  0.3848286E-06  0.3081671E+04  0.7818609E-02  0.8220786E-01
       -1   -1    0    0    0  501  0.00000000000E+00  0.00000000000E+00  0.96913634651E+03  0.96913634653E+03  0.50400001928E-02 0. -1.
        1   -1    0    0  501    0  0.00000000000E+00  0.00000000000E+00 -0.24497827396E+04  0.24497827396E+04  0.50400001928E-02 0.  1.
    10030    2    1    2    0    0  0.00000000000E+00  0.00000000000E+00 -0.14806463931E+04  0.34189190862E+04  0.30816706470E+04 0.  0.
        2    1    3    3  502    0 -0.90431120833E+03  0.76501973689E+03  0.35298704962E+03  0.12359748446E+04  0.25500000920E-02 0. -1.
       -2    1    3    3    0  502  0.90431120833E+03 -0.76501973689E+03 -0.18336334427E+04  0.21829442415E+04  0.25500000920E-02 0.  1.
</event>
<event>
 5   0  0.1007567E-05  0.3028527E+04  0.7818609E-02  0.8235631E-01
        2   -1    0    0  501    0  0.00000000000E+00  0.00000000000E+00  0.15325926956E+04  0.15325926956E+04  0.25500000920E-02 0. -1.
       -2   -1    0    0    0  501  0.00000000000E+00  0.00000000000E+00 -0.14961534663E+04  0.14961534663E+04  0.25500000920E-02 0.  1.
    10030    2    1    2    0    0  0.00000000000E+00  0.00000000000E+00  0.36439229245E+02  0.30287461619E+04  0.30285269515E+04 0.  0.
        3    1    3    3  502    0  0.59622647534E+03 -0.66648120641E+03 -0.12038797432E+04  0.14996698486E+04  0.10100000352E+00 0.  1.
       -3    1    3    3    0  502 -0.59622647534E+03  0.66648120641E+03  0.12403189725E+04  0.15290763134E+04  0.10100000352E+00 0. -1.
</event>
<event>
 5   0  0.1119100E-05  0.2885521E+04  0.7818609E-02  0.8277199E-01
        2   -1    0    0  501    0  0.00000000000E+00  0.00000000000E+00  0.75760089807E+03  0.75760089807E+03  0.25500000920E-02 0.  1.
       -2   -1    0    0    0  501  0.00000000000E+00  0.00000000000E+00 -0.27475648241E+04  0.27475648241E+04  0.25500000920E-02 0. -1.
    10030    2    1    2    0    0  0.00000000000E+00  0.00000000000E+00 -0.19899639261E+04  0.35051657222E+04  0.28855208045E+04 0.  0.
        2    1    3    3  502    0  0.13377303838E+03  0.47221220857E+03 -0.26430428588E+04  0.26882252787E+04  0.25500000920E-02 0. -1.
       -2    1    3    3    0  502 -0.13377303838E+03 -0.47221220857E+03  0.65307893276E+03  0.81694044345E+03  0.25500000920E-02 0.  1.
</event>
<event>
 5   0  0.1119100E-05  0.2417798E+04  0.7818609E-02  0.8432870E-01
       -2   -1    0    0    0  501  0.00000000000E+00  0.00000000000E+00  0.64040984025E+03  0.64040984025E+03  0.25500000920E-02 0. -1.
        2   -1    0    0  501    0  0.00000000000E+00  0.00000000000E+00 -0.22820341326E+04  0.22820341326E+04  0.25500000920E-02 0.  1.
    10030    2    1    2    0    0  0.00000000000E+00  0.00000000000E+00 -0.16416242923E+04  0.29224439728E+04  0.24177982664E+04 0.  0.
        2    1    3    3  502    0 -0.31505780950E+03  0.18987366119E+03  0.57112026571E+03  0.67933186915E+03  0.25500000920E-02 0. -1.
       -2    1    3    3    0  502  0.31505780950E+03 -0.18987366119E+03 -0.22127445580E+04  0.22431121037E+04  0.25500000920E-02 0.  1.
</event>
<event>
 5   0  0.3807334E-06  0.3066932E+04  0.7818609E-02  0.8224872E-01
        1   -1    0    0  501    0  0.00000000000E+00  0.00000000000E+00  0.21292387643E+04  0.21292387643E+04  0.50400001928E-02 0.  1.
       -1   -1    0    0    0  501  0.00000000000E+00  0.00000000000E+00 -0.11043936674E+04  0.11043936674E+04  0.50400001928E-02 0. -1.
    10030    2    1    2    0    0  0.00000000000E+00  0.00000000000E+00  0.10248450968E+04  0.32336324317E+04  0.30669318921E+04 0.  0.
        4    1    3    3  502    0 -0.33231192974E+03 -0.13880380339E+04  0.11036467894E+04  0.18041947375E+04  0.12699999809E+01 0.  1.
       -4    1    3    3    0  502  0.33231192974E+03  0.13880380339E+04 -0.78801692512E+02  0.14294376943E+04  0.12699999809E+01 0. -1.
</event>
<event>
 5   0  0.3493125E-06  0.3032190E+04  0.7818609E-02  0.8234598E-01
        3   -1    0    0  501    0  0.00000000000E+00  0.00000000000E+00  0.95242861056E+03  0.95242861592E+03  0.10100000352E+00 0. -1.
       -3   -1    0    0    0  501  0.00000000000E+00  0.00000000000E+00 -0.24133497961E+04  0.24133497982E+04  0.10100000352E+00 0.  1.
    10030    2    1    2    0    0  0.00000000000E+00  0.00000000000E+00 -0.14609211855E+04  0.33657784141E+04  0.30321895756E+04 0.  0.
        4    1    3    3  502    0 -0.51042790182E+03 -0.14042799260E+04 -0.44528579821E+03  0.15591086583E+04  0.12699999809E+01 0.  1.
       -4    1    3    3    0  502  0.51042790182E+03  0.14042799260E+04 -0.10156353873E+04  0.18066697557E+04  0.12699999809E+01 0. -1.
</event>
<event>
 5   0  0.9797278E-06  0.2991422E+04  0.7818609E-02  0.8246185E-01
       -2   -1    0    0    0  501  0.00000000000E+00  0.00000000000E+00  0.13527971353E+04  0.13527971353E+04  0.25500000920E-02 0.  1.
        2   -1    0    0  501    0  0.00000000000E+00  0.00000000000E+00 -0.16537225318E+04  0.16537225318E+04  0.25500000920E-02 0. -1.
    10030    2    1    2    0    0  0.00000000000E+00  0.00000000000E+00 -0.30092539644E+03  0.30065196671E+04  0.29914218048E+04 0.  0.
        1    1    3    3  502    0 -0.91783219597E+03 -0.92270863607E+02 -0.13337839667E+04  0.16216995783E+04  0.50400001928E-02 0. -1.
       -1    1    3    3    0  502  0.91783219597E+03  0.92270863607E+02  0.10328585703E+04  0.13848200888E+04  0.50400001928E-02 0.  1.
</event>
<event>
 5   0  0.1007567E-05  0.2862302E+04  0.7818609E-02  0.8284183E-01
       -2   -1    0    0    0  501  0.00000000000E+00  0.00000000000E+00  0.77771861590E+03  0.77771861590E+03  0.25500000920E-02 0.  1.
        2   -1    0    0  501    0  0.00000000000E+00  0.00000000000E+00 -0.26335910682E+04  0.26335910682E+04  0.25500000920E-02 0. -1.
    10030    2    1    2    0    0  0.00000000000E+00  0.00000000000E+00 -0.18558724523E+04  0.34113096841E+04  0.28623017314E+04 0.  0.
        3    1    3    3  502    0 -0.11007317004E+04 -0.55947053492E+03 -0.17903094865E+04  0.21748162275E+04  0.10100000352E+00 0. -1.
       -3    1    3    3    0  502  0.11007317004E+04  0.55947053492E+03 -0.65562965852E+02  0.12364934567E+04  0.10100000352E+00 0.  1.
</event>
<event>
 5   0  0.3848286E-06  0.2998302E+04  0.7818609E-02  0.8244216E-01
       -1   -1    0    0    0  501  0.00000000000E+00  0.00000000000E+00  0.14482267487E+04  0.14482267487E+04  0.50400001928E-02 0.  1.
        1   -1    0    0  501    0  0.00000000000E+00  0.00000000000E+00 -0.15518661066E+04  0.15518661066E+04  0.50400001928E-02 0. -1.
    10030    2    1    2    0    0  0.00000000000E+00  0.00000000000E+00 -0.10363935794E+03  0.30000928553E+04  0.29983021902E+04 0.  0.
        2    1    3    3  502    0 -0.69258664862E+03 -0.10313478717E+04  0.78778771266E+03  0.14710418684E+04  0.25500000920E-02 0.  1.
       -2    1    3    3    0  502  0.69258664862E+03  0.10313478717E+04 -0.89142707060E+03  0.15290509869E+04  0.25500000920E-02 0. -1.
</event>
<event>
 5   0  0.1007567E-05  0.2532621E+04  0.7818609E-02  0.8391455E-01
       -2   -1    0    0    0  501  0.00000000000E+00  0.00000000000E+00  0.19081306351E+04  0.19081306351E+04  0.25500000920E-02 0.  1.
        2   -1    0    0  501    0  0.00000000000E+00  0.00000000000E+00 -0.84037366764E+03  0.84037366764E+03  0.25500000920E-02 0. -1.
    10030    2    1    2    0    0  0.00000000000E+00  0.00000000000E+00  0.10677569675E+04  0.27485043028E+04  0.25326213615E+04 0.  0.
        3    1    3    3  502    0 -0.10099951023E+04 -0.50794593825E+03  0.11529830225E+04  0.16147659407E+04  0.10100000352E+00 0.  1.
       -3    1    3    3    0  502  0.10099951023E+04  0.50794593825E+03 -0.85226055018E+02  0.11337383620E+04  0.10100000352E+00 0. -1.
</event>
<event>
 5   0  0.1119100E-05  0.2833449E+04  0.7818609E-02  0.8292958E-01
       -2   -1    0    0    0  501  0.00000000000E+00  0.00000000000E+00  0.15257356537E+04  0.15257356537E+04  0.25500000920E-02 0. -1.
        2   -1    0    0  501    0  0.00000000000E+00  0.00000000000E+00 -0.13155022293E+04  0.13155022293E+04  0.25500000920E-02 0.  1.
    10030    2    1    2    0    0  0.00000000000E+00  0.00000000000E+00  0.21023342435E+03  0.28412378830E+04  0.28334492435E+04 0.  0.
        2    1    3    3  502    0  0.78801499767E+03  0.21376039065E+03 -0.10558427775E+04  0.13347153674E+04  0.25500000920E-02 0.  1.
       -2    1    3    3    0  502 -0.78801499767E+03 -0.21376039065E+03  0.12660762019E+04  0.15065225156E+04  0.25500000920E-02 0. -1.
</event>
<event>
 5   0  0.1001961E-05  0.1545815E+04  0.7818609E-02  0.8854545E-01
       -2   -1    0    0    0  501  0.00000000000E+00  0.00000000000E+00  0.30775675738E+03  0.30775675739E+03  0.25500000920E-02 0.  1.
        2   -1    0    0  501    0  0.00000000000E+00  0.00000000000E+00 -0.19410972683E+04  0.19410972683E+04  0.25500000920E-02 0. -1.
    10030    2    1    2    0    0  0.00000000000E+00  0.00000000000E+00 -0.16333405110E+04  0.22488540257E+04  0.15458147380E+04 0.  0.
        5    1    3    3  502    0  0.38310376126E+03  0.12580823621E+03  0.14258096822E+03  0.42772377382E+03  0.46999998093E+01 0.  1.
       -5    1    3    3    0  502 -0.38310376126E+03 -0.12580823621E+03 -0.17759214792E+04  0.18211302519E+04  0.46999998093E+01 0. -1.
</event>
<event>
 5   0  0.3838525E-06  0.2429517E+04  0.7818609E-02  0.8428535E-01
       -1   -1    0    0    0  501  0.00000000000E+00  0.00000000000E+00  0.16207655582E+04  0.16207655582E+04  0.50400001928E-02 0.  1.
        1   -1    0    0  501    0  0.00000000000E+00  0.00000000000E+00 -0.91045731203E+03  0.91045731204E+03  0.50400001928E-02 0. -1.
    10030    2    1    2    0    0  0.00000000000E+00  0.00000000000E+00  0.71030824613E+03  0.25312228702E+04  0.24295167038E+04 0.  0.
        3    1    3    3  502    0 -0.45507330310E+03 -0.59840574280E+02  0.15269441351E+04  0.15944375208E+04  0.10100000352E+00 0.  1.
       -3    1    3    3    0  502  0.45507330310E+03  0.59840574280E+02 -0.81663588902E+03  0.93678534945E+03  0.10100000352E+00 0. -1.
</event>
<event>
 5   0  0.4139628E-06  0.3086386E+04  0.7818609E-02  0.8219484E-01
       -1   -1    0    0    0  501  0.00000000000E+00  0.00000000000E+00  0.12461468476E+04  0.12461468476E+04  0.50400001928E-02 0. -1.
        1   -1    0    0  501    0  0.00000000000E+00  0.00000000000E+00 -0.19110460114E+04  0.19110460114E+04  0.50400001928E-02 0.  1.
    10030    2    1    2    0    0  0.00000000000E+00  0.00000000000E+00 -0.66489916385E+03  0.31571928590E+04  0.30863855642E+04 0.  0.
        5    1    3    3  502    0  0.79557273419E+03 -0.67313845285E+03 -0.14967041150E+04  0.18237863498E+04  0.46999998093E+01 0.  1.
       -5    1    3    3    0  502 -0.79557273419E+03  0.67313845285E+03  0.83180495112E+03  0.13334065092E+04  0.46999998093E+01 0. -1.
</event>
<event>
 5   0  0.9797278E-06  0.3107631E+04  0.7818609E-02  0.8213647E-01
        2   -1    0    0  501    0  0.00000000000E+00  0.00000000000E+00  0.23293674679E+04  0.23293674679E+04  0.25500000920E-02 0.  1.
       -2   -1    0    0    0  501  0.00000000000E+00  0.00000000000E+00 -0.10364800896E+04  0.10364800896E+04  0.25500000920E-02 0. -1.
    10030    2    1    2    0    0  0.00000000000E+00  0.00000000000E+00  0.12928873783E+04  0.33658475575E+04  0.31076312534E+04 0.  0.
        1    1    3    3  502    0 -0.37286435435E+02  0.15531364892E+04  0.67550141724E+03  0.16940854161E+04  0.50400001928E-02 0.  1.
       -1    1    3    3    0  502  0.37286435435E+02 -0.15531364892E+04  0.61738596107E+03  0.16717621414E+04  0.50400001928E-02 0. -1.
</event>
<event>
 5   0  0.3848286E-06  0.3092205E+04  0.7818609E-02  0.8217880E-01
       -1   -1    0    0    0  501  0.00000000000E+00  0.00000000000E+00  0.12082765706E+04  0.12082765706E+04  0.50400001928E-02 0.  1.
        1   -1    0    0  501    0  0.00000000000E+00  0.00000000000E+00 -0.19783826430E+04  0.19783826430E+04  0.50400001928E-02 0. -1.
    10030    2    1    2    0    0  0.00000000000E+00  0.00000000000E+00 -0.77010607242E+03  0.31866592136E+04  0.30922052941E+04 0.  0.
        2    1    3    3  502    0  0.10096075513E+04  0.93819420438E+03  0.33700418156E+03  0.14188331794E+04  0.25500000920E-02 0.  1.
       -2    1    3    3    0  502 -0.10096075513E+04 -0.93819420438E+03 -0.11071102540E+04  0.17678260342E+04  0.25500000920E-02 0. -1.
</event>
<event>
 5   0  0.1119100E-05  0.2925802E+04  0.7818609E-02  0.8265242E-01
        2   -1    0    0  501    0  0.00000000000E+00  0.00000000000E+00  0.23268928504E+04  0.23268928504E+04  0.25500000920E-02 0.  1.
       -2   -1    0    0    0  501  0.00000000000E+00  0.00000000000E+00 -0.91971575861E+03  0.91971575861E+03  0.25500000920E-02 0. -1.
    10030    2    1    2    0    0  0.00000000000E+00  0.00000000000E+00  0.14071770918E+04  0.32466086090E+04  0.29258024698E+04 0.  0.
        2    1    3    3  502    0  0.12139055776E+04 -0.21836130005E+03 -0.16932489363E+03  0.12449575608E+04  0.25500000920E-02 0. -1.
       -2    1    3    3    0  502 -0.12139055776E+04  0.21836130005E+03  0.15765019854E+04  0.20016510482E+04  0.25500000920E-02 0.  1.
</event>
<event>
 5   0  0.4250961E-06  0.1691630E+04  0.7818609E-02  0.8766153E-01
        1   -1    0    0  501    0  0.00000000000E+00  0.00000000000E+00  0.61573779148E+03  0.61573779150E+03  0.50400001928E-02 0.  1.
       -1   -1    0    0    0  501  0.00000000000E+00  0.00000000000E+00 -0.11618627209E+04  0.11618627209E+04  0.50400001928E-02 0. -1.
    10030    2    1    2    0    0  0.00000000000E+00  0.00000000000E+00 -0.54612492942E+03  0.17776005124E+04  0.16916297299E+04 0.  0.
        1    1    3    3  502    0 -0.51786210199E+03 -0.16188606064E+03 -0.95489449809E+03  0.10982767210E+04  0.50400001928E-02 0. -1.
       -1    1    3    3    0  502  0.51786210199E+03  0.16188606064E+03  0.40876956867E+03  0.67932379143E+03  0.50400001928E-02 0.  1.
</event>
<event>
 5   0  0.1108153E-05  0.2748986E+04  0.7818609E-02  0.8319284E-01
        2   -1    0    0  501    0  0.00000000000E+00  0.00000000000E+00  0.16754163848E+04  0.16754163848E+04  0.25500000920E-02 0.  1.
       -2   -1    0    0    0  501  0.00000000000E+00  0.00000000000E+00 -0.11276186224E+04  0.11276186224E+04  0.25500000920E-02 0. -1.
    10030    2    1    2    0    0  0.00000000000E+00  0.00000000000E+00  0.54779776240E+03  0.28030350072E+04  0.27489857881E+04 0.  0.
        4    1    3    3  502    0  0.12129619224E+04  0.94505079877E+02  0.92602106204E+03  0.15289618882E+04  0.12699999809E+01 0.  1.
       -4    1    3    3    0  502 -0.12129619224E+04 -0.94505079877E+02 -0.37822329964E+03  0.12740731190E+04  0.12699999809E+01 0. -1.
</event>
<event>
 5   0  0.3807334E-06  0.2145012E+04  0.7818609E-02  0.8541670E-01
        1   -1    0    0  501    0  0.00000000000E+00  0.00000000000E+00  0.82345991985E+03  0.82345991987E+03  0.50400001928E-02 0.  1.
       -1   -1    0    0    0  501  0.00000000000E+00  0.00000000000E+00 -0.13968731741E+04  0.13968731741E+04  0.50400001928E-02 0. -1.
    10030    2    1    2    0    0  0.00000000000E+00  0.00000000000E+00 -0.57341325426E+03  0.22203330940E+04  0.21450119552E+04 0.  0.
        4    1    3    3  502    0 -0.70127308776E+03  0.18295563675E+03  0.53163031848E+03  0.89882652223E+03  0.12699999809E+01 0.  1.
       -4    1    3    3    0  502  0.70127308776E+03 -0.18295563675E+03 -0.11050435727E+04  0.13215065718E+04  0.12699999809E+01 0. -1.
</event>
<event>
 5   0  0.1001961E-05  0.3120527E+04  0.7818609E-02  0.8210127E-01
       -2   -1    0    0    0  501  0.00000000000E+00  0.00000000000E+00  0.20285008457E+04  0.20285008457E+04  0.25500000920E-02 0. -1.
        2   -1    0    0  501    0  0.00000000000E+00  0.00000000000E+00 -0.12001087352E+04  0.12001087352E+04  0.25500000920E-02 0.  1.
    10030    2    1    2    0    0  0.00000000000E+00  0.00000000000E+00  0.82839211052E+03  0.32286095809E+04  0.31205266121E+04 0.  0.
        5    1    3    3  502    0  0.17518688822E+03  0.28195096511E+03  0.19915369955E+04  0.20190167129E+04  0.46999998093E+01 0. -1.
       -5    1    3    3    0  502 -0.17518688822E+03 -0.28195096511E+03 -0.11631448850E+04  0.12095928679E+04  0.46999998093E+01 0.  1.
</event>
<event>
 5   0  0.3807334E-06  0.3089904E+04  0.7818609E-02  0.8218514E-01
       -1   -1    0    0    0  501  0.00000000000E+00  0.00000000000E+00  0.11336239287E+04  0.11336239287E+04  0.50400001928E-02 0. -1.
        1   -1    0    0  501    0  0.00000000000E+00  0.00000000000E+00 -0.21055278147E+04  0.21055278147E+04  0.50400001928E-02 0.  1.
    10030    2    1    2    0    0  0.00000000000E+00  0.00000000000E+00 -0.97190388592E+03  0.32391517434E+04  0.30899040201E+04 0.  0.
        4    1    3    3  502    0  0.64389149971E+03 -0.93366684017E+03 -0.15856924463E+04  0.19495517893E+04  0.12699999809E+01 0.  1.
       -4    1    3    3    0  502 -0.64389149971E+03  0.93366684017E+03  0.61378856043E+03  0.12895999541E+04  0.12699999809E+01 0. -1.
</event>
<event>
 5   0  0.3838525E-06  0.3132666E+04  0.7818609E-02  0.8206830E-01
        1   -1    0    0  501    0  0.00000000000E+00  0.00000000000E+00  0.19292489126E+04  0.19292489126E+04  0.50400001928E-02 0.  1.
       -1   -1    0    0    0  501  0.00000000000E+00  0.00000000000E+00 -0.12716857775E+04  0.12716857775E+04  0.50400001928E-02 0. -1.
    10030    2    1    2    0    0  0.00000000000E+00  0.00000000000E+00  0.65756313517E+03  0.32009346901E+04  0.31326655764E+04 0.  0.
        3    1    3    3  502    0  0.27855320846E+03  0.13583002850E+04 -0.41567474160E+03  0.14475348200E+04  0.10100000352E+00 0. -1.
       -3    1    3    3    0  502 -0.27855320846E+03 -0.13583002850E+04  0.10732378768E+04  0.17533998701E+04  0.10100000352E+00 0.  1.
</event>
<event>
 5   0  0.9797278E-06  0.3032303E+04  0.7818609E-02  0.8234566E-01
       -2   -1    0    0    0  501  0.00000000000E+00  0.00000000000E+00  0.12886331768E+04  0.12886331768E+04  0.25500000920E-02 0.  1.
        2   -1    0    0  501    0  0.00000000000E+00  0.00000000000E+00 -0.17838402984E+04  0.17838402984E+04  0.25500000920E-02 0. -1.
    10030    2    1    2    0    0  0.00000000000E+00  0.00000000000E+00 -0.49520712159E+03  0.30724734751E+04  0.30323032767E+04 0.  0.
        1    1    3    3  502    0 -0.56264434317E+03  0.69212888923E+03  0.99464965137E+03  0.13360160872E+04  0.50400001928E-02 0.  1.
       -1    1    3    3    0  502  0.56264434317E+03 -0.69212888923E+03 -0.14898567730E+04  0.17364573879E+04  0.50400001928E-02 0. -1.
</event>
<event>
 5   0  0.3838525E-06  0.3132090E+04  0.7818609E-02  0.8206986E-01
       -1   -1    0    0    0  501  0.00000000000E+00  0.00000000000E+00  0.14543408942E+04  0.14543408942E+04  0.50400001928E-02 0. -1.
        1   -1    0    0  501    0  0.00000000000E+00  0.00000000000E+00 -0.16863291744E+04  0.16863291744E+04  0.50400001928E-02 0.  1.
    10030    2    1    2    0    0  0.00000000000E+00  0.00000000000E+00 -0.23198828016E+03  0.31406700686E+04  0.31320903431E+04 0.  0.
        3    1    3    3  502    0  0.15635867494E+04 -0.52659102201E+02 -0.18633589265E+03  0.15755308880E+04  0.10100000352E+00 0. -1.
       -3    1    3    3    0  502 -0.15635867494E+04  0.52659102201E+02 -0.45652387506E+02  0.15651391806E+04  0.10100000352E+00 0.  1.
</event>
<event>
 5   0  0.9797278E-06  0.2979676E+04  0.7818609E-02  0.8249558E-01
       -2   -1    0    0    0  501  0.00000000000E+00  0.00000000000E+00  0.20377595196E+04  0.20377595196E+04  0.25500000920E-02 0. -1.
        2   -1    0    0  501    0  0.00000000000E+00  0.00000000000E+00 -0.10892442628E+04  0.10892442628E+04  0.25500000920E-02 0.  1.
    10030    2    1    2    0    0  0.00000000000E+00  0.00000000000E+00  0.94851525681E+03  0.31270037824E+04  0.29796764024E+04 0.  0.
        1    1    3    3  502    0 -0.23656987068E+03 -0.23014605289E+03  0.19989107720E+04  0.20259755141E+04  0.50400001928E-02 0. -1.
       -1    1    3    3    0  502  0.23656987068E+03  0.23014605289E+03 -0.10503955152E+04  0.11010282683E+04  0.50400001928E-02 0.  1.
</event>
<event>
 5   0  0.3838525E-06  0.3100684E+04  0.7818609E-02  0.8215550E-01
       -1   -1    0    0    0  501  0.00000000000E+00  0.00000000000E+00  0.12830099990E+04  0.12830099990E+04  0.50400001928E-02 0.  1.
        1   -1    0    0  501    0  0.00000000000E+00  0.00000000000E+00 -0.18733755501E+04  0.18733755501E+04  0.50400001928E-02 0. -1.
    10030    2    1    2    0    0  0.00000000000E+00  0.00000000000E+00 -0.59036555106E+03  0.31563855491E+04  0.31006835134E+04 0.  0.
        3    1    3    3  502    0 -0.12027712226E+04  0.13989177997E+03 -0.12807338811E+04  0.17625287539E+04  0.10100000352E+00 0. -1.
       -3    1    3    3    0  502  0.12027712226E+04 -0.13989177997E+03  0.69036833001E+03  0.13938567951E+04  0.10100000352E+00 0.  1.
</event>
<event>
 5   0  0.4139628E-06  0.3085255E+04  0.7818609E-02  0.8219796E-01
       -1   -1    0    0    0  501  0.00000000000E+00  0.00000000000E+00  0.11865661770E+04  0.11865661770E+04  0.50400001928E-02 0. -1.
        1   -1    0    0  501    0  0.00000000000E+00  0.00000000000E+00 -0.20055351520E+04  0.20055351520E+04  0.50400001928E-02 0.  1.
    10030    2    1    2    0    0  0.00000000000E+00  0.00000000000E+00 -0.81896897498E+03  0.31921013291E+04  0.30852553724E+04 0.  0.
        5    1    3    3  502    0  0.10928918577E+04  0.42609023045E+03  0.62706546933E+03  0.13301122847E+04  0.46999998093E+01 0. -1.
       -5    1    3    3    0  502 -0.10928918577E+04 -0.42609023045E+03 -0.14460344443E+04  0.18619890443E+04  0.46999998093E+01 0.  1.
</event>
<event>
 5   0  0.1108153E-05  0.3101623E+04  0.7818609E-02  0.8215293E-01
        2   -1    0    0  501    0  0.00000000000E+00  0.00000000000E+00  0.20900389912E+04  0.20900389912E+04  0.25500000920E-02 0. -1.
       -2   -1    0    0    0  501  0.00000000000E+00  0.00000000000E+00 -0.11507040190E+04  0.11507040190E+04  0.25500000920E-02 0.  1.
    10030    2    1    2    0    0  0.00000000000E+00  0.00000000000E+00  0.93933497224E+03  0.32407430102E+04  0.31016229732E+04 0.  0.
        4    1    3    3  502    0 -0.67126099778E+03  0.90150686520E+03  0.15861019725E+04  0.19439719738E+04  0.12699999809E+01 0. -1.
       -4    1    3    3    0  502  0.67126099778E+03 -0.90150686520E+03 -0.64676700022E+03  0.12967710363E+04  0.12699999809E+01 0.  1.
</event>
<event>
 5   0  0.1119100E-05  0.1553870E+04  0.7818609E-02  0.8849400E-01
       -2   -1    0    0    0  501  0.00000000000E+00  0.00000000000E+00  0.59053643196E+03  0.59053643196E+03  0.25500000920E-02 0. -1.
        2   -1    0    0  501    0  0.00000000000E+00  0.00000000000E+00 -0.10221685195E+04  0.10221685195E+04  0.25500000920E-02 0.  1.
    10030    2    1    2    0    0  0.00000000000E+00  0.00000000000E+00 -0.43163208759E+03  0.16127049515E+04  0.15538696862E+04 0.  0.
        2    1    3    3  502    0  0.72894119492E+03 -0.12933853818E+03  0.28785395317E+02  0.74088617351E+03  0.25500000920E-02 0. -1.
       -2    1    3    3    0  502 -0.72894119492E+03  0.12933853818E+03 -0.46041748291E+03  0.87181877800E+03  0.25500000920E-02 0.  1.
</event>
<event>
 5   0  0.3807334E-06  0.2747942E+04  0.7818609E-02  0.8319615E-01
       -1   -1    0    0    0  501  0.00000000000E+00  0.00000000000E+00  0.12421637899E+04  0.12421637899E+04  0.50400001928E-02 0. -1.
        1   -1    0    0  501    0  0.00000000000E+00  0.00000000000E+00 -0.15197645538E+04  0.15197645538E+04  0.50400001928E-02 0.  1.
    10030    2    1    2    0    0  0.00000000000E+00  0.00000000000E+00 -0.27760076395E+03  0.27619283437E+04  0.27479421376E+04 0.  0.
        4    1    3    3  502    0  0.65646671790E+03  0.11974799625E+04 -0.29085843835E+03  0.13962474911E+04  0.12699999809E+01 0.  1.
       -4    1    3    3    0  502 -0.65646671790E+03 -0.11974799625E+04  0.13257674400E+02  0.13656808526E+04  0.12699999809E+01 0. -1.
</event>
<event>
 5   0  0.1001961E-05  0.3117389E+04  0.7818609E-02  0.8210982E-01
        2   -1    0    0  501    0  0.00000000000E+00  0.00000000000E+00  0.16651476678E+04  0.16651476678E+04  0.25500000920E-02 0.  1.
       -2   -1    0    0    0  501  0.00000000000E+00  0.00000000000E+00 -0.14590465255E+04  0.14590465255E+04  0.25500000920E-02 0. -1.
    10030    2    1    2    0    0  0.00000000000E+00  0.00000000000E+00  0.20610114225E+03  0.31241941933E+04  0.31173885989E+04 0.  0.
        5    1    3    3  502    0  0.14267889680E+03  0.10595096939E+04 -0.10337042049E+04  0.14871060931E+04  0.46999998093E+01 0. -1.
       -5    1    3    3    0  502 -0.14267889680E+03 -0.10595096939E+04  0.12398053471E+04  0.16370881002E+04  0.46999998093E+01 0.  1.
</event>
<event>
 5   0  0.4250961E-06  0.3021904E+04  0.7818609E-02  0.8237503E-01
        1   -1    0    0  501    0  0.00000000000E+00  0.00000000000E+00  0.19087228715E+04  0.19087228715E+04  0.50400001928E-02 0.  1.
       -1   -1    0    0    0  501  0.00000000000E+00  0.00000000000E+00 -0.11960754261E+04  0.11960754261E+04  0.50400001928E-02 0. -1.
    10030    2    1    2    0    0  0.00000000000E+00  0.00000000000E+00  0.71264744533E+03  0.31047982976E+04  0.30219043809E+04 0.  0.
        1    1    3    3  502    0  0.73258132939E+03  0.42622559482E+03 -0.92884129884E+03  0.12574139415E+04  0.50400001928E-02 0. -1.
       -1    1    3    3    0  502 -0.73258132939E+03 -0.42622559482E+03  0.16414887442E+04  0.18473843561E+04  0.50400001928E-02 0.  1.
</event>
<event>
 5   0  0.1108153E-05  0.3106015E+04  0.7818609E-02  0.8214089E-01
        2   -1    0    0  501    0  0.00000000000E+00  0.00000000000E+00  0.21721198250E+04  0.21721198250E+04  0.25500000920E-02 0.  1.
       -2   -1    0    0    0  501  0.00000000000E+00  0.00000000000E+00 -0.11103588005E+04  0.11103588005E+04  0.25500000920E-02 0. -1.
    10030    2    1    2    0    0  0.00000000000E+00  0.00000000000E+00  0.10617610245E+04  0.32824786255E+04  0.31060150440E+04 0.  0.
        4    1    3    3  502    0  0.13348524791E+04  0.18627412397E+02  0.13694689351E+04  0.19124918035E+04  0.12699999809E+01 0.  1.
       -4    1    3    3    0  502 -0.13348524791E+04 -0.18627412397E+02 -0.30770791063E+03  0.13699868220E+04  0.12699999809E+01 0. -1.
</event>
<event>
 5   0  0.3848286E-06  0.1746988E+04  0.7818609E-02  0.8735010E-01
        1   -1    0    0  501    0  0.00000000000E+00  0.00000000000E+00  0.19693498971E+04  0.19693498971E+04  0.50400001928E-02 0. -1.
       -1   -1    0    0    0  501  0.00000000000E+00  0.00000000000E+00 -0.38743350666E+03  0.38743350670E+03  0.50400001928E-02 0.  1.
    10030    2    1    2    0    0  0.00000000000E+00  0.00000000000E+00  0.15819163904E+04  0.23567834038E+04  0.17469884218E+04 0.  0.
        2    1    3    3  502    0  0.51034768698E+03  0.97121255025E+02  0.17382837999E+04  0.18142540805E+04  0.25500000920E-02 0. -1.
       -2    1    3    3    0  502 -0.51034768698E+03 -0.97121255025E+02 -0.15636740950E+03  0.54252932322E+03  0.25500000920E-02 0.  1.
</event>
<event>
 5   0  0.3848286E-06  0.3020052E+04  0.7818609E-02  0.8238028E-01
        1   -1    0    0  501    0  0.00000000000E+00  0.00000000000E+00  0.22104103494E+04  0.22104103494E+04  0.50400001928E-02 0.  1.
       -1   -1    0    0    0  501  0.00000000000E+00  0.00000000000E+00 -0.10315633232E+04  0.10315633232E+04  0.50400001928E-02 0. -1.
    10030    2    1    2    0    0  0.00000000000E+00  0.00000000000E+00  0.11788470262E+04  0.32419736726E+04  0.30200518178E+04 0.  0.
        2    1    3    3  502    0 -0.10513019059E+04 -0.10795800989E+04  0.69377442398E+03  0.16589309325E+04  0.25500000920E-02 0. -1.
       -2    1    3    3    0  502  0.10513019059E+04  0.10795800989E+04  0.48507260225E+03  0.15830427401E+04  0.25500000920E-02 0.  1.
</event>
<event>
 5   0  0.1119100E-05  0.2816156E+04  0.7818609E-02  0.8298270E-01
        2   -1    0    0  501    0  0.00000000000E+00  0.00000000000E+00  0.15381505483E+04  0.15381505483E+04  0.25500000920E-02 0.  1.
       -2   -1    0    0    0  501  0.00000000000E+00  0.00000000000E+00 -0.12890047920E+04  0.12890047920E+04  0.25500000920E-02 0. -1.
    10030    2    1    2    0    0  0.00000000000E+00  0.00000000000E+00  0.24914575626E+03  0.28271553403E+04  0.28161558391E+04 0.  0.
        2    1    3    3  502    0  0.42266083779E+03 -0.10210734979E+03  0.14690630807E+04  0.15320621494E+04  0.25500000920E-02 0.  1.
       -2    1    3    3    0  502 -0.42266083779E+03  0.10210734979E+03 -0.12199173244E+04  0.12950931909E+04  0.25500000920E-02 0. -1.
</event>
<event>
 5   0  0.4139628E-06  0.2559410E+04  0.7818609E-02  0.8382121E-01
       -1   -1    0    0    0  501  0.00000000000E+00  0.00000000000E+00  0.24098959711E+04  0.24098959711E+04  0.50400001928E-02 0.  1.
        1   -1    0    0  501    0  0.00000000000E+00  0.00000000000E+00 -0.67955023849E+03  0.67955023850E+03  0.50400001928E-02 0. -1.
    10030    2    1    2    0    0  0.00000000000E+00  0.00000000000E+00  0.17303457326E+04  0.30894462096E+04  0.25594103867E+04 0.  0.
        5    1    3    3  502    0  0.12021432407E+04  0.42439722514E+03  0.73096325937E+03  0.14695546102E+04  0.46999998093E+01 0.  1.
       -5    1    3    3    0  502 -0.12021432407E+04 -0.42439722514E+03  0.99938247324E+03  0.16198915994E+04  0.46999998093E+01 0. -1.
</event>
<event>
 5   0  0.3807334E-06  0.3103492E+04  0.7818609E-02  0.8214780E-01
        1   -1    0    0  501    0  0.00000000000E+00  0.00000000000E+00  0.18442899197E+04  0.18442899197E+04  0.50400001928E-02 0.  1.
       -1   -1    0    0    0  501  0.00000000000E+00  0.00000000000E+00 -0.13056058015E+04  0.13056058015E+04  0.50400001928E-02 0. -1.
    10030    2    1    2    0    0  0.00000000000E+00  0.00000000000E+00  0.53868411819E+03  0.31498957212E+04  0.31034919808E+04 0.  0.
        4    1    3    3  502    0 -0.11181209053E+04 -0.25345335152E+03 -0.79198974521E+03  0.13934426180E+04  0.12699999809E+01 0. -1.
       -4    1    3    3    0  502  0.11181209053E+04  0.25345335152E+03  0.13306738634E+04  0.17564531032E+04  0.12699999809E+01 0.  1.
</event>
<event>
 5   0  0.4139628E-06  0.3071921E+04  0.7818609E-02  0.8223486E-01
       -1   -1    0    0    0  501  0.00000000000E+00  0.00000000000E+00  0.14883811426E+04  0.14883811427E+04  0.50400001928E-02 0. -1.
        1   -1    0    0  501    0  0.00000000000E+00  0.00000000000E+00 -0.15850608855E+04  0.15850608855E+04  0.50400001928E-02 0.  1.
    10030    2    1    2    0    0  0.00000000000E+00  0.00000000000E+00 -0.96679742881E+02  0.30734420282E+04  0.30719210485E+04 0.  0.
        5    1    3    3  502    0  0.12531946044E+03  0.11816159020E+04 -0.10220799600E+04  0.15673514735E+04  0.46999998093E+01 0.  1.
       -5    1    3    3    0  502 -0.12531946044E+03 -0.11816159020E+04  0.92540021714E+03  0.15060905546E+04  0.46999998093E+01 0. -1.
</event>
<event>
 5   0  0.1119100E-05  0.2742661E+04  0.7818609E-02  0.8321294E-01
        2   -1    0    0  501    0  0.00000000000E+00  0.00000000000E+00  0.14606676977E+04  0.14606676977E+04  0.25500000920E-02 0.  1.
       -2   -1    0    0    0  501  0.00000000000E+00  0.00000000000E+00 -0.12874575309E+04  0.12874575309E+04  0.25500000920E-02 0. -1.
    10030    2    1    2    0    0  0.00000000000E+00  0.00000000000E+00  0.17321016682E+03  0.27481252286E+04  0.27426612095E+04 0.  0.
        2    1    3    3  502    0 -0.13104334113E+04  0.14546747876E+03  0.46438554203E+03  0.13978735438E+04  0.25500000920E-02 0.  1.
       -2    1    3    3    0  502  0.13104334113E+04 -0.14546747876E+03 -0.29117537521E+03  0.13502516847E+04  0.25500000920E-02 0. -1.
</event>
<event>
 5   0  0.1119100E-05  0.3022983E+04  0.7818609E-02  0.8237198E-01
        2   -1    0    0  501    0  0.00000000000E+00  0.00000000000E+00  0.17931034803E+04  0.17931034803E+04  0.25500000920E-02 0. -1.
       -2   -1    0    0    0  501  0.00000000000E+00  0.00000000000E+00 -0.12741078342E+04  0.12741078342E+04  0.25500000920E-02 0.  1.
    10030    2    1    2    0    0  0.00000000000E+00  0.00000000000E+00  0.51899564612E+03  0.30672113145E+04  0.30229834215E+04 0.  0.
        2    1    3    3  502    0 -0.29527937333E+03  0.88528838275E+03  0.14658767986E+04  0.17377342195E+04  0.25500000920E-02 0. -1.
       -2    1    3    3    0  502  0.29527937333E+03 -0.88528838275E+03 -0.94688115251E+03  0.13294770949E+04  0.25500000920E-02 0.  1.
</event>
<event>
 5   0  0.4250961E-06  0.2743980E+04  0.7818609E-02  0.8320874E-01
        1   -1    0    0  501    0  0.00000000000E+00  0.00000000000E+00  0.22264712446E+04  0.22264712446E+04  0.50400001928E-02 0.  1.
       -1   -1    0    0    0  501  0.00000000000E+00  0.00000000000E+00 -0.84544413654E+03  0.84544413656E+03  0.50400001928E-02 0. -1.
    10030    2    1    2    0    0  0.00000000000E+00  0.00000000000E+00  0.13810271081E+04  0.30719153812E+04  0.27439803636E+04 0.  0.
        1    1    3    3  502    0  0.43931491163E+03 -0.62317997171E+02  0.21439281835E+04  0.21893627339E+04  0.50400001928E-02 0.  1.
       -1    1    3    3    0  502 -0.43931491163E+03  0.62317997171E+02 -0.76290107544E+03  0.88255264731E+03  0.50400001928E-02 0. -1.
</event>
<event>
 5   0  0.1007567E-05  0.3063362E+04  0.7818609E-02  0.8225865E-01
        2   -1    0    0  501    0  0.00000000000E+00  0.00000000000E+00  0.21764536720E+04  0.21764536720E+04  0.25500000920E-02 0.  1.
       -2   -1    0    0    0  501  0.00000000000E+00  0.00000000000E+00 -0.10779220529E+04  0.10779220529E+04  0.25500000920E-02 0. -1.
    10030    2    1    2    0    0  0.00000000000E+00  0.00000000000E+00  0.10985316192E+04  0.32543757249E+04  0.30633624729E+04 0.  0.
        3    1    3    3  502    0  0.80069524525E+02  0.74327283649E+03 -0.87094778612E+03  0.11477873037E+04  0.10100000352E+00 0. -1.
       -3    1    3    3    0  502 -0.80069524525E+02 -0.74327283649E+03  0.19694794053E+04  0.21065884212E+04  0.10100000352E+00 0.  1.
</event>
<event>
 5   0  0.1007567E-05  0.3187194E+04  0.7818609E-02  0.8192207E-01
        2   -1    0    0  501    0  0.00000000000E+00  0.00000000000E+00  0.23256676859E+04  0.23256676859E+04  0.25500000920E-02 0. -1.
       -2   -1    0    0    0  501  0.00000000000E+00  0.00000000000E+00 -0.10919664720E+04  0.10919664720E+04  0.25500000920E-02 0.  1.
    10030    2    1    2    0    0  0.00000000000E+00  0.00000000000E+00  0.12337012138E+04  0.34176341579E+04  0.31871938366E+04 0.  0.
        3    1    3    3  502    0 -0.10975965140E+03  0.59883225105E+03  0.21960510157E+04  0.22788785224E+04  0.10100000352E+00 0. -1.
       -3    1    3    3    0  502  0.10975965140E+03 -0.59883225105E+03 -0.96234980190E+03  0.11387556355E+04  0.10100000352E+00 0.  1.
</event>
<event>
 5   0  0.1108153E-05  0.3081648E+04  0.7818609E-02  0.8220792E-01
        2   -1    0    0  501    0  0.00000000000E+00  0.00000000000E+00  0.21939673753E+04  0.21939673753E+04  0.25500000920E-02 0.  1.
       -2   -1    0    0    0  501  0.00000000000E+00  0.00000000000E+00 -0.10821213642E+04  0.10821213642E+04  0.25500000920E-02 0. -1.
    10030    2    1    2    0    0  0.00000000000E+00  0.00000000000E+00  0.11118460111E+04  0.32760887395E+04  0.30816482402E+04 0.  0.
        4    1    3    3  502    0  0.58227979015E+03 -0.13837772122E+04  0.18727495805E+03  0.15129318060E+04  0.12699999809E+01 0. -1.
       -4    1    3    3    0  502 -0.58227979015E+03  0.13837772122E+04  0.92457105307E+03  0.17631569335E+04  0.12699999809E+01 0.  1.
</event>
<event>
 5   0  0.3807334E-06  0.3065421E+04  0.7818609E-02  0.8225292E-01
       -1   -1    0    0    0  501  0.00000000000E+00  0.00000000000E+00  0.12888373378E+04  0.12888373378E+04  0.50400001928E-02 0. -1.
        1   -1    0    0  501    0  0.00000000000E+00  0.00000000000E+00 -0.18227295146E+04  0.18227295146E+04  0.50400001928E-02 0.  1.
    10030    2    1    2    0    0  0.00000000000E+00  0.00000000000E+00 -0.53389217680E+03  0.31115668523E+04  0.30654212468E+04 0.  0.
        4    1    3    3  502    0 -0.12284350436E+04 -0.89829970520E+03 -0.45191220951E+03  0.15875204801E+04  0.12699999809E+01 0.  1.
       -4    1    3    3    0  502  0.12284350436E+04  0.89829970520E+03 -0.81979967287E+02  0.15240463722E+04  0.12699999809E+01 0. -1.
</event>
<event>
 5   0  0.3807334E-06  0.2881197E+04  0.7818609E-02  0.8278494E-01
       -1   -1    0    0    0  501  0.00000000000E+00  0.00000000000E+00  0.18395691502E+04  0.18395691502E+04  0.50400001928E-02 0. -1.
        1   -1    0    0  501    0  0.00000000000E+00  0.00000000000E+00 -0.11281579165E+04  0.11281579166E+04  0.50400001928E-02 0.  1.
    10030    2    1    2    0    0  0.00000000000E+00  0.00000000000E+00  0.71141123365E+03  0.29677270668E+04  0.28811973205E+04 0.  0.
        4    1    3    3  502    0 -0.27616097877E+03  0.13270033729E+04 -0.14692499759E+03  0.13633750055E+04  0.12699999809E+01 0. -1.
       -4    1    3    3    0  502  0.27616097877E+03 -0.13270033729E+04  0.85833623124E+03  0.16043520613E+04  0.12699999809E+01 0.  1.
</event>
<event>
 5   0  0.1001961E-05  0.3074172E+04  0.7818609E-02  0.8222862E-01
        2   -1    0    0  501    0  0.00000000000E+00  0.00000000000E+00  0.20871463860E+04  0.20871463860E+04  0.25500000920E-02 0.  1.
       -2   -1    0    0    0  501  0.00000000000E+00  0.00000000000E+00 -0.11319921386E+04  0.11319921386E+04  0.25500000920E-02 0. -1.
    10030    2    1    2    0    0  0.00000000000E+00  0.00000000000E+00  0.95515424742E+03  0.32191385246E+04  0.30741719542E+04 0.  0.
        5    1    3    3  502    0  0.95125133603E+03 -0.61214765323E+03 -0.61217371718E+03  0.12862280527E+04  0.46999998093E+01 0. -1.
       -5    1    3    3    0  502 -0.95125133603E+03  0.61214765323E+03  0.15673279646E+04  0.19329104719E+04  0.46999998093E+01 0.  1.
</event>
<event>
 5   0  0.3807334E-06  0.1535995E+04  0.7818609E-02  0.8860863E-01
       -1   -1    0    0    0  501  0.00000000000E+00  0.00000000000E+00  0.59771191777E+03  0.59771191779E+03  0.50400001928E-02 0. -1.
        1   -1    0    0  501    0  0.00000000000E+00  0.00000000000E+00 -0.98679713226E+03  0.98679713228E+03  0.50400001928E-02 0.  1.
    10030    2    1    2    0    0  0.00000000000E+00  0.00000000000E+00 -0.38908521449E+03  0.15845090501E+04  0.15359953208E+04 0.  0.
        4    1    3    3  502    0 -0.69065215105E+02  0.58359677337E+03  0.31550642631E+03  0.66700908222E+03  0.12699999809E+01 0. -1.
       -4    1    3    3    0  502  0.69065215105E+02 -0.58359677337E+03 -0.70459164080E+03  0.91749996785E+03  0.12699999809E+01 0.  1.
</event>
<event>
 5   0  0.1007567E-05  0.2670404E+04  0.7818609E-02  0.8344672E-01
       -2   -1    0    0    0  501  0.00000000000E+00  0.00000000000E+00  0.76899501183E+03  0.76899501184E+03  0.25500000920E-02 0. -1.
        2   -1    0    0  501    0  0.00000000000E+00  0.00000000000E+00 -0.23183042599E+04  0.23183042599E+04  0.25500000920E-02 0.  1.
    10030    2    1    2    0    0  0.00000000000E+00  0.00000000000E+00 -0.15493092481E+04  0.30872992717E+04  0.26704040232E+04 0.  0.
        3    1    3    3  502    0  0.65353526006E+03 -0.59372055718E+03 -0.19325921298E+04  0.21247411105E+04  0.10100000352E+00 0.  1.
       -3    1    3    3    0  502 -0.65353526006E+03  0.59372055718E+03  0.38328288174E+03  0.96255816126E+03  0.10100000352E+00 0. -1.
</event>
<event>
 5   0  0.1007567E-05  0.2966168E+04  0.7818609E-02  0.8253458E-01
       -2   -1    0    0    0  501  0.00000000000E+00  0.00000000000E+00  0.93014621320E+03  0.93014621321E+03  0.25500000920E-02 0. -1.
        2   -1    0    0  501    0  0.00000000000E+00  0.00000000000E+00 -0.23647226727E+04  0.23647226727E+04  0.25500000920E-02 0.  1.
    10030    2    1    2    0    0  0.00000000000E+00  0.00000000000E+00 -0.14345764595E+04  0.32948688859E+04  0.29661677898E+04 0.  0.
        3    1    3    3  502    0  0.33971338211E+03  0.41768475472E+03  0.81775928719E+03  0.97907915834E+03  0.10100000352E+00 0. -1.
       -3    1    3    3    0  502 -0.33971338211E+03 -0.41768475472E+03 -0.22523357466E+04  0.23157897275E+04  0.10100000352E+00 0.  1.
</event>
<event>
 5   0  0.3807334E-06  0.3098959E+04  0.7818609E-02  0.8216024E-01
        1   -1    0    0  501    0  0.00000000000E+00  0.00000000000E+00  0.16542875177E+04  0.16542875177E+04  0.50400001928E-02 0. -1.
       -1   -1    0    0    0  501  0.00000000000E+00  0.00000000000E+00 -0.14513120919E+04  0.14513120919E+04  0.50400001928E-02 0.  1.
    10030    2    1    2    0    0  0.00000000000E+00  0.00000000000E+00  0.20297542580E+03  0.31055996096E+04  0.30989594886E+04 0.  0.
        4    1    3    3  502    0 -0.11808440684E+04  0.14502157140E+03 -0.89334368253E+03  0.14877797277E+04  0.12699999809E+01 0.  1.
       -4    1    3    3    0  502  0.11808440684E+04 -0.14502157140E+03  0.10963191083E+04  0.16178198819E+04  0.12699999809E+01 0. -1.
</event>
<event>
 5   0  0.3838525E-06  0.2013323E+04  0.7818609E-02  0.8600417E-01
        1   -1    0    0  501    0  0.00000000000E+00  0.00000000000E+00  0.51264497666E+03  0.51264497668E+03  0.50400001928E-02 0. -1.
       -1   -1    0    0    0  501  0.00000000000E+00  0.00000000000E+00 -0.19767437841E+04  0.19767437841E+04  0.50400001928E-02 0.  1.
    10030    2    1    2    0    0  0.00000000000E+00  0.00000000000E+00 -0.14640988074E+04  0.24893887608E+04  0.20133233929E+04 0.  0.
        3    1    3    3  502    0 -0.91012232045E+03 -0.42247255027E+03 -0.83221060261E+03  0.13036027735E+04  0.10100000352E+00 0.  1.
       -3    1    3    3    0  502  0.91012232045E+03  0.42247255027E+03 -0.63188820483E+03  0.11857859872E+04  0.10100000352E+00 0. -1.
</event>
<event>
 5   0  0.3807334E-06  0.3103083E+04  0.7818609E-02  0.8214892E-01
        1   -1    0    0  501    0  0.00000000000E+00  0.00000000000E+00  0.16936472312E+04  0.16936472312E+04  0.50400001928E-02 0.  1.
       -1   -1    0    0    0  501  0.00000000000E+00  0.00000000000E+00 -0.14213593322E+04  0.14213593322E+04  0.50400001928E-02 0. -1.
    10030    2    1    2    0    0  0.00000000000E+00  0.00000000000E+00  0.27228789904E+03  0.31150065635E+04  0.31030831749E+04 0.  0.
        4    1    3    3  502    0 -0.54275309630E+03  0.14464291926E+04 -0.77293028208E+01  0.15449270817E+04  0.12699999809E+01 0. -1.
       -4    1    3    3    0  502  0.54275309630E+03 -0.14464291926E+04  0.28001720186E+03  0.15700794817E+04  0.12699999809E+01 0.  1.
</event>
<event>
 5   0  0.1001961E-05  0.3078655E+04  0.7818609E-02  0.8221620E-01
       -2   -1    0    0    0  501  0.00000000000E+00  0.00000000000E+00  0.13512656109E+04  0.13512656109E+04  0.25500000920E-02 0.  1.
        2   -1    0    0  501    0  0.00000000000E+00  0.00000000000E+00 -0.17535623071E+04  0.17535623071E+04  0.25500000920E-02 0. -1.
    10030    2    1    2    0    0  0.00000000000E+00  0.00000000000E+00 -0.40229669616E+03  0.31048279180E+04  0.30786545387E+04 0.  0.
        5    1    3    3  502    0  0.92514590038E+03  0.72473886172E+03 -0.12037657876E+04  0.16823244384E+04  0.46999998093E+01 0. -1.
       -5    1    3    3    0  502 -0.92514590038E+03 -0.72473886172E+03  0.80146909148E+03  0.14225034795E+04  0.46999998093E+01 0.  1.
</event>
<event>
 5   0  0.3807334E-06  0.3035181E+04  0.7818609E-02  0.8233755E-01
        1   -1    0    0  501    0  0.00000000000E+00  0.00000000000E+00  0.11168835891E+04  0.11168835891E+04  0.50400001928E-02 0. -1.
       -1   -1    0    0    0  501  0.00000000000E+00  0.00000000000E+00 -0.20620602780E+04  0.20620602780E+04  0.50400001928E-02 0.  1.
    10030    2    1    2    0    0  0.00000000000E+00  0.00000000000E+00 -0.94517668889E+03  0.31789438672E+04  0.30351812363E+04 0.  0.
        4    1    3    3  502    0  0.50005035841E+03  0.12793585418E+04 -0.11483387664E+04  0.17903888333E+04  0.12699999809E+01 0.  1.
       -4    1    3    3    0  502 -0.50005035841E+03 -0.12793585418E+04  0.20316207747E+03  0.13885550338E+04  0.12699999809E+01 0. -1.
</event>
<event>
 5   0  0.3848286E-06  0.3066904E+04  0.7818609E-02  0.8224880E-01
       -1   -1    0    0    0  501  0.00000000000E+00  0.00000000000E+00  0.11335022980E+04  0.11335022980E+04  0.50400001928E-02 0.  1.
        1   -1    0    0  501    0  0.00000000000E+00  0.00000000000E+00 -0.20745215468E+04  0.20745215468E+04  0.50400001928E-02 0. -1.
    10030    2    1    2    0    0  0.00000000000E+00  0.00000000000E+00 -0.94101924876E+03  0.32080238448E+04  0.30669039375E+04 0.  0.
        2    1    3    3  502    0 -0.23607818165E+03  0.88119690105E+03 -0.17597970824E+04  0.19822024764E+04  0.25500000920E-02 0. -1.
       -2    1    3    3    0  502  0.23607818165E+03 -0.88119690105E+03  0.81877783363E+03  0.12258213684E+04  0.25500000920E-02 0.  1.
</event>
<event>
 5   0  0.4139628E-06  0.2884663E+04  0.7818609E-02  0.8277455E-01
        1   -1    0    0  501    0  0.00000000000E+00  0.00000000000E+00  0.16831142126E+04  0.16831142126E+04  0.50400001928E-02 0.  1.
       -1   -1    0    0    0  501  0.00000000000E+00  0.00000000000E+00 -0.12359948390E+04  0.12359948390E+04  0.50400001928E-02 0. -1.
    10030    2    1    2    0    0  0.00000000000E+00  0.00000000000E+00  0.44711937368E+03  0.29191090516E+04  0.28846632249E+04 0.  0.
        5    1    3    3  502    0 -0.20024427636E+03  0.14034314302E+04 -0.45283240072E+02  0.14183759062E+04  0.46999998093E+01 0. -1.
       -5    1    3    3    0  502  0.20024427636E+03 -0.14034314302E+04  0.49240261375E+03  0.15007331454E+04  0.46999998093E+01 0.  1.
</event>
<event>
 5   0  0.1119100E-05  0.3041428E+04  0.7818609E-02  0.8231999E-01
        2   -1    0    0  501    0  0.00000000000E+00  0.00000000000E+00  0.18641331260E+04  0.18641331260E+04  0.25500000920E-02 0.  1.
       -2   -1    0    0    0  501  0.00000000000E+00  0.00000000000E+00 -0.12405610431E+04  0.12405610431E+04  0.25500000920E-02 0. -1.
    10030    2    1    2    0    0  0.00000000000E+00  0.00000000000E+00  0.62357208293E+03  0.31046941690E+04  0.30414279115E+04 0.  0.
        2    1    3    3  502    0 -0.20233573196E+03 -0.10868250916E+04 -0.75417827109E+03  0.13382501234E+04  0.25500000920E-02 0. -1.
       -2    1    3    3    0  502  0.20233573196E+03  0.10868250916E+04  0.13777503540E+04  0.17664440456E+04  0.25500000920E-02 0.  1.
</event>
<event>
 5   0  0.1108153E-05  0.1699210E+04  0.7818609E-02  0.8761815E-01
       -2   -1    0    0    0  501  0.00000000000E+00  0.00000000000E+00  0.32733123919E+03  0.32733123920E+03  0.25500000920E-02 0. -1.
        2   -1    0    0  501    0  0.00000000000E+00  0.00000000000E+00 -0.22051926624E+04  0.22051926624E+04  0.25500000920E-02 0.  1.
    10030    2    1    2    0    0  0.00000000000E+00  0.00000000000E+00 -0.18778614232E+04  0.25325239016E+04  0.16992097538E+04 0.  0.
        4    1    3    3  502    0 -0.18910756041E+03  0.21491371370E+03 -0.21311465823E+04  0.21502876416E+04  0.12699999809E+01 0.  1.
       -4    1    3    3    0  502  0.18910756041E+03 -0.21491371370E+03  0.25328515905E+03  0.38223625997E+03  0.12699999809E+01 0. -1.
</event>
<event>
 5   0  0.1007567E-05  0.3094795E+04  0.7818609E-02  0.8217168E-01
        2   -1    0    0  501    0  0.00000000000E+00  0.00000000000E+00  0.19573350759E+04  0.19573350759E+04  0.25500000920E-02 0. -1.
       -2   -1    0    0    0  501  0.00000000000E+00  0.00000000000E+00 -0.12233155616E+04  0.12233155616E+04  0.25500000920E-02 0.  1.
    10030    2    1    2    0    0  0.00000000000E+00  0.00000000000E+00  0.73401951427E+03  0.31806506375E+04  0.30947946347E+04 0.  0.
        3    1    3    3  502    0 -0.15178805415E+04 -0.28573483767E+03  0.27041998031E+03  0.15680346653E+04  0.10100000352E+00 0.  1.
       -3    1    3    3    0  502  0.15178805415E+04  0.28573483767E+03  0.46359953395E+03  0.16126159722E+04  0.10100000352E+00 0. -1.
</event>
<event>
 5   0  0.3807334E-06  0.3017183E+04  0.7818609E-02  0.8238841E-01
        1   -1    0    0  501    0  0.00000000000E+00  0.00000000000E+00  0.33756889739E+04  0.33756889739E+04  0.50400001928E-02 0. -1.
       -1   -1    0    0    0  501  0.00000000000E+00  0.00000000000E+00 -0.67418759114E+03  0.67418759116E+03  0.50400001928E-02 0.  1.
    10030    2    1    2    0    0  0.00000000000E+00  0.00000000000E+00  0.27015013828E+04  0.40498765651E+04  0.30171825386E+04 0.  0.
        4    1    3    3  502    0 -0.21454998215E+03  0.10586040562E+04 -0.62891841045E+02  0.10819571337E+04  0.12699999809E+01 0.  1.
       -4    1    3    3    0  502  0.21454998215E+03 -0.10586040562E+04  0.27643932238E+04  0.29679194314E+04  0.12699999809E+01 0. -1.
</event>
<event>
 5   0  0.3838525E-06  0.2599393E+04  0.7818609E-02  0.8368408E-01
        1   -1    0    0  501    0  0.00000000000E+00  0.00000000000E+00  0.16932868676E+04  0.16932868676E+04  0.50400001928E-02 0.  1.
       -1   -1    0    0    0  501  0.00000000000E+00  0.00000000000E+00 -0.99759257817E+03  0.99759257818E+03  0.50400001928E-02 0. -1.
    10030    2    1    2    0    0  0.00000000000E+00  0.00000000000E+00  0.69569428940E+03  0.26908794458E+04  0.25993925535E+04 0.  0.
        3    1    3    3  502    0  0.45464747681E+03  0.70476245799E+03 -0.67998049294E+03  0.10797073360E+04  0.10100000352E+00 0. -1.
       -3    1    3    3    0  502 -0.45464747681E+03 -0.70476245799E+03  0.13756747823E+04  0.16111721098E+04  0.10100000352E+00 0.  1.
</event>
<event>
 5   0  0.4139628E-06  0.3077586E+04  0.7818609E-02  0.8221916E-01
       -1   -1    0    0    0  501  0.00000000000E+00  0.00000000000E+00  0.15337953920E+04  0.15337953920E+04  0.50400001928E-02 0.  1.
        1   -1    0    0  501    0  0.00000000000E+00  0.00000000000E+00 -0.15438068319E+04  0.15438068320E+04  0.50400001928E-02 0. -1.
    10030    2    1    2    0    0  0.00000000000E+00  0.00000000000E+00 -0.10011439943E+02  0.30776022240E+04  0.30775859403E+04 0.  0.
        5    1    3    3  502    0 -0.34999742716E+03 -0.64196338858E+03  0.13489757878E+04  0.15343966102E+04  0.46999998093E+01 0.  1.
       -5    1    3    3    0  502  0.34999742716E+03  0.64196338858E+03 -0.13589872277E+04  0.15432056138E+04  0.46999998093E+01 0. -1.
</event>
<event>
 5   0  0.4139628E-06  0.1795390E+04  0.7818609E-02  0.8708755E-01
        1   -1    0    0  501    0  0.00000000000E+00  0.00000000000E+00  0.10180185784E+04  0.10180185784E+04  0.50400001928E-02 0.  1.
       -1   -1    0    0    0  501  0.00000000000E+00  0.00000000000E+00 -0.79159280967E+03  0.79159280968E+03  0.50400001928E-02 0. -1.
    10030    2    1    2    0    0  0.00000000000E+00  0.00000000000E+00  0.22642576871E+03  0.18096113881E+04  0.17953898594E+04 0.  0.
        5    1    3    3  502    0  0.14050477749E+03  0.78237057439E+03 -0.30721081078E+03  0.85220061044E+03  0.46999998093E+01 0. -1.
       -5    1    3    3    0  502 -0.14050477749E+03 -0.78237057439E+03  0.53363657949E+03  0.95741077764E+03  0.46999998093E+01 0.  1.
</event>
<event>
 5   0  0.1119100E-05  0.3104661E+04  0.7818609E-02  0.8214460E-01
        2   -1    0    0  501    0  0.00000000000E+00  0.00000000000E+00  0.10544978041E+04  0.10544978041E+04  0.25500000920E-02 0.  1.
       -2   -1    0    0    0  501  0.00000000000E+00  0.00000000000E+00 -0.22851922174E+04  0.22851922174E+04  0.25500000920E-02 0. -1.
    10030    2    1    2    0    0  0.00000000000E+00  0.00000000000E+00 -0.12306944132E+04  0.33396900215E+04  0.31046611250E+04 0.  0.
        2    1    3    3  502    0 -0.12137115640E+04  0.93151534414E+03 -0.89773398308E+03  0.17739061140E+04  0.25500000920E-02 0. -1.
       -2    1    3    3    0  502  0.12137115640E+04 -0.93151534414E+03 -0.33296043015E+03  0.15657839075E+04  0.25500000920E-02 0.  1.
</event>
<event>
 5   0  0.1119100E-05  0.3088955E+04  0.7818609E-02  0.8218776E-01
       -2   -1    0    0    0  501  0.00000000000E+00  0.00000000000E+00  0.10910248006E+04  0.10910248006E+04  0.25500000920E-02 0. -1.
        2   -1    0    0  501    0  0.00000000000E+00  0.00000000000E+00 -0.21863947180E+04  0.21863947180E+04  0.25500000920E-02 0.  1.
    10030    2    1    2    0    0  0.00000000000E+00  0.00000000000E+00 -0.10953699174E+04  0.32774195187E+04  0.30889550734E+04 0.  0.
        2    1    3    3  502    0 -0.29088348207E+03 -0.40129670469E+02  0.10611356363E+04  0.11010142729E+04  0.25500000920E-02 0. -1.
       -2    1    3    3    0  502  0.29088348207E+03  0.40129670469E+02 -0.21565055537E+04  0.21764052457E+04  0.25500000920E-02 0.  1.
</event>
<event>
 5   0  0.3838525E-06  0.3094416E+04  0.7818609E-02  0.8217272E-01
       -1   -1    0    0    0  501  0.00000000000E+00  0.00000000000E+00  0.13799661050E+04  0.13799661050E+04  0.50400001928E-02 0. -1.
        1   -1    0    0  501    0  0.00000000000E+00  0.00000000000E+00 -0.17347188708E+04  0.17347188708E+04  0.50400001928E-02 0.  1.
    10030    2    1    2    0    0  0.00000000000E+00  0.00000000000E+00 -0.35475276579E+03  0.31146849758E+04  0.30944164189E+04 0.  0.
        3    1    3    3  502    0 -0.96887869254E+03 -0.14662136745E+03 -0.13825617048E+04  0.16946092836E+04  0.10100000352E+00 0.  1.
       -3    1    3    3    0  502  0.96887869254E+03  0.14662136745E+03  0.10278089390E+04  0.14200756922E+04  0.10100000352E+00 0. -1.
</event>
<event>
 5   0  0.4250961E-06  0.3056824E+04  0.7818609E-02  0.8227688E-01
       -1   -1    0    0    0  501  0.00000000000E+00  0.00000000000E+00  0.90341602541E+03  0.90341602542E+03  0.50400001928E-02 0. -1.
        1   -1    0    0  501    0  0.00000000000E+00  0.00000000000E+00 -0.25857888805E+04  0.25857888805E+04  0.50400001928E-02 0.  1.
    10030    2    1    2    0    0  0.00000000000E+00  0.00000000000E+00 -0.16823728551E+04  0.34892049060E+04  0.30568239158E+04 0.  0.
        1    1    3    3  502    0  0.13566385489E+04  0.64131880249E+03 -0.11725704728E+04  0.19043842764E+04  0.50400001928E-02 0. -1.
       -1    1    3    3    0  502 -0.13566385489E+04 -0.64131880249E+03 -0.50980238234E+03  0.15848206295E+04  0.50400001928E-02 0.  1.
</event>
<event>
 5   0  0.1007567E-05  0.3068846E+04  0.7818609E-02  0.8224340E-01
       -2   -1    0    0    0  501  0.00000000000E+00  0.00000000000E+00  0.11223933591E+04  0.11223933591E+04  0.25500000920E-02 0.  1.
        2   -1    0    0  501    0  0.00000000000E+00  0.00000000000E+00 -0.20977080634E+04  0.20977080634E+04  0.25500000920E-02 0. -1.
    10030    2    1    2    0    0  0.00000000000E+00  0.00000000000E+00 -0.97531470431E+03  0.32201014226E+04  0.30688457764E+04 0.  0.
        3    1    3    3  502    0  0.22134457582E+03 -0.69069802380E+03 -0.19064850787E+04  0.20397898291E+04  0.10100000352E+00 0. -1.
       -3    1    3    3    0  502 -0.22134457582E+03  0.69069802380E+03  0.93117037440E+03  0.11803115935E+04  0.10100000352E+00 0.  1.
</event>
<event>
 5   0  0.1001961E-05  0.3112231E+04  0.7818609E-02  0.8212389E-01
       -2   -1    0    0    0  501  0.00000000000E+00  0.00000000000E+00  0.15752519886E+04  0.15752519886E+04  0.25500000920E-02 0.  1.
        2   -1    0    0  501    0  0.00000000000E+00  0.00000000000E+00 -0.15372115493E+04  0.15372115493E+04  0.25500000920E-02 0. -1.
    10030    2    1    2    0    0  0.00000000000E+00  0.00000000000E+00  0.38040439306E+02  0.31124635378E+04  0.31122310646E+04 0.  0.
        5    1    3    3  502    0  0.19439709367E+03  0.63732813791E+03 -0.13873195366E+04  0.15390435251E+04  0.46999998093E+01 0. -1.
       -5    1    3    3    0  502 -0.19439709367E+03 -0.63732813791E+03  0.14253599759E+04  0.15734200127E+04  0.46999998093E+01 0.  1.
</event>
<event>
 5   0  0.3848286E-06  0.3085667E+04  0.7818609E-02  0.8219683E-01
       -1   -1    0    0    0  501  0.00000000000E+00  0.00000000000E+00  0.10851658954E+04  0.10851658954E+04  0.50400001928E-02 0. -1.
        1   -1    0    0  501    0  0.00000000000E+00  0.00000000000E+00 -0.21935218367E+04  0.21935218367E+04  0.50400001928E-02 0.  1.
    10030    2    1    2    0    0  0.00000000000E+00  0.00000000000E+00 -0.11083559413E+04  0.32786877321E+04  0.30856669217E+04 0.  0.
        2    1    3    3  502    0  0.45855939040E+02 -0.26974047890E+02  0.10841909646E+04  0.10854954694E+04  0.25500000920E-02 0. -1.
       -2    1    3    3    0  502 -0.45855939040E+02  0.26974047890E+02 -0.21925469059E+04  0.21931922627E+04  0.25500000920E-02 0.  1.
</event>
<event>
 5   0  0.3848286E-06  0.3109222E+04  0.7818609E-02  0.8213212E-01
       -1   -1    0    0    0  501  0.00000000000E+00  0.00000000000E+00  0.17650164830E+04  0.17650164830E+04  0.50400001928E-02 0.  1.
        1   -1    0    0  501    0  0.00000000000E+00  0.00000000000E+00 -0.13692875107E+04  0.13692875107E+04  0.50400001928E-02 0. -1.
    10030    2    1    2    0    0  0.00000000000E+00  0.00000000000E+00  0.39572897237E+03  0.31343039937E+04  0.31092217846E+04 0.  0.
        2    1    3    3  502    0  0.99669563845E+03 -0.11240087525E+04  0.60111291742E+03  0.16180650824E+04  0.25500000920E-02 0. -1.
       -2    1    3    3    0  502 -0.99669563845E+03  0.11240087525E+04 -0.20538394505E+03  0.15162389113E+04  0.25500000920E-02 0.  1.
</event>
<event>
 5   0  0.3838525E-06  0.3008112E+04  0.7818609E-02  0.8241418E-01
        1   -1    0    0  501    0  0.00000000000E+00  0.00000000000E+00  0.19702279855E+04  0.19702279856E+04  0.50400001928E-02 0.  1.
       -1   -1    0    0    0  501  0.00000000000E+00  0.00000000000E+00 -0.11481838742E+04  0.11481838742E+04  0.50400001928E-02 0. -1.
    10030    2    1    2    0    0  0.00000000000E+00  0.00000000000E+00  0.82204411137E+03  0.31184118597E+04  0.30081117010E+04 0.  0.
        3    1    3    3  502    0  0.76084187572E+03  0.10141246526E+04 -0.42788148782E+03  0.13380626849E+04  0.10100000352E+00 0. -1.
       -3    1    3    3    0  502 -0.76084187572E+03 -0.10141246526E+04  0.12499255992E+04  0.17803491749E+04  0.10100000352E+00 0.  1.
</event>
<event>
 5   0  0.1007567E-05  0.2106498E+04  0.7818609E-02  0.8558386E-01
       -2   -1    0    0    0  501  0.00000000000E+00  0.00000000000E+00  0.79054564604E+03  0.79054564604E+03  0.25500000920E-02 0.  1.
        2   -1    0    0  501    0  0.00000000000E+00  0.00000000000E+00 -0.14032499604E+04  0.14032499604E+04  0.25500000920E-02 0. -1.
    10030    2    1    2    0    0  0.00000000000E+00  0.00000000000E+00 -0.61270431439E+03  0.21937956065E+04  0.21064977062E+04 0.  0.
        3    1    3    3  502    0 -0.10383986060E+03 -0.77951624142E+03 -0.10360344928E+04  0.13006904965E+04  0.10100000352E+00 0. -1.
       -3    1    3    3    0  502  0.10383986060E+03  0.77951624142E+03  0.42333017841E+03  0.89310510996E+03  0.10100000352E+00 0.  1.
</event>
<event>
 5   0  0.4139628E-06  0.3162846E+04  0.7818609E-02  0.8198699E-01
        1   -1    0    0  501    0  0.00000000000E+00  0.00000000000E+00  0.13162817381E+04  0.13162817381E+04  0.50400001928E-02 0. -1.
       -1   -1    0    0    0  501  0.00000000000E+00  0.00000000000E+00 -0.18999719902E+04  0.18999719902E+04  0.50400001928E-02 0.  1.
    10030    2    1    2    0    0  0.00000000000E+00  0.00000000000E+00 -0.58369025211E+03  0.32162537283E+04  0.31628458285E+04 0.  0.
        5    1    3    3  502    0 -0.13607110540E+04 -0.54910614617E+03 -0.89157016922E+03  0.17169658089E+04  0.46999998093E+01 0.  1.
       -5    1    3    3    0  502  0.13607110540E+04  0.54910614617E+03  0.30787991712E+03  0.14992879195E+04  0.46999998093E+01 0. -1.
</event>
<event>
 5   0  0.3848286E-06  0.3088822E+04  0.7818609E-02  0.8218812E-01
       -1   -1    0    0    0  501  0.00000000000E+00  0.00000000000E+00  0.14572654134E+04  0.14572654134E+04  0.50400001928E-02 0. -1.
        1   -1    0    0  501    0  0.00000000000E+00  0.00000000000E+00 -0.16367675806E+04  0.16367675806E+04  0.50400001928E-02 0.  1.
    10030    2    1    2    0    0  0.00000000000E+00  0.00000000000E+00 -0.17950216720E+03  0.30940329940E+04  0.30888216427E+04 0.  0.
        2    1    3    3  502    0  0.26122628177E+03 -0.86976215605E+03 -0.13410501768E+04  0.16196113593E+04  0.25500000920E-02 0.  1.
       -2    1    3    3    0  502 -0.26122628177E+03  0.86976215605E+03  0.11615480096E+04  0.14744216348E+04  0.25500000920E-02 0. -1.
</event>
<event>
 5   0  0.1007567E-05  0.1549953E+04  0.7818609E-02  0.8851898E-01
        2   -1    0    0  501    0  0.00000000000E+00  0.00000000000E+00  0.13941826664E+04  0.13941826664E+04  0.25500000920E-02 0. -1.
       -2   -1    0    0    0  501  0.00000000000E+00  0.00000000000E+00 -0.43078167669E+03  0.43078167670E+03  0.25500000920E-02 0.  1.
    10030    2    1    2    0    0  0.00000000000E+00  0.00000000000E+00  0.96340098975E+03  0.18249643431E+04  0.15499527047E+04 0.  0.
        3    1    3    3  502    0 -0.65007235583E+03  0.43688034227E+00  0.97845145311E+03  0.11747176320E+04  0.10100000352E+00 0. -1.
       -3    1    3    3    0  502  0.65007235583E+03 -0.43688034227E+00 -0.15050463361E+02  0.65024671112E+03  0.10100000352E+00 0.  1.
</event>
<event>
 5   0  0.1001961E-05  0.2830287E+04  0.7818609E-02  0.8293927E-01
        2   -1    0    0  501    0  0.00000000000E+00  0.00000000000E+00  0.21227380002E+04  0.21227380002E+04  0.25500000920E-02 0. -1.
       -2   -1    0    0    0  501  0.00000000000E+00  0.00000000000E+00 -0.94341890492E+03  0.94341890492E+03  0.25500000920E-02 0.  1.
    10030    2    1    2    0    0  0.00000000000E+00  0.00000000000E+00  0.11793190953E+04  0.30661569051E+04  0.28302870240E+04 0.  0.
        5    1    3    3  502    0  0.39480293098E+03  0.77612825930E+03 -0.61881560672E+03  0.10682692892E+04  0.46999998093E+01 0.  1.
       -5    1    3    3    0  502 -0.39480293098E+03 -0.77612825930E+03  0.17981347020E+04  0.19978876159E+04  0.46999998093E+01 0. -1.
</event>
<event>
 5   0  0.1001961E-05  0.1796410E+04  0.7818609E-02  0.8708211E-01
        2   -1    0    0  501    0  0.00000000000E+00  0.00000000000E+00  0.91995207184E+03  0.91995207184E+03  0.25500000920E-02 0.  1.
       -2   -1    0    0    0  501  0.00000000000E+00  0.00000000000E+00 -0.87697213855E+03  0.87697213856E+03  0.25500000920E-02 0. -1.
    10030    2    1    2    0    0  0.00000000000E+00  0.00000000000E+00  0.42979933285E+02  0.17969242104E+04  0.17964101267E+04 0.  0.
        5    1    3    3  502    0 -0.86572477262E+03  0.76133645853E+02 -0.20545495464E+03  0.89303389764E+03  0.46999998093E+01 0.  1.
       -5    1    3    3    0  502  0.86572477262E+03 -0.76133645853E+02  0.24843488792E+03  0.90389031276E+03  0.46999998093E+01 0. -1.
</event>
<event>
 5   0  0.1001961E-05  0.2416660E+04  0.7818609E-02  0.8433293E-01
        2   -1    0    0  501    0  0.00000000000E+00  0.00000000000E+00  0.16265941858E+04  0.16265941858E+04  0.25500000920E-02 0.  1.
       -2   -1    0    0    0  501  0.00000000000E+00  0.00000000000E+00 -0.89761842915E+03  0.89761842915E+03  0.25500000920E-02 0. -1.
    10030    2    1    2    0    0  0.00000000000E+00  0.00000000000E+00  0.72897575669E+03  0.25242126150E+04  0.24166596102E+04 0.  0.
        5    1    3    3  502    0  0.11764645223E+04  0.14006479583E+03  0.11653750598E+03  0.11904998948E+04  0.46999998093E+01 0. -1.
       -5    1    3    3    0  502 -0.11764645223E+04 -0.14006479583E+03  0.61243825071E+03  0.13337127202E+04  0.46999998093E+01 0.  1.
</event>
<event>
 5   0  0.1119100E-05  0.2226541E+04  0.7818609E-02  0.8507462E-01
       -2   -1    0    0    0  501  0.00000000000E+00  0.00000000000E+00  0.75995749410E+03  0.75995749410E+03  0.25500000920E-02 0. -1.
        2   -1    0    0  501    0  0.00000000000E+00  0.00000000000E+00 -0.16308423395E+04  0.16308423395E+04  0.25500000920E-02 0.  1.
    10030    2    1    2    0    0  0.00000000000E+00  0.00000000000E+00 -0.87088484538E+03  0.23907998336E+04  0.22265406869E+04 0.  0.
        2    1    3    3  502    0 -0.62592172430E+03 -0.36793871746E+03  0.47074456164E+03  0.86530766036E+03  0.25500000920E-02 0. -1.
       -2    1    3    3    0  502  0.62592172430E+03  0.36793871746E+03 -0.13416294070E+04  0.15254921732E+04  0.25500000920E-02 0.  1.
</event>
<event>
 5   0  0.1108153E-05  0.2749464E+04  0.7818609E-02  0.8319132E-01
       -2   -1    0    0    0  501  0.00000000000E+00  0.00000000000E+00  0.12164087129E+04  0.12164087129E+04  0.25500000920E-02 0. -1.
        2   -1    0    0  501    0  0.00000000000E+00  0.00000000000E+00 -0.15536625536E+04  0.15536625536E+04  0.25500000920E-02 0.  1.
    10030    2    1    2    0    0  0.00000000000E+00  0.00000000000E+00 -0.33725384068E+03  0.27700712664E+04  0.27494644330E+04 0.  0.
        4    1    3    3  502    0 -0.56257899258E+03 -0.20937376159E+03  0.10773939678E+04  0.12333336409E+04  0.12699999809E+01 0. -1.
       -4    1    3    3    0  502  0.56257899258E+03  0.20937376159E+03 -0.14146478085E+04  0.15367376256E+04  0.12699999809E+01 0.  1.
</event>
<event>
 5   0  0.1007567E-05  0.3108472E+04  0.7818609E-02  0.8213417E-01
       -2   -1    0    0    0  501  0.00000000000E+00  0.00000000000E+00  0.15128713175E+04  0.15128713175E+04  0.25500000920E-02 0.  1.
        2   -1    0    0  501    0  0.00000000000E+00  0.00000000000E+00 -0.15967313477E+04  0.15967313477E+04  0.25500000920E-02 0. -1.
    10030    2    1    2    0    0  0.00000000000E+00  0.00000000000E+00 -0.83860030154E+02  0.31096026652E+04  0.31084716873E+04 0.  0.
        3    1    3    3  502    0  0.19790883621E+01  0.96159511151E+03 -0.12634311889E+04  0.15877428805E+04  0.10100000352E+00 0. -1.
       -3    1    3    3    0  502 -0.19790883621E+01 -0.96159511151E+03  0.11795711588E+04  0.15218597846E+04  0.10100000352E+00 0.  1.
</event>
<event>
 5   0  0.1001961E-05  0.3025016E+04  0.7818609E-02  0.8236623E-01
        2   -1    0    0  501    0  0.00000000000E+00  0.00000000000E+00  0.19950664105E+04  0.19950664105E+04  0.25500000920E-02 0. -1.
       -2   -1    0    0    0  501  0.00000000000E+00  0.00000000000E+00 -0.11466688861E+04  0.11466688861E+04  0.25500000920E-02 0.  1.
    10030    2    1    2    0    0  0.00000000000E+00  0.00000000000E+00  0.84839752438E+03  0.31417352966E+04  0.30250160850E+04 0.  0.
        5    1    3    3  502    0  0.10124051122E+04  0.19645652765E+03 -0.72488109522E+03  0.12605689076E+04  0.46999998093E+01 0.  1.
       -5    1    3    3    0  502 -0.10124051122E+04 -0.19645652765E+03  0.15732786196E+04  0.18811663891E+04  0.46999998093E+01 0. -1.
</event>
<event>
 5   0  0.9797278E-06  0.3174303E+04  0.7818609E-02  0.8195637E-01
        2   -1    0    0  501    0  0.00000000000E+00  0.00000000000E+00  0.15392327858E+04  0.15392327858E+04  0.25500000920E-02 0. -1.
       -2   -1    0    0    0  501  0.00000000000E+00  0.00000000000E+00 -0.16365621448E+04  0.16365621448E+04  0.25500000920E-02 0.  1.
    10030    2    1    2    0    0  0.00000000000E+00  0.00000000000E+00 -0.97329358951E+02  0.31757949306E+04  0.31743031419E+04 0.  0.
        1    1    3    3  502    0 -0.25072020354E+03 -0.15169972712E+04  0.34510480052E+03  0.15758295163E+04  0.50400001928E-02 0.  1.
       -1    1    3    3    0  502  0.25072020354E+03  0.15169972712E+04 -0.44243415947E+03  0.15999654142E+04  0.50400001928E-02 0. -1.
</event>
<event>
 5   0  0.3493125E-06  0.1708102E+04  0.7818609E-02  0.8756757E-01
        3   -1    0    0  501    0  0.00000000000E+00  0.00000000000E+00  0.49430768634E+03  0.49430769666E+03  0.10100000352E+00 0. -1.
       -3   -1    0    0    0  501  0.00000000000E+00  0.00000000000E+00 -0.14756052666E+04  0.14756052701E+04  0.10100000352E+00 0.  1.
    10030    2    1    2    0    0  0.00000000000E+00  0.00000000000E+00 -0.98129758029E+03  0.19699129668E+04  0.17081019160E+04 0.  0.
        3    1    3    3  502    0  0.49410417810E+03 -0.76689872226E+02  0.30785036652E+03  0.58719003200E+03  0.10100000352E+00 0. -1.
       -3    1    3    3    0  502 -0.49410417810E+03  0.76689872226E+02 -0.12891479468E+04  0.13827229348E+04  0.10100000352E+00 0.  1.
</event>
<event>
 5   0  0.9797278E-06  0.3103847E+04  0.7818609E-02  0.8214683E-01
        2   -1    0    0  501    0  0.00000000000E+00  0.00000000000E+00  0.11725140885E+04  0.11725140885E+04  0.25500000920E-02 0.  1.
       -2   -1    0    0    0  501  0.00000000000E+00  0.00000000000E+00 -0.20541049030E+04  0.20541049030E+04  0.25500000920E-02 0. -1.
    10030    2    1    2    0    0  0.00000000000E+00  0.00000000000E+00 -0.88159081458E+03  0.32266189915E+04  0.31038472501E+04 0.  0.
        1    1    3    3  502    0 -0.98265671842E+03 -0.11735948689E+04 -0.17468606326E+03  0.15406019483E+04  0.50400001928E-02 0.  1.
       -1    1    3    3    0  502  0.98265671842E+03  0.11735948689E+04 -0.70690475132E+03  0.16860170432E+04  0.50400001928E-02 0. -1.
</event>
<event>
 5   0  0.3848286E-06  0.3081585E+04  0.7818609E-02  0.8220810E-01
       -1   -1    0    0    0  501  0.00000000000E+00  0.00000000000E+00  0.97600089707E+03  0.97600089708E+03  0.50400001928E-02 0.  1.
        1   -1    0    0  501    0  0.00000000000E+00  0.00000000000E+00 -0.24324178487E+04  0.24324178487E+04  0.50400001928E-02 0. -1.
    10030    2    1    2    0    0  0.00000000000E+00  0.00000000000E+00 -0.14564169516E+04  0.34084187457E+04  0.30815853078E+04 0.  0.
        2    1    3    3  502    0  0.13334776645E+04 -0.16597261886E+03  0.10562621980E+03  0.13479119000E+04  0.25500000920E-02 0.  1.
       -2    1    3    3    0  502 -0.13334776645E+04  0.16597261886E+03 -0.15620431714E+04  0.20605068457E+04  0.25500000920E-02 0. -1.
</event>
<event>
 5   0  0.1007567E-05  0.3046404E+04  0.7818609E-02  0.8230603E-01
        2   -1    0    0  501    0  0.00000000000E+00  0.00000000000E+00  0.20273090522E+04  0.20273090522E+04  0.25500000920E-02 0. -1.
       -2   -1    0    0    0  501  0.00000000000E+00  0.00000000000E+00 -0.11444456205E+04  0.11444456205E+04  0.25500000920E-02 0.  1.
    10030    2    1    2    0    0  0.00000000000E+00  0.00000000000E+00  0.88286343165E+03  0.31717546727E+04  0.30464044158E+04 0.  0.
        3    1    3    3  502    0  0.72792016151E+03  0.99049853688E+03 -0.49513181693E+03  0.13251832475E+04  0.10100000352E+00 0.  1.
       -3    1    3    3    0  502 -0.72792016151E+03 -0.99049853688E+03  0.13779952486E+04  0.18465714252E+04  0.10100000352E+00 0. -1.
</event>
<event>
 5   0  0.3807334E-06  0.3081027E+04  0.7818609E-02  0.8220964E-01
        1   -1    0    0  501    0  0.00000000000E+00  0.00000000000E+00  0.14546514951E+04  0.14546514951E+04  0.50400001928E-02 0. -1.
       -1   -1    0    0    0  501  0.00000000000E+00  0.00000000000E+00 -0.16314431932E+04  0.16314431932E+04  0.50400001928E-02 0.  1.
    10030    2    1    2    0    0  0.00000000000E+00  0.00000000000E+00 -0.17679169805E+03  0.30860946883E+04  0.30810266342E+04 0.  0.
        4    1    3    3  502    0 -0.11357927178E+03 -0.45747284806E+03 -0.15574364493E+04  0.16272036026E+04  0.12699999809E+01 0.  1.
       -4    1    3    3    0  502  0.11357927178E+03  0.45747284806E+03  0.13806447513E+04  0.14588910857E+04  0.12699999809E+01 0. -1.
</event>
<event>
 5   0  0.4250961E-06  0.2604631E+04  0.7818609E-02  0.8366630E-01
       -1   -1    0    0    0  501  0.00000000000E+00  0.00000000000E+00  0.11506534887E+04  0.11506534887E+04  0.50400001928E-02 0.  1.
        1   -1    0    0  501    0  0.00000000000E+00  0.00000000000E+00 -0.14739672832E+04  0.14739672832E+04  0.50400001928E-02 0. -1.
    10030    2    1    2    0    0  0.00000000000E+00  0.00000000000E+00 -0.32331379444E+03  0.26246207719E+04  0.26046309502E+04 0.  0.
        1    1    3    3  502    0  0.15716055015E+03  0.74710391162E+03  0.90150531487E+03  0.11813447956E+04  0.50400001928E-02 0.  1.
       -1    1    3    3    0  502 -0.15716055015E+03 -0.74710391162E+03 -0.12248191093E+04  0.14432759763E+04  0.50400001928E-02 0. -1.
</event>
<event>
 5   0  0.4139628E-06  0.3124469E+04  0.7818609E-02  0.8209055E-01
        1   -1    0    0  501    0  0.00000000000E+00  0.00000000000E+00  0.30238905792E+04  0.30238905792E+04  0.50400001928E-02 0. -1.
       -1   -1    0    0    0  501  0.00000000000E+00  0.00000000000E+00 -0.80709798431E+03  0.80709798433E+03  0.50400001928E-02 0.  1.
    10030    2    1    2    0    0  0.00000000000E+00  0.00000000000E+00  0.22167925949E+04  0.38309885636E+04  0.31244685893E+04 0.  0.
        5    1    3    3  502    0  0.69168847899E+03  0.12408823668E+04  0.19052188843E+04  0.23765738128E+04  0.46999998093E+01 0.  1.
       -5    1    3    3    0  502 -0.69168847899E+03 -0.12408823668E+04  0.31157371058E+03  0.14544147508E+04  0.46999998093E+01 0. -1.
</event>
<event>
 5   0  0.1108153E-05  0.2868940E+04  0.7818609E-02  0.8282179E-01
        2   -1    0    0  501    0  0.00000000000E+00  0.00000000000E+00  0.20374936899E+04  0.20374936899E+04  0.25500000920E-02 0.  1.
       -2   -1    0    0    0  501  0.00000000000E+00  0.00000000000E+00 -0.10099195424E+04  0.10099195424E+04  0.25500000920E-02 0. -1.
    10030    2    1    2    0    0  0.00000000000E+00  0.00000000000E+00  0.10275741474E+04  0.30474132323E+04  0.28689403584E+04 0.  0.
        4    1    3    3  502    0 -0.64058217498E+03 -0.55425317415E+03  0.17434563247E+04  0.19383456020E+04  0.12699999809E+01 0.  1.
       -4    1    3    3    0  502  0.64058217498E+03  0.55425317415E+03 -0.71588217723E+03  0.11090676303E+04  0.12699999809E+01 0. -1.
</event>
<event>
 5   0  0.3848286E-06  0.2595505E+04  0.7818609E-02  0.8369730E-01
        1   -1    0    0  501    0  0.00000000000E+00  0.00000000000E+00  0.20669191321E+04  0.20669191321E+04  0.50400001928E-02 0.  1.
       -1   -1    0    0    0  501  0.00000000000E+00  0.00000000000E+00 -0.81481756716E+03  0.81481756717E+03  0.50400001928E-02 0. -1.
    10030    2    1    2    0    0  0.00000000000E+00  0.00000000000E+00  0.12521015650E+04  0.28817366993E+04  0.25955053603E+04 0.  0.
        2    1    3    3  502    0  0.29325582805E+03 -0.90923664279E+03  0.16012352063E+04  0.18645815721E+04  0.25500000920E-02 0.  1.
       -2    1    3    3    0  502 -0.29325582805E+03  0.90923664279E+03 -0.34913364130E+03  0.10171551272E+04  0.25500000920E-02 0. -1.
</event>
<event>
 5   0  0.1119100E-05  0.3213292E+04  0.7818609E-02  0.8185315E-01
        2   -1    0    0  501    0  0.00000000000E+00  0.00000000000E+00  0.19617743285E+04  0.19617743285E+04  0.25500000920E-02 0. -1.
       -2   -1    0    0    0  501  0.00000000000E+00  0.00000000000E+00 -0.13158047975E+04  0.13158047975E+04  0.25500000920E-02 0.  1.
    10030    2    1    2    0    0  0.00000000000E+00  0.00000000000E+00  0.64596953094E+03  0.32775791260E+04  0.32132924380E+04 0.  0.
        2    1    3    3  502    0  0.15634288956E+04  0.74348060997E+02  0.69283316364E+03  0.17116820202E+04  0.25500000920E-02 0. -1.
       -2    1    3    3    0  502 -0.15634288956E+04 -0.74348060997E+02 -0.46863632700E+02  0.15658971058E+04  0.25500000920E-02 0.  1.
</event>
<event>
 5   0  0.9797278E-06  0.2930488E+04  0.7818609E-02  0.8263864E-01
       -2   -1    0    0    0  501  0.00000000000E+00  0.00000000000E+00  0.16964578726E+04  0.16964578726E+04  0.25500000920E-02 0.  1.
        2   -1    0    0  501    0  0.00000000000E+00  0.00000000000E+00 -0.12655425718E+04  0.12655425718E+04  0.25500000920E-02 0. -1.
    10030    2    1    2    0    0  0.00000000000E+00  0.00000000000E+00  0.43091530082E+03  0.29620004443E+04  0.29304877812E+04 0.  0.
        1    1    3    3  502    0 -0.14183278945E+04 -0.28015680537E+03  0.45634333336E+03  0.15160445540E+04  0.50400001928E-02 0.  1.
       -1    1    3    3    0  502  0.14183278945E+04  0.28015680537E+03 -0.25428032544E+02  0.14459558903E+04  0.50400001928E-02 0. -1.
</event>
<event>
 5   0  0.1001961E-05  0.2974687E+04  0.7818609E-02  0.8250996E-01
        2   -1    0    0  501    0  0.00000000000E+00  0.00000000000E+00  0.13564834500E+04  0.13564834500E+04  0.25500000920E-02 0.  1.
       -2   -1    0    0    0  501  0.00000000000E+00  0.00000000000E+00 -0.16308271103E+04  0.16308271103E+04  0.25500000920E-02 0. -1.
    10030    2    1    2    0    0  0.00000000000E+00  0.00000000000E+00 -0.27434366030E+03  0.29873105603E+04  0.29746865279E+04 0.  0.
        5    1    3    3  502    0  0.95934253051E+03 -0.11056241913E+04 -0.40177616850E+03  0.15179555734E+04  0.46999998093E+01 0.  1.
       -5    1    3    3    0  502 -0.95934253051E+03  0.11056241913E+04  0.12743250820E+03  0.14693549869E+04  0.46999998093E+01 0. -1.
</event>
<event>
 5   0  0.3848286E-06  0.3033455E+04  0.7818609E-02  0.8234242E-01
       -1   -1    0    0    0  501  0.00000000000E+00  0.00000000000E+00  0.14274319842E+04  0.14274319842E+04  0.50400001928E-02 0. -1.
        1   -1    0    0  501    0  0.00000000000E+00  0.00000000000E+00 -0.16116091370E+04  0.16116091371E+04  0.50400001928E-02 0.  1.
    10030    2    1    2    0    0  0.00000000000E+00  0.00000000000E+00 -0.18417715283E+03  0.30390411213E+04  0.30334550785E+04 0.  0.
        2    1    3    3  502    0 -0.46982805130E+03 -0.70266584607E+02  0.13509758795E+04  0.14320655075E+04  0.25500000920E-02 0. -1.
       -2    1    3    3    0  502  0.46982805130E+03  0.70266584607E+02 -0.15351530323E+04  0.16069756138E+04  0.25500000920E-02 0.  1.
</event>
<event>
 5   0  0.3807334E-06  0.3132552E+04  0.7818609E-02  0.8206861E-01
       -1   -1    0    0    0  501  0.00000000000E+00  0.00000000000E+00  0.10420828617E+04  0.10420828617E+04  0.50400001928E-02 0. -1.
        1   -1    0    0  501    0  0.00000000000E+00  0.00000000000E+00 -0.23541513577E+04  0.23541513577E+04  0.50400001928E-02 0.  1.
    10030    2    1    2    0    0  0.00000000000E+00  0.00000000000E+00 -0.13120684960E+04  0.33962342194E+04  0.31325521759E+04 0.  0.
        4    1    3    3  502    0  0.45801088358E+03 -0.65905037706E+03 -0.21142787346E+04  0.22614812733E+04  0.12699999809E+01 0.  1.
       -4    1    3    3    0  502 -0.45801088358E+03  0.65905037706E+03  0.80221023859E+03  0.11347529461E+04  0.12699999809E+01 0. -1.
</event>
<event>
 5   0  0.1108153E-05  0.3105095E+04  0.7818609E-02  0.8214341E-01
       -2   -1    0    0    0  501  0.00000000000E+00  0.00000000000E+00  0.17459401905E+04  0.17459401905E+04  0.25500000920E-02 0. -1.
        2   -1    0    0  501    0  0.00000000000E+00  0.00000000000E+00 -0.13805760065E+04  0.13805760065E+04  0.25500000920E-02 0.  1.
    10030    2    1    2    0    0  0.00000000000E+00  0.00000000000E+00  0.36536418402E+03  0.31265161970E+04  0.31050946110E+04 0.  0.
        4    1    3    3  502    0  0.53861735772E+03  0.12590835644E+04  0.91916610167E+03  0.16493235024E+04  0.12699999809E+01 0. -1.
       -4    1    3    3    0  502 -0.53861735772E+03 -0.12590835644E+04 -0.55380191765E+03  0.14771926946E+04  0.12699999809E+01 0.  1.
</event>
<event>
 5   0  0.1007567E-05  0.3042914E+04  0.7818609E-02  0.8231582E-01
       -2   -1    0    0    0  501  0.00000000000E+00  0.00000000000E+00  0.11961828562E+04  0.11961828562E+04  0.25500000920E-02 0.  1.
        2   -1    0    0  501    0  0.00000000000E+00  0.00000000000E+00 -0.19351814142E+04  0.19351814142E+04  0.25500000920E-02 0. -1.
    10030    2    1    2    0    0  0.00000000000E+00  0.00000000000E+00 -0.73899855803E+03  0.31313642704E+04  0.30429136243E+04 0.  0.
        3    1    3    3  502    0  0.12310795593E+04  0.16240469141E+03  0.53520208092E+03  0.13521735994E+04  0.10100000352E+00 0.  1.
       -3    1    3    3    0  502 -0.12310795593E+04 -0.16240469141E+03 -0.12742006390E+04  0.17791906710E+04  0.10100000352E+00 0. -1.
</event>
<event>
 5   0  0.4250961E-06  0.2440420E+04  0.7818609E-02  0.8424524E-01
       -1   -1    0    0    0  501  0.00000000000E+00  0.00000000000E+00  0.24843276737E+04  0.24843276737E+04  0.50400001928E-02 0. -1.
        1   -1    0    0  501    0  0.00000000000E+00  0.00000000000E+00 -0.59932229935E+03  0.59932229938E+03  0.50400001928E-02 0.  1.
    10030    2    1    2    0    0  0.00000000000E+00  0.00000000000E+00  0.18850053744E+04  0.30836499731E+04  0.24404204341E+04 0.  0.
        1    1    3    3  502    0 -0.97692899447E+03  0.36831102333E+03  0.17405266780E+04  0.20296493261E+04  0.50400001928E-02 0.  1.
       -1    1    3    3    0  502  0.97692899447E+03 -0.36831102333E+03  0.14447869637E+03  0.10540006470E+04  0.50400001928E-02 0. -1.
</event>
<event>
 5   0  0.4250961E-06  0.3038577E+04  0.7818609E-02  0.8232800E-01
       -1   -1    0    0    0  501  0.00000000000E+00  0.00000000000E+00  0.23526145732E+04  0.23526145732E+04  0.50400001928E-02 0.  1.
        1   -1    0    0  501    0  0.00000000000E+00  0.00000000000E+00 -0.98113701518E+03  0.98113701520E+03  0.50400001928E-02 0. -1.
    10030    2    1    2    0    0  0.00000000000E+00  0.00000000000E+00  0.13714775580E+04  0.33337515884E+04  0.30385767986E+04 0.  0.
        1    1    3    3  502    0 -0.11796749144E+04  0.54634709820E+03  0.15483112961E+04  0.20217309230E+04  0.50400001928E-02 0.  1.
       -1    1    3    3    0  502  0.11796749144E+04 -0.54634709820E+03 -0.17683373809E+03  0.13120206654E+04  0.50400001928E-02 0. -1.
</event>
<event>
 5   0  0.3848286E-06  0.2969446E+04  0.7818609E-02  0.8252510E-01
        1   -1    0    0  501    0  0.00000000000E+00  0.00000000000E+00  0.20926817982E+04  0.20926817982E+04  0.50400001928E-02 0.  1.
       -1   -1    0    0    0  501  0.00000000000E+00  0.00000000000E+00 -0.10533863238E+04  0.10533863238E+04  0.50400001928E-02 0. -1.
    10030    2    1    2    0    0  0.00000000000E+00  0.00000000000E+00  0.10392954744E+04  0.31460681219E+04  0.29694459996E+04 0.  0.
        2    1    3    3  502    0  0.15048180614E+03 -0.10232375318E+04  0.16482511607E+04  0.19458652855E+04  0.25500000920E-02 0.  1.
       -2    1    3    3    0  502 -0.15048180614E+03  0.10232375318E+04 -0.60895568635E+03  0.12002028364E+04  0.25500000920E-02 0. -1.
</event>
<event>
 5   0  0.3848286E-06  0.3050954E+04  0.7818609E-02  0.8229328E-01
       -1   -1    0    0    0  501  0.00000000000E+00  0.00000000000E+00  0.27104605929E+04  0.27104605929E+04  0.50400001928E-02 0.  1.
        1   -1    0    0  501    0  0.00000000000E+00  0.00000000000E+00 -0.85855549169E+03  0.85855549170E+03  0.50400001928E-02 0. -1.
    10030    2    1    2    0    0  0.00000000000E+00  0.00000000000E+00  0.18519051012E+04  0.35690160846E+04  0.30509544913E+04 0.  0.
        2    1    3    3  502    0  0.83991587115E+03 -0.10161173256E+04  0.28074177962E+02  0.13186133814E+04  0.25500000920E-02 0. -1.
       -2    1    3    3    0  502 -0.83991587115E+03  0.10161173256E+04  0.18238309232E+04  0.22504027032E+04  0.25500000920E-02 0.  1.
</event>
<event>
 5   0  0.1001961E-05  0.3120831E+04  0.7818609E-02  0.8210044E-01
        2   -1    0    0  501    0  0.00000000000E+00  0.00000000000E+00  0.17607084378E+04  0.17607084378E+04  0.25500000920E-02 0. -1.
       -2   -1    0    0    0  501  0.00000000000E+00  0.00000000000E+00 -0.13829072462E+04  0.13829072462E+04  0.25500000920E-02 0.  1.
    10030    2    1    2    0    0  0.00000000000E+00  0.00000000000E+00  0.37780119157E+03  0.31436156840E+04  0.31208309516E+04 0.  0.
        5    1    3    3  502    0 -0.82712543057E+03  0.80076388549E+03  0.12499260644E+04  0.16993223752E+04  0.46999998093E+01 0. -1.
       -5    1    3    3    0  502  0.82712543057E+03 -0.80076388549E+03 -0.87212487287E+03  0.14442933089E+04  0.46999998093E+01 0.  1.
</event>
<event>
 5   0  0.4139628E-06  0.3014057E+04  0.7818609E-02  0.8239728E-01
       -1   -1    0    0    0  501  0.00000000000E+00  0.00000000000E+00  0.10907909629E+04  0.10907909629E+04  0.50400001928E-02 0.  1.
        1   -1    0    0  501    0  0.00000000000E+00  0.00000000000E+00 -0.20820985515E+04  0.20820985515E+04  0.50400001928E-02 0. -1.
    10030    2    1    2    0    0  0.00000000000E+00  0.00000000000E+00 -0.99130758867E+03  0.31728895144E+04  0.30140565913E+04 0.  0.
        5    1    3    3  502    0  0.29705786582E+03  0.36915290922E+03  0.10103272173E+04  0.11159302945E+04  0.46999998093E+01 0.  1.
       -5    1    3    3    0  502 -0.29705786582E+03 -0.36915290922E+03 -0.20016348060E+04  0.20569592200E+04  0.46999998093E+01 0. -1.
</event>
<event>
 5   0  0.3838525E-06  0.3119165E+04  0.7818609E-02  0.8210498E-01
        1   -1    0    0  501    0  0.00000000000E+00  0.00000000000E+00  0.12798013185E+04  0.12798013185E+04  0.50400001928E-02 0.  1.
       -1   -1    0    0    0  501  0.00000000000E+00  0.00000000000E+00 -0.19005279822E+04  0.19005279822E+04  0.50400001928E-02 0. -1.
    10030    2    1    2    0    0  0.00000000000E+00  0.00000000000E+00 -0.62072666368E+03  0.31803293007E+04  0.31191654124E+04 0.  0.
        3    1    3    3  502    0 -0.32416769607E+03  0.11753328594E+04 -0.13019593134E+04  0.17837012333E+04  0.10100000352E+00 0. -1.
       -3    1    3    3    0  502  0.32416769607E+03 -0.11753328594E+04  0.68123264971E+03  0.13966280675E+04  0.10100000352E+00 0.  1.
</event>
<event>
 5   0  0.4139628E-06  0.3087306E+04  0.7818609E-02  0.8219230E-01
       -1   -1    0    0    0  501  0.00000000000E+00  0.00000000000E+00  0.15554208615E+04  0.15554208615E+04  0.50400001928E-02 0. -1.
        1   -1    0    0  501    0  0.00000000000E+00  0.00000000000E+00 -0.15319736894E+04  0.15319736894E+04  0.50400001928E-02 0.  1.
    10030    2    1    2    0    0  0.00000000000E+00  0.00000000000E+00  0.23447172037E+02  0.30873945509E+04  0.30873055150E+04 0.  0.
        5    1    3    3  502    0 -0.30764480632E+03  0.13582296848E+04 -0.65418490462E+03  0.15386400433E+04  0.46999998093E+01 0.  1.
       -5    1    3    3    0  502  0.30764480632E+03 -0.13582296848E+04  0.67763207666E+03  0.15487545076E+04  0.46999998093E+01 0. -1.
</event>
<event>
 5   0  0.3807334E-06  0.3054979E+04  0.7818609E-02  0.8228203E-01
       -1   -1    0    0    0  501  0.00000000000E+00  0.00000000000E+00  0.25042725555E+04  0.25042725555E+04  0.50400001928E-02 0. -1.
        1   -1    0    0  501    0  0.00000000000E+00  0.00000000000E+00 -0.93169760434E+03  0.93169760435E+03  0.50400001928E-02 0.  1.
    10030    2    1    2    0    0  0.00000000000E+00  0.00000000000E+00  0.15725749511E+04  0.34359701598E+04  0.30549793718E+04 0.  0.
        4    1    3    3  502    0  0.16645255803E+03  0.13367744895E+04 -0.23622387485E+02  0.13473055035E+04  0.12699999809E+01 0.  1.
       -4    1    3    3    0  502 -0.16645255803E+03 -0.13367744895E+04  0.15961973386E+04  0.20886646563E+04  0.12699999809E+01 0. -1.
</event>
<event>
 5   0  0.1119100E-05  0.2945164E+04  0.7818609E-02  0.8259565E-01
       -2   -1    0    0    0  501  0.00000000000E+00  0.00000000000E+00  0.10051421464E+04  0.10051421464E+04  0.25500000920E-02 0. -1.
        2   -1    0    0  501    0  0.00000000000E+00  0.00000000000E+00 -0.21574044083E+04  0.21574044083E+04  0.25500000920E-02 0.  1.
    10030    2    1    2    0    0  0.00000000000E+00  0.00000000000E+00 -0.11522622619E+04  0.31625465547E+04  0.29451642383E+04 0.  0.
        2    1    3    3  502    0 -0.95131379324E+03  0.10932782487E+04 -0.29561622752E+03  0.14790686990E+04  0.25500000920E-02 0. -1.
       -2    1    3    3    0  502  0.95131379324E+03 -0.10932782487E+04 -0.85664603435E+03  0.16834778557E+04  0.25500000920E-02 0.  1.
</event>
<event>
 5   0  0.9797278E-06  0.3247223E+04  0.7818609E-02  0.8176456E-01
        2   -1    0    0  501    0  0.00000000000E+00  0.00000000000E+00  0.19156830911E+04  0.19156830911E+04  0.25500000920E-02 0.  1.
       -2   -1    0    0    0  501  0.00000000000E+00  0.00000000000E+00 -0.13760704261E+04  0.13760704261E+04  0.25500000920E-02 0. -1.
    10030    2    1    2    0    0  0.00000000000E+00  0.00000000000E+00  0.53961266502E+03  0.32917535172E+04  0.32472233354E+04 0.  0.
        1    1    3    3  502    0  0.14159938951E+04 -0.73171752715E+02 -0.53206718745E+03  0.15144267260E+04  0.50400001928E-02 0. -1.
       -1    1    3    3    0  502 -0.14159938951E+04  0.73171752715E+02  0.10716798525E+04  0.17773267912E+04  0.50400001928E-02 0.  1.
</event>
<event>
 5   0  0.4139628E-06  0.2578611E+04  0.7818609E-02  0.8375503E-01
        1   -1    0    0  501    0  0.00000000000E+00  0.00000000000E+00  0.14916944427E+04  0.14916944427E+04  0.50400001928E-02 0. -1.
       -1   -1    0    0    0  501  0.00000000000E+00  0.00000000000E+00 -0.11143765449E+04  0.11143765449E+04  0.50400001928E-02 0.  1.
    10030    2    1    2    0    0  0.00000000000E+00  0.00000000000E+00  0.37731789780E+03  0.26060709877E+04  0.25786114862E+04 0.  0.
        5    1    3    3  502    0 -0.65380892572E+02 -0.73656083517E+03 -0.87875605339E+03  0.11484906688E+04  0.46999998093E+01 0.  1.
       -5    1    3    3    0  502  0.65380892572E+02  0.73656083517E+03  0.12560739512E+04  0.14575803188E+04  0.46999998093E+01 0. -1.
</event>
<event>
 5   0  0.3848286E-06  0.2911583E+04  0.7818609E-02  0.8269440E-01
       -1   -1    0    0    0  501  0.00000000000E+00  0.00000000000E+00  0.16875105349E+04  0.16875105349E+04  0.50400001928E-02 0. -1.
        1   -1    0    0  501    0  0.00000000000E+00  0.00000000000E+00 -0.12558905970E+04  0.12558905970E+04  0.50400001928E-02 0.  1.
    10030    2    1    2    0    0  0.00000000000E+00  0.00000000000E+00  0.43161993790E+03  0.29434011319E+04  0.29115828088E+04 0.  0.
        2    1    3    3  502    0  0.13723963960E+03  0.14426892533E+04  0.75944801677E+02  0.14511907570E+04  0.25500000920E-02 0. -1.
       -2    1    3    3    0  502 -0.13723963960E+03 -0.14426892533E+04  0.35567513623E+03  0.14922103749E+04  0.25500000920E-02 0.  1.
</event>
<event>
 5   0  0.3838525E-06  0.3090247E+04  0.7818609E-02  0.8218420E-01
        1   -1    0    0  501    0  0.00000000000E+00  0.00000000000E+00  0.21009649548E+04  0.21009649548E+04  0.50400001928E-02 0.  1.
       -1   -1    0    0    0  501  0.00000000000E+00  0.00000000000E+00 -0.11363378420E+04  0.11363378420E+04  0.50400001928E-02 0. -1.
    10030    2    1    2    0    0  0.00000000000E+00  0.00000000000E+00  0.96462711275E+03  0.32373027968E+04  0.30902465810E+04 0.  0.
        3    1    3    3  502    0  0.14087984291E+03  0.10668971399E+04  0.16438082895E+04  0.19647448537E+04  0.10100000352E+00 0.  1.
       -3    1    3    3    0  502 -0.14087984291E+03 -0.10668971399E+04 -0.67918117678E+03  0.12725579430E+04  0.10100000352E+00 0. -1.
</event>
<event>
 5   0  0.1119100E-05  0.3012114E+04  0.7818609E-02  0.8240280E-01
        2   -1    0    0  501    0  0.00000000000E+00  0.00000000000E+00  0.22737489572E+04  0.22737489572E+04  0.25500000920E-02 0.  1.
       -2   -1    0    0    0  501  0.00000000000E+00  0.00000000000E+00 -0.99756278845E+03  0.99756278845E+03  0.25500000920E-02 0. -1.
    10030    2    1    2    0    0  0.00000000000E+00  0.00000000000E+00  0.12761861688E+04  0.32713117457E+04  0.30121137761E+04 0.  0.
        2    1    3    3  502    0 -0.10036830509E+04 -0.39571311823E+03  0.17793464318E+04  0.20808753598E+04  0.25500000920E-02 0.  1.
       -2    1    3    3    0  502  0.10036830509E+04  0.39571311823E+03 -0.50316026305E+03  0.11904363859E+04  0.25500000920E-02 0. -1.
</event>
<event>
 5   0  0.1007567E-05  0.3106909E+04  0.7818609E-02  0.8213844E-01
       -2   -1    0    0    0  501  0.00000000000E+00  0.00000000000E+00  0.24910302923E+04  0.24910302923E+04  0.25500000920E-02 0.  1.
        2   -1    0    0  501    0  0.00000000000E+00  0.00000000000E+00 -0.96876407046E+03  0.96876407046E+03  0.25500000920E-02 0. -1.
    10030    2    1    2    0    0  0.00000000000E+00  0.00000000000E+00  0.15222662219E+04  0.34597943628E+04  0.31069088468E+04 0.  0.
        3    1    3    3  502    0  0.11743143989E+04 -0.28319512627E+03 -0.32653781858E+03  0.12513355841E+04  0.10100000352E+00 0. -1.
       -3    1    3    3    0  502 -0.11743143989E+04  0.28319512627E+03  0.18488040404E+04  0.22084587787E+04  0.10100000352E+00 0.  1.
</event>
<event>
 5   0  0.4250961E-06  0.3098342E+04  0.7818609E-02  0.8216193E-01
       -1   -1    0    0    0  501  0.00000000000E+00  0.00000000000E+00  0.76729159193E+03  0.76729159195E+03  0.50400001928E-02 0.  1.
        1   -1    0    0  501    0  0.00000000000E+00  0.00000000000E+00 -0.31277955559E+04  0.31277955559E+04  0.50400001928E-02 0. -1.
    10030    2    1    2    0    0  0.00000000000E+00  0.00000000000E+00 -0.23605039640E+04  0.38950871479E+04  0.30983422867E+04 0.  0.
        1    1    3    3  502    0  0.75793890388E+02 -0.13357077016E+04 -0.19832739105E+03  0.13524768139E+04  0.50400001928E-02 0.  1.
       -1    1    3    3    0  502 -0.75793890388E+02  0.13357077016E+04 -0.21621765730E+04  0.25426103340E+04  0.50400001928E-02 0. -1.
</event>
<event>
 5   0  0.1119100E-05  0.3135223E+04  0.7818609E-02  0.8206137E-01
       -2   -1    0    0    0  501  0.00000000000E+00  0.00000000000E+00  0.12695222997E+04  0.12695222997E+04  0.25500000920E-02 0. -1.
        2   -1    0    0  501    0  0.00000000000E+00  0.00000000000E+00 -0.19356937753E+04  0.19356937753E+04  0.25500000920E-02 0.  1.
    10030    2    1    2    0    0  0.00000000000E+00  0.00000000000E+00 -0.66617147565E+03  0.32052160750E+04  0.31352233816E+04 0.  0.
        2    1    3    3  502    0 -0.39683427982E+03  0.41520578418E+03  0.11580836796E+04  0.12926836805E+04  0.25500000920E-02 0. -1.
       -2    1    3    3    0  502  0.39683427982E+03 -0.41520578418E+03 -0.18242551552E+04  0.19125323945E+04  0.25500000920E-02 0.  1.
</event>
<event>
 5   0  0.3807334E-06  0.2567256E+04  0.7818609E-02  0.8379409E-01
       -1   -1    0    0    0  501  0.00000000000E+00  0.00000000000E+00  0.18469167821E+04  0.18469167822E+04  0.50400001928E-02 0. -1.
        1   -1    0    0  501    0  0.00000000000E+00  0.00000000000E+00 -0.89213588069E+03  0.89213588071E+03  0.50400001928E-02 0.  1.
    10030    2    1    2    0    0  0.00000000000E+00  0.00000000000E+00  0.95478090146E+03  0.27390526629E+04  0.25672559125E+04 0.  0.
        4    1    3    3  502    0 -0.38826195308E+03 -0.10581405007E+04 -0.17795324812E+03  0.11410861645E+04  0.12699999809E+01 0.  1.
       -4    1    3    3    0  502  0.38826195308E+03  0.10581405007E+04  0.11327341496E+04  0.15979664984E+04  0.12699999809E+01 0. -1.
</event>
<event>
 5   0  0.3838525E-06  0.3100067E+04  0.7818609E-02  0.8215720E-01
       -1   -1    0    0    0  501  0.00000000000E+00  0.00000000000E+00  0.11265048482E+04  0.11265048482E+04  0.50400001928E-02 0. -1.
        1   -1    0    0  501    0  0.00000000000E+00  0.00000000000E+00 -0.21327949195E+04  0.21327949195E+04  0.50400001928E-02 0.  1.
    10030    2    1    2    0    0  0.00000000000E+00  0.00000000000E+00 -0.10062900713E+04  0.32592997677E+04  0.31000669780E+04 0.  0.
        3    1    3    3  502    0  0.83700976980E+03 -0.55173659538E+02 -0.18735427824E+04  0.20527523122E+04  0.10100000352E+00 0.  1.
       -3    1    3    3    0  502 -0.83700976980E+03  0.55173659538E+02  0.86725271106E+03  0.12065474555E+04  0.10100000352E+00 0. -1.
</event>
<event>
 5   0  0.1001961E-05  0.3046906E+04  0.7818609E-02  0.8230462E-01
       -2   -1    0    0    0  501  0.00000000000E+00  0.00000000000E+00  0.18308845761E+04  0.18308845761E+04  0.25500000920E-02 0.  1.
        2   -1    0    0  501    0  0.00000000000E+00  0.00000000000E+00 -0.12676436729E+04  0.12676436729E+04  0.25500000920E-02 0. -1.
    10030    2    1    2    0    0  0.00000000000E+00  0.00000000000E+00  0.56324090316E+03  0.30985282490E+04  0.30469061349E+04 0.  0.
        5    1    3    3  502    0  0.57028008213E+03 -0.37254515544E+03 -0.11041396645E+04  0.12973649270E+04  0.46999998093E+01 0. -1.
       -5    1    3    3    0  502 -0.57028008213E+03  0.37254515544E+03  0.16673805677E+04  0.18011633220E+04  0.46999998093E+01 0.  1.
</event>
<event>
 5   0  0.1119100E-05  0.2988227E+04  0.7818609E-02  0.8247101E-01
       -2   -1    0    0    0  501  0.00000000000E+00  0.00000000000E+00  0.10586904858E+04  0.10586904858E+04  0.25500000920E-02 0.  1.
        2   -1    0    0  501    0  0.00000000000E+00  0.00000000000E+00 -0.21086188291E+04  0.21086188291E+04  0.25500000920E-02 0. -1.
    10030    2    1    2    0    0  0.00000000000E+00  0.00000000000E+00 -0.10499283433E+04  0.31673093149E+04  0.29882266932E+04 0.  0.
        2    1    3    3  502    0 -0.39558313415E+03  0.11923380598E+04 -0.13822751595E+04  0.18678438589E+04  0.25500000920E-02 0. -1.
       -2    1    3    3    0  502  0.39558313415E+03 -0.11923380598E+04  0.33234681614E+03  0.12994654559E+04  0.25500000920E-02 0.  1.
</event>
<event>
 5   0  0.3493125E-06  0.3073483E+04  0.7818609E-02  0.8223053E-01
        3   -1    0    0  501    0  0.00000000000E+00  0.00000000000E+00  0.12866620885E+04  0.12866620925E+04  0.10100000352E+00 0. -1.
       -3   -1    0    0    0  501  0.00000000000E+00  0.00000000000E+00 -0.18354265841E+04  0.18354265869E+04  0.10100000352E+00 0.  1.
    10030    2    1    2    0    0  0.00000000000E+00  0.00000000000E+00 -0.54876449558E+03  0.31220886794E+04  0.30734825932E+04 0.  0.
        4    1    3    3  502    0 -0.20655033114E+03  0.44927049908E+03  0.12036421099E+04  0.13012543804E+04  0.12699999809E+01 0. -1.
       -4    1    3    3    0  502  0.20655033114E+03 -0.44927049908E+03 -0.17524066055E+04  0.18208342991E+04  0.12699999809E+01 0.  1.
</event>
<event>
 5   0  0.4139628E-06  0.2957923E+04  0.7818609E-02  0.8255849E-01
       -1   -1    0    0    0  501  0.00000000000E+00  0.00000000000E+00  0.10434698040E+04  0.10434698040E+04  0.50400001928E-02 0.  1.
        1   -1    0    0  501    0  0.00000000000E+00  0.00000000000E+00 -0.20962048254E+04  0.20962048254E+04  0.50400001928E-02 0. -1.
    10030    2    1    2    0    0  0.00000000000E+00  0.00000000000E+00 -0.10527350214E+04  0.31396746293E+04  0.29579225400E+04 0.  0.
        5    1    3    3  502    0 -0.14496644947E+04  0.58486771627E+02 -0.22175566827E+03  0.14677007584E+04  0.46999998093E+01 0.  1.
       -5    1    3    3    0  502  0.14496644947E+04 -0.58486771627E+02 -0.83097935313E+03  0.16719738709E+04  0.46999998093E+01 0. -1.
</event>
<event>
 5   0  0.3848286E-06  0.1606386E+04  0.7818609E-02  0.8816635E-01
       -1   -1    0    0    0  501  0.00000000000E+00  0.00000000000E+00  0.51652294227E+03  0.51652294229E+03  0.50400001928E-02 0.  1.
        1   -1    0    0  501    0  0.00000000000E+00  0.00000000000E+00 -0.12489645344E+04  0.12489645344E+04  0.50400001928E-02 0. -1.
    10030    2    1    2    0    0  0.00000000000E+00  0.00000000000E+00 -0.73244159217E+03  0.17654874767E+04  0.16063858019E+04 0.  0.
        2    1    3    3  502    0  0.22927173041E+03 -0.25011851516E+03  0.43389026898E+03  0.55080446940E+03  0.25500000920E-02 0.  1.
       -2    1    3    3    0  502 -0.22927173041E+03  0.25011851516E+03 -0.11663318612E+04  0.12146830073E+04  0.25500000920E-02 0. -1.
</event>
<event>
 5   0  0.4250961E-06  0.3162597E+04  0.7818609E-02  0.8198766E-01
       -1   -1    0    0    0  501  0.00000000000E+00  0.00000000000E+00  0.14290300364E+04  0.14290300364E+04  0.50400001928E-02 0. -1.
        1   -1    0    0  501    0  0.00000000000E+00  0.00000000000E+00 -0.17497912268E+04  0.17497912268E+04  0.50400001928E-02 0.  1.
    10030    2    1    2    0    0  0.00000000000E+00  0.00000000000E+00 -0.32076119040E+03  0.31788212632E+04  0.31625965412E+04 0.  0.
        1    1    3    3  502    0 -0.14307359725E+04  0.60526320761E+03  0.13635461808E+03  0.15594683567E+04  0.50400001928E-02 0. -1.
       -1    1    3    3    0  502  0.14307359725E+04 -0.60526320761E+03 -0.45711580848E+03  0.16193529065E+04  0.50400001928E-02 0.  1.
</event>
<event>
 5   0  0.1119100E-05  0.3124282E+04  0.7818609E-02  0.8209105E-01
        2   -1    0    0  501    0  0.00000000000E+00  0.00000000000E+00  0.24373324442E+04  0.24373324442E+04  0.25500000920E-02 0. -1.
       -2   -1    0    0    0  501  0.00000000000E+00  0.00000000000E+00 -0.10012109506E+04  0.10012109506E+04  0.25500000920E-02 0.  1.
    10030    2    1    2    0    0  0.00000000000E+00  0.00000000000E+00  0.14361214936E+04  0.34385433948E+04  0.31242816348E+04 0.  0.
        2    1    3    3  502    0 -0.74110168677E+03  0.13680851046E+04  0.56478502598E+03  0.16552554755E+04  0.25500000920E-02 0.  1.
       -2    1    3    3    0  502  0.74110168677E+03 -0.13680851046E+04  0.87133646763E+03  0.17832879194E+04  0.25500000920E-02 0. -1.
</event>
<event>
 5   0  0.4250961E-06  0.3165907E+04  0.7818609E-02  0.8197880E-01
        1   -1    0    0  501    0  0.00000000000E+00  0.00000000000E+00  0.32329973082E+04  0.32329973082E+04  0.50400001928E-02 0.  1.
       -1   -1    0    0    0  501  0.00000000000E+00  0.00000000000E+00 -0.77505220912E+03  0.77505220914E+03  0.50400001928E-02 0. -1.
    10030    2    1    2    0    0  0.00000000000E+00  0.00000000000E+00  0.24579450991E+04  0.40080495174E+04  0.31659069512E+04 0.  0.
        1    1    3    3  502    0  0.63409054127E+03  0.13911491370E+04  0.17484583697E+04  0.23226005698E+04  0.50400001928E-02 0. -1.
       -1    1    3    3    0  502 -0.63409054127E+03 -0.13911491370E+04  0.70948672937E+03  0.16854489476E+04  0.50400001928E-02 0.  1.
</event>
<event>
 5   0  0.1001961E-05  0.2591620E+04  0.7818609E-02  0.8371053E-01
       -2   -1    0    0    0  501  0.00000000000E+00  0.00000000000E+00  0.11193910773E+04  0.11193910773E+04  0.25500000920E-02 0.  1.
        2   -1    0    0  501    0  0.00000000000E+00  0.00000000000E+00 -0.15000335539E+04  0.15000335539E+04  0.25500000920E-02 0. -1.
    10030    2    1    2    0    0  0.00000000000E+00  0.00000000000E+00 -0.38064247656E+03  0.26194246312E+04  0.25916204783E+04 0.  0.
        5    1    3    3  502    0  0.92363041603E+03 -0.29648609858E+03 -0.10586687382E+04  0.14358964932E+04  0.46999998093E+01 0. -1.
       -5    1    3    3    0  502 -0.92363041603E+03  0.29648609858E+03  0.67802626160E+03  0.11835281380E+04  0.46999998093E+01 0.  1.
</event>
<event>
 5   0  0.3838525E-06  0.3008601E+04  0.7818609E-02  0.8241279E-01
       -1   -1    0    0    0  501  0.00000000000E+00  0.00000000000E+00  0.16935621259E+04  0.16935621259E+04  0.50400001928E-02 0.  1.
        1   -1    0    0  501    0  0.00000000000E+00  0.00000000000E+00 -0.13361898590E+04  0.13361898590E+04  0.50400001928E-02 0. -1.
    10030    2    1    2    0    0  0.00000000000E+00  0.00000000000E+00  0.35737226691E+03  0.30297519850E+04  0.30086013616E+04 0.  0.
        3    1    3    3  502    0 -0.21359054270E+03  0.11369707404E+04  0.11470056935E+04  0.16290934459E+04  0.10100000352E+00 0.  1.
       -3    1    3    3    0  502  0.21359054270E+03 -0.11369707404E+04 -0.78963342662E+03  0.14006585390E+04  0.10100000352E+00 0. -1.
</event>
<event>
 5   0  0.3493125E-06  0.3078225E+04  0.7818609E-02  0.8221739E-01
        3   -1    0    0  501    0  0.00000000000E+00  0.00000000000E+00  0.11961812562E+04  0.11961812604E+04  0.10100000352E+00 0. -1.
       -3   -1    0    0    0  501  0.00000000000E+00  0.00000000000E+00 -0.19803578748E+04  0.19803578773E+04  0.10100000352E+00 0.  1.
    10030    2    1    2    0    0  0.00000000000E+00  0.00000000000E+00 -0.78417661859E+03  0.31765391378E+04  0.30782248008E+04 0.  0.
        2    1    3    3  502    0  0.30208783500E+03 -0.65160026957E+03 -0.17968244388E+04  0.19350498792E+04  0.25500000920E-02 0.  1.
       -2    1    3    3    0  502 -0.30208783500E+03  0.65160026957E+03  0.10126478202E+04  0.12414892585E+04  0.25500000920E-02 0. -1.
</event>
<event>
 5   0  0.4139628E-06  0.2168447E+04  0.7818609E-02  0.8531677E-01
       -1   -1    0    0    0  501  0.00000000000E+00  0.00000000000E+00  0.72221704778E+03  0.72221704780E+03  0.50400001928E-02 0.  1.
        1   -1    0    0  501    0  0.00000000000E+00  0.00000000000E+00 -0.16276825258E+04  0.16276825258E+04  0.50400001928E-02 0. -1.
    10030    2    1    2    0    0  0.00000000000E+00  0.00000000000E+00 -0.90546547797E+03  0.23498995736E+04  0.21684465117E+04 0.  0.
        5    1    3    3  502    0 -0.99377883585E+03  0.36333652771E+03 -0.70896761025E+03  0.12736824445E+04  0.46999998093E+01 0. -1.
       -5    1    3    3    0  502  0.99377883585E+03 -0.36333652771E+03 -0.19649786772E+03  0.10762171291E+04  0.46999998093E+01 0.  1.
</event>
<event>
 5   0  0.1119100E-05  0.3145650E+04  0.7818609E-02  0.8203320E-01
       -2   -1    0    0    0  501  0.00000000000E+00  0.00000000000E+00  0.17485330447E+04  0.17485330447E+04  0.25500000920E-02 0. -1.
        2   -1    0    0  501    0  0.00000000000E+00  0.00000000000E+00 -0.14147739834E+04  0.14147739834E+04  0.25500000920E-02 0.  1.
    10030    2    1    2    0    0  0.00000000000E+00  0.00000000000E+00  0.33375906133E+03  0.31633070281E+04  0.31456503689E+04 0.  0.
        2    1    3    3  502    0  0.61137130358E+03  0.16298467284E+03  0.16149065039E+04  0.17344341702E+04  0.25500000920E-02 0. -1.
       -2    1    3    3    0  502 -0.61137130358E+03 -0.16298467284E+03 -0.12811474426E+04  0.14288728579E+04  0.25500000920E-02 0.  1.
</event>
<event>
 5   0  0.3493125E-06  0.3132373E+04  0.7818609E-02  0.8206909E-01
        3   -1    0    0  501    0  0.00000000000E+00  0.00000000000E+00  0.21664678644E+04  0.21664678668E+04  0.10100000352E+00 0. -1.
       -3   -1    0    0    0  501  0.00000000000E+00  0.00000000000E+00 -0.11322302234E+04  0.11322302279E+04  0.10100000352E+00 0.  1.
    10030    2    1    2    0    0  0.00000000000E+00  0.00000000000E+00  0.10342376410E+04  0.32986980947E+04  0.31323731614E+04 0.  0.
        4    1    3    3  502    0  0.10103140095E+03  0.15608241165E+04  0.60241023220E+03  0.16760903816E+04  0.12699999809E+01 0.  1.
       -4    1    3    3    0  502 -0.10103140095E+03 -0.15608241165E+04  0.43182740881E+03  0.16226077131E+04  0.12699999809E+01 0. -1.
</event>
<event>
 5   0  0.4250961E-06  0.2811941E+04  0.7818609E-02  0.8299571E-01
        1   -1    0    0  501    0  0.00000000000E+00  0.00000000000E+00  0.15247157224E+04  0.15247157224E+04  0.50400001928E-02 0. -1.
       -1   -1    0    0    0  501  0.00000000000E+00  0.00000000000E+00 -0.12964730990E+04  0.12964730990E+04  0.50400001928E-02 0.  1.
    10030    2    1    2    0    0  0.00000000000E+00  0.00000000000E+00  0.22824262336E+03  0.28211888214E+04  0.28119409081E+04 0.  0.
        1    1    3    3  502    0 -0.13723792356E+04  0.22450003958E+02 -0.19155124683E+03  0.13858645854E+04  0.50400001928E-02 0. -1.
       -1    1    3    3    0  502  0.13723792356E+04 -0.22450003958E+02  0.41979387018E+03  0.14353242360E+04  0.50400001928E-02 0.  1.
</event>
<event>
 5   0  0.1119100E-05  0.3055249E+04  0.7818609E-02  0.8228128E-01
       -2   -1    0    0    0  501  0.00000000000E+00  0.00000000000E+00  0.11898413442E+04  0.11898413442E+04  0.25500000920E-02 0.  1.
        2   -1    0    0  501    0  0.00000000000E+00  0.00000000000E+00 -0.19613001766E+04  0.19613001766E+04  0.25500000920E-02 0. -1.
    10030    2    1    2    0    0  0.00000000000E+00  0.00000000000E+00 -0.77145883248E+03  0.31511415208E+04  0.30552486239E+04 0.  0.
        2    1    3    3  502    0 -0.12597740111E+03 -0.72598008885E+03 -0.17659071878E+04  0.19134642905E+04  0.25500000920E-02 0. -1.
       -2    1    3    3    0  502  0.12597740111E+03  0.72598008885E+03  0.99444835534E+03  0.12376772303E+04  0.25500000920E-02 0.  1.
</event>
<event>
 5   0  0.3848286E-06  0.3022912E+04  0.7818609E-02  0.8237218E-01
       -1   -1    0    0    0  501  0.00000000000E+00  0.00000000000E+00  0.17853782062E+04  0.17853782062E+04  0.50400001928E-02 0.  1.
        1   -1    0    0  501    0  0.00000000000E+00  0.00000000000E+00 -0.12795605486E+04  0.12795605486E+04  0.50400001928E-02 0. -1.
    10030    2    1    2    0    0  0.00000000000E+00  0.00000000000E+00  0.50581765754E+03  0.30649387548E+04  0.30229121833E+04 0.  0.
        2    1    3    3  502    0 -0.11917011068E+03 -0.14446513287E+04  0.68697350790E+03  0.16041046030E+04  0.25500000920E-02 0.  1.
       -2    1    3    3    0  502  0.11917011068E+03  0.14446513287E+04 -0.18115585036E+03  0.14608341518E+04  0.25500000920E-02 0. -1.
</event>
<event>
 5   0  0.3848286E-06  0.3030738E+04  0.7818609E-02  0.8235008E-01
        1   -1    0    0  501    0  0.00000000000E+00  0.00000000000E+00  0.15601659277E+04  0.15601659277E+04  0.50400001928E-02 0. -1.
       -1   -1    0    0    0  501  0.00000000000E+00  0.00000000000E+00 -0.14718580027E+04  0.14718580028E+04  0.50400001928E-02 0.  1.
    10030    2    1    2    0    0  0.00000000000E+00  0.00000000000E+00  0.88307924940E+02  0.30320239304E+04  0.30307376701E+04 0.  0.
        2    1    3    3  502    0  0.23024134621E+03  0.12246473965E+03  0.15375480330E+04  0.15595071798E+04  0.25500000920E-02 0. -1.
       -2    1    3    3    0  502 -0.23024134621E+03 -0.12246473965E+03 -0.14492401081E+04  0.14725167506E+04  0.25500000920E-02 0.  1.
</event>
<event>
 5   0  0.3807334E-06  0.3171115E+04  0.7818609E-02  0.8196488E-01
        1   -1    0    0  501    0  0.00000000000E+00  0.00000000000E+00  0.84983604080E+03  0.84983604082E+03  0.50400001928E-02 0.  1.
       -1   -1    0    0    0  501  0.00000000000E+00  0.00000000000E+00 -0.29582089994E+04  0.29582089994E+04  0.50400001928E-02 0. -1.
    10030    2    1    2    0    0  0.00000000000E+00  0.00000000000E+00 -0.21083729585E+04  0.38080450402E+04  0.31711150240E+04 0.  0.
        4    1    3    3  502    0  0.57529496970E+03 -0.11565726036E+04  0.49924182360E+02  0.12927174967E+04  0.12699999809E+01 0.  1.
       -4    1    3    3    0  502 -0.57529496970E+03  0.11565726036E+04 -0.21582971409E+04  0.25153275434E+04  0.12699999809E+01 0. -1.
</event>
<event>
 5   0  0.3807334E-06  0.3063674E+04  0.7818609E-02  0.8225779E-01
        1   -1    0    0  501    0  0.00000000000E+00  0.00000000000E+00  0.15306809870E+04  0.15306809870E+04  0.50400001928E-02 0. -1.
       -1   -1    0    0    0  501  0.00000000000E+00  0.00000000000E+00 -0.15329936229E+04  0.15329936229E+04  0.50400001928E-02 0.  1.
    10030    2    1    2    0    0  0.00000000000E+00  0.00000000000E+00 -0.23126358960E+01  0.30636746099E+04  0.30636737371E+04 0.  0.
        4    1    3    3  502    0  0.19134830329E+02  0.15282270205E+04  0.10218107636E+03  0.15317593000E+04  0.12699999809E+01 0. -1.
       -4    1    3    3    0  502 -0.19134830329E+02 -0.15282270205E+04 -0.10449371226E+03  0.15319153099E+04  0.12699999809E+01 0.  1.
</event>
<event>
 5   0  0.4139628E-06  0.3085826E+04  0.7818609E-02  0.8219639E-01
        1   -1    0    0  501    0  0.00000000000E+00  0.00000000000E+00  0.19002892430E+04  0.19002892430E+04  0.50400001928E-02 0. -1.
       -1   -1    0    0    0  501  0.00000000000E+00  0.00000000000E+00 -0.12527467330E+04  0.12527467330E+04  0.50400001928E-02 0.  1.
    10030    2    1    2    0    0  0.00000000000E+00  0.00000000000E+00  0.64754250999E+03  0.31530359761E+04  0.30858263989E+04 0.  0.
        5    1    3    3  502    0  0.17186928681E+03  0.44366460485E+03 -0.11759087595E+04  0.12685270332E+04  0.46999998093E+01 0.  1.
       -5    1    3    3    0  502 -0.17186928681E+03 -0.44366460485E+03  0.18234512695E+04  0.18845089428E+04  0.46999998093E+01 0. -1.
</event>
<event>
 5   0  0.3838525E-06  0.3094582E+04  0.7818609E-02  0.8217226E-01
       -1   -1    0    0    0  501  0.00000000000E+00  0.00000000000E+00  0.14418771846E+04  0.14418771847E+04  0.50400001928E-02 0.  1.
        1   -1    0    0  501    0  0.00000000000E+00  0.00000000000E+00 -0.16604111174E+04  0.16604111174E+04  0.50400001928E-02 0. -1.
    10030    2    1    2    0    0  0.00000000000E+00  0.00000000000E+00 -0.21853393278E+03  0.31022883021E+04  0.30945816566E+04 0.  0.
        3    1    3    3  502    0  0.32758034595E+03 -0.14928032822E+04 -0.35140185534E+03  0.15682008152E+04  0.10100000352E+00 0. -1.
       -3    1    3    3    0  502 -0.32758034595E+03  0.14928032822E+04  0.13286792256E+03  0.15340874869E+04  0.10100000352E+00 0.  1.
</event>
<event>
 5   0  0.1001961E-05  0.3230015E+04  0.7818609E-02  0.8180935E-01
       -2   -1    0    0    0  501  0.00000000000E+00  0.00000000000E+00  0.13730810767E+04  0.13730810767E+04  0.25500000920E-02 0.  1.
        2   -1    0    0  501    0  0.00000000000E+00  0.00000000000E+00 -0.18995593226E+04  0.18995593226E+04  0.25500000920E-02 0. -1.
    10030    2    1    2    0    0  0.00000000000E+00  0.00000000000E+00 -0.52647824581E+03  0.32726403993E+04  0.32300148359E+04 0.  0.
        5    1    3    3  502    0 -0.94392182381E+03  0.37045097664E+03 -0.15368094645E+04  0.18412028013E+04  0.46999998093E+01 0. -1.
       -5    1    3    3    0  502  0.94392182381E+03 -0.37045097664E+03  0.10103312186E+04  0.14314375980E+04  0.46999998093E+01 0.  1.
</event>
<event>
 5   0  0.4139628E-06  0.2966689E+04  0.7818609E-02  0.8253307E-01
       -1   -1    0    0    0  501  0.00000000000E+00  0.00000000000E+00  0.11638768828E+04  0.11638768828E+04  0.50400001928E-02 0. -1.
        1   -1    0    0  501    0  0.00000000000E+00  0.00000000000E+00 -0.18905017295E+04  0.18905017295E+04  0.50400001928E-02 0.  1.
    10030    2    1    2    0    0  0.00000000000E+00  0.00000000000E+00 -0.72662484673E+03  0.30543786123E+04  0.29666892387E+04 0.  0.
        5    1    3    3  502    0 -0.25213507665E+03 -0.71278631357E+03  0.95059589269E+03  0.12146156046E+04  0.46999998093E+01 0. -1.
       -5    1    3    3    0  502  0.25213507665E+03  0.71278631357E+03 -0.16772207394E+04  0.18397630077E+04  0.46999998093E+01 0.  1.
</event>
<event>
 5   0  0.9797278E-06  0.2943981E+04  0.7818609E-02  0.8259911E-01
       -2   -1    0    0    0  501  0.00000000000E+00  0.00000000000E+00  0.82175857222E+03  0.82175857222E+03  0.25500000920E-02 0. -1.
        2   -1    0    0  501    0  0.00000000000E+00  0.00000000000E+00 -0.26367313249E+04  0.26367313249E+04  0.25500000920E-02 0.  1.
    10030    2    1    2    0    0  0.00000000000E+00  0.00000000000E+00 -0.18149727526E+04  0.34584898971E+04  0.29439813646E+04 0.  0.
        1    1    3    3  502    0  0.67208906236E+03 -0.11396005949E+04 -0.14945409748E+03  0.13314389775E+04  0.50400001928E-02 0. -1.
       -1    1    3    3    0  502 -0.67208906236E+03  0.11396005949E+04 -0.16655186552E+04  0.21270509195E+04  0.50400001928E-02 0.  1.
</event>
<event>
 5   0  0.3838525E-06  0.2533022E+04  0.7818609E-02  0.8391315E-01
       -1   -1    0    0    0  501  0.00000000000E+00  0.00000000000E+00  0.10665041932E+04  0.10665041933E+04  0.50400001928E-02 0. -1.
        1   -1    0    0  501    0  0.00000000000E+00  0.00000000000E+00 -0.15040266501E+04  0.15040266501E+04  0.50400001928E-02 0.  1.
    10030    2    1    2    0    0  0.00000000000E+00  0.00000000000E+00 -0.43752245681E+03  0.25705308433E+04  0.25330224863E+04 0.  0.
        3    1    3    3  502    0  0.11321772533E+04 -0.41141021635E+02 -0.79330089015E+03  0.13830561192E+04  0.10100000352E+00 0.  1.
       -3    1    3    3    0  502 -0.11321772533E+04  0.41141021635E+02  0.35577843334E+03  0.11874747241E+04  0.10100000352E+00 0. -1.
</event>
<event>
 5   0  0.3848286E-06  0.3021226E+04  0.7818609E-02  0.8237696E-01
       -1   -1    0    0    0  501  0.00000000000E+00  0.00000000000E+00  0.15201222499E+04  0.15201222499E+04  0.50400001928E-02 0.  1.
        1   -1    0    0  501    0  0.00000000000E+00  0.00000000000E+00 -0.15011629150E+04  0.15011629150E+04  0.50400001928E-02 0. -1.
    10030    2    1    2    0    0  0.00000000000E+00  0.00000000000E+00  0.18959334817E+02  0.30212851649E+04  0.30212256770E+04 0.  0.
        2    1    3    3  502    0  0.10114364774E+04  0.41814143297E+03 -0.10317445325E+04  0.15041086351E+04  0.25500000920E-02 0.  1.
       -2    1    3    3    0  502 -0.10114364774E+04 -0.41814143297E+03  0.10507038673E+04  0.15171765298E+04  0.25500000920E-02 0. -1.
</event>
<event>
 5   0  0.9797278E-06  0.3121477E+04  0.7818609E-02  0.8209868E-01
        2   -1    0    0  501    0  0.00000000000E+00  0.00000000000E+00  0.20068045842E+04  0.20068045842E+04  0.25500000920E-02 0.  1.
       -2   -1    0    0    0  501  0.00000000000E+00  0.00000000000E+00 -0.12138223445E+04  0.12138223445E+04  0.25500000920E-02 0. -1.
    10030    2    1    2    0    0  0.00000000000E+00  0.00000000000E+00  0.79298223971E+03  0.32206269286E+04  0.31214767308E+04 0.  0.
        1    1    3    3  502    0  0.82350187040E+03  0.36690345887E+03 -0.91799823383E+03  0.12866601090E+04  0.50400001928E-02 0. -1.
       -1    1    3    3    0  502 -0.82350187040E+03 -0.36690345887E+03  0.17109804735E+04  0.19339668197E+04  0.50400001928E-02 0.  1.
</event>
<event>
 5   0  0.1007567E-05  0.2390415E+04  0.7818609E-02  0.8443101E-01
        2   -1    0    0  501    0  0.00000000000E+00  0.00000000000E+00  0.13647696152E+04  0.13647696152E+04  0.25500000920E-02 0. -1.
       -2   -1    0    0    0  501  0.00000000000E+00  0.00000000000E+00 -0.10467118831E+04  0.10467118831E+04  0.25500000920E-02 0.  1.
    10030    2    1    2    0    0  0.00000000000E+00  0.00000000000E+00  0.31805773209E+03  0.24114814983E+04  0.23904146702E+04 0.  0.
        3    1    3    3  502    0 -0.87401518287E+03  0.64010939360E+02  0.97891563850E+03  0.13138781442E+04  0.10100000352E+00 0. -1.
       -3    1    3    3    0  502  0.87401518287E+03 -0.64010939360E+02 -0.66085790641E+03  0.10976033541E+04  0.10100000352E+00 0.  1.
</event>
<event>
 5   0  0.9797278E-06  0.3037979E+04  0.7818609E-02  0.8232968E-01
       -2   -1    0    0    0  501  0.00000000000E+00  0.00000000000E+00  0.10079456967E+04  0.10079456967E+04  0.25500000920E-02 0. -1.
        2   -1    0    0  501    0  0.00000000000E+00  0.00000000000E+00 -0.22891407219E+04  0.22891407219E+04  0.25500000920E-02 0.  1.
    10030    2    1    2    0    0  0.00000000000E+00  0.00000000000E+00 -0.12811950251E+04  0.32970864186E+04  0.30379792888E+04 0.  0.
        1    1    3    3  502    0  0.21237765148E+03  0.11768101943E+04 -0.16571510105E+04  0.20435596326E+04  0.50400001928E-02 0.  1.
       -1    1    3    3    0  502 -0.21237765148E+03 -0.11768101943E+04  0.37595598537E+03  0.12535267860E+04  0.50400001928E-02 0. -1.
</event>
<event>
 5   0  0.1007567E-05  0.3058329E+04  0.7818609E-02  0.8227268E-01
        2   -1    0    0  501    0  0.00000000000E+00  0.00000000000E+00  0.16731685697E+04  0.16731685697E+04  0.25500000920E-02 0. -1.
       -2   -1    0    0    0  501  0.00000000000E+00  0.00000000000E+00 -0.13975546764E+04  0.13975546764E+04  0.25500000920E-02 0.  1.
    10030    2    1    2    0    0  0.00000000000E+00  0.00000000000E+00  0.27561389324E+03  0.30707232461E+04  0.30583293210E+04 0.  0.
        3    1    3    3  502    0 -0.14510550752E+04  0.39984831517E+03  0.40891050116E+03  0.15596946222E+04  0.10100000352E+00 0. -1.
       -3    1    3    3    0  502  0.14510550752E+04 -0.39984831517E+03 -0.13329660793E+03  0.15110286239E+04  0.10100000352E+00 0.  1.
</event>
<event>
 5   0  0.1119100E-05  0.3136142E+04  0.7818609E-02  0.8205889E-01
        2   -1    0    0  501    0  0.00000000000E+00  0.00000000000E+00  0.19544308391E+04  0.19544308391E+04  0.25500000920E-02 0.  1.
       -2   -1    0    0    0  501  0.00000000000E+00  0.00000000000E+00 -0.12580881799E+04  0.12580881799E+04  0.25500000920E-02 0. -1.
    10030    2    1    2    0    0  0.00000000000E+00  0.00000000000E+00  0.69634265921E+03  0.32125190189E+04  0.31361417933E+04 0.  0.
        2    1    3    3  502    0 -0.19899471736E+03  0.13139025991E+04 -0.50451169496E+03  0.14214327236E+04  0.25500000920E-02 0. -1.
       -2    1    3    3    0  502  0.19899471736E+03 -0.13139025991E+04  0.12008543542E+04  0.17910862953E+04  0.25500000920E-02 0.  1.
</event>
<event>
 5   0  0.9797278E-06  0.1627798E+04  0.7818609E-02  0.8803651E-01
       -2   -1    0    0    0  501  0.00000000000E+00  0.00000000000E+00  0.13107682260E+04  0.13107682260E+04  0.25500000920E-02 0. -1.
        2   -1    0    0  501    0  0.00000000000E+00  0.00000000000E+00 -0.50537634496E+03  0.50537634497E+03  0.25500000920E-02 0.  1.
    10030    2    1    2    0    0  0.00000000000E+00  0.00000000000E+00  0.80539188107E+03  0.18161445710E+04  0.16277975982E+04 0.  0.
        1    1    3    3  502    0 -0.48190373478E+03  0.24724310890E+03 -0.27510928063E+03  0.60749113640E+03  0.50400001928E-02 0.  1.
       -1    1    3    3    0  502  0.48190373478E+03 -0.24724310890E+03  0.10805011617E+04  0.12086534346E+04  0.50400001928E-02 0. -1.
</event>
<event>
 5   0  0.4139628E-06  0.2842262E+04  0.7818609E-02  0.8290267E-01
        1   -1    0    0  501    0  0.00000000000E+00  0.00000000000E+00  0.25803761643E+04  0.25803761643E+04  0.50400001928E-02 0. -1.
       -1   -1    0    0    0  501  0.00000000000E+00  0.00000000000E+00 -0.78268168649E+03  0.78268168651E+03  0.50400001928E-02 0.  1.
    10030    2    1    2    0    0  0.00000000000E+00  0.00000000000E+00  0.17976944778E+04  0.33630578508E+04  0.28422618937E+04 0.  0.
        5    1    3    3  502    0  0.21622269097E+03  0.52885464089E+03  0.24384836299E+04  0.25045286955E+04  0.46999998093E+01 0. -1.
       -5    1    3    3    0  502 -0.21622269097E+03 -0.52885464089E+03 -0.64078915203E+03  0.85852915538E+03  0.46999998093E+01 0.  1.
</event>
<event>
 5   0  0.4139628E-06  0.3097333E+04  0.7818609E-02  0.8216470E-01
       -1   -1    0    0    0  501  0.00000000000E+00  0.00000000000E+00  0.20005263232E+04  0.20005263232E+04  0.50400001928E-02 0. -1.
        1   -1    0    0  501    0  0.00000000000E+00  0.00000000000E+00 -0.11988688112E+04  0.11988688112E+04  0.50400001928E-02 0.  1.
    10030    2    1    2    0    0  0.00000000000E+00  0.00000000000E+00  0.80165751202E+03  0.31993951343E+04  0.30973334433E+04 0.  0.
        5    1    3    3  502    0  0.63553093183E+03  0.50502261330E+03 -0.96149252583E+03  0.12583470795E+04  0.46999998093E+01 0.  1.
       -5    1    3    3    0  502 -0.63553093183E+03 -0.50502261330E+03  0.17631500379E+04  0.19410480548E+04  0.46999998093E+01 0. -1.
</event>
<event>
 5   0  0.1119100E-05  0.3089895E+04  0.7818609E-02  0.8218517E-01
       -2   -1    0    0    0  501  0.00000000000E+00  0.00000000000E+00  0.10310398507E+04  0.10310398507E+04  0.25500000920E-02 0.  1.
        2   -1    0    0  501    0  0.00000000000E+00  0.00000000000E+00 -0.23150058940E+04  0.23150058940E+04  0.25500000920E-02 0. -1.
    10030    2    1    2    0    0  0.00000000000E+00  0.00000000000E+00 -0.12839660433E+04  0.33460457447E+04  0.30898953583E+04 0.  0.
        2    1    3    3  502    0  0.33301468174E+03 -0.54187721368E+03  0.88268916319E+03  0.10879659240E+04  0.25500000920E-02 0.  1.
       -2    1    3    3    0  502 -0.33301468174E+03  0.54187721368E+03 -0.21666552065E+04  0.22580798207E+04  0.25500000920E-02 0. -1.
</event>
<event>
 5   0  0.3838525E-06  0.3144821E+04  0.7818609E-02  0.8203544E-01
       -1   -1    0    0    0  501  0.00000000000E+00  0.00000000000E+00  0.12275769128E+04  0.12275769129E+04  0.50400001928E-02 0. -1.
        1   -1    0    0  501    0  0.00000000000E+00  0.00000000000E+00 -0.20141099664E+04  0.20141099664E+04  0.50400001928E-02 0.  1.
    10030    2    1    2    0    0  0.00000000000E+00  0.00000000000E+00 -0.78653305356E+03  0.32416868793E+04  0.31448210726E+04 0.  0.
        3    1    3    3  502    0 -0.13688192477E+04 -0.61334506858E-01 -0.11909290545E+04  0.18143809302E+04  0.10100000352E+00 0.  1.
       -3    1    3    3    0  502  0.13688192477E+04  0.61334506858E-01  0.40439600098E+03  0.14273059491E+04  0.10100000352E+00 0. -1.
</event>
<event>
 5   0  0.4139628E-06  0.3143324E+04  0.7818609E-02  0.8203948E-01
       -1   -1    0    0    0  501  0.00000000000E+00  0.00000000000E+00  0.11053841859E+04  0.11053841859E+04  0.50400001928E-02 0.  1.
        1   -1    0    0  501    0  0.00000000000E+00  0.00000000000E+00 -0.22346271330E+04  0.22346271330E+04  0.50400001928E-02 0. -1.
    10030    2    1    2    0    0  0.00000000000E+00  0.00000000000E+00 -0.11292429470E+04  0.33400113189E+04  0.31433240331E+04 0.  0.
        5    1    3    3  502    0  0.96056226226E+03 -0.26495552211E+03  0.72683893857E+03  0.12333686476E+04  0.46999998093E+01 0.  1.
       -5    1    3    3    0  502 -0.96056226226E+03  0.26495552211E+03 -0.18560818856E+04  0.21066426713E+04  0.46999998093E+01 0. -1.
</event>
<event>
 5   0  0.1001961E-05  0.2483714E+04  0.7818609E-02  0.8408811E-01
       -2   -1    0    0    0  501  0.00000000000E+00  0.00000000000E+00  0.87521011162E+03  0.87521011163E+03  0.25500000920E-02 0. -1.
        2   -1    0    0  501    0  0.00000000000E+00  0.00000000000E+00 -0.17621009619E+04  0.17621009619E+04  0.25500000920E-02 0.  1.
    10030    2    1    2    0    0  0.00000000000E+00  0.00000000000E+00 -0.88689085025E+03  0.26373110735E+04  0.24837138157E+04 0.  0.
        5    1    3    3  502    0  0.10525598040E+04  0.65677110106E+02 -0.11397342423E+04  0.15528077334E+04  0.46999998093E+01 0.  1.
       -5    1    3    3    0  502 -0.10525598040E+04 -0.65677110106E+02  0.25284339206E+03  0.10845033401E+04  0.46999998093E+01 0. -1.
</event>
<event>
 5   0  0.1007567E-05  0.2875333E+04  0.7818609E-02  0.8280255E-01
        2   -1    0    0  501    0  0.00000000000E+00  0.00000000000E+00  0.16340367526E+04  0.16340367526E+04  0.25500000920E-02 0. -1.
       -2   -1    0    0    0  501  0.00000000000E+00  0.00000000000E+00 -0.12648953227E+04  0.12648953227E+04  0.25500000920E-02 0.  1.
    10030    2    1    2    0    0  0.00000000000E+00  0.00000000000E+00  0.36914142988E+03  0.28989320753E+04  0.28753333341E+04 0.  0.
        3    1    3    3  502    0 -0.41426350785E+03  0.44762441098E+03 -0.11279988725E+04  0.12823273115E+04  0.10100000352E+00 0.  1.
       -3    1    3    3    0  502  0.41426350785E+03 -0.44762441098E+03  0.14971403024E+04  0.16166047638E+04  0.10100000352E+00 0. -1.
</event>
<event>
 5   0  0.4139628E-06  0.3097668E+04  0.7818609E-02  0.8216378E-01
       -1   -1    0    0    0  501  0.00000000000E+00  0.00000000000E+00  0.13893062165E+04  0.13893062165E+04  0.50400001928E-02 0.  1.
        1   -1    0    0  501    0  0.00000000000E+00  0.00000000000E+00 -0.17266797128E+04  0.17266797128E+04  0.50400001928E-02 0. -1.
    10030    2    1    2    0    0  0.00000000000E+00  0.00000000000E+00 -0.33737349632E+03  0.31159859294E+04  0.30976680642E+04 0.  0.
        5    1    3    3  502    0  0.88271576194E+03 -0.75152522730E+03 -0.12018374608E+04  0.16698540822E+04  0.46999998093E+01 0. -1.
       -5    1    3    3    0  502 -0.88271576194E+03  0.75152522730E+03  0.86446396444E+03  0.14461318472E+04  0.46999998093E+01 0.  1.
</event>
<event>
 5   0  0.1119100E-05  0.3130084E+04  0.7818609E-02  0.8207530E-01
       -2   -1    0    0    0  501  0.00000000000E+00  0.00000000000E+00  0.11806051163E+04  0.11806051163E+04  0.25500000920E-02 0.  1.
        2   -1    0    0  501    0  0.00000000000E+00  0.00000000000E+00 -0.20746625455E+04  0.20746625455E+04  0.25500000920E-02 0. -1.
    10030    2    1    2    0    0  0.00000000000E+00  0.00000000000E+00 -0.89405742914E+03  0.32552676618E+04  0.31300844818E+04 0.  0.
        2    1    3    3  502    0  0.51229476565E+02  0.11110562577E+04 -0.15921021075E+04  0.19421275931E+04  0.25500000920E-02 0. -1.
       -2    1    3    3    0  502 -0.51229476565E+02 -0.11110562577E+04  0.69804467835E+03  0.13131400687E+04  0.25500000920E-02 0.  1.
</event>
<event>
 5   0  0.4250961E-06  0.3140158E+04  0.7818609E-02  0.8204803E-01
       -1   -1    0    0    0  501  0.00000000000E+00  0.00000000000E+00  0.11255099566E+04  0.11255099566E+04  0.50400001928E-02 0.  1.
        1   -1    0    0  501    0  0.00000000000E+00  0.00000000000E+00 -0.21902494891E+04  0.21902494891E+04  0.50400001928E-02 0. -1.
    10030    2    1    2    0    0  0.00000000000E+00  0.00000000000E+00 -0.10647395324E+04  0.33157594457E+04  0.31401577078E+04 0.  0.
        1    1    3    3  502    0  0.23928875281E+03  0.14726821478E+04 -0.16051462331E+02  0.14920822582E+04  0.50400001928E-02 0. -1.
       -1    1    3    3    0  502 -0.23928875281E+03 -0.14726821478E+04 -0.10486880701E+04  0.18236771875E+04  0.50400001928E-02 0.  1.
</event>
<event>
 5   0  0.1007567E-05  0.3175465E+04  0.7818609E-02  0.8195327E-01
        2   -1    0    0  501    0  0.00000000000E+00  0.00000000000E+00  0.12884847984E+04  0.12884847984E+04  0.25500000920E-02 0.  1.
       -2   -1    0    0    0  501  0.00000000000E+00  0.00000000000E+00 -0.19564801320E+04  0.19564801320E+04  0.25500000920E-02 0. -1.
    10030    2    1    2    0    0  0.00000000000E+00  0.00000000000E+00 -0.66799533361E+03  0.32449649303E+04  0.31754652625E+04 0.  0.
        3    1    3    3  502    0 -0.89424019762E+03  0.15672366638E+03  0.99707251751E+03  0.13484737498E+04  0.10100000352E+00 0.  1.
       -3    1    3    3    0  502  0.89424019762E+03 -0.15672366638E+03 -0.16650678511E+04  0.18964911805E+04  0.10100000352E+00 0. -1.
</event>
<event>
 5   0  0.3848286E-06  0.1941868E+04  0.7818609E-02  0.8634292E-01
       -1   -1    0    0    0  501  0.00000000000E+00  0.00000000000E+00  0.10667278130E+04  0.10667278130E+04  0.50400001928E-02 0.  1.
        1   -1    0    0  501    0  0.00000000000E+00  0.00000000000E+00 -0.88374269106E+03  0.88374269108E+03  0.50400001928E-02 0. -1.
    10030    2    1    2    0    0  0.00000000000E+00  0.00000000000E+00  0.18298512197E+03  0.19504705041E+04  0.19418680781E+04 0.  0.
        2    1    3    3  502    0  0.18273506909E+03  0.86524919563E+03 -0.31111303456E+03  0.93746445068E+03  0.25500000920E-02 0. -1.
       -2    1    3    3    0  502 -0.18273506909E+03 -0.86524919563E+03  0.49409815653E+03  0.10130060534E+04  0.25500000920E-02 0.  1.
</event>
<event>
 5   0  0.3838525E-06  0.3307244E+04  0.7818609E-02  0.8161055E-01
        1   -1    0    0  501    0  0.00000000000E+00  0.00000000000E+00  0.99376755134E+03  0.99376755135E+03  0.50400001928E-02 0. -1.
       -1   -1    0    0    0  501  0.00000000000E+00  0.00000000000E+00 -0.27516149114E+04  0.27516149114E+04  0.50400001928E-02 0.  1.
    10030    2    1    2    0    0  0.00000000000E+00  0.00000000000E+00 -0.17578473600E+04  0.37453824627E+04  0.33072439358E+04 0.  0.
        3    1    3    3  502    0  0.47855976534E+03 -0.15661516436E+04 -0.61915577889E+03  0.17507724891E+04  0.10100000352E+00 0. -1.
       -3    1    3    3    0  502 -0.47855976534E+03  0.15661516436E+04 -0.11386915812E+04  0.19946099737E+04  0.10100000352E+00 0.  1.
</event>
<event>
 5   0  0.4139628E-06  0.2991957E+04  0.7818609E-02  0.8246031E-01
       -1   -1    0    0    0  501  0.00000000000E+00  0.00000000000E+00  0.17956898840E+04  0.17956898840E+04  0.50400001928E-02 0. -1.
        1   -1    0    0  501    0  0.00000000000E+00  0.00000000000E+00 -0.12462905230E+04  0.12462905230E+04  0.50400001928E-02 0.  1.
    10030    2    1    2    0    0  0.00000000000E+00  0.00000000000E+00  0.54939936100E+03  0.30419804071E+04  0.29919567409E+04 0.  0.
        5    1    3    3  502    0 -0.73665781387E+03 -0.12110464402E+04 -0.21144847373E+03  0.14331890183E+04  0.46999998093E+01 0.  1.
       -5    1    3    3    0  502  0.73665781387E+03  0.12110464402E+04  0.76084783473E+03  0.16087913888E+04  0.46999998093E+01 0. -1.
</event>
<event>
 5   0  0.3848286E-06  0.3121656E+04  0.7818609E-02  0.8209820E-01
        1   -1    0    0  501    0  0.00000000000E+00  0.00000000000E+00  0.18736594253E+04  0.18736594253E+04  0.50400001928E-02 0.  1.
       -1   -1    0    0    0  501  0.00000000000E+00  0.00000000000E+00 -0.13002273976E+04  0.13002273976E+04  0.50400001928E-02 0. -1.
    10030    2    1    2    0    0  0.00000000000E+00  0.00000000000E+00  0.57343202764E+03  0.31738868229E+04  0.31216555342E+04 0.  0.
        2    1    3    3  502    0  0.83153536563E+02  0.39098615271E+03  0.18207345819E+04  0.18640973955E+04  0.25500000920E-02 0.  1.
       -2    1    3    3    0  502 -0.83153536563E+02 -0.39098615271E+03 -0.12473025543E+04  0.13097894274E+04  0.25500000920E-02 0. -1.
</event>
<event>
 5   0  0.1108153E-05  0.2899684E+04  0.7818609E-02  0.8272972E-01
        2   -1    0    0  501    0  0.00000000000E+00  0.00000000000E+00  0.15797067182E+04  0.15797067182E+04  0.25500000920E-02 0.  1.
       -2   -1    0    0    0  501  0.00000000000E+00  0.00000000000E+00 -0.13306528009E+04  0.13306528009E+04  0.25500000920E-02 0. -1.
    10030    2    1    2    0    0  0.00000000000E+00  0.00000000000E+00  0.24905391731E+03  0.29103595192E+04  0.28996835477E+04 0.  0.
        4    1    3    3  502    0  0.15549483741E+03 -0.36561290256E+03  0.15240020686E+04  0.15749397947E+04  0.12699999809E+01 0.  1.
       -4    1    3    3    0  502 -0.15549483741E+03  0.36561290256E+03 -0.12749481513E+04  0.13354197244E+04  0.12699999809E+01 0. -1.
</event>
<event>
 5   0  0.3807334E-06  0.3231143E+04  0.7818609E-02  0.8180640E-01
       -1   -1    0    0    0  501  0.00000000000E+00  0.00000000000E+00  0.28705374105E+04  0.28705374105E+04  0.50400001928E-02 0. -1.
        1   -1    0    0  501    0  0.00000000000E+00  0.00000000000E+00 -0.90926236416E+03  0.90926236418E+03  0.50400001928E-02 0.  1.
    10030    2    1    2    0    0  0.00000000000E+00  0.00000000000E+00  0.19612750463E+04  0.37797997747E+04  0.32311432233E+04 0.  0.
        4    1    3    3  502    0 -0.34953690377E+03 -0.70575087321E+03 -0.66949321853E+03  0.10336745739E+04  0.12699999809E+01 0.  1.
       -4    1    3    3    0  502  0.34953690377E+03  0.70575087321E+03  0.26307682648E+04  0.27461252008E+04  0.12699999809E+01 0. -1.
</event>
<event>
 5   0  0.3838525E-06  0.3179307E+04  0.7818609E-02  0.8194304E-01
        1   -1    0    0  501    0  0.00000000000E+00  0.00000000000E+00  0.25108087667E+04  0.25108087667E+04  0.50400001928E-02 0. -1.
       -1   -1    0    0    0  501  0.00000000000E+00  0.00000000000E+00 -0.10064481543E+04  0.10064481543E+04  0.50400001928E-02 0.  1.
    10030    2    1    2    0    0  0.00000000000E+00  0.00000000000E+00  0.15043606124E+04  0.35172569209E+04  0.31793073767E+04 0.  0.
        3    1    3    3  502    0 -0.37046404647E+03  0.14915175726E+04  0.30262275010E+03  0.15663488814E+04  0.10100000352E+00 0.  1.
       -3    1    3    3    0  502  0.37046404647E+03 -0.14915175726E+04  0.12017378623E+04  0.19509080396E+04  0.10100000352E+00 0. -1.
</event>
<event>
 5   0  0.3493125E-06  0.3011123E+04  0.7818609E-02  0.8240562E-01
        4   -1    0    0  501    0  0.00000000000E+00  0.00000000000E+00  0.13586807243E+04  0.13586813179E+04  0.12699999809E+01 0.  1.
       -4   -1    0    0    0  501  0.00000000000E+00  0.00000000000E+00 -0.16683199922E+04  0.16683204756E+04  0.12699999809E+01 0. -1.
    10030    2    1    2    0    0  0.00000000000E+00  0.00000000000E+00 -0.30963926789E+03  0.30270017935E+04  0.30111232757E+04 0.  0.
        3    1    3    3  502    0 -0.14435083812E+03  0.12103072357E+04  0.73360257935E+03  0.14226220594E+04  0.10100000352E+00 0.  1.
       -3    1    3    3    0  502  0.14435083812E+03 -0.12103072357E+04 -0.10432418472E+04  0.16043797341E+04  0.10100000352E+00 0. -1.
</event>
<event>
 5   0  0.9797278E-06  0.3098632E+04  0.7818609E-02  0.8216113E-01
       -2   -1    0    0    0  501  0.00000000000E+00  0.00000000000E+00  0.25165685569E+04  0.25165685569E+04  0.25500000920E-02 0. -1.
        2   -1    0    0  501    0  0.00000000000E+00  0.00000000000E+00 -0.95383084265E+03  0.95383084266E+03  0.25500000920E-02 0.  1.
    10030    2    1    2    0    0  0.00000000000E+00  0.00000000000E+00  0.15627377142E+04  0.34703993995E+04  0.30986324127E+04 0.  0.
        1    1    3    3  502    0  0.11789556377E+04 -0.94408424984E+03  0.11679627950E+04  0.19092848287E+04  0.50400001928E-02 0.  1.
       -1    1    3    3    0  502 -0.11789556377E+04  0.94408424984E+03  0.39477491916E+03  0.15611145708E+04  0.50400001928E-02 0. -1.
</event>
<event>
 5   0  0.1007567E-05  0.3116200E+04  0.7818609E-02  0.8211306E-01
       -2   -1    0    0    0  501  0.00000000000E+00  0.00000000000E+00  0.98099892976E+03  0.98099892976E+03  0.25500000920E-02 0. -1.
        2   -1    0    0  501    0  0.00000000000E+00  0.00000000000E+00 -0.24746978728E+04  0.24746978728E+04  0.25500000920E-02 0.  1.
    10030    2    1    2    0    0  0.00000000000E+00  0.00000000000E+00 -0.14936989430E+04  0.34556968026E+04  0.31162002276E+04 0.  0.
        3    1    3    3  502    0  0.87438192053E+03  0.68476191391E+03  0.46501728046E+03  0.12040281155E+04  0.10100000352E+00 0. -1.
       -3    1    3    3    0  502 -0.87438192053E+03 -0.68476191391E+03 -0.19587162235E+04  0.22516686870E+04  0.10100000352E+00 0.  1.
</event>
<event>
 5   0  0.1007567E-05  0.2976553E+04  0.7818609E-02  0.8250458E-01
       -2   -1    0    0    0  501  0.00000000000E+00  0.00000000000E+00  0.22672367572E+04  0.22672367572E+04  0.25500000920E-02 0. -1.
        2   -1    0    0  501    0  0.00000000000E+00  0.00000000000E+00 -0.97694532873E+03  0.97694532874E+03  0.25500000920E-02 0.  1.
    10030    2    1    2    0    0  0.00000000000E+00  0.00000000000E+00  0.12902914285E+04  0.32441820859E+04  0.29765526094E+04 0.  0.
        3    1    3    3  502    0 -0.14597403674E+04  0.14101138054E+02  0.96089239930E+03  0.17476713065E+04  0.10100000352E+00 0. -1.
       -3    1    3    3    0  502  0.14597403674E+04 -0.14101138054E+02  0.32939902916E+03  0.14965107794E+04  0.10100000352E+00 0.  1.
</event>
<event>
 5   0  0.3807334E-06  0.2398903E+04  0.7818609E-02  0.8439914E-01
       -1   -1    0    0    0  501  0.00000000000E+00  0.00000000000E+00  0.92320242026E+03  0.92320242027E+03  0.50400001928E-02 0.  1.
        1   -1    0    0  501    0  0.00000000000E+00  0.00000000000E+00 -0.15583627111E+04  0.15583627111E+04  0.50400001928E-02 0. -1.
    10030    2    1    2    0    0  0.00000000000E+00  0.00000000000E+00 -0.63516029081E+03  0.24815651313E+04  0.23989032715E+04 0.  0.
        4    1    3    3  502    0 -0.68601944361E+02 -0.11914251445E+04 -0.19309002469E+03  0.12089191339E+04  0.12699999809E+01 0. -1.
       -4    1    3    3    0  502  0.68601944361E+02  0.11914251445E+04 -0.44207026612E+03  0.12726459975E+04  0.12699999809E+01 0.  1.
</event>
<event>
 5   0  0.9797278E-06  0.3211147E+04  0.7818609E-02  0.8185880E-01
       -2   -1    0    0    0  501  0.00000000000E+00  0.00000000000E+00  0.17523736004E+04  0.17523736004E+04  0.25500000920E-02 0. -1.
        2   -1    0    0  501    0  0.00000000000E+00  0.00000000000E+00 -0.14710708011E+04  0.14710708011E+04  0.25500000920E-02 0.  1.
    10030    2    1    2    0    0  0.00000000000E+00  0.00000000000E+00  0.28130279938E+03  0.32234444015E+04  0.32111466090E+04 0.  0.
        1    1    3    3  502    0  0.50758228925E+03  0.55889350773E+03 -0.12817664239E+04  0.14875909716E+04  0.50400001928E-02 0.  1.
       -1    1    3    3    0  502 -0.50758228925E+03 -0.55889350773E+03  0.15630692233E+04  0.17358534299E+04  0.50400001928E-02 0. -1.
</event>
<event>
 5   0  0.3848286E-06  0.3066281E+04  0.7818609E-02  0.8225053E-01
        1   -1    0    0  501    0  0.00000000000E+00  0.00000000000E+00  0.21161819396E+04  0.21161819396E+04  0.50400001928E-02 0. -1.
       -1   -1    0    0    0  501  0.00000000000E+00  0.00000000000E+00 -0.11107358557E+04  0.11107358557E+04  0.50400001928E-02 0.  1.
    10030    2    1    2    0    0  0.00000000000E+00  0.00000000000E+00  0.10054460838E+04  0.32269177953E+04  0.30662805857E+04 0.  0.
        2    1    3    3  502    0  0.36951065004E+03  0.48491074174E+03 -0.97768568106E+03  0.11521917544E+04  0.25500000920E-02 0.  1.
       -2    1    3    3    0  502 -0.36951065004E+03 -0.48491074174E+03  0.19831317649E+04  0.20747260409E+04  0.25500000920E-02 0. -1.
</event>
<event>
 5   0  0.4250961E-06  0.3076590E+04  0.7818609E-02  0.8222192E-01
       -1   -1    0    0    0  501  0.00000000000E+00  0.00000000000E+00  0.13715121238E+04  0.13715121238E+04  0.50400001928E-02 0. -1.
        1   -1    0    0  501    0  0.00000000000E+00  0.00000000000E+00 -0.17253591651E+04  0.17253591651E+04  0.50400001928E-02 0.  1.
    10030    2    1    2    0    0  0.00000000000E+00  0.00000000000E+00 -0.35384704129E+03  0.30968712890E+04  0.30765896788E+04 0.  0.
        1    1    3    3  502    0 -0.14284208049E+03 -0.21724498004E+03 -0.17030819349E+04  0.17228137794E+04  0.50400001928E-02 0.  1.
       -1    1    3    3    0  502  0.14284208049E+03  0.21724498004E+03  0.13492348937E+04  0.13740575096E+04  0.50400001928E-02 0. -1.
</event>
<event>
 5   0  0.4139628E-06  0.2803336E+04  0.7818609E-02  0.8302233E-01
       -1   -1    0    0    0  501  0.00000000000E+00  0.00000000000E+00  0.12630130239E+04  0.12630130239E+04  0.50400001928E-02 0.  1.
        1   -1    0    0  501    0  0.00000000000E+00  0.00000000000E+00 -0.15555447229E+04  0.15555447230E+04  0.50400001928E-02 0. -1.
    10030    2    1    2    0    0  0.00000000000E+00  0.00000000000E+00 -0.29253169901E+03  0.28185577469E+04  0.28033360444E+04 0.  0.
        5    1    3    3  502    0  0.10494082891E+04 -0.57878944893E+03  0.58458979766E+03  0.13334250278E+04  0.46999998093E+01 0.  1.
       -5    1    3    3    0  502 -0.10494082891E+04  0.57878944893E+03 -0.87712149667E+03  0.14851327191E+04  0.46999998093E+01 0. -1.
</event>
<event>
 5   0  0.1119100E-05  0.2947366E+04  0.7818609E-02  0.8258922E-01
       -2   -1    0    0    0  501  0.00000000000E+00  0.00000000000E+00  0.15082283289E+04  0.15082283289E+04  0.25500000920E-02 0. -1.
        2   -1    0    0  501    0  0.00000000000E+00  0.00000000000E+00 -0.14399292629E+04  0.14399292629E+04  0.25500000920E-02 0.  1.
    10030    2    1    2    0    0  0.00000000000E+00  0.00000000000E+00  0.68299065993E+02  0.29481575918E+04  0.29473663538E+04 0.  0.
        2    1    3    3  502    0  0.27944434165E+03  0.55556417716E+03  0.13705476503E+04  0.15050387227E+04  0.25500000920E-02 0. -1.
       -2    1    3    3    0  502 -0.27944434165E+03 -0.55556417716E+03 -0.13022485843E+04  0.14431188691E+04  0.25500000920E-02 0.  1.
</event>
<event>
 5   0  0.9797278E-06  0.3058085E+04  0.7818609E-02  0.8227336E-01
       -2   -1    0    0    0  501  0.00000000000E+00  0.00000000000E+00  0.18307629689E+04  0.18307629689E+04  0.25500000920E-02 0. -1.
        2   -1    0    0  501    0  0.00000000000E+00  0.00000000000E+00 -0.12770475591E+04  0.12770475591E+04  0.25500000920E-02 0.  1.
    10030    2    1    2    0    0  0.00000000000E+00  0.00000000000E+00  0.55371540979E+03  0.31078105280E+04  0.30580852707E+04 0.  0.
        1    1    3    3  502    0  0.30530252895E+03 -0.41333991855E+03 -0.11866671082E+04  0.12931505512E+04  0.50400001928E-02 0.  1.
       -1    1    3    3    0  502 -0.30530252895E+03  0.41333991855E+03  0.17403825179E+04  0.18146599768E+04  0.50400001928E-02 0. -1.
</event>
<event>
 5   0  0.1001961E-05  0.3075340E+04  0.7818609E-02  0.8222538E-01
        2   -1    0    0  501    0  0.00000000000E+00  0.00000000000E+00  0.20138424242E+04  0.20138424242E+04  0.25500000920E-02 0. -1.
       -2   -1    0    0    0  501  0.00000000000E+00  0.00000000000E+00 -0.11740886563E+04  0.11740886563E+04  0.25500000920E-02 0.  1.
    10030    2    1    2    0    0  0.00000000000E+00  0.00000000000E+00  0.83975376795E+03  0.31879310805E+04  0.30753403362E+04 0.  0.
        5    1    3    3  502    0  0.49446206809E+02  0.99990509053E+03  0.16297186679E+04  0.19126578742E+04  0.46999998093E+01 0. -1.
       -5    1    3    3    0  502 -0.49446206809E+02 -0.99990509053E+03 -0.78996489994E+03  0.12752732062E+04  0.46999998093E+01 0.  1.
</event>
<event>
 5   0  0.3493125E-06  0.3072595E+04  0.7818609E-02  0.8223299E-01
        3   -1    0    0  501    0  0.00000000000E+00  0.00000000000E+00  0.24207414485E+04  0.24207414506E+04  0.10100000352E+00 0.  1.
       -3   -1    0    0    0  501  0.00000000000E+00  0.00000000000E+00 -0.97499472383E+03  0.97499472906E+03  0.10100000352E+00 0. -1.
    10030    2    1    2    0    0  0.00000000000E+00  0.00000000000E+00  0.14457467247E+04  0.33957361797E+04  0.30725950937E+04 0.  0.
        3    1    3    3  502    0 -0.27781353826E+03 -0.23501934646E+02  0.23925480214E+04  0.24087379990E+04  0.10100000352E+00 0.  1.
       -3    1    3    3    0  502  0.27781353826E+03  0.23501934646E+02 -0.94680129672E+03  0.98699818067E+03  0.10100000352E+00 0. -1.
</event>
<event>
 5   0  0.3493125E-06  0.1586023E+04  0.7818609E-02  0.8829181E-01
       -4   -1    0    0    0  501  0.00000000000E+00  0.00000000000E+00  0.56044512611E+03  0.56044656505E+03  0.12699999809E+01 0. -1.
        4   -1    0    0  501    0  0.00000000000E+00  0.00000000000E+00 -0.11220824715E+04  0.11220831902E+04  0.12699999809E+01 0.  1.
    10030    2    1    2    0    0  0.00000000000E+00  0.00000000000E+00 -0.56163734540E+03  0.16825297553E+04  0.15860232878E+04 0.  0.
        1    1    3    3  502    0 -0.13066092216E+03 -0.12616053976E+03 -0.10997210420E+04  0.11146188266E+04  0.50400001928E-02 0.  1.
       -1    1    3    3    0  502  0.13066092216E+03  0.12616053976E+03  0.53808369658E+03  0.56791092868E+03  0.50400001928E-02 0. -1.
</event>
<event>
 5   0  0.1108153E-05  0.1771952E+04  0.7818609E-02  0.8721359E-01
       -2   -1    0    0    0  501  0.00000000000E+00  0.00000000000E+00  0.89506659877E+03  0.89506659878E+03  0.25500000920E-02 0.  1.
        2   -1    0    0  501    0  0.00000000000E+00  0.00000000000E+00 -0.87697739993E+03  0.87697739993E+03  0.25500000920E-02 0. -1.
    10030    2    1    2    0    0  0.00000000000E+00  0.00000000000E+00  0.18089198848E+02  0.17720439987E+04  0.17719516681E+04 0.  0.
        4    1    3    3  502    0 -0.55030953602E+03  0.65534556010E+03  0.23847577060E+03  0.88836405524E+03  0.12699999809E+01 0.  1.
       -4    1    3    3    0  502  0.55030953602E+03 -0.65534556010E+03 -0.22038657175E+03  0.88367994347E+03  0.12699999809E+01 0. -1.
</event>
<event>
 5   0  0.9797278E-06  0.1612231E+04  0.7818609E-02  0.8813069E-01
        2   -1    0    0  501    0  0.00000000000E+00  0.00000000000E+00  0.80402073806E+03  0.80402073806E+03  0.25500000920E-02 0. -1.
       -2   -1    0    0    0  501  0.00000000000E+00  0.00000000000E+00 -0.80821602362E+03  0.80821602362E+03  0.25500000920E-02 0.  1.
    10030    2    1    2    0    0  0.00000000000E+00  0.00000000000E+00 -0.41952855619E+01  0.16122367617E+04  0.16122313033E+04 0.  0.
        1    1    3    3  502    0 -0.18489547790E+03 -0.16530894061E+03 -0.76911331654E+03  0.80811427242E+03  0.50400001928E-02 0.  1.
       -1    1    3    3    0  502  0.18489547790E+03  0.16530894061E+03  0.76491803098E+03  0.80412248926E+03  0.50400001928E-02 0. -1.
</event>
<event>
 5   0  0.4250961E-06  0.2617087E+04  0.7818609E-02  0.8362420E-01
       -1   -1    0    0    0  501  0.00000000000E+00  0.00000000000E+00  0.98770064919E+03  0.98770064921E+03  0.50400001928E-02 0. -1.
        1   -1    0    0  501    0  0.00000000000E+00  0.00000000000E+00 -0.17336084048E+04  0.17336084048E+04  0.50400001928E-02 0.  1.
    10030    2    1    2    0    0  0.00000000000E+00  0.00000000000E+00 -0.74590775560E+03  0.27213090540E+04  0.26170870424E+04 0.  0.
        1    1    3    3  502    0  0.11134093624E+04  0.47333343685E+03  0.14545969621E+03  0.12185579486E+04  0.50400001928E-02 0. -1.
       -1    1    3    3    0  502 -0.11134093624E+04 -0.47333343685E+03 -0.89136745181E+03  0.15027511054E+04  0.50400001928E-02 0.  1.
</event>
<event>
 5   0  0.4139628E-06  0.3171016E+04  0.7818609E-02  0.8196514E-01
       -1   -1    0    0    0  501  0.00000000000E+00  0.00000000000E+00  0.87817246813E+03  0.87817246814E+03  0.50400001928E-02 0. -1.
        1   -1    0    0  501    0  0.00000000000E+00  0.00000000000E+00 -0.28625768333E+04  0.28625768333E+04  0.50400001928E-02 0.  1.
    10030    2    1    2    0    0  0.00000000000E+00  0.00000000000E+00 -0.19844043652E+04  0.37407493014E+04  0.31710163437E+04 0.  0.
        5    1    3    3  502    0 -0.42972438188E+03  0.46413434582E+03 -0.27072842792E+04  0.27801967545E+04  0.46999998093E+01 0.  1.
       -5    1    3    3    0  502  0.42972438188E+03 -0.46413434582E+03  0.72287991403E+03  0.96055254695E+03  0.46999998093E+01 0. -1.
</event>
<event>
 5   0  0.1001961E-05  0.1719375E+04  0.7818609E-02  0.8750390E-01
       -2   -1    0    0    0  501  0.00000000000E+00  0.00000000000E+00  0.32604139104E+03  0.32604139105E+03  0.25500000920E-02 0.  1.
        2   -1    0    0  501    0  0.00000000000E+00  0.00000000000E+00 -0.22667764034E+04  0.22667764034E+04  0.25500000920E-02 0. -1.
    10030    2    1    2    0    0  0.00000000000E+00  0.00000000000E+00 -0.19407350124E+04  0.25928177945E+04  0.17193753886E+04 0.  0.
        5    1    3    3  502    0 -0.77798628089E+03 -0.36575610167E+03 -0.96913999095E+03  0.12954900969E+04  0.46999998093E+01 0. -1.
       -5    1    3    3    0  502  0.77798628089E+03  0.36575610167E+03 -0.97159502143E+03  0.12973276975E+04  0.46999998093E+01 0.  1.
</event>
<event>
 5   0  0.1001961E-05  0.2975936E+04  0.7818609E-02  0.8250636E-01
       -2   -1    0    0    0  501  0.00000000000E+00  0.00000000000E+00  0.73460770748E+03  0.73460770748E+03  0.25500000920E-02 0.  1.
        2   -1    0    0  501    0  0.00000000000E+00  0.00000000000E+00 -0.30139194298E+04  0.30139194298E+04  0.25500000920E-02 0. -1.
    10030    2    1    2    0    0  0.00000000000E+00  0.00000000000E+00 -0.22793117224E+04  0.37485271373E+04  0.29759357808E+04 0.  0.
        5    1    3    3  502    0 -0.62311742515E+03  0.35720781093E+03 -0.27810980444E+04  0.28723511569E+04  0.46999998093E+01 0. -1.
       -5    1    3    3    0  502  0.62311742515E+03 -0.35720781093E+03  0.50178632205E+03  0.87617598045E+03  0.46999998093E+01 0.  1.
</event>
<event>
 5   0  0.1001961E-05  0.3085144E+04  0.7818609E-02  0.8219827E-01
       -2   -1    0    0    0  501  0.00000000000E+00  0.00000000000E+00  0.80380804147E+03  0.80380804147E+03  0.25500000920E-02 0.  1.
        2   -1    0    0  501    0  0.00000000000E+00  0.00000000000E+00 -0.29603200647E+04  0.29603200647E+04  0.25500000920E-02 0. -1.
    10030    2    1    2    0    0  0.00000000000E+00  0.00000000000E+00 -0.21565120233E+04  0.37641281062E+04  0.30851444526E+04 0.  0.
        5    1    3    3  502    0  0.31936796346E+03  0.73359024483E+03 -0.26873565751E+04  0.28039361610E+04  0.46999998093E+01 0. -1.
       -5    1    3    3    0  502 -0.31936796346E+03 -0.73359024483E+03  0.53084455183E+03  0.96019194518E+03  0.46999998093E+01 0.  1.
</event>
<event>
 5   0  0.1108153E-05  0.2438469E+04  0.7818609E-02  0.8425240E-01
        2   -1    0    0  501    0  0.00000000000E+00  0.00000000000E+00  0.17402739392E+04  0.17402739392E+04  0.25500000920E-02 0. -1.
       -2   -1    0    0    0  501  0.00000000000E+00  0.00000000000E+00 -0.85419461117E+03  0.85419461117E+03  0.25500000920E-02 0.  1.
    10030    2    1    2    0    0  0.00000000000E+00  0.00000000000E+00  0.88607932798E+03  0.25944685503E+04  0.24384688809E+04 0.  0.
        4    1    3    3  502    0 -0.83834696050E+03  0.57592485122E+02  0.13829504209E+04  0.16182385486E+04  0.12699999809E+01 0. -1.
       -4    1    3    3    0  502  0.83834696050E+03 -0.57592485122E+02 -0.49687109289E+03  0.97623000178E+03  0.12699999809E+01 0.  1.
</event>
<event>
 5   0  0.9797278E-06  0.3025383E+04  0.7818609E-02  0.8236520E-01
        2   -1    0    0  501    0  0.00000000000E+00  0.00000000000E+00  0.15418890438E+04  0.15418890438E+04  0.25500000920E-02 0.  1.
       -2   -1    0    0    0  501  0.00000000000E+00  0.00000000000E+00 -0.14840466640E+04  0.14840466640E+04  0.25500000920E-02 0. -1.
    10030    2    1    2    0    0  0.00000000000E+00  0.00000000000E+00  0.57842379722E+02  0.30259357078E+04  0.30253828133E+04 0.  0.
        1    1    3    3  502    0 -0.34326737425E+03 -0.13070257354E+04 -0.65097250651E+03  0.14999713222E+04  0.50400001928E-02 0. -1.
       -1    1    3    3    0  502  0.34326737425E+03  0.13070257354E+04  0.70881488624E+03  0.15259643856E+04  0.50400001928E-02 0.  1.
</event>
<event>
 5   0  0.4139628E-06  0.3082363E+04  0.7818609E-02  0.8220595E-01
       -1   -1    0    0    0  501  0.00000000000E+00  0.00000000000E+00  0.17744163749E+04  0.17744163749E+04  0.50400001928E-02 0.  1.
        1   -1    0    0  501    0  0.00000000000E+00  0.00000000000E+00 -0.13386041577E+04  0.13386041577E+04  0.50400001928E-02 0. -1.
    10030    2    1    2    0    0  0.00000000000E+00  0.00000000000E+00  0.43581221726E+03  0.31130205326E+04  0.30823634679E+04 0.  0.
        5    1    3    3  502    0  0.57394932213E+03  0.13731748940E+04  0.62212672262E+03  0.16130997684E+04  0.46999998093E+01 0.  1.
       -5    1    3    3    0  502 -0.57394932213E+03 -0.13731748940E+04 -0.18631450537E+03  0.14999207642E+04  0.46999998093E+01 0. -1.
</event>
<event>
 5   0  0.1007567E-05  0.3111601E+04  0.7818609E-02  0.8212561E-01
        2   -1    0    0  501    0  0.00000000000E+00  0.00000000000E+00  0.23506806679E+04  0.23506806679E+04  0.25500000920E-02 0.  1.
       -2   -1    0    0    0  501  0.00000000000E+00  0.00000000000E+00 -0.10297078987E+04  0.10297078987E+04  0.25500000920E-02 0. -1.
    10030    2    1    2    0    0  0.00000000000E+00  0.00000000000E+00  0.13209727692E+04  0.33803885666E+04  0.31116005213E+04 0.  0.
        3    1    3    3  502    0  0.15370274016E+04  0.24015699752E+03  0.68182555201E+03  0.16985331054E+04  0.10100000352E+00 0. -1.
       -3    1    3    3    0  502 -0.15370274016E+04 -0.24015699752E+03  0.63914721718E+03  0.16818554611E+04  0.10100000352E+00 0.  1.
</event>
<event>
 5   0  0.1108153E-05  0.3104656E+04  0.7818609E-02  0.8214461E-01
       -2   -1    0    0    0  501  0.00000000000E+00  0.00000000000E+00  0.10689155210E+04  0.10689155210E+04  0.25500000920E-02 0. -1.
        2   -1    0    0  501    0  0.00000000000E+00  0.00000000000E+00 -0.22543618238E+04  0.22543618238E+04  0.25500000920E-02 0.  1.
    10030    2    1    2    0    0  0.00000000000E+00  0.00000000000E+00 -0.11854463028E+04  0.33232773448E+04  0.31046560798E+04 0.  0.
        4    1    3    3  502    0 -0.68269362246E+02 -0.86000162365E+03 -0.19741243592E+04  0.21543983143E+04  0.12699999809E+01 0.  1.
       -4    1    3    3    0  502  0.68269362246E+02  0.86000162365E+03  0.78867805632E+03  0.11688790305E+04  0.12699999809E+01 0. -1.
</event>
<event>
 5   0  0.3838525E-06  0.2560799E+04  0.7818609E-02  0.8381640E-01
        1   -1    0    0  501    0  0.00000000000E+00  0.00000000000E+00  0.13803688748E+04  0.13803688748E+04  0.50400001928E-02 0.  1.
       -1   -1    0    0    0  501  0.00000000000E+00  0.00000000000E+00 -0.11876704603E+04  0.11876704603E+04  0.50400001928E-02 0. -1.
    10030    2    1    2    0    0  0.00000000000E+00  0.00000000000E+00  0.19269841450E+03  0.25680393351E+04  0.25607993572E+04 0.  0.
        3    1    3    3  502    0 -0.11848960219E+04 -0.40797825863E+03 -0.16706906416E+03  0.12642535049E+04  0.10100000352E+00 0. -1.
       -3    1    3    3    0  502  0.11848960219E+04  0.40797825863E+03  0.35976747867E+03  0.13037858302E+04  0.10100000352E+00 0.  1.
</event>
<event>
 5   0  0.1001961E-05  0.3243208E+04  0.7818609E-02  0.8177498E-01
        2   -1    0    0  501    0  0.00000000000E+00  0.00000000000E+00  0.13754507653E+04  0.13754507653E+04  0.25500000920E-02 0. -1.
       -2   -1    0    0    0  501  0.00000000000E+00  0.00000000000E+00 -0.19118087775E+04  0.19118087775E+04  0.25500000920E-02 0.  1.
    10030    2    1    2    0    0  0.00000000000E+00  0.00000000000E+00 -0.53635801221E+03  0.32872595429E+04  0.32432075766E+04 0.  0.
        5    1    3    3  502    0  0.87716054779E+03  0.87853357574E+03  0.78922881739E+03  0.14711002979E+04  0.46999998093E+01 0. -1.
       -5    1    3    3    0  502 -0.87716054779E+03 -0.87853357574E+03 -0.13255868296E+04  0.18161592450E+04  0.46999998093E+01 0.  1.
</event>
<event>
 5   0  0.1119100E-05  0.3098255E+04  0.7818609E-02  0.8216217E-01
        2   -1    0    0  501    0  0.00000000000E+00  0.00000000000E+00  0.17748575272E+04  0.17748575273E+04  0.25500000920E-02 0.  1.
       -2   -1    0    0    0  501  0.00000000000E+00  0.00000000000E+00 -0.13521060556E+04  0.13521060556E+04  0.25500000920E-02 0. -1.
    10030    2    1    2    0    0  0.00000000000E+00  0.00000000000E+00  0.42275147169E+03  0.31269635828E+04  0.30982547412E+04 0.  0.
        2    1    3    3  502    0 -0.12137536364E+04 -0.44730280518E+03 -0.64888255356E+03  0.14471787235E+04  0.25500000920E-02 0. -1.
       -2    1    3    3    0  502  0.12137536364E+04  0.44730280518E+03  0.10716340252E+04  0.16797848593E+04  0.25500000920E-02 0.  1.
</event>
<event>
 5   0  0.4250961E-06  0.3118030E+04  0.7818609E-02  0.8210807E-01
       -1   -1    0    0    0  501  0.00000000000E+00  0.00000000000E+00  0.13063179145E+04  0.13063179145E+04  0.50400001928E-02 0.  1.
        1   -1    0    0  501    0  0.00000000000E+00  0.00000000000E+00 -0.18605946394E+04  0.18605946394E+04  0.50400001928E-02 0. -1.
    10030    2    1    2    0    0  0.00000000000E+00  0.00000000000E+00 -0.55427672490E+03  0.31669125539E+04  0.31180302173E+04 0.  0.
        1    1    3    3  502    0  0.27501386103E+03 -0.78972036126E+02 -0.18336978617E+04  0.18558871340E+04  0.50400001928E-02 0. -1.
       -1    1    3    3    0  502 -0.27501386103E+03  0.78972036126E+02  0.12794211368E+04  0.13110254199E+04  0.50400001928E-02 0.  1.
</event>
<event>
 5   0  0.1001961E-05  0.1939416E+04  0.7818609E-02  0.8635482E-01
       -2   -1    0    0    0  501  0.00000000000E+00  0.00000000000E+00  0.97611062089E+03  0.97611062090E+03  0.25500000920E-02 0.  1.
        2   -1    0    0  501    0  0.00000000000E+00  0.00000000000E+00 -0.96334706406E+03  0.96334706406E+03  0.25500000920E-02 0. -1.
    10030    2    1    2    0    0  0.00000000000E+00  0.00000000000E+00  0.12763556833E+02  0.19394576850E+04  0.19394156861E+04 0.  0.
        5    1    3    3  502    0  0.95838887091E+03 -0.14426671760E+03 -0.25068817689E+02  0.96952186634E+03  0.46999998093E+01 0. -1.
       -5    1    3    3    0  502 -0.95838887091E+03  0.14426671760E+03  0.37832374521E+02  0.96993581862E+03  0.46999998093E+01 0.  1.
</event>
<event>
 5   0  0.1001961E-05  0.3131969E+04  0.7818609E-02  0.8207019E-01
       -2   -1    0    0    0  501  0.00000000000E+00  0.00000000000E+00  0.13258291969E+04  0.13258291969E+04  0.25500000920E-02 0.  1.
        2   -1    0    0  501    0  0.00000000000E+00  0.00000000000E+00 -0.18496404288E+04  0.18496404288E+04  0.25500000920E-02 0. -1.
    10030    2    1    2    0    0  0.00000000000E+00  0.00000000000E+00 -0.52381123181E+03  0.31754696257E+04  0.31319688915E+04 0.  0.
        5    1    3    3  502    0 -0.60846964634E+03  0.11974956999E+04  0.55429345938E+03  0.14530982729E+04  0.46999998093E+01 0.  1.
       -5    1    3    3    0  502  0.60846964634E+03 -0.11974956999E+04 -0.10781046912E+04  0.17223713528E+04  0.46999998093E+01 0. -1.
</event>
<event>
 5   0  0.1007567E-05  0.3400974E+04  0.7818609E-02  0.8137667E-01
       -2   -1    0    0    0  501  0.00000000000E+00  0.00000000000E+00  0.19987946776E+04  0.19987946776E+04  0.25500000920E-02 0. -1.
        2   -1    0    0  501    0  0.00000000000E+00  0.00000000000E+00 -0.14466996879E+04  0.14466996879E+04  0.25500000920E-02 0.  1.
    10030    2    1    2    0    0  0.00000000000E+00  0.00000000000E+00  0.55209498977E+03  0.34454943655E+04  0.34009737642E+04 0.  0.
        3    1    3    3  502    0 -0.14395466076E+04 -0.84857289977E+03  0.59526784786E+03  0.17738980304E+04  0.10100000352E+00 0. -1.
       -3    1    3    3    0  502  0.14395466076E+04  0.84857289977E+03 -0.43172858090E+02  0.16715963351E+04  0.10100000352E+00 0.  1.
</event>
<event>
 5   0  0.3848286E-06  0.3144384E+04  0.7818609E-02  0.8203662E-01
        1   -1    0    0  501    0  0.00000000000E+00  0.00000000000E+00  0.27555446652E+04  0.27555446652E+04  0.50400001928E-02 0. -1.
       -1   -1    0    0    0  501  0.00000000000E+00  0.00000000000E+00 -0.89702301849E+03  0.89702301850E+03  0.50400001928E-02 0.  1.
    10030    2    1    2    0    0  0.00000000000E+00  0.00000000000E+00  0.18585216467E+04  0.36525676837E+04  0.31443835600E+04 0.  0.
        2    1    3    3  502    0  0.14880385623E+04  0.36531256346E+03  0.52008983863E+03  0.16180869792E+04  0.25500000920E-02 0.  1.
       -2    1    3    3    0  502 -0.14880385623E+04 -0.36531256346E+03  0.13384318081E+04  0.20344807045E+04  0.25500000920E-02 0. -1.
</event>
<event>
 5   0  0.4139628E-06  0.3081613E+04  0.7818609E-02  0.8220802E-01
        1   -1    0    0  501    0  0.00000000000E+00  0.00000000000E+00  0.23675402899E+04  0.23675402899E+04  0.50400001928E-02 0. -1.
       -1   -1    0    0    0  501  0.00000000000E+00  0.00000000000E+00 -0.10027643447E+04  0.10027643448E+04  0.50400001928E-02 0.  1.
    10030    2    1    2    0    0  0.00000000000E+00  0.00000000000E+00  0.13647759452E+04  0.33703046347E+04  0.30816132058E+04 0.  0.
        5    1    3    3  502    0 -0.12156082819E+04  0.33085437347E+03  0.16525613767E+04  0.20780157134E+04  0.46999998093E+01 0. -1.
       -5    1    3    3    0  502  0.12156082819E+04 -0.33085437347E+03 -0.28778543153E+03  0.12922889213E+04  0.46999998093E+01 0.  1.
</event>
<event>
 5   0  0.1119100E-05  0.1528958E+04  0.7818609E-02  0.8865421E-01
        2   -1    0    0  501    0  0.00000000000E+00  0.00000000000E+00  0.56039659938E+03  0.56039659939E+03  0.25500000920E-02 0.  1.
       -2   -1    0    0    0  501  0.00000000000E+00  0.00000000000E+00 -0.10428829615E+04  0.10428829615E+04  0.25500000920E-02 0. -1.
    10030    2    1    2    0    0  0.00000000000E+00  0.00000000000E+00 -0.48248636212E+03  0.16032795609E+04  0.15289579003E+04 0.  0.
        2    1    3    3  502    0  0.49492451426E+03  0.26640346716E+03 -0.78460800667E+03  0.96515843584E+03  0.25500000920E-02 0. -1.
       -2    1    3    3    0  502 -0.49492451426E+03 -0.26640346716E+03  0.30212164454E+03  0.63812112506E+03  0.25500000920E-02 0.  1.
</event>
<event>
 5   0  0.9797278E-06  0.1974738E+04  0.7818609E-02  0.8618524E-01
       -2   -1    0    0    0  501  0.00000000000E+00  0.00000000000E+00  0.94584342408E+03  0.94584342408E+03  0.25500000920E-02 0. -1.
        2   -1    0    0  501    0  0.00000000000E+00  0.00000000000E+00 -0.10307173538E+04  0.10307173538E+04  0.25500000920E-02 0.  1.
    10030    2    1    2    0    0  0.00000000000E+00  0.00000000000E+00 -0.84873929700E+02  0.19765607779E+04  0.19747376850E+04 0.  0.
        1    1    3    3  502    0 -0.30765673221E+03 -0.67662567623E+03 -0.69297719223E+03  0.10162147212E+04  0.50400001928E-02 0.  1.
       -1    1    3    3    0  502  0.30765673221E+03  0.67662567623E+03  0.60810326253E+03  0.96034605666E+03  0.50400001928E-02 0. -1.
</event>
<event>
 5   0  0.3848286E-06  0.2751254E+04  0.7818609E-02  0.8318564E-01
        1   -1    0    0  501    0  0.00000000000E+00  0.00000000000E+00  0.24291041771E+04  0.24291041771E+04  0.50400001928E-02 0. -1.
       -1   -1    0    0    0  501  0.00000000000E+00  0.00000000000E+00 -0.77903190607E+03  0.77903190609E+03  0.50400001928E-02 0.  1.
    10030    2    1    2    0    0  0.00000000000E+00  0.00000000000E+00  0.16500722710E+04  0.32081360832E+04  0.27512540102E+04 0.  0.
        2    1    3    3  502    0 -0.11755474214E+04 -0.90769936327E+02  0.16513782763E+04  0.20290887444E+04  0.25500000920E-02 0. -1.
       -2    1    3    3    0  502  0.11755474214E+04  0.90769936327E+02 -0.13060053271E+01  0.11790473387E+04  0.25500000920E-02 0.  1.
</event>
<event>
 5   0  0.3838525E-06  0.3183871E+04  0.7818609E-02  0.8193090E-01
        1   -1    0    0  501    0  0.00000000000E+00  0.00000000000E+00  0.13741448904E+04  0.13741448904E+04  0.50400001928E-02 0. -1.
       -1   -1    0    0    0  501  0.00000000000E+00  0.00000000000E+00 -0.18442438835E+04  0.18442438835E+04  0.50400001928E-02 0.  1.
    10030    2    1    2    0    0  0.00000000000E+00  0.00000000000E+00 -0.47009899312E+03  0.32183887739E+04  0.31838707946E+04 0.  0.
        3    1    3    3  502    0 -0.14005007590E+04 -0.69180021209E+03  0.75310768057E+02  0.15638611292E+04  0.10100000352E+00 0. -1.
       -3    1    3    3    0  502  0.14005007590E+04  0.69180021209E+03 -0.54540976118E+03  0.16545276447E+04  0.10100000352E+00 0.  1.
</event>
<event>
 5   0  0.1119100E-05  0.3194580E+04  0.7818609E-02  0.8190250E-01
        2   -1    0    0  501    0  0.00000000000E+00  0.00000000000E+00  0.28194575340E+04  0.28194575340E+04  0.25500000920E-02 0.  1.
       -2   -1    0    0    0  501  0.00000000000E+00  0.00000000000E+00 -0.90490316292E+03  0.90490316293E+03  0.25500000920E-02 0. -1.
    10030    2    1    2    0    0  0.00000000000E+00  0.00000000000E+00  0.19145543710E+04  0.37243606969E+04  0.31945804358E+04 0.  0.
        2    1    3    3  502    0 -0.61605045005E+03  0.11043431025E+04  0.20949361000E+04  0.24470081953E+04  0.25500000920E-02 0.  1.
       -2    1    3    3    0  502  0.61605045005E+03 -0.11043431025E+04 -0.18038172894E+03  0.12773525015E+04  0.25500000920E-02 0. -1.
</event>
<event>
 5   0  0.4250961E-06  0.3278491E+04  0.7818609E-02  0.8168390E-01
        1   -1    0    0  501    0  0.00000000000E+00  0.00000000000E+00  0.23312300573E+04  0.23312300573E+04  0.50400001928E-02 0.  1.
       -1   -1    0    0    0  501  0.00000000000E+00  0.00000000000E+00 -0.11526641360E+04  0.11526641360E+04  0.50400001928E-02 0. -1.
    10030    2    1    2    0    0  0.00000000000E+00  0.00000000000E+00  0.11785659213E+04  0.34838941933E+04  0.32784906770E+04 0.  0.
        1    1    3    3  502    0 -0.11902326119E+04 -0.10784422697E+04  0.24097641621E+03  0.16241185402E+04  0.50400001928E-02 0. -1.
       -1    1    3    3    0  502  0.11902326119E+04  0.10784422697E+04  0.93758950512E+03  0.18597756530E+04  0.50400001928E-02 0.  1.
</event>
<event>
 5   0  0.4250961E-06  0.2735573E+04  0.7818609E-02  0.8323554E-01
        1   -1    0    0  501    0  0.00000000000E+00  0.00000000000E+00  0.21181898483E+04  0.21181898483E+04  0.50400001928E-02 0. -1.
       -1   -1    0    0    0  501  0.00000000000E+00  0.00000000000E+00 -0.88322587970E+03  0.88322587972E+03  0.50400001928E-02 0.  1.
    10030    2    1    2    0    0  0.00000000000E+00  0.00000000000E+00  0.12349639686E+04  0.30014157280E+04  0.27355731335E+04 0.  0.
        1    1    3    3  502    0  0.77397343367E+00 -0.12024205833E+04 -0.97812161760E+02  0.12063925884E+04  0.50400001928E-02 0.  1.
       -1    1    3    3    0  502 -0.77397343367E+00  0.12024205833E+04  0.13327761304E+04  0.17950231397E+04  0.50400001928E-02 0. -1.
</event>
<event>
 5   0  0.3848286E-06  0.3263036E+04  0.7818609E-02  0.8172365E-01
        1   -1    0    0  501    0  0.00000000000E+00  0.00000000000E+00  0.17643569415E+04  0.17643569415E+04  0.50400001928E-02 0. -1.
       -1   -1    0    0    0  501  0.00000000000E+00  0.00000000000E+00 -0.15086801367E+04  0.15086801367E+04  0.50400001928E-02 0.  1.
    10030    2    1    2    0    0  0.00000000000E+00  0.00000000000E+00  0.25567680481E+03  0.32730370783E+04  0.32630355633E+04 0.  0.
        2    1    3    3  502    0 -0.68743983449E+03  0.55921093851E+02 -0.13552568842E+04  0.15206649588E+04  0.25500000920E-02 0.  1.
       -2    1    3    3    0  502  0.68743983449E+03 -0.55921093851E+02  0.16109336890E+04  0.17523721195E+04  0.25500000920E-02 0. -1.
</event>
<event>
 5   0  0.1108153E-05  0.3073564E+04  0.7818609E-02  0.8223031E-01
        2   -1    0    0  501    0  0.00000000000E+00  0.00000000000E+00  0.17039390490E+04  0.17039390490E+04  0.25500000920E-02 0. -1.
       -2   -1    0    0    0  501  0.00000000000E+00  0.00000000000E+00 -0.13860234980E+04  0.13860234980E+04  0.25500000920E-02 0.  1.
    10030    2    1    2    0    0  0.00000000000E+00  0.00000000000E+00  0.31791555097E+03  0.30899625470E+04  0.30735644201E+04 0.  0.
        4    1    3    3  502    0 -0.34056809345E+03  0.64640785636E+03 -0.12002421268E+04  0.14051379003E+04  0.12699999809E+01 0.  1.
       -4    1    3    3    0  502  0.34056809345E+03 -0.64640785636E+03  0.15181576777E+04  0.16848246468E+04  0.12699999809E+01 0. -1.
</event>
<event>
 5   0  0.1001961E-05  0.3032207E+04  0.7818609E-02  0.8234593E-01
        2   -1    0    0  501    0  0.00000000000E+00  0.00000000000E+00  0.12433031433E+04  0.12433031433E+04  0.25500000920E-02 0.  1.
       -2   -1    0    0    0  501  0.00000000000E+00  0.00000000000E+00 -0.18487603465E+04  0.18487603465E+04  0.25500000920E-02 0. -1.
    10030    2    1    2    0    0  0.00000000000E+00  0.00000000000E+00 -0.60545720319E+03  0.30920634899E+04  0.30322068202E+04 0.  0.
        5    1    3    3  502    0  0.11919160884E+04  0.76993201336E+03 -0.84720517468E+03  0.16526457469E+04  0.46999998093E+01 0. -1.
       -5    1    3    3    0  502 -0.11919160884E+04 -0.76993201336E+03  0.24174797149E+03  0.14394177429E+04  0.46999998093E+01 0.  1.
</event>
<event>
 5   0  0.1108153E-05  0.3171348E+04  0.7818609E-02  0.8196425E-01
        2   -1    0    0  501    0  0.00000000000E+00  0.00000000000E+00  0.19997332475E+04  0.19997332475E+04  0.25500000920E-02 0.  1.
       -2   -1    0    0    0  501  0.00000000000E+00  0.00000000000E+00 -0.12573488569E+04  0.12573488569E+04  0.25500000920E-02 0. -1.
    10030    2    1    2    0    0  0.00000000000E+00  0.00000000000E+00  0.74238439061E+03  0.32570821044E+04  0.31713481757E+04 0.  0.
        4    1    3    3  502    0  0.40175317946E+03 -0.78358573928E+03  0.17255335447E+04  0.19372351057E+04  0.12699999809E+01 0.  1.
       -4    1    3    3    0  502 -0.40175317946E+03  0.78358573928E+03 -0.98314915408E+03  0.13198469987E+04  0.12699999809E+01 0. -1.
</event>
<event>
 5   0  0.9797278E-06  0.3084196E+04  0.7818609E-02  0.8220089E-01
       -2   -1    0    0    0  501  0.00000000000E+00  0.00000000000E+00  0.12254216997E+04  0.12254216997E+04  0.25500000920E-02 0.  1.
        2   -1    0    0  501    0  0.00000000000E+00  0.00000000000E+00 -0.19406100159E+04  0.19406100159E+04  0.25500000920E-02 0. -1.
    10030    2    1    2    0    0  0.00000000000E+00  0.00000000000E+00 -0.71518831617E+03  0.31660317155E+04  0.30841955995E+04 0.  0.
        1    1    3    3  502    0 -0.11175617528E+04 -0.10020953341E+04  0.52334089112E+01  0.15010552017E+04  0.50400001928E-02 0.  1.
       -1    1    3    3    0  502  0.11175617528E+04  0.10020953341E+04 -0.72042172509E+03  0.16649765139E+04  0.50400001928E-02 0. -1.
</event>
<event>
 5   0  0.1001961E-05  0.2386130E+04  0.7818609E-02  0.8444715E-01
       -2   -1    0    0    0  501  0.00000000000E+00  0.00000000000E+00  0.14655496359E+04  0.14655496359E+04  0.25500000920E-02 0.  1.
        2   -1    0    0  501    0  0.00000000000E+00  0.00000000000E+00 -0.97124239535E+03  0.97124239535E+03  0.25500000920E-02 0. -1.
    10030    2    1    2    0    0  0.00000000000E+00  0.00000000000E+00  0.49430724054E+03  0.24367920313E+04  0.23861298698E+04 0.  0.
        5    1    3    3  502    0  0.57401784783E+03 -0.23712940205E+03  0.12874351347E+04  0.14294188186E+04  0.46999998093E+01 0.  1.
       -5    1    3    3    0  502 -0.57401784783E+03  0.23712940205E+03 -0.79312789419E+03  0.10073732126E+04  0.46999998093E+01 0. -1.
</event>
<event>
 5   0  0.1007567E-05  0.3145222E+04  0.7818609E-02  0.8203436E-01
        2   -1    0    0  501    0  0.00000000000E+00  0.00000000000E+00  0.26733562447E+04  0.26733562447E+04  0.25500000920E-02 0. -1.
       -2   -1    0    0    0  501  0.00000000000E+00  0.00000000000E+00 -0.92509371594E+03  0.92509371595E+03  0.25500000920E-02 0.  1.
    10030    2    1    2    0    0  0.00000000000E+00  0.00000000000E+00  0.17482625288E+04  0.35984499607E+04  0.31452218125E+04 0.  0.
        3    1    3    3  502    0 -0.26995058131E+03 -0.10117078495E+03  0.26428663668E+04  0.26585431136E+04  0.10100000352E+00 0. -1.
       -3    1    3    3    0  502  0.26995058131E+03  0.10117078495E+03 -0.89460383797E+03  0.93990684708E+03  0.10100000352E+00 0.  1.
</event>
<event>
 5   0  0.1108153E-05  0.3118571E+04  0.7818609E-02  0.8210660E-01
       -2   -1    0    0    0  501  0.00000000000E+00  0.00000000000E+00  0.13836535080E+04  0.13836535080E+04  0.25500000920E-02 0. -1.
        2   -1    0    0  501    0  0.00000000000E+00  0.00000000000E+00 -0.17572106493E+04  0.17572106493E+04  0.25500000920E-02 0.  1.
    10030    2    1    2    0    0  0.00000000000E+00  0.00000000000E+00 -0.37355714126E+03  0.31408641573E+04  0.31185706208E+04 0.  0.
        4    1    3    3  502    0 -0.99895842115E+03 -0.67957047401E+03 -0.11795406274E+04  0.16885057480E+04  0.12699999809E+01 0.  1.
       -4    1    3    3    0  502  0.99895842115E+03  0.67957047401E+03  0.80598348613E+03  0.14523584093E+04  0.12699999809E+01 0. -1.
</event>
<event>
 5   0  0.3838525E-06  0.3016841E+04  0.7818609E-02  0.8238938E-01
       -1   -1    0    0    0  501  0.00000000000E+00  0.00000000000E+00  0.13069677853E+04  0.13069677853E+04  0.50400001928E-02 0. -1.
        1   -1    0    0  501    0  0.00000000000E+00  0.00000000000E+00 -0.17409246418E+04  0.17409246418E+04  0.50400001928E-02 0.  1.
    10030    2    1    2    0    0  0.00000000000E+00  0.00000000000E+00 -0.43395685654E+03  0.30478924271E+04  0.30168410124E+04 0.  0.
        3    1    3    3  502    0  0.41608222945E+03 -0.11790309460E+04  0.63556376272E+03  0.14025618347E+04  0.10100000352E+00 0. -1.
       -3    1    3    3    0  502 -0.41608222945E+03  0.11790309460E+04 -0.10695206193E+04  0.16453305925E+04  0.10100000352E+00 0.  1.
</event>
<event>
 5   0  0.3848286E-06  0.3219986E+04  0.7818609E-02  0.8183559E-01
        1   -1    0    0  501    0  0.00000000000E+00  0.00000000000E+00  0.20045994830E+04  0.20045994830E+04  0.50400001928E-02 0. -1.
       -1   -1    0    0    0  501  0.00000000000E+00  0.00000000000E+00 -0.12930654096E+04  0.12930654096E+04  0.50400001928E-02 0.  1.
    10030    2    1    2    0    0  0.00000000000E+00  0.00000000000E+00  0.71153407347E+03  0.32976648926E+04  0.32199864916E+04 0.  0.
        2    1    3    3  502    0 -0.15835814710E+03 -0.70846997551E+03  0.18274694107E+04  0.19663802928E+04  0.25500000920E-02 0. -1.
       -2    1    3    3    0  502  0.15835814710E+03  0.70846997551E+03 -0.11159353372E+04  0.13312845998E+04  0.25500000920E-02 0.  1.
</event>
<event>
 5   0  0.3838525E-06  0.3122498E+04  0.7818609E-02  0.8209591E-01
        1   -1    0    0  501    0  0.00000000000E+00  0.00000000000E+00  0.16842592754E+04  0.16842592754E+04  0.50400001928E-02 0.  1.
       -1   -1    0    0    0  501  0.00000000000E+00  0.00000000000E+00 -0.14472227313E+04  0.14472227313E+04  0.50400001928E-02 0. -1.
    10030    2    1    2    0    0  0.00000000000E+00  0.00000000000E+00  0.23703654410E+03  0.31314820068E+04  0.31224979160E+04 0.  0.
        3    1    3    3  502    0 -0.13631000297E+04 -0.13844133487E+02 -0.64476613099E+03  0.15079644309E+04  0.10100000352E+00 0. -1.
       -3    1    3    3    0  502  0.13631000297E+04  0.13844133487E+02  0.88180267508E+03  0.16235175758E+04  0.10100000352E+00 0.  1.
</event>
<event>
 5   0  0.1108153E-05  0.3134748E+04  0.7818609E-02  0.8206266E-01
       -2   -1    0    0    0  501  0.00000000000E+00  0.00000000000E+00  0.10638498298E+04  0.10638498298E+04  0.25500000920E-02 0.  1.
        2   -1    0    0  501    0  0.00000000000E+00  0.00000000000E+00 -0.23092184053E+04  0.23092184053E+04  0.25500000920E-02 0. -1.
    10030    2    1    2    0    0  0.00000000000E+00  0.00000000000E+00 -0.12453685755E+04  0.33730682351E+04  0.31347482243E+04 0.  0.
        4    1    3    3  502    0  0.21553077674E+03  0.10960773955E+04  0.56036660557E+03  0.12497405803E+04  0.12699999809E+01 0.  1.
       -4    1    3    3    0  502 -0.21553077674E+03 -0.10960773955E+04 -0.18057351811E+04  0.21233276548E+04  0.12699999809E+01 0. -1.
</event>
<event>
 5   0  0.4250961E-06  0.3181833E+04  0.7818609E-02  0.8193632E-01
       -1   -1    0    0    0  501  0.00000000000E+00  0.00000000000E+00  0.12929512629E+04  0.12929512629E+04  0.50400001928E-02 0. -1.
        1   -1    0    0  501    0  0.00000000000E+00  0.00000000000E+00 -0.19575488579E+04  0.19575488579E+04  0.50400001928E-02 0.  1.
    10030    2    1    2    0    0  0.00000000000E+00  0.00000000000E+00 -0.66459759500E+03  0.32505001208E+04  0.31818329736E+04 0.  0.
        1    1    3    3  502    0  0.17216001031E+03 -0.94393289670E+03 -0.16286874593E+04  0.18903098219E+04  0.50400001928E-02 0.  1.
       -1    1    3    3    0  502 -0.17216001031E+03  0.94393289670E+03  0.96408986433E+03  0.13601902989E+04  0.50400001928E-02 0. -1.
</event>
<event>
 5   0  0.4139628E-06  0.3097660E+04  0.7818609E-02  0.8216380E-01
       -1   -1    0    0    0  501  0.00000000000E+00  0.00000000000E+00  0.15437172165E+04  0.15437172165E+04  0.50400001928E-02 0. -1.
        1   -1    0    0  501    0  0.00000000000E+00  0.00000000000E+00 -0.15539594929E+04  0.15539594929E+04  0.50400001928E-02 0.  1.
    10030    2    1    2    0    0  0.00000000000E+00  0.00000000000E+00 -0.10242276414E+02  0.30976767094E+04  0.30976597766E+04 0.  0.
        5    1    3    3  502    0  0.73443490346E+03 -0.42256157704E+03 -0.13016231227E+04  0.15531251583E+04  0.46999998093E+01 0.  1.
       -5    1    3    3    0  502 -0.73443490346E+03  0.42256157704E+03  0.12913808463E+04  0.15445515511E+04  0.46999998093E+01 0. -1.
</event>
<event>
 5   0  0.4250961E-06  0.3035205E+04  0.7818609E-02  0.8233749E-01
        1   -1    0    0  501    0  0.00000000000E+00  0.00000000000E+00  0.13650687344E+04  0.13650687344E+04  0.50400001928E-02 0. -1.
       -1   -1    0    0    0  501  0.00000000000E+00  0.00000000000E+00 -0.16871801874E+04  0.16871801874E+04  0.50400001928E-02 0.  1.
    10030    2    1    2    0    0  0.00000000000E+00  0.00000000000E+00 -0.32211145297E+03  0.30522489218E+04  0.30352047200E+04 0.  0.
        1    1    3    3  502    0  0.49095691623E+03 -0.25119180094E+03  0.12607369840E+04  0.13760791246E+04  0.50400001928E-02 0. -1.
       -1    1    3    3    0  502 -0.49095691623E+03  0.25119180094E+03 -0.15828484370E+04  0.16761697971E+04  0.50400001928E-02 0.  1.
</event>
<event>
 5   0  0.3848286E-06  0.2130466E+04  0.7818609E-02  0.8547940E-01
       -1   -1    0    0    0  501  0.00000000000E+00  0.00000000000E+00  0.11712066489E+04  0.11712066489E+04  0.50400001928E-02 0.  1.
        1   -1    0    0  501    0  0.00000000000E+00  0.00000000000E+00 -0.96884784446E+03  0.96884784447E+03  0.50400001928E-02 0. -1.
    10030    2    1    2    0    0  0.00000000000E+00  0.00000000000E+00  0.20235880441E+03  0.21400544933E+04  0.21304657117E+04 0.  0.
        2    1    3    3  502    0 -0.13709634959E+03  0.50179911278E+03  0.10349455722E+04  0.11583221038E+04  0.25500000920E-02 0.  1.
       -2    1    3    3    0  502  0.13709634959E+03 -0.50179911278E+03 -0.83258676784E+03  0.98173238953E+03  0.25500000920E-02 0. -1.
</event>
<event>
 5   0  0.1001961E-05  0.2954545E+04  0.7818609E-02  0.8256831E-01
       -2   -1    0    0    0  501  0.00000000000E+00  0.00000000000E+00  0.98878954325E+03  0.98878954326E+03  0.25500000920E-02 0. -1.
        2   -1    0    0  501    0  0.00000000000E+00  0.00000000000E+00 -0.22070762357E+04  0.22070762357E+04  0.25500000920E-02 0.  1.
    10030    2    1    2    0    0  0.00000000000E+00  0.00000000000E+00 -0.12182866925E+04  0.31958657790E+04  0.29545449078E+04 0.  0.
        5    1    3    3  502    0 -0.95641510824E+03  0.64362230654E+02 -0.18249797813E+04  0.20614183584E+04  0.46999998093E+01 0. -1.
       -5    1    3    3    0  502  0.95641510824E+03 -0.64362230654E+02  0.60669308887E+03  0.11344474206E+04  0.46999998093E+01 0.  1.
</event>
<event>
 5   0  0.1108153E-05  0.2141792E+04  0.7818609E-02  0.8543054E-01
        2   -1    0    0  501    0  0.00000000000E+00  0.00000000000E+00  0.87288271613E+03  0.87288271613E+03  0.25500000920E-02 0.  1.
       -2   -1    0    0    0  501  0.00000000000E+00  0.00000000000E+00 -0.13138290187E+04  0.13138290187E+04  0.25500000920E-02 0. -1.
    10030    2    1    2    0    0  0.00000000000E+00  0.00000000000E+00 -0.44094630252E+03  0.21867117348E+04  0.21417923731E+04 0.  0.
        4    1    3    3  502    0 -0.45524987285E+03 -0.92779801350E+03 -0.50699280540E+03  0.11511320160E+04  0.12699999809E+01 0. -1.
       -4    1    3    3    0  502  0.45524987285E+03  0.92779801350E+03  0.66046502871E+02  0.10355797188E+04  0.12699999809E+01 0.  1.
</event>
<event>
 5   0  0.3838525E-06  0.3045761E+04  0.7818609E-02  0.8230783E-01
       -1   -1    0    0    0  501  0.00000000000E+00  0.00000000000E+00  0.13097357164E+04  0.13097357165E+04  0.50400001928E-02 0. -1.
        1   -1    0    0  501    0  0.00000000000E+00  0.00000000000E+00 -0.17707124740E+04  0.17707124740E+04  0.50400001928E-02 0.  1.
    10030    2    1    2    0    0  0.00000000000E+00  0.00000000000E+00 -0.46097675753E+03  0.30804481904E+04  0.30457612321E+04 0.  0.
        3    1    3    3  502    0 -0.87164707601E+03 -0.45645993575E+03  0.94509200004E+03  0.13643031909E+04  0.10100000352E+00 0. -1.
       -3    1    3    3    0  502  0.87164707601E+03  0.45645993575E+03 -0.14060687576E+04  0.17161449995E+04  0.10100000352E+00 0.  1.
</event>
<event>
 5   0  0.3848286E-06  0.3372084E+04  0.7818609E-02  0.8144792E-01
       -1   -1    0    0    0  501  0.00000000000E+00  0.00000000000E+00  0.13825837538E+04  0.13825837538E+04  0.50400001928E-02 0.  1.
        1   -1    0    0  501    0  0.00000000000E+00  0.00000000000E+00 -0.20561052808E+04  0.20561052808E+04  0.50400001928E-02 0. -1.
    10030    2    1    2    0    0  0.00000000000E+00  0.00000000000E+00 -0.67352152700E+03  0.34386890346E+04  0.33720840780E+04 0.  0.
        2    1    3    3  502    0 -0.31467633369E+03  0.16423461088E+04 -0.11706204298E+03  0.16763130549E+04  0.25500000920E-02 0. -1.
       -2    1    3    3    0  502  0.31467633369E+03 -0.16423461088E+04 -0.55645948402E+03  0.17623759796E+04  0.25500000920E-02 0.  1.
</event>
<event>
 5   0  0.1108153E-05  0.2461624E+04  0.7818609E-02  0.8416786E-01
       -2   -1    0    0    0  501  0.00000000000E+00  0.00000000000E+00  0.10605367074E+04  0.10605367074E+04  0.25500000920E-02 0. -1.
        2   -1    0    0  501    0  0.00000000000E+00  0.00000000000E+00 -0.14284264398E+04  0.14284264398E+04  0.25500000920E-02 0.  1.
    10030    2    1    2    0    0  0.00000000000E+00  0.00000000000E+00 -0.36788973247E+03  0.24889631472E+04  0.24616244013E+04 0.  0.
        4    1    3    3  502    0  0.34579777542E+03  0.65949835948E+03 -0.11748198890E+04  0.13909412540E+04  0.12699999809E+01 0.  1.
       -4    1    3    3    0  502 -0.34579777542E+03 -0.65949835948E+03  0.80693015648E+03  0.10980218932E+04  0.12699999809E+01 0. -1.
</event>
<event>
 5   0  0.4250961E-06  0.3093545E+04  0.7818609E-02  0.8217512E-01
       -1   -1    0    0    0  501  0.00000000000E+00  0.00000000000E+00  0.17254901887E+04  0.17254901887E+04  0.50400001928E-02 0. -1.
        1   -1    0    0  501    0  0.00000000000E+00  0.00000000000E+00 -0.13865657165E+04  0.13865657165E+04  0.50400001928E-02 0.  1.
    10030    2    1    2    0    0  0.00000000000E+00  0.00000000000E+00  0.33892447218E+03  0.31120559053E+04  0.30935452412E+04 0.  0.
        1    1    3    3  502    0  0.12293430309E+04  0.30045016840E+03  0.10641380437E+04  0.16534643532E+04  0.50400001928E-02 0. -1.
       -1    1    3    3    0  502 -0.12293430309E+04 -0.30045016840E+03 -0.72521357154E+03  0.14585915520E+04  0.50400001928E-02 0.  1.
</event>
<event>
 5   0  0.9797278E-06  0.2021973E+04  0.7818609E-02  0.8596416E-01
        2   -1    0    0  501    0  0.00000000000E+00  0.00000000000E+00  0.14406154599E+04  0.14406154599E+04  0.25500000920E-02 0. -1.
       -2   -1    0    0    0  501  0.00000000000E+00  0.00000000000E+00 -0.70948396320E+03  0.70948396321E+03  0.25500000920E-02 0.  1.
    10030    2    1    2    0    0  0.00000000000E+00  0.00000000000E+00  0.73113149671E+03  0.21500994231E+04  0.20219728643E+04 0.  0.
        1    1    3    3  502    0  0.37174330504E+03 -0.67061807344E+03 -0.33510512784E+03  0.83678977767E+03  0.50400001928E-02 0.  1.
       -1    1    3    3    0  502 -0.37174330504E+03  0.67061807344E+03  0.10662366246E+04  0.13133096455E+04  0.50400001928E-02 0. -1.
</event>
<event>
 5   0  0.4250961E-06  0.1800295E+04  0.7818609E-02  0.8706143E-01
        1   -1    0    0  501    0  0.00000000000E+00  0.00000000000E+00  0.23997024667E+04  0.23997024667E+04  0.50400001928E-02 0. -1.
       -1   -1    0    0    0  501  0.00000000000E+00  0.00000000000E+00 -0.33765246264E+03  0.33765246268E+03  0.50400001928E-02 0.  1.
    10030    2    1    2    0    0  0.00000000000E+00  0.00000000000E+00  0.20620500040E+04  0.27373549294E+04  0.18002949175E+04 0.  0.
        1    1    3    3  502    0  0.49762125254E+03 -0.61281975814E+03  0.37334702074E+03  0.87324851267E+03  0.50400001928E-02 0.  1.
       -1    1    3    3    0  502 -0.49762125254E+03  0.61281975814E+03  0.16887029833E+04  0.18641064167E+04  0.50400001928E-02 0. -1.
</event>
<event>
 5   0  0.4250961E-06  0.3155082E+04  0.7818609E-02  0.8200782E-01
       -1   -1    0    0    0  501  0.00000000000E+00  0.00000000000E+00  0.13621011062E+04  0.13621011062E+04  0.50400001928E-02 0.  1.
        1   -1    0    0  501    0  0.00000000000E+00  0.00000000000E+00 -0.18270561743E+04  0.18270561743E+04  0.50400001928E-02 0. -1.
    10030    2    1    2    0    0  0.00000000000E+00  0.00000000000E+00 -0.46495506804E+03  0.31891572805E+04  0.31550817651E+04 0.  0.
        1    1    3    3  502    0  0.12317992406E+04  0.97936045469E+03 -0.12101891546E+03  0.15783288147E+04  0.50400001928E-02 0.  1.
       -1    1    3    3    0  502 -0.12317992406E+04 -0.97936045469E+03 -0.34393615258E+03  0.16108284658E+04  0.50400001928E-02 0. -1.
</event>
<event>
 5   0  0.1007567E-05  0.2895185E+04  0.7818609E-02  0.8274311E-01
       -2   -1    0    0    0  501  0.00000000000E+00  0.00000000000E+00  0.29682482585E+04  0.29682482585E+04  0.25500000920E-02 0.  1.
        2   -1    0    0  501    0  0.00000000000E+00  0.00000000000E+00 -0.70598028935E+03  0.70598028936E+03  0.25500000920E-02 0. -1.
    10030    2    1    2    0    0  0.00000000000E+00  0.00000000000E+00  0.22622679691E+04  0.36742285478E+04  0.28951854962E+04 0.  0.
        3    1    3    3  502    0  0.12821901112E+04 -0.55681570190E+03  0.16084667583E+04  0.21310139676E+04  0.10100000352E+00 0.  1.
       -3    1    3    3    0  502 -0.12821901112E+04  0.55681570190E+03  0.65380121078E+03  0.15432145802E+04  0.10100000352E+00 0. -1.
</event>
<event>
 5   0  0.4139628E-06  0.3129099E+04  0.7818609E-02  0.8207797E-01
       -1   -1    0    0    0  501  0.00000000000E+00  0.00000000000E+00  0.13118290172E+04  0.13118290172E+04  0.50400001928E-02 0.  1.
        1   -1    0    0  501    0  0.00000000000E+00  0.00000000000E+00 -0.18659562052E+04  0.18659562052E+04  0.50400001928E-02 0. -1.
    10030    2    1    2    0    0  0.00000000000E+00  0.00000000000E+00 -0.55412718795E+03  0.31777852224E+04  0.31290992281E+04 0.  0.
        5    1    3    3  502    0 -0.23593336262E+03  0.14224492693E+04  0.33964668822E+03  0.14813535831E+04  0.46999998093E+01 0. -1.
       -5    1    3    3    0  502  0.23593336262E+03 -0.14224492693E+04 -0.89377387617E+03  0.16964316393E+04  0.46999998093E+01 0.  1.
</event>
<event>
 5   0  0.1007567E-05  0.3076376E+04  0.7818609E-02  0.8222251E-01
        2   -1    0    0  501    0  0.00000000000E+00  0.00000000000E+00  0.14431973341E+04  0.14431973341E+04  0.25500000920E-02 0. -1.
       -2   -1    0    0    0  501  0.00000000000E+00  0.00000000000E+00 -0.16394305132E+04  0.16394305132E+04  0.25500000920E-02 0.  1.
    10030    2    1    2    0    0  0.00000000000E+00  0.00000000000E+00 -0.19623317908E+03  0.30826278473E+04  0.30763756247E+04 0.  0.
        3    1    3    3  502    0  0.80162058613E+03  0.12698795007E+04  0.23547474638E+03  0.15200782469E+04  0.10100000352E+00 0. -1.
       -3    1    3    3    0  502 -0.80162058613E+03 -0.12698795007E+04 -0.43170792546E+03  0.15625496003E+04  0.10100000352E+00 0.  1.
</event>
<event>
 5   0  0.1108153E-05  0.2835792E+04  0.7818609E-02  0.8292242E-01
        2   -1    0    0  501    0  0.00000000000E+00  0.00000000000E+00  0.14051954534E+04  0.14051954534E+04  0.25500000920E-02 0. -1.
       -2   -1    0    0    0  501  0.00000000000E+00  0.00000000000E+00 -0.14307116646E+04  0.14307116647E+04  0.25500000920E-02 0.  1.
    10030    2    1    2    0    0  0.00000000000E+00  0.00000000000E+00 -0.25516211216E+02  0.28359071181E+04  0.28357923241E+04 0.  0.
        4    1    3    3  502    0 -0.46536992537E+02  0.11465442319E+04  0.82016128402E+03  0.14104593266E+04  0.12699999809E+01 0.  1.
       -4    1    3    3    0  502  0.46536992537E+02 -0.11465442319E+04 -0.84567749524E+03  0.14254477915E+04  0.12699999809E+01 0. -1.
</event>
<event>
 5   0  0.1007567E-05  0.3062508E+04  0.7818609E-02  0.8226103E-01
       -2   -1    0    0    0  501  0.00000000000E+00  0.00000000000E+00  0.14023681624E+04  0.14023681624E+04  0.25500000920E-02 0. -1.
        2   -1    0    0  501    0  0.00000000000E+00  0.00000000000E+00 -0.16719852382E+04  0.16719852382E+04  0.25500000920E-02 0.  1.
    10030    2    1    2    0    0  0.00000000000E+00  0.00000000000E+00 -0.26961707573E+03  0.30743534006E+04  0.30625080350E+04 0.  0.
        3    1    3    3  502    0  0.51452884029E+03 -0.13932903512E+04 -0.50872866754E+03  0.15699690435E+04  0.10100000352E+00 0. -1.
       -3    1    3    3    0  502 -0.51452884029E+03  0.13932903512E+04  0.23911159180E+03  0.15043843571E+04  0.10100000352E+00 0.  1.
</event>
<event>
 5   0  0.9797278E-06  0.2976382E+04  0.7818609E-02  0.8250507E-01
       -2   -1    0    0    0  501  0.00000000000E+00  0.00000000000E+00  0.10676808537E+04  0.10676808537E+04  0.25500000920E-02 0. -1.
        2   -1    0    0  501    0  0.00000000000E+00  0.00000000000E+00 -0.20743207163E+04  0.20743207163E+04  0.25500000920E-02 0.  1.
    10030    2    1    2    0    0  0.00000000000E+00  0.00000000000E+00 -0.10066398625E+04  0.31420015700E+04  0.29763820409E+04 0.  0.
        1    1    3    3  502    0 -0.89864417260E+03  0.63479022503E+03 -0.15611751100E+04  0.19099182451E+04  0.50400001928E-02 0.  1.
       -1    1    3    3    0  502  0.89864417260E+03 -0.63479022503E+03  0.55453524752E+03  0.12320833249E+04  0.50400001928E-02 0. -1.
</event>
<event>
 5   0  0.3848286E-06  0.3071742E+04  0.7818609E-02  0.8223536E-01
       -1   -1    0    0    0  501  0.00000000000E+00  0.00000000000E+00  0.14585295763E+04  0.14585295763E+04  0.50400001928E-02 0. -1.
        1   -1    0    0  501    0  0.00000000000E+00  0.00000000000E+00 -0.16173140751E+04  0.16173140751E+04  0.50400001928E-02 0.  1.
    10030    2    1    2    0    0  0.00000000000E+00  0.00000000000E+00 -0.15878449881E+03  0.30758436514E+04  0.30717424454E+04 0.  0.
        2    1    3    3  502    0 -0.71959172268E+03  0.83612368894E+03  0.99067167313E+03  0.14826818386E+04  0.25500000920E-02 0. -1.
       -2    1    3    3    0  502  0.71959172268E+03 -0.83612368894E+03 -0.11494561719E+04  0.15931618128E+04  0.25500000920E-02 0.  1.
</event>
<event>
 5   0  0.3807334E-06  0.2461880E+04  0.7818609E-02  0.8416693E-01
        1   -1    0    0  501    0  0.00000000000E+00  0.00000000000E+00  0.27143618466E+04  0.27143618466E+04  0.50400001928E-02 0. -1.
       -1   -1    0    0    0  501  0.00000000000E+00  0.00000000000E+00 -0.55822062872E+03  0.55822062875E+03  0.50400001928E-02 0.  1.
    10030    2    1    2    0    0  0.00000000000E+00  0.00000000000E+00  0.21561412178E+04  0.32725824753E+04  0.24618795881E+04 0.  0.
        4    1    3    3  502    0  0.14652391191E+03  0.32804505972E+03 -0.48696965534E+03  0.60516433809E+03  0.12699999809E+01 0.  1.
       -4    1    3    3    0  502 -0.14652391191E+03 -0.32804505972E+03  0.26431108732E+04  0.26674181372E+04  0.12699999809E+01 0. -1.
</event>
<event>
 5   0  0.1001961E-05  0.3099190E+04  0.7818609E-02  0.8215960E-01
        2   -1    0    0  501    0  0.00000000000E+00  0.00000000000E+00  0.25248332385E+04  0.25248332385E+04  0.25500000920E-02 0. -1.
       -2   -1    0    0    0  501  0.00000000000E+00  0.00000000000E+00 -0.95105078496E+03  0.95105078496E+03  0.25500000920E-02 0.  1.
    10030    2    1    2    0    0  0.00000000000E+00  0.00000000000E+00  0.15737824536E+04  0.34758840235E+04  0.30991899802E+04 0.  0.
        5    1    3    3  502    0 -0.64001193862E+03  0.79387190017E+03 -0.52170574389E+03  0.11454461352E+04  0.46999998093E+01 0.  1.
       -5    1    3    3    0  502  0.64001193862E+03 -0.79387190017E+03  0.20954881975E+04  0.23304378883E+04  0.46999998093E+01 0. -1.
</event>
<event>
 5   0  0.4250961E-06  0.3028864E+04  0.7818609E-02  0.8235536E-01
       -1   -1    0    0    0  501  0.00000000000E+00  0.00000000000E+00  0.11998547953E+04  0.11998547953E+04  0.50400001928E-02 0. -1.
        1   -1    0    0  501    0  0.00000000000E+00  0.00000000000E+00 -0.19114851953E+04  0.19114851953E+04  0.50400001928E-02 0.  1.
    10030    2    1    2    0    0  0.00000000000E+00  0.00000000000E+00 -0.71163040001E+03  0.31113399906E+04  0.30288642609E+04 0.  0.
        1    1    3    3  502    0 -0.14010538183E+04  0.13262211552E+03  0.21885016882E+03  0.14242316608E+04  0.50400001928E-02 0. -1.
       -1    1    3    3    0  502  0.14010538183E+04 -0.13262211552E+03 -0.93048056882E+03  0.16871083297E+04  0.50400001928E-02 0.  1.
</event>
<event>
 5   0  0.3807334E-06  0.3141148E+04  0.7818609E-02  0.8204535E-01
       -1   -1    0    0    0  501  0.00000000000E+00  0.00000000000E+00  0.11801364731E+04  0.11801364731E+04  0.50400001928E-02 0.  1.
        1   -1    0    0  501    0  0.00000000000E+00  0.00000000000E+00 -0.20901845140E+04  0.20901845140E+04  0.50400001928E-02 0. -1.
    10030    2    1    2    0    0  0.00000000000E+00  0.00000000000E+00 -0.91004804088E+03  0.32703209871E+04  0.31411481852E+04 0.  0.
        4    1    3    3  502    0  0.82031324970E+03 -0.11493917512E+04 -0.11708185774E+04  0.18343481075E+04  0.12699999809E+01 0. -1.
       -4    1    3    3    0  502 -0.82031324970E+03  0.11493917512E+04  0.26077053650E+03  0.14359728796E+04  0.12699999809E+01 0.  1.
</event>
<event>
 5   0  0.4139628E-06  0.3085076E+04  0.7818609E-02  0.8219846E-01
       -1   -1    0    0    0  501  0.00000000000E+00  0.00000000000E+00  0.21077230278E+04  0.21077230278E+04  0.50400001928E-02 0.  1.
        1   -1    0    0  501    0  0.00000000000E+00  0.00000000000E+00 -0.11289070755E+04  0.11289070755E+04  0.50400001928E-02 0. -1.
    10030    2    1    2    0    0  0.00000000000E+00  0.00000000000E+00  0.97881595230E+03  0.32366301033E+04  0.30850759727E+04 0.  0.
        5    1    3    3  502    0 -0.40327245262E+03 -0.14558963694E+02 -0.10725416432E+04  0.11459530099E+04  0.46999998093E+01 0. -1.
       -5    1    3    3    0  502  0.40327245262E+03  0.14558963694E+02  0.20513575955E+04  0.20906770934E+04  0.46999998093E+01 0.  1.
</event>
<event>
 5   0  0.1108153E-05  0.3130285E+04  0.7818609E-02  0.8207475E-01
       -2   -1    0    0    0  501  0.00000000000E+00  0.00000000000E+00  0.19141668979E+04  0.19141668979E+04  0.25500000920E-02 0. -1.
        2   -1    0    0  501    0  0.00000000000E+00  0.00000000000E+00 -0.12797584543E+04  0.12797584543E+04  0.25500000920E-02 0.  1.
    10030    2    1    2    0    0  0.00000000000E+00  0.00000000000E+00  0.63440844354E+03  0.31939253522E+04  0.31302851439E+04 0.  0.
        4    1    3    3  502    0 -0.24030559971E+03 -0.82030379866E+02 -0.12586016193E+04  0.12839608302E+04  0.12699999809E+01 0.  1.
       -4    1    3    3    0  502  0.24030559971E+03  0.82030379866E+02  0.18930100628E+04  0.19099645220E+04  0.12699999809E+01 0. -1.
</event>
<event>
 5   0  0.4250961E-06  0.1739972E+04  0.7818609E-02  0.8738890E-01
        1   -1    0    0  501    0  0.00000000000E+00  0.00000000000E+00  0.46423792330E+03  0.46423792333E+03  0.50400001928E-02 0.  1.
       -1   -1    0    0    0  501  0.00000000000E+00  0.00000000000E+00 -0.16303614618E+04  0.16303614619E+04  0.50400001928E-02 0. -1.
    10030    2    1    2    0    0  0.00000000000E+00  0.00000000000E+00 -0.11661235385E+04  0.20945993852E+04  0.17399719760E+04 0.  0.
        1    1    3    3  502    0 -0.18829552622E+03 -0.67701304188E+03 -0.12005056349E+04  0.13910483972E+04  0.50400001928E-02 0. -1.
       -1    1    3    3    0  502  0.18829552622E+03  0.67701304188E+03  0.34382096321E+02  0.70355098795E+03  0.50400001928E-02 0.  1.
</event>
<event>
 5   0  0.1119100E-05  0.1810899E+04  0.7818609E-02  0.8700525E-01
        2   -1    0    0  501    0  0.00000000000E+00  0.00000000000E+00  0.64095655050E+03  0.64095655051E+03  0.25500000920E-02 0.  1.
       -2   -1    0    0    0  501  0.00000000000E+00  0.00000000000E+00 -0.12790862936E+04  0.12790862936E+04  0.25500000920E-02 0. -1.
    10030    2    1    2    0    0  0.00000000000E+00  0.00000000000E+00 -0.63812974314E+03  0.19200428442E+04  0.18108989354E+04 0.  0.
        2    1    3    3  502    0 -0.10811854238E+02 -0.29762882725E+03 -0.12256668424E+04  0.12613322415E+04  0.25500000920E-02 0. -1.
       -2    1    3    3    0  502  0.10811854238E+02  0.29762882725E+03  0.58753709925E+03  0.65871060262E+03  0.25500000920E-02 0.  1.
</event>
<event>
 5   0  0.1001961E-05  0.3116012E+04  0.7818609E-02  0.8211357E-01
       -2   -1    0    0    0  501  0.00000000000E+00  0.00000000000E+00  0.98448336179E+03  0.98448336180E+03  0.25500000920E-02 0. -1.
        2   -1    0    0  501    0  0.00000000000E+00  0.00000000000E+00 -0.24656413688E+04  0.24656413688E+04  0.25500000920E-02 0.  1.
    10030    2    1    2    0    0  0.00000000000E+00  0.00000000000E+00 -0.14811580070E+04  0.34501247306E+04  0.31160121333E+04 0.  0.
        5    1    3    3  502    0  0.99972486266E+03  0.39232902421E+03  0.50915759003E+03  0.11885433967E+04  0.46999998093E+01 0. -1.
       -5    1    3    3    0  502 -0.99972486266E+03 -0.39232902421E+03 -0.19903155970E+04  0.22615813339E+04  0.46999998093E+01 0.  1.
</event>
<event>
 5   0  0.3838525E-06  0.3257823E+04  0.7818609E-02  0.8173711E-01
       -1   -1    0    0    0  501  0.00000000000E+00  0.00000000000E+00  0.19051528562E+04  0.19051528562E+04  0.50400001928E-02 0. -1.
        1   -1    0    0  501    0  0.00000000000E+00  0.00000000000E+00 -0.13927242440E+04  0.13927242440E+04  0.50400001928E-02 0.  1.
    10030    2    1    2    0    0  0.00000000000E+00  0.00000000000E+00  0.51242861223E+03  0.32978771002E+04  0.32578229364E+04 0.  0.
        3    1    3    3  502    0 -0.74767569833E+03  0.72042003881E+03  0.15267666637E+04  0.18463586969E+04  0.10100000352E+00 0. -1.
       -3    1    3    3    0  502  0.74767569833E+03 -0.72042003881E+03 -0.10143380514E+04  0.14515184033E+04  0.10100000352E+00 0.  1.
</event>
<event>
 5   0  0.4139628E-06  0.3035189E+04  0.7818609E-02  0.8233753E-01
        1   -1    0    0  501    0  0.00000000000E+00  0.00000000000E+00  0.36497577422E+04  0.36497577422E+04  0.50400001928E-02 0. -1.
       -1   -1    0    0    0  501  0.00000000000E+00  0.00000000000E+00 -0.63102633133E+03  0.63102633135E+03  0.50400001928E-02 0.  1.
    10030    2    1    2    0    0  0.00000000000E+00  0.00000000000E+00  0.30187314108E+04  0.42807840735E+04  0.30351891133E+04 0.  0.
        5    1    3    3  502    0 -0.10620716153E+04 -0.51658147229E+03  0.16526203864E+03  0.11925544704E+04  0.46999998093E+01 0.  1.
       -5    1    3    3    0  502  0.10620716153E+04  0.51658147229E+03  0.28534693722E+04  0.30882296031E+04  0.46999998093E+01 0. -1.
</event>
<event>
 5   0  0.1119100E-05  0.3117971E+04  0.7818609E-02  0.8210823E-01
       -2   -1    0    0    0  501  0.00000000000E+00  0.00000000000E+00  0.17390864578E+04  0.17390864578E+04  0.25500000920E-02 0. -1.
        2   -1    0    0  501    0  0.00000000000E+00  0.00000000000E+00 -0.13975358757E+04  0.13975358757E+04  0.25500000920E-02 0.  1.
    10030    2    1    2    0    0  0.00000000000E+00  0.00000000000E+00  0.34155058209E+03  0.31366223335E+04  0.31179709529E+04 0.  0.
        2    1    3    3  502    0  0.10552179549E+04 -0.99966062894E+03  0.73773281038E+03  0.16300478536E+04  0.25500000920E-02 0. -1.
       -2    1    3    3    0  502 -0.10552179549E+04  0.99966062894E+03 -0.39618222829E+03  0.15065744799E+04  0.25500000920E-02 0.  1.
</event>
<event>
 5   0  0.3807334E-06  0.2959880E+04  0.7818609E-02  0.8255281E-01
       -1   -1    0    0    0  501  0.00000000000E+00  0.00000000000E+00  0.21066396844E+04  0.21066396844E+04  0.50400001928E-02 0. -1.
        1   -1    0    0  501    0  0.00000000000E+00  0.00000000000E+00 -0.10396757094E+04  0.10396757094E+04  0.50400001928E-02 0.  1.
    10030    2    1    2    0    0  0.00000000000E+00  0.00000000000E+00  0.10669639751E+04  0.31463153938E+04  0.29598798004E+04 0.  0.
        4    1    3    3  502    0  0.41677781190E+03  0.58887818348E+03 -0.84009341949E+03  0.11073571356E+04  0.12699999809E+01 0.  1.
       -4    1    3    3    0  502 -0.41677781190E+03 -0.58887818348E+03  0.19070573945E+04  0.20389582581E+04  0.12699999809E+01 0. -1.
</event>
<event>
 5   0  0.1007567E-05  0.3188887E+04  0.7818609E-02  0.8191758E-01
        2   -1    0    0  501    0  0.00000000000E+00  0.00000000000E+00  0.18780055613E+04  0.18780055613E+04  0.25500000920E-02 0.  1.
       -2   -1    0    0    0  501  0.00000000000E+00  0.00000000000E+00 -0.13536964554E+04  0.13536964554E+04  0.25500000920E-02 0. -1.
    10030    2    1    2    0    0  0.00000000000E+00  0.00000000000E+00  0.52430910588E+03  0.32317020166E+04  0.31888866217E+04 0.  0.
        3    1    3    3  502    0 -0.14893568615E+04  0.56606683361E+03  0.32324609869E+03  0.16257624586E+04  0.10100000352E+00 0. -1.
       -3    1    3    3    0  502  0.14893568615E+04 -0.56606683361E+03  0.20106300719E+03  0.16059395581E+04  0.10100000352E+00 0.  1.
</event>
<event>
 5   0  0.1001961E-05  0.3040705E+04  0.7818609E-02  0.8232202E-01
       -2   -1    0    0    0  501  0.00000000000E+00  0.00000000000E+00  0.14889488067E+04  0.14889488067E+04  0.25500000920E-02 0.  1.
        2   -1    0    0  501    0  0.00000000000E+00  0.00000000000E+00 -0.15524187030E+04  0.15524187030E+04  0.25500000920E-02 0. -1.
    10030    2    1    2    0    0  0.00000000000E+00  0.00000000000E+00 -0.63469896256E+02  0.30413675097E+04  0.30407051652E+04 0.  0.
        5    1    3    3  502    0  0.14044952022E+04 -0.25701228002E+03  0.49066973591E+03  0.15097817606E+04  0.46999998093E+01 0.  1.
       -5    1    3    3    0  502 -0.14044952022E+04  0.25701228002E+03 -0.55413963217E+03  0.15315857491E+04  0.46999998093E+01 0. -1.
</event>
<event>
 5   0  0.9797278E-06  0.3147253E+04  0.7818609E-02  0.8202888E-01
       -2   -1    0    0    0  501  0.00000000000E+00  0.00000000000E+00  0.14624208164E+04  0.14624208164E+04  0.25500000920E-02 0.  1.
        2   -1    0    0  501    0  0.00000000000E+00  0.00000000000E+00 -0.16932889656E+04  0.16932889656E+04  0.25500000920E-02 0. -1.
    10030    2    1    2    0    0  0.00000000000E+00  0.00000000000E+00 -0.23086814920E+03  0.31557097820E+04  0.31472534258E+04 0.  0.
        1    1    3    3  502    0  0.15202221522E+04  0.25426089778E+03  0.20255687219E+03  0.15545910339E+04  0.50400001928E-02 0.  1.
       -1    1    3    3    0  502 -0.15202221522E+04 -0.25426089778E+03 -0.43342502139E+03  0.16011187481E+04  0.50400001928E-02 0. -1.
</event>
<event>
 5   0  0.3807334E-06  0.3108772E+04  0.7818609E-02  0.8213335E-01
       -1   -1    0    0    0  501  0.00000000000E+00  0.00000000000E+00  0.15394945975E+04  0.15394945975E+04  0.50400001928E-02 0.  1.
        1   -1    0    0  501    0  0.00000000000E+00  0.00000000000E+00 -0.15694215995E+04  0.15694215995E+04  0.50400001928E-02 0. -1.
    10030    2    1    2    0    0  0.00000000000E+00  0.00000000000E+00 -0.29927001967E+02  0.31089161970E+04  0.31087721523E+04 0.  0.
        4    1    3    3  502    0 -0.13795798543E+04 -0.34005524097E+03  0.61533256613E+03  0.15483907521E+04  0.12699999809E+01 0.  1.
       -4    1    3    3    0  502  0.13795798543E+04  0.34005524097E+03 -0.64525956809E+03  0.15605254450E+04  0.12699999809E+01 0. -1.
</event>
<event>
 5   0  0.9797278E-06  0.3139682E+04  0.7818609E-02  0.8204931E-01
       -2   -1    0    0    0  501  0.00000000000E+00  0.00000000000E+00  0.94914653308E+03  0.94914653309E+03  0.25500000920E-02 0. -1.
        2   -1    0    0  501    0  0.00000000000E+00  0.00000000000E+00 -0.25964388379E+04  0.25964388379E+04  0.25500000920E-02 0.  1.
    10030    2    1    2    0    0  0.00000000000E+00  0.00000000000E+00 -0.16472923049E+04  0.35455853710E+04  0.31396820995E+04 0.  0.
        1    1    3    3  502    0  0.65949060841E+03 -0.11396177078E+04 -0.17889967263E+04  0.22212981946E+04  0.50400001928E-02 0.  1.
       -1    1    3    3    0  502 -0.65949060841E+03  0.11396177078E+04  0.14170442142E+03  0.13242871764E+04  0.50400001928E-02 0. -1.
</event>
<event>
 5   0  0.3807334E-06  0.3029693E+04  0.7818609E-02  0.8235302E-01
       -1   -1    0    0    0  501  0.00000000000E+00  0.00000000000E+00  0.13078310866E+04  0.13078310866E+04  0.50400001928E-02 0.  1.
        1   -1    0    0  501    0  0.00000000000E+00  0.00000000000E+00 -0.17546300088E+04  0.17546300088E+04  0.50400001928E-02 0. -1.
    10030    2    1    2    0    0  0.00000000000E+00  0.00000000000E+00 -0.44679892216E+03  0.30624610954E+04  0.30296928366E+04 0.  0.
        4    1    3    3  502    0  0.14478622377E+04  0.41605590451E+03 -0.62459052631E+02  0.15077500858E+04  0.12699999809E+01 0. -1.
       -4    1    3    3    0  502 -0.14478622377E+04 -0.41605590451E+03 -0.38433986953E+03  0.15547110096E+04  0.12699999809E+01 0.  1.
</event>
<event>
 5   0  0.1108153E-05  0.2800630E+04  0.7818609E-02  0.8303073E-01
       -2   -1    0    0    0  501  0.00000000000E+00  0.00000000000E+00  0.12900910342E+04  0.12900910342E+04  0.25500000920E-02 0. -1.
        2   -1    0    0  501    0  0.00000000000E+00  0.00000000000E+00 -0.15199568162E+04  0.15199568162E+04  0.25500000920E-02 0.  1.
    10030    2    1    2    0    0  0.00000000000E+00  0.00000000000E+00 -0.22986578203E+03  0.28100478504E+04  0.28006304012E+04 0.  0.
        4    1    3    3  502    0 -0.46081949899E+03  0.82121829019E+03 -0.11548188748E+04  0.14900880300E+04  0.12699999809E+01 0. -1.
       -4    1    3    3    0  502  0.46081949899E+03 -0.82121829019E+03  0.92495309274E+03  0.13199598204E+04  0.12699999809E+01 0.  1.
</event>
<event>
 5   0  0.4250961E-06  0.3063008E+04  0.7818609E-02  0.8225964E-01
        1   -1    0    0  501    0  0.00000000000E+00  0.00000000000E+00  0.86773498993E+03  0.86773498995E+03  0.50400001928E-02 0.  1.
       -1   -1    0    0    0  501  0.00000000000E+00  0.00000000000E+00 -0.27030199256E+04  0.27030199256E+04  0.50400001928E-02 0. -1.
    10030    2    1    2    0    0  0.00000000000E+00  0.00000000000E+00 -0.18352849356E+04  0.35707549155E+04  0.30630083042E+04 0.  0.
        1    1    3    3  502    0  0.75634212848E+02 -0.14072568838E+04 -0.21875306537E+03  0.14261645680E+04  0.50400001928E-02 0. -1.
       -1    1    3    3    0  502 -0.75634212848E+02  0.14072568838E+04 -0.16165318703E+04  0.21445903476E+04  0.50400001928E-02 0.  1.
</event>
<event>
 5   0  0.1001961E-05  0.2523170E+04  0.7818609E-02  0.8394777E-01
       -2   -1    0    0    0  501  0.00000000000E+00  0.00000000000E+00  0.10943968527E+04  0.10943968527E+04  0.25500000920E-02 0.  1.
        2   -1    0    0  501    0  0.00000000000E+00  0.00000000000E+00 -0.14543140626E+04  0.14543140626E+04  0.25500000920E-02 0. -1.
    10030    2    1    2    0    0  0.00000000000E+00  0.00000000000E+00 -0.35991720989E+03  0.25487109152E+04  0.25231700163E+04 0.  0.
        5    1    3    3  502    0 -0.10777097829E+04  0.64067405101E+03 -0.32156693121E+03  0.12943527329E+04  0.46999998093E+01 0.  1.
       -5    1    3    3    0  502  0.10777097829E+04 -0.64067405101E+03 -0.38350278684E+02  0.12543581824E+04  0.46999998093E+01 0. -1.
</event>
<event>
 5   0  0.1001961E-05  0.3092397E+04  0.7818609E-02  0.8217828E-01
       -2   -1    0    0    0  501  0.00000000000E+00  0.00000000000E+00  0.88627201158E+03  0.88627201158E+03  0.25500000920E-02 0. -1.
        2   -1    0    0  501    0  0.00000000000E+00  0.00000000000E+00 -0.26975119005E+04  0.26975119005E+04  0.25500000920E-02 0.  1.
    10030    2    1    2    0    0  0.00000000000E+00  0.00000000000E+00 -0.18112398890E+04  0.35837839121E+04  0.30923966747E+04 0.  0.
        5    1    3    3  502    0  0.95729692967E+03 -0.99242698470E+02  0.49681430952E+03  0.10831034451E+04  0.46999998093E+01 0. -1.
       -5    1    3    3    0  502 -0.95729692967E+03  0.99242698470E+02 -0.23080541985E+04  0.25006804670E+04  0.46999998093E+01 0.  1.
</event>
<event>
 5   0  0.1119100E-05  0.3019672E+04  0.7818609E-02  0.8238136E-01
        2   -1    0    0  501    0  0.00000000000E+00  0.00000000000E+00  0.31119448527E+04  0.31119448527E+04  0.25500000920E-02 0.  1.
       -2   -1    0    0    0  501  0.00000000000E+00  0.00000000000E+00 -0.73253384324E+03  0.73253384325E+03  0.25500000920E-02 0. -1.
    10030    2    1    2    0    0  0.00000000000E+00  0.00000000000E+00  0.23794110095E+04  0.38444786960E+04  0.30196721166E+04 0.  0.
        2    1    3    3  502    0 -0.14791830554E+04  0.29246354268E+03  0.12890392289E+04  0.19837186214E+04  0.25500000920E-02 0. -1.
       -2    1    3    3    0  502  0.14791830554E+04 -0.29246354268E+03  0.10903717806E+04  0.18607600746E+04  0.25500000920E-02 0.  1.
</event>
<event>
 5   0  0.1119100E-05  0.1981711E+04  0.7818609E-02  0.8615219E-01
       -2   -1    0    0    0  501  0.00000000000E+00  0.00000000000E+00  0.50006643449E+03  0.50006643450E+03  0.25500000920E-02 0. -1.
        2   -1    0    0  501    0  0.00000000000E+00  0.00000000000E+00 -0.19633292051E+04  0.19633292051E+04  0.25500000920E-02 0.  1.
    10030    2    1    2    0    0  0.00000000000E+00  0.00000000000E+00 -0.14632627707E+04  0.24633956396E+04  0.19817114173E+04 0.  0.
        2    1    3    3  502    0  0.81013873006E+03  0.56532564798E+03 -0.63633455787E+03  0.11750912815E+04  0.25500000920E-02 0. -1.
       -2    1    3    3    0  502 -0.81013873006E+03 -0.56532564798E+03 -0.82692821279E+03  0.12883043582E+04  0.25500000920E-02 0.  1.
</event>
<event>
 5   0  0.9797278E-06  0.3170644E+04  0.7818609E-02  0.8196613E-01
        2   -1    0    0  501    0  0.00000000000E+00  0.00000000000E+00  0.20231127981E+04  0.20231127981E+04  0.25500000920E-02 0.  1.
       -2   -1    0    0    0  501  0.00000000000E+00  0.00000000000E+00 -0.12422669517E+04  0.12422669517E+04  0.25500000920E-02 0. -1.
    10030    2    1    2    0    0  0.00000000000E+00  0.00000000000E+00  0.78084584645E+03  0.32653797498E+04  0.31706442050E+04 0.  0.
        1    1    3    3  502    0  0.35158020880E+03 -0.32523144750E+03  0.19468225470E+04  0.20048696135E+04  0.50400001928E-02 0.  1.
       -1    1    3    3    0  502 -0.35158020880E+03  0.32523144750E+03 -0.11659767005E+04  0.12605101363E+04  0.50400001928E-02 0. -1.
</event>
<event>
 5   0  0.3838525E-06  0.3106203E+04  0.7818609E-02  0.8214038E-01
        1   -1    0    0  501    0  0.00000000000E+00  0.00000000000E+00  0.18900150608E+04  0.18900150608E+04  0.50400001928E-02 0.  1.
       -1   -1    0    0    0  501  0.00000000000E+00  0.00000000000E+00 -0.12762461932E+04  0.12762461932E+04  0.50400001928E-02 0. -1.
    10030    2    1    2    0    0  0.00000000000E+00  0.00000000000E+00  0.61376886765E+03  0.31662612540E+04  0.31062031656E+04 0.  0.
        3    1    3    3  502    0 -0.74564251039E+03  0.99096247303E+03 -0.64614470205E+03  0.13983892028E+04  0.10100000352E+00 0. -1.
       -3    1    3    3    0  502  0.74564251039E+03 -0.99096247303E+03  0.12599135697E+04  0.17678720512E+04  0.10100000352E+00 0.  1.
</event>
<event>
 5   0  0.3838525E-06  0.1667731E+04  0.7818609E-02  0.8779985E-01
        1   -1    0    0  501    0  0.00000000000E+00  0.00000000000E+00  0.82856046423E+03  0.82856046424E+03  0.50400001928E-02 0. -1.
       -1   -1    0    0    0  501  0.00000000000E+00  0.00000000000E+00 -0.83920499936E+03  0.83920499937E+03  0.50400001928E-02 0.  1.
    10030    2    1    2    0    0  0.00000000000E+00  0.00000000000E+00 -0.10644535131E+02  0.16677654636E+04  0.16677314938E+04 0.  0.
        3    1    3    3  502    0 -0.41137069836E+03 -0.20629158477E+03 -0.70071402994E+03  0.83832107893E+03  0.10100000352E+00 0.  1.
       -3    1    3    3    0  502  0.41137069836E+03  0.20629158477E+03  0.69006949481E+03  0.82944438468E+03  0.10100000352E+00 0. -1.
</event>
<event>
 5   0  0.1007567E-05  0.3118582E+04  0.7818609E-02  0.8210657E-01
       -2   -1    0    0    0  501  0.00000000000E+00  0.00000000000E+00  0.13103299673E+04  0.13103299673E+04  0.25500000920E-02 0.  1.
        2   -1    0    0  501    0  0.00000000000E+00  0.00000000000E+00 -0.18555542556E+04  0.18555542556E+04  0.25500000920E-02 0. -1.
    10030    2    1    2    0    0  0.00000000000E+00  0.00000000000E+00 -0.54522428826E+03  0.31658842229E+04  0.31185819515E+04 0.  0.
        3    1    3    3  502    0 -0.52761428668E+03  0.82260917250E+03 -0.15060831638E+04  0.17953688180E+04  0.10100000352E+00 0. -1.
       -3    1    3    3    0  502  0.52761428668E+03 -0.82260917250E+03  0.96085887551E+03  0.13705154049E+04  0.10100000352E+00 0.  1.
</event>
<event>
 5   0  0.4250961E-06  0.3139214E+04  0.7818609E-02  0.8205058E-01
       -1   -1    0    0    0  501  0.00000000000E+00  0.00000000000E+00  0.13112205225E+04  0.13112205225E+04  0.50400001928E-02 0. -1.
        1   -1    0    0  501    0  0.00000000000E+00  0.00000000000E+00 -0.18789102945E+04  0.18789102945E+04  0.50400001928E-02 0.  1.
    10030    2    1    2    0    0  0.00000000000E+00  0.00000000000E+00 -0.56768977195E+03  0.31901308170E+04  0.31392137475E+04 0.  0.
        1    1    3    3  502    0 -0.12816226806E+04 -0.17137237019E+03  0.62038540204E+03  0.14341559300E+04  0.50400001928E-02 0. -1.
       -1    1    3    3    0  502  0.12816226806E+04  0.17137237019E+03 -0.11880751740E+04  0.17559748870E+04  0.50400001928E-02 0.  1.
</event>
<event>
 5   0  0.1119100E-05  0.3012603E+04  0.7818609E-02  0.8240141E-01
       -2   -1    0    0    0  501  0.00000000000E+00  0.00000000000E+00  0.22674973656E+04  0.22674973656E+04  0.25500000920E-02 0.  1.
        2   -1    0    0  501    0  0.00000000000E+00  0.00000000000E+00 -0.10006379812E+04  0.10006379812E+04  0.25500000920E-02 0. -1.
    10030    2    1    2    0    0  0.00000000000E+00  0.00000000000E+00  0.12668593844E+04  0.32681353468E+04  0.30126028522E+04 0.  0.
        2    1    3    3  502    0  0.13985052320E+04  0.52066768624E+03  0.85583724740E+03  0.17202816972E+04  0.25500000920E-02 0. -1.
       -2    1    3    3    0  502 -0.13985052320E+04 -0.52066768624E+03  0.41102213703E+03  0.15478536496E+04  0.25500000920E-02 0.  1.
</event>
<event>
 5   0  0.3807334E-06  0.3115537E+04  0.7818609E-02  0.8211487E-01
       -1   -1    0    0    0  501  0.00000000000E+00  0.00000000000E+00  0.12934223788E+04  0.12934223788E+04  0.50400001928E-02 0. -1.
        1   -1    0    0  501    0  0.00000000000E+00  0.00000000000E+00 -0.18761413717E+04  0.18761413717E+04  0.50400001928E-02 0.  1.
    10030    2    1    2    0    0  0.00000000000E+00  0.00000000000E+00 -0.58271899287E+03  0.31695637505E+04  0.31155373444E+04 0.  0.
        4    1    3    3  502    0 -0.94657933131E+02 -0.14683631979E+04  0.22896939868E+03  0.14891202784E+04  0.12699999809E+01 0.  1.
       -4    1    3    3    0  502  0.94657933131E+02  0.14683631979E+04 -0.81168839155E+03  0.16804434721E+04  0.12699999809E+01 0. -1.
</event>
<event>
 5   0  0.4250961E-06  0.3006297E+04  0.7818609E-02  0.8241935E-01
        1   -1    0    0  501    0  0.00000000000E+00  0.00000000000E+00  0.18333077931E+04  0.18333077931E+04  0.50400001928E-02 0.  1.
       -1   -1    0    0    0  501  0.00000000000E+00  0.00000000000E+00 -0.12324477237E+04  0.12324477237E+04  0.50400001928E-02 0. -1.
    10030    2    1    2    0    0  0.00000000000E+00  0.00000000000E+00  0.60086006935E+03  0.30657555168E+04  0.30062974015E+04 0.  0.
        1    1    3    3  502    0  0.71359098056E+03 -0.12556695274E+01  0.16495627426E+04  0.17972954421E+04  0.50400001928E-02 0.  1.
       -1    1    3    3    0  502 -0.71359098056E+03  0.12556695274E+01 -0.10487026733E+04  0.12684600747E+04  0.50400001928E-02 0. -1.
</event>
<event>
 5   0  0.3848286E-06  0.3181378E+04  0.7818609E-02  0.8193752E-01
        1   -1    0    0  501    0  0.00000000000E+00  0.00000000000E+00  0.18316827946E+04  0.18316827946E+04  0.50400001928E-02 0.  1.
       -1   -1    0    0    0  501  0.00000000000E+00  0.00000000000E+00 -0.13814030285E+04  0.13814030285E+04  0.50400001928E-02 0. -1.
    10030    2    1    2    0    0  0.00000000000E+00  0.00000000000E+00  0.45027976606E+03  0.32130858231E+04  0.31813784181E+04 0.  0.
        2    1    3    3  502    0  0.15229113513E+04 -0.28447071769E+03  0.58944195736E+03  0.16575959683E+04  0.25500000920E-02 0. -1.
       -2    1    3    3    0  502 -0.15229113513E+04  0.28447071769E+03 -0.13916219130E+03  0.15554898548E+04  0.25500000920E-02 0.  1.
</event>
<event>
 5   0  0.3838525E-06  0.3114592E+04  0.7818609E-02  0.8211745E-01
       -1   -1    0    0    0  501  0.00000000000E+00  0.00000000000E+00  0.17044669161E+04  0.17044669161E+04  0.50400001928E-02 0.  1.
        1   -1    0    0  501    0  0.00000000000E+00  0.00000000000E+00 -0.14228327089E+04  0.14228327089E+04  0.50400001928E-02 0. -1.
    10030    2    1    2    0    0  0.00000000000E+00  0.00000000000E+00  0.28163420718E+03  0.31272996250E+04  0.31145922876E+04 0.  0.
        3    1    3    3  502    0  0.23284035207E+03 -0.11899311743E+04  0.11220556995E+04  0.16520168982E+04  0.10100000352E+00 0.  1.
       -3    1    3    3    0  502 -0.23284035207E+03  0.11899311743E+04 -0.84042149227E+03  0.14752827268E+04  0.10100000352E+00 0. -1.
</event>
<event>
 5   0  0.1108153E-05  0.1736559E+04  0.7818609E-02  0.8740784E-01
        2   -1    0    0  501    0  0.00000000000E+00  0.00000000000E+00  0.67037758353E+03  0.67037758354E+03  0.25500000920E-02 0.  1.
       -2   -1    0    0    0  501  0.00000000000E+00  0.00000000000E+00 -0.11246040873E+04  0.11246040873E+04  0.25500000920E-02 0. -1.
    10030    2    1    2    0    0  0.00000000000E+00  0.00000000000E+00 -0.45422650382E+03  0.17949816709E+04  0.17365590926E+04 0.  0.
        4    1    3    3  502    0 -0.86292959306E+02 -0.53528286598E+03  0.47388670396E+03  0.72010030032E+03  0.12699999809E+01 0.  1.
       -4    1    3    3    0  502  0.86292959306E+02  0.53528286598E+03 -0.92811320778E+03  0.10748813706E+04  0.12699999809E+01 0. -1.
</event>
<event>
 5   0  0.1108153E-05  0.3151148E+04  0.7818609E-02  0.8201839E-01
        2   -1    0    0  501    0  0.00000000000E+00  0.00000000000E+00  0.21161055893E+04  0.21161055893E+04  0.25500000920E-02 0.  1.
       -2   -1    0    0    0  501  0.00000000000E+00  0.00000000000E+00 -0.11731138089E+04  0.11731138089E+04  0.25500000920E-02 0. -1.
    10030    2    1    2    0    0  0.00000000000E+00  0.00000000000E+00  0.94299178039E+03  0.32892193982E+04  0.31511475293E+04 0.  0.
        4    1    3    3  502    0 -0.13671775026E+04  0.62902703519E+03 -0.15399126440E+02  0.15050209569E+04  0.12699999809E+01 0. -1.
       -4    1    3    3    0  502  0.13671775026E+04 -0.62902703519E+03  0.95839090683E+03  0.17841984413E+04  0.12699999809E+01 0.  1.
</event>
<event>
 5   0  0.3848286E-06  0.3219519E+04  0.7818609E-02  0.8183681E-01
       -1   -1    0    0    0  501  0.00000000000E+00  0.00000000000E+00  0.16477907507E+04  0.16477907507E+04  0.50400001928E-02 0. -1.
        1   -1    0    0  501    0  0.00000000000E+00  0.00000000000E+00 -0.15726059788E+04  0.15726059788E+04  0.50400001928E-02 0.  1.
    10030    2    1    2    0    0  0.00000000000E+00  0.00000000000E+00  0.75184771870E+02  0.32203967296E+04  0.32195189619E+04 0.  0.
        2    1    3    3  502    0 -0.51941208976E+03  0.13156852195E+04  0.80624777468E+03  0.16281437252E+04  0.25500000920E-02 0. -1.
       -2    1    3    3    0  502  0.51941208976E+03 -0.13156852195E+04 -0.73106300281E+03  0.15922530043E+04  0.25500000920E-02 0.  1.
</event>
<event>
 5   0  0.1108153E-05  0.2206454E+04  0.7818609E-02  0.8515747E-01
        2   -1    0    0  501    0  0.00000000000E+00  0.00000000000E+00  0.18422751497E+04  0.18422751497E+04  0.25500000920E-02 0.  1.
       -2   -1    0    0    0  501  0.00000000000E+00  0.00000000000E+00 -0.66065556619E+03  0.66065556620E+03  0.25500000920E-02 0. -1.
    10030    2    1    2    0    0  0.00000000000E+00  0.00000000000E+00  0.11816195835E+04  0.25029307159E+04  0.22064535636E+04 0.  0.
        4    1    3    3  502    0 -0.38933085379E+03 -0.46459974194E+03  0.16364464120E+04  0.17451045545E+04  0.12699999809E+01 0.  1.
       -4    1    3    3    0  502  0.38933085379E+03  0.46459974194E+03 -0.45482682855E+03  0.75782616133E+03  0.12699999809E+01 0. -1.
</event>
<event>
 5   0  0.9797278E-06  0.3146147E+04  0.7818609E-02  0.8203186E-01
       -2   -1    0    0    0  501  0.00000000000E+00  0.00000000000E+00  0.17257959980E+04  0.17257959980E+04  0.25500000920E-02 0.  1.
        2   -1    0    0  501    0  0.00000000000E+00  0.00000000000E+00 -0.14338664529E+04  0.14338664530E+04  0.25500000920E-02 0. -1.
    10030    2    1    2    0    0  0.00000000000E+00  0.00000000000E+00  0.29192954509E+03  0.31596624510E+04  0.31461474767E+04 0.  0.
        1    1    3    3  502    0 -0.25431233816E+03  0.11737900677E+04  0.11662536528E+04  0.16740984054E+04  0.50400001928E-02 0.  1.
       -1    1    3    3    0  502  0.25431233816E+03 -0.11737900677E+04 -0.87432410768E+03  0.14855640456E+04  0.50400001928E-02 0. -1.
</event>
<event>
 5   0  0.1108153E-05  0.2281282E+04  0.7818609E-02  0.8485338E-01
        2   -1    0    0  501    0  0.00000000000E+00  0.00000000000E+00  0.13137865052E+04  0.13137865052E+04  0.25500000920E-02 0.  1.
       -2   -1    0    0    0  501  0.00000000000E+00  0.00000000000E+00 -0.99031428529E+03  0.99031428529E+03  0.25500000920E-02 0. -1.
    10030    2    1    2    0    0  0.00000000000E+00  0.00000000000E+00  0.32347221991E+03  0.23041007905E+04  0.22812816958E+04 0.  0.
        4    1    3    3  502    0 -0.11198156442E+04  0.85743525019E+01 -0.57225718499E+02  0.11213103907E+04  0.12699999809E+01 0. -1.
       -4    1    3    3    0  502  0.11198156442E+04 -0.85743525019E+01  0.38069793841E+03  0.11827903998E+04  0.12699999809E+01 0.  1.
</event>
<event>
 5   0  0.3838525E-06  0.3165464E+04  0.7818609E-02  0.8197998E-01
       -1   -1    0    0    0  501  0.00000000000E+00  0.00000000000E+00  0.96722630212E+03  0.96722630213E+03  0.50400001928E-02 0.  1.
        1   -1    0    0  501    0  0.00000000000E+00  0.00000000000E+00 -0.25899223296E+04  0.25899223296E+04  0.50400001928E-02 0. -1.
    10030    2    1    2    0    0  0.00000000000E+00  0.00000000000E+00 -0.16226960274E+04  0.35571486317E+04  0.31654642615E+04 0.  0.
        3    1    3    3  502    0 -0.10449650763E+04  0.88897164001E+02  0.52073578551E+03  0.11709058395E+04  0.10100000352E+00 0.  1.
       -3    1    3    3    0  502  0.10449650763E+04 -0.88897164001E+02 -0.21434318130E+04  0.23862427922E+04  0.10100000352E+00 0. -1.
</event>
<event>
 5   0  0.1001961E-05  0.2922569E+04  0.7818609E-02  0.8266194E-01
        2   -1    0    0  501    0  0.00000000000E+00  0.00000000000E+00  0.18424434615E+04  0.18424434615E+04  0.25500000920E-02 0.  1.
       -2   -1    0    0    0  501  0.00000000000E+00  0.00000000000E+00 -0.11589787391E+04  0.11589787391E+04  0.25500000920E-02 0. -1.
    10030    2    1    2    0    0  0.00000000000E+00  0.00000000000E+00  0.68346472241E+03  0.30014222006E+04  0.29225692805E+04 0.  0.
        5    1    3    3  502    0 -0.12585901222E+04  0.39873383204E+03  0.98496418744E+03  0.16471837496E+04  0.46999998093E+01 0.  1.
       -5    1    3    3    0  502  0.12585901222E+04 -0.39873383204E+03 -0.30149946502E+03  0.13542384509E+04  0.46999998093E+01 0. -1.
</event>
<event>
 5   0  0.3838525E-06  0.2945642E+04  0.7818609E-02  0.8259426E-01
        1   -1    0    0  501    0  0.00000000000E+00  0.00000000000E+00  0.25022935726E+04  0.25022935726E+04  0.50400001928E-02 0. -1.
       -1   -1    0    0    0  501  0.00000000000E+00  0.00000000000E+00 -0.86688511238E+03  0.86688511239E+03  0.50400001928E-02 0.  1.
    10030    2    1    2    0    0  0.00000000000E+00  0.00000000000E+00  0.16354084602E+04  0.33691786850E+04  0.29456415565E+04 0.  0.
        3    1    3    3  502    0 -0.24169595922E+03 -0.12553602433E+04 -0.18788321013E+02  0.12785535923E+04  0.10100000352E+00 0.  1.
       -3    1    3    3    0  502  0.24169595922E+03  0.12553602433E+04  0.16541967812E+04  0.20906250927E+04  0.10100000352E+00 0. -1.
</event>
<event>
 5   0  0.3838525E-06  0.2973865E+04  0.7818609E-02  0.8251233E-01
        1   -1    0    0  501    0  0.00000000000E+00  0.00000000000E+00  0.21968246338E+04  0.21968246338E+04  0.50400001928E-02 0.  1.
       -1   -1    0    0    0  501  0.00000000000E+00  0.00000000000E+00 -0.10064385107E+04  0.10064385107E+04  0.50400001928E-02 0. -1.
    10030    2    1    2    0    0  0.00000000000E+00  0.00000000000E+00  0.11903861231E+04  0.32032631445E+04  0.29738654393E+04 0.  0.
        3    1    3    3  502    0  0.28063101501E+03  0.13420431088E+04 -0.24639130983E+02  0.13712915698E+04  0.10100000352E+00 0. -1.
       -3    1    3    3    0  502 -0.28063101501E+03 -0.13420431088E+04  0.12150252541E+04  0.18319715747E+04  0.10100000352E+00 0.  1.
</event>
<event>
 5   0  0.1007567E-05  0.3124486E+04  0.7818609E-02  0.8209050E-01
        2   -1    0    0  501    0  0.00000000000E+00  0.00000000000E+00  0.17169230726E+04  0.17169230726E+04  0.25500000920E-02 0.  1.
       -2   -1    0    0    0  501  0.00000000000E+00  0.00000000000E+00 -0.14214982247E+04  0.14214982247E+04  0.25500000920E-02 0. -1.
    10030    2    1    2    0    0  0.00000000000E+00  0.00000000000E+00  0.29542484791E+03  0.31384212973E+04  0.31244859415E+04 0.  0.
        3    1    3    3  502    0  0.14281729376E+04  0.18987478085E+03 -0.45902860374E+03  0.15120971005E+04  0.10100000352E+00 0. -1.
       -3    1    3    3    0  502 -0.14281729376E+04 -0.18987478085E+03  0.75445345165E+03  0.16263241968E+04  0.10100000352E+00 0.  1.
</event>
<event>
 5   0  0.4250961E-06  0.3128621E+04  0.7818609E-02  0.8207927E-01
        1   -1    0    0  501    0  0.00000000000E+00  0.00000000000E+00  0.16843366795E+04  0.16843366796E+04  0.50400001928E-02 0.  1.
       -1   -1    0    0    0  501  0.00000000000E+00  0.00000000000E+00 -0.14528371272E+04  0.14528371272E+04  0.50400001928E-02 0. -1.
    10030    2    1    2    0    0  0.00000000000E+00  0.00000000000E+00  0.23149955236E+03  0.31371738067E+04  0.31286206947E+04 0.  0.
        1    1    3    3  502    0  0.11377438979E+04 -0.66334299931E+03 -0.73070354743E+03  0.15061250898E+04  0.50400001928E-02 0. -1.
       -1    1    3    3    0  502 -0.11377438979E+04  0.66334299931E+03  0.96220309980E+03  0.16310487170E+04  0.50400001928E-02 0.  1.
</event>
<event>
 5   0  0.3807334E-06  0.3085544E+04  0.7818609E-02  0.8219716E-01
        1   -1    0    0  501    0  0.00000000000E+00  0.00000000000E+00  0.18920951977E+04  0.18920951977E+04  0.50400001928E-02 0. -1.
       -1   -1    0    0    0  501  0.00000000000E+00  0.00000000000E+00 -0.12579418496E+04  0.12579418496E+04  0.50400001928E-02 0.  1.
    10030    2    1    2    0    0  0.00000000000E+00  0.00000000000E+00  0.63415334810E+03  0.31500370474E+04  0.30855441872E+04 0.  0.
        4    1    3    3  502    0 -0.14603284562E+04 -0.34227984332E+03 -0.51622094559E+02  0.15007935050E+04  0.12699999809E+01 0.  1.
       -4    1    3    3    0  502  0.14603284562E+04  0.34227984332E+03  0.68577544266E+03  0.16492435423E+04  0.12699999809E+01 0. -1.
</event>
<event>
 5   0  0.4139628E-06  0.3086406E+04  0.7818609E-02  0.8219479E-01
       -1   -1    0    0    0  501  0.00000000000E+00  0.00000000000E+00  0.18403604246E+04  0.18403604246E+04  0.50400001928E-02 0. -1.
        1   -1    0    0  501    0  0.00000000000E+00  0.00000000000E+00 -0.12940266167E+04  0.12940266167E+04  0.50400001928E-02 0.  1.
    10030    2    1    2    0    0  0.00000000000E+00  0.00000000000E+00  0.54633380797E+03  0.31343870413E+04  0.30864059187E+04 0.  0.
        5    1    3    3  502    0 -0.53080662128E+03  0.12068749664E+03  0.17396139043E+04  0.18227999800E+04  0.46999998093E+01 0. -1.
       -5    1    3    3    0  502  0.53080662128E+03 -0.12068749664E+03 -0.11932800963E+04  0.13115870613E+04  0.46999998093E+01 0.  1.
</event>
<event>
 5   0  0.3807334E-06  0.3471996E+04  0.7818609E-02  0.8120459E-01
       -1   -1    0    0    0  501  0.00000000000E+00  0.00000000000E+00  0.19720018442E+04  0.19720018442E+04  0.50400001928E-02 0. -1.
        1   -1    0    0  501    0  0.00000000000E+00  0.00000000000E+00 -0.15282383596E+04  0.15282383596E+04  0.50400001928E-02 0.  1.
    10030    2    1    2    0    0  0.00000000000E+00  0.00000000000E+00  0.44376348457E+03  0.35002402039E+04  0.34719958892E+04 0.  0.
        4    1    3    3  502    0  0.13950952286E+04  0.13390116355E+03 -0.81088690854E+03  0.16191847979E+04  0.12699999809E+01 0.  1.
       -4    1    3    3    0  502 -0.13950952286E+04 -0.13390116355E+03  0.12546503931E+04  0.18810554060E+04  0.12699999809E+01 0. -1.
</event>
<event>
 5   0  0.4250961E-06  0.3098428E+04  0.7818609E-02  0.8216169E-01
       -1   -1    0    0    0  501  0.00000000000E+00  0.00000000000E+00  0.11292145088E+04  0.11292145088E+04  0.50400001928E-02 0. -1.
        1   -1    0    0  501    0  0.00000000000E+00  0.00000000000E+00 -0.21254279181E+04  0.21254279181E+04  0.50400001928E-02 0.  1.
    10030    2    1    2    0    0  0.00000000000E+00  0.00000000000E+00 -0.99621340930E+03  0.32546424270E+04  0.30984280160E+04 0.  0.
        1    1    3    3  502    0 -0.71248985386E+03  0.66380736632E+03 -0.17637536609E+04  0.20147230549E+04  0.50400001928E-02 0.  1.
       -1    1    3    3    0  502  0.71248985386E+03 -0.66380736632E+03  0.76754025161E+03  0.12399193721E+04  0.50400001928E-02 0. -1.
</event>
<event>
 5   0  0.1108153E-05  0.2946281E+04  0.7818609E-02  0.8259239E-01
        2   -1    0    0  501    0  0.00000000000E+00  0.00000000000E+00  0.21792336070E+04  0.21792336070E+04  0.25500000920E-02 0.  1.
       -2   -1    0    0    0  501  0.00000000000E+00  0.00000000000E+00 -0.99582839953E+03  0.99582839953E+03  0.25500000920E-02 0. -1.
    10030    2    1    2    0    0  0.00000000000E+00  0.00000000000E+00  0.11834052075E+04  0.31750620066E+04  0.29462808523E+04 0.  0.
        4    1    3    3  502    0 -0.28479005067E+03 -0.99267590567E+03 -0.54041063960E+03  0.11655711471E+04  0.12699999809E+01 0. -1.
       -4    1    3    3    0  502  0.28479005067E+03  0.99267590567E+03  0.17238158471E+04  0.20094908595E+04  0.12699999809E+01 0.  1.
</event>
<event>
 5   0  0.3807334E-06  0.3114069E+04  0.7818609E-02  0.8211887E-01
        1   -1    0    0  501    0  0.00000000000E+00  0.00000000000E+00  0.89632790577E+03  0.89632790578E+03  0.50400001928E-02 0. -1.
       -1   -1    0    0    0  501  0.00000000000E+00  0.00000000000E+00 -0.27047658031E+04  0.27047658031E+04  0.50400001928E-02 0.  1.
    10030    2    1    2    0    0  0.00000000000E+00  0.00000000000E+00 -0.18084378974E+04  0.36010937089E+04  0.31140694070E+04 0.  0.
        4    1    3    3  502    0 -0.46644635677E+03 -0.13653264681E+04 -0.15811465216E+04  0.21404939860E+04  0.12699999809E+01 0. -1.
       -4    1    3    3    0  502  0.46644635677E+03  0.13653264681E+04 -0.22729137578E+03  0.14605997230E+04  0.12699999809E+01 0.  1.
</event>
<event>
 5   0  0.3807334E-06  0.2278499E+04  0.7818609E-02  0.8486447E-01
       -1   -1    0    0    0  501  0.00000000000E+00  0.00000000000E+00  0.83708465020E+03  0.83708465021E+03  0.50400001928E-02 0. -1.
        1   -1    0    0  501    0  0.00000000000E+00  0.00000000000E+00 -0.15504880055E+04  0.15504880055E+04  0.50400001928E-02 0.  1.
    10030    2    1    2    0    0  0.00000000000E+00  0.00000000000E+00 -0.71340335533E+03  0.23875726557E+04  0.22784992515E+04 0.  0.
        4    1    3    3  502    0  0.41421883934E+03  0.26513658366E+03  0.72011662669E+03  0.87203453131E+03  0.12699999809E+01 0. -1.
       -4    1    3    3    0  502 -0.41421883934E+03 -0.26513658366E+03 -0.14335199820E+04  0.15155381244E+04  0.12699999809E+01 0.  1.
</event>
<event>
 5   0  0.3838525E-06  0.2042881E+04  0.7818609E-02  0.8586831E-01
        1   -1    0    0  501    0  0.00000000000E+00  0.00000000000E+00  0.70319343758E+03  0.70319343759E+03  0.50400001928E-02 0.  1.
       -1   -1    0    0    0  501  0.00000000000E+00  0.00000000000E+00 -0.14837177248E+04  0.14837177248E+04  0.50400001928E-02 0. -1.
    10030    2    1    2    0    0  0.00000000000E+00  0.00000000000E+00 -0.78052428723E+03  0.21869111624E+04  0.20428808750E+04 0.  0.
        3    1    3    3  502    0 -0.83408025516E+03 -0.45248145934E+03 -0.79495100673E+03  0.12378919405E+04  0.10100000352E+00 0. -1.
       -3    1    3    3    0  502  0.83408025516E+03  0.45248145934E+03  0.14426719503E+02  0.94901922189E+03  0.10100000352E+00 0.  1.
</event>
<event>
 5   0  0.3838525E-06  0.3085625E+04  0.7818609E-02  0.8219694E-01
       -1   -1    0    0    0  501  0.00000000000E+00  0.00000000000E+00  0.11610265058E+04  0.11610265058E+04  0.50400001928E-02 0.  1.
        1   -1    0    0  501    0  0.00000000000E+00  0.00000000000E+00 -0.20501436256E+04  0.20501436256E+04  0.50400001928E-02 0. -1.
    10030    2    1    2    0    0  0.00000000000E+00  0.00000000000E+00 -0.88911711979E+03  0.32111701315E+04  0.30856254407E+04 0.  0.
        3    1    3    3  502    0  0.74091205716E+03  0.93011935913E+03  0.57838874334E+03  0.13223487616E+04  0.10100000352E+00 0.  1.
       -3    1    3    3    0  502 -0.74091205716E+03 -0.93011935913E+03 -0.14675058631E+04  0.18888213699E+04  0.10100000352E+00 0. -1.
</event>
<event>
 5   0  0.1108153E-05  0.3040800E+04  0.7818609E-02  0.8232175E-01
        2   -1    0    0  501    0  0.00000000000E+00  0.00000000000E+00  0.22201259171E+04  0.22201259171E+04  0.25500000920E-02 0. -1.
       -2   -1    0    0    0  501  0.00000000000E+00  0.00000000000E+00 -0.10412091563E+04  0.10412091563E+04  0.25500000920E-02 0.  1.
    10030    2    1    2    0    0  0.00000000000E+00  0.00000000000E+00  0.11789167608E+04  0.32613350735E+04  0.30407995219E+04 0.  0.
        4    1    3    3  502    0  0.46118480931E+03 -0.24042690129E+03 -0.94283390216E+03  0.10767701255E+04  0.12699999809E+01 0.  1.
       -4    1    3    3    0  502 -0.46118480931E+03  0.24042690129E+03  0.21217506630E+04  0.21845649480E+04  0.12699999809E+01 0. -1.
</event>
<event>
 5   0  0.3848286E-06  0.3054800E+04  0.7818609E-02  0.8228253E-01
        1   -1    0    0  501    0  0.00000000000E+00  0.00000000000E+00  0.14135136646E+04  0.14135136646E+04  0.50400001928E-02 0.  1.
       -1   -1    0    0    0  501  0.00000000000E+00  0.00000000000E+00 -0.16504616701E+04  0.16504616701E+04  0.50400001928E-02 0. -1.
    10030    2    1    2    0    0  0.00000000000E+00  0.00000000000E+00 -0.23694800550E+03  0.30639753347E+04  0.30547995833E+04 0.  0.
        2    1    3    3  502    0  0.45301944793E+03  0.50319664276E+03  0.12547683601E+04  0.14257899982E+04  0.25500000920E-02 0.  1.
       -2    1    3    3    0  502 -0.45301944793E+03 -0.50319664276E+03 -0.14917163656E+04  0.16381853365E+04  0.25500000920E-02 0. -1.
</event>
<event>
 5   0  0.3807334E-06  0.3056485E+04  0.7818609E-02  0.8227783E-01
        1   -1    0    0  501    0  0.00000000000E+00  0.00000000000E+00  0.13148502480E+04  0.13148502480E+04  0.50400001928E-02 0.  1.
       -1   -1    0    0    0  501  0.00000000000E+00  0.00000000000E+00 -0.17762675454E+04  0.17762675454E+04  0.50400001928E-02 0. -1.
    10030    2    1    2    0    0  0.00000000000E+00  0.00000000000E+00 -0.46141729746E+03  0.30911177934E+04  0.30564854474E+04 0.  0.
        4    1    3    3  502    0 -0.92705745437E+03 -0.18678228523E+03 -0.14448115858E+04  0.17267904555E+04  0.12699999809E+01 0. -1.
       -4    1    3    3    0  502  0.92705745437E+03  0.18678228523E+03  0.98339428835E+03  0.13643273379E+04  0.12699999809E+01 0.  1.
</event>
<event>
 5   0  0.1108153E-05  0.2947730E+04  0.7818609E-02  0.8258816E-01
        2   -1    0    0  501    0  0.00000000000E+00  0.00000000000E+00  0.18343498326E+04  0.18343498326E+04  0.25500000920E-02 0. -1.
       -2   -1    0    0    0  501  0.00000000000E+00  0.00000000000E+00 -0.11842223556E+04  0.11842223556E+04  0.25500000920E-02 0.  1.
    10030    2    1    2    0    0  0.00000000000E+00  0.00000000000E+00  0.65012747704E+03  0.30185721882E+04  0.29477300281E+04 0.  0.
        4    1    3    3  502    0 -0.16755029278E+03 -0.32280106965E+03  0.17876761226E+04  0.18242974438E+04  0.12699999809E+01 0. -1.
       -4    1    3    3    0  502  0.16755029278E+03  0.32280106965E+03 -0.11375486455E+04  0.11942747444E+04  0.12699999809E+01 0.  1.
</event>
<event>
 5   0  0.1001961E-05  0.2958810E+04  0.7818609E-02  0.8255592E-01
        2   -1    0    0  501    0  0.00000000000E+00  0.00000000000E+00  0.21427476742E+04  0.21427476742E+04  0.25500000920E-02 0. -1.
       -2   -1    0    0    0  501  0.00000000000E+00  0.00000000000E+00 -0.10214171098E+04  0.10214171098E+04  0.25500000920E-02 0.  1.
    10030    2    1    2    0    0  0.00000000000E+00  0.00000000000E+00  0.11213305644E+04  0.31641647839E+04  0.29588099880E+04 0.  0.
        5    1    3    3  502    0 -0.66763662504E+02  0.59189408384E+03  0.20088384410E+04  0.20952923341E+04  0.46999998093E+01 0. -1.
       -5    1    3    3    0  502  0.66763662504E+02 -0.59189408384E+03 -0.88750787658E+03  0.10688724499E+04  0.46999998093E+01 0.  1.
</event>
<event>
 5   0  0.3807334E-06  0.3107031E+04  0.7818609E-02  0.8213811E-01
       -1   -1    0    0    0  501  0.00000000000E+00  0.00000000000E+00  0.86632458923E+03  0.86632458924E+03  0.50400001928E-02 0.  1.
        1   -1    0    0  501    0  0.00000000000E+00  0.00000000000E+00 -0.27858047224E+04  0.27858047224E+04  0.50400001928E-02 0. -1.
    10030    2    1    2    0    0  0.00000000000E+00  0.00000000000E+00 -0.19194801332E+04  0.36521293117E+04  0.31070314655E+04 0.  0.
        4    1    3    3  502    0 -0.66298646650E+03 -0.25998396317E+03  0.66316208960E+03  0.97310240256E+03  0.12699999809E+01 0.  1.
       -4    1    3    3    0  502  0.66298646650E+03  0.25998396317E+03 -0.25826422228E+04  0.26790269091E+04  0.12699999809E+01 0. -1.
</event>
<event>
 5   0  0.1108153E-05  0.3114835E+04  0.7818609E-02  0.8211678E-01
        2   -1    0    0  501    0  0.00000000000E+00  0.00000000000E+00  0.21905873268E+04  0.21905873268E+04  0.25500000920E-02 0. -1.
       -2   -1    0    0    0  501  0.00000000000E+00  0.00000000000E+00 -0.11072601061E+04  0.11072601061E+04  0.25500000920E-02 0.  1.
    10030    2    1    2    0    0  0.00000000000E+00  0.00000000000E+00  0.10833272207E+04  0.32978474330E+04  0.31148354409E+04 0.  0.
        4    1    3    3  502    0 -0.40414469296E+03  0.14890761108E+04  0.76592916847E+03  0.17225938873E+04  0.12699999809E+01 0. -1.
       -4    1    3    3    0  502  0.40414469296E+03 -0.14890761108E+04  0.31739805224E+03  0.15752535457E+04  0.12699999809E+01 0.  1.
</event>
<event>
 5   0  0.1007567E-05  0.3068041E+04  0.7818609E-02  0.8224564E-01
       -2   -1    0    0    0  501  0.00000000000E+00  0.00000000000E+00  0.30290604084E+04  0.30290604084E+04  0.25500000920E-02 0.  1.
        2   -1    0    0  501    0  0.00000000000E+00  0.00000000000E+00 -0.77688067959E+03  0.77688067959E+03  0.25500000920E-02 0. -1.
    10030    2    1    2    0    0  0.00000000000E+00  0.00000000000E+00  0.22521797288E+04  0.38059410880E+04  0.30680407485E+04 0.  0.
        3    1    3    3  502    0  0.83687026863E+03 -0.31931240634E+03  0.26709661607E+04  0.28171568116E+04  0.10100000352E+00 0.  1.
       -3    1    3    3    0  502 -0.83687026863E+03  0.31931240634E+03 -0.41878643194E+03  0.98878427634E+03  0.10100000352E+00 0. -1.
</event>
<event>
 5   0  0.4139628E-06  0.2887471E+04  0.7818609E-02  0.8276615E-01
        1   -1    0    0  501    0  0.00000000000E+00  0.00000000000E+00  0.17079263752E+04  0.17079263752E+04  0.50400001928E-02 0. -1.
       -1   -1    0    0    0  501  0.00000000000E+00  0.00000000000E+00 -0.12204112692E+04  0.12204112692E+04  0.50400001928E-02 0.  1.
    10030    2    1    2    0    0  0.00000000000E+00  0.00000000000E+00  0.48751510600E+03  0.29283376443E+04  0.28874712779E+04 0.  0.
        5    1    3    3  502    0 -0.46272709822E+03  0.91898380294E+03  0.12708611990E+04  0.16351629505E+04  0.46999998093E+01 0. -1.
       -5    1    3    3    0  502  0.46272709822E+03 -0.91898380294E+03 -0.78334609298E+03  0.12931746939E+04  0.46999998093E+01 0.  1.
</event>
<event>
 5   0  0.1119100E-05  0.3150327E+04  0.7818609E-02  0.8202060E-01
       -2   -1    0    0    0  501  0.00000000000E+00  0.00000000000E+00  0.10669538608E+04  0.10669538608E+04  0.25500000920E-02 0. -1.
        2   -1    0    0  501    0  0.00000000000E+00  0.00000000000E+00 -0.23254423674E+04  0.23254423674E+04  0.25500000920E-02 0.  1.
    10030    2    1    2    0    0  0.00000000000E+00  0.00000000000E+00 -0.12584885067E+04  0.33923962282E+04  0.31503267842E+04 0.  0.
        2    1    3    3  502    0 -0.28285294127E+03  0.89257964017E+03  0.73474861293E+03  0.11901931459E+04  0.25500000920E-02 0. -1.
       -2    1    3    3    0  502  0.28285294127E+03 -0.89257964017E+03 -0.19932371196E+04  0.22022030822E+04  0.25500000920E-02 0.  1.
</event>
<event>
 5   0  0.4139628E-06  0.3113019E+04  0.7818609E-02  0.8212174E-01
        1   -1    0    0  501    0  0.00000000000E+00  0.00000000000E+00  0.32104567717E+04  0.32104567717E+04  0.50400001928E-02 0. -1.
       -1   -1    0    0    0  501  0.00000000000E+00  0.00000000000E+00 -0.75463446218E+03  0.75463446219E+03  0.50400001928E-02 0.  1.
    10030    2    1    2    0    0  0.00000000000E+00  0.00000000000E+00  0.24558223095E+04  0.39650912339E+04  0.31130186760E+04 0.  0.
        5    1    3    3  502    0 -0.39725303275E+02 -0.14506334535E+04  0.19448017465E+04  0.24265595891E+04  0.46999998093E+01 0. -1.
       -5    1    3    3    0  502  0.39725303275E+02  0.14506334535E+04  0.51102056300E+03  0.15385316448E+04  0.46999998093E+01 0.  1.
</event>
<event>
 5   0  0.1119100E-05  0.3252395E+04  0.7818609E-02  0.8175115E-01
        2   -1    0    0  501    0  0.00000000000E+00  0.00000000000E+00  0.13073505267E+04  0.13073505267E+04  0.25500000920E-02 0.  1.
       -2   -1    0    0    0  501  0.00000000000E+00  0.00000000000E+00 -0.20228074427E+04  0.20228074427E+04  0.25500000920E-02 0. -1.
    10030    2    1    2    0    0  0.00000000000E+00  0.00000000000E+00 -0.71545691601E+03  0.33301579695E+04  0.32523950411E+04 0.  0.
        2    1    3    3  502    0 -0.14278276474E+04  0.13618663198E+03  0.42693616288E+03  0.14965002762E+04  0.25500000920E-02 0.  1.
       -2    1    3    3    0  502  0.14278276474E+04 -0.13618663198E+03 -0.11423930789E+04  0.18336576933E+04  0.25500000920E-02 0. -1.
</event>
<event>
 5   0  0.3838525E-06  0.2378546E+04  0.7818609E-02  0.8447580E-01
       -1   -1    0    0    0  501  0.00000000000E+00  0.00000000000E+00  0.13629424586E+04  0.13629424586E+04  0.50400001928E-02 0.  1.
        1   -1    0    0  501    0  0.00000000000E+00  0.00000000000E+00 -0.10377329314E+04  0.10377329314E+04  0.50400001928E-02 0. -1.
    10030    2    1    2    0    0  0.00000000000E+00  0.00000000000E+00  0.32520952723E+03  0.24006753900E+04  0.23785460037E+04 0.  0.
        3    1    3    3  502    0 -0.12342440570E+03 -0.68166705998E+03 -0.81306714113E+03  0.10681674732E+04  0.10100000352E+00 0. -1.
       -3    1    3    3    0  502  0.12342440570E+03  0.68166705998E+03  0.11382766684E+04  0.13325079169E+04  0.10100000352E+00 0.  1.
</event>
<event>
 5   0  0.1007567E-05  0.2972861E+04  0.7818609E-02  0.8251523E-01
       -2   -1    0    0    0  501  0.00000000000E+00  0.00000000000E+00  0.10019568444E+04  0.10019568444E+04  0.25500000920E-02 0. -1.
        2   -1    0    0  501    0  0.00000000000E+00  0.00000000000E+00 -0.22051603701E+04  0.22051603701E+04  0.25500000920E-02 0.  1.
    10030    2    1    2    0    0  0.00000000000E+00  0.00000000000E+00 -0.12032035257E+04  0.32071172145E+04  0.29728609290E+04 0.  0.
        3    1    3    3  502    0  0.29488381766E+03  0.14010517368E+04 -0.17065854090E+03  0.14418830683E+04  0.10100000352E+00 0. -1.
       -3    1    3    3    0  502 -0.29488381766E+03 -0.14010517368E+04 -0.10325449848E+04  0.17652341462E+04  0.10100000352E+00 0.  1.
</event>
<event>
 5   0  0.3848286E-06  0.3105908E+04  0.7818609E-02  0.8214118E-01
       -1   -1    0    0    0  501  0.00000000000E+00  0.00000000000E+00  0.21181435582E+04  0.21181435582E+04  0.50400001928E-02 0.  1.
        1   -1    0    0  501    0  0.00000000000E+00  0.00000000000E+00 -0.11385756300E+04  0.11385756300E+04  0.50400001928E-02 0. -1.
    10030    2    1    2    0    0  0.00000000000E+00  0.00000000000E+00  0.97956792816E+03  0.32567191882E+04  0.31059083285E+04 0.  0.
        2    1    3    3  502    0  0.15186482988E+04 -0.30636965878E+03  0.60228584144E+03  0.16621983209E+04  0.25500000920E-02 0.  1.
       -2    1    3    3    0  502 -0.15186482988E+04  0.30636965878E+03  0.37728208672E+03  0.15945208673E+04  0.25500000920E-02 0. -1.
</event>
<event>
 5   0  0.4250961E-06  0.3110011E+04  0.7818609E-02  0.8212996E-01
        1   -1    0    0  501    0  0.00000000000E+00  0.00000000000E+00  0.22508998526E+04  0.22508998526E+04  0.50400001928E-02 0. -1.
       -1   -1    0    0    0  501  0.00000000000E+00  0.00000000000E+00 -0.10742556946E+04  0.10742556946E+04  0.50400001928E-02 0.  1.
    10030    2    1    2    0    0  0.00000000000E+00  0.00000000000E+00  0.11766441580E+04  0.33251555472E+04  0.31100109226E+04 0.  0.
        1    1    3    3  502    0  0.20411911905E+03 -0.13500837321E+04  0.13838734130E+04  0.19440926731E+04  0.50400001928E-02 0. -1.
       -1    1    3    3    0  502 -0.20411911905E+03  0.13500837321E+04 -0.20722925491E+03  0.13810628742E+04  0.50400001928E-02 0.  1.
</event>
<event>
 5   0  0.1119100E-05  0.2120373E+04  0.7818609E-02  0.8552322E-01
       -2   -1    0    0    0  501  0.00000000000E+00  0.00000000000E+00  0.84029798642E+03  0.84029798642E+03  0.25500000920E-02 0.  1.
        2   -1    0    0  501    0  0.00000000000E+00  0.00000000000E+00 -0.13376154597E+04  0.13376154597E+04  0.25500000920E-02 0. -1.
    10030    2    1    2    0    0  0.00000000000E+00  0.00000000000E+00 -0.49731747324E+03  0.21779134461E+04  0.21203731533E+04 0.  0.
        2    1    3    3  502    0 -0.55554746406E+03 -0.51450818145E+03 -0.10108496114E+04  0.12629998379E+04  0.25500000920E-02 0. -1.
       -2    1    3    3    0  502  0.55554746406E+03  0.51450818145E+03  0.51353213814E+03  0.91491360822E+03  0.25500000920E-02 0.  1.
</event>
<event>
 5   0  0.3838525E-06  0.3116161E+04  0.7818609E-02  0.8211317E-01
       -1   -1    0    0    0  501  0.00000000000E+00  0.00000000000E+00  0.15493137400E+04  0.15493137401E+04  0.50400001928E-02 0. -1.
        1   -1    0    0  501    0  0.00000000000E+00  0.00000000000E+00 -0.15668970406E+04  0.15668970406E+04  0.50400001928E-02 0.  1.
    10030    2    1    2    0    0  0.00000000000E+00  0.00000000000E+00 -0.17583300507E+02  0.31162107806E+04  0.31161611731E+04 0.  0.
        3    1    3    3  502    0  0.92172907343E+03  0.12080354122E+04 -0.35329831329E+03  0.15600492781E+04  0.10100000352E+00 0.  1.
       -3    1    3    3    0  502 -0.92172907343E+03 -0.12080354122E+04  0.33571501278E+03  0.15561615025E+04  0.10100000352E+00 0. -1.
</event>
<event>
 5   0  0.1108153E-05  0.2073026E+04  0.7818609E-02  0.8573219E-01
        2   -1    0    0  501    0  0.00000000000E+00  0.00000000000E+00  0.10587577336E+04  0.10587577336E+04  0.25500000920E-02 0.  1.
       -2   -1    0    0    0  501  0.00000000000E+00  0.00000000000E+00 -0.10147361056E+04  0.10147361056E+04  0.25500000920E-02 0. -1.
    10030    2    1    2    0    0  0.00000000000E+00  0.00000000000E+00  0.44021628051E+02  0.20734938392E+04  0.20730264826E+04 0.  0.
        4    1    3    3  502    0 -0.67677391215E+03  0.78433773048E+03  0.55922482194E+02  0.10374668865E+04  0.12699999809E+01 0.  1.
       -4    1    3    3    0  502  0.67677391215E+03 -0.78433773048E+03 -0.11900854143E+02  0.10360269528E+04  0.12699999809E+01 0. -1.
</event>
<event>
 5   0  0.1007567E-05  0.3109205E+04  0.7818609E-02  0.8213216E-01
        2   -1    0    0  501    0  0.00000000000E+00  0.00000000000E+00  0.17796736633E+04  0.17796736633E+04  0.25500000920E-02 0. -1.
       -2   -1    0    0    0  501  0.00000000000E+00  0.00000000000E+00 -0.13579958912E+04  0.13579958912E+04  0.25500000920E-02 0.  1.
    10030    2    1    2    0    0  0.00000000000E+00  0.00000000000E+00  0.42167777205E+03  0.31376695545E+04  0.31092053792E+04 0.  0.
        3    1    3    3  502    0 -0.11728901061E+04  0.99715413730E+03  0.42915696964E+03  0.15981749871E+04  0.10100000352E+00 0. -1.
       -3    1    3    3    0  502  0.11728901061E+04 -0.99715413730E+03 -0.74791975865E+01  0.15394945674E+04  0.10100000352E+00 0.  1.
</event>
<event>
 5   0  0.1001961E-05  0.2623762E+04  0.7818609E-02  0.8360174E-01
        2   -1    0    0  501    0  0.00000000000E+00  0.00000000000E+00  0.10769502612E+04  0.10769502612E+04  0.25500000920E-02 0. -1.
       -2   -1    0    0    0  501  0.00000000000E+00  0.00000000000E+00 -0.15980602475E+04  0.15980602475E+04  0.25500000920E-02 0.  1.
    10030    2    1    2    0    0  0.00000000000E+00  0.00000000000E+00 -0.52110998630E+03  0.26750105087E+04  0.26237617277E+04 0.  0.
        5    1    3    3  502    0  0.33466431170E+03  0.77977535604E+03  0.75946657122E+03  0.11387982131E+04  0.46999998093E+01 0. -1.
       -5    1    3    3    0  502 -0.33466431170E+03 -0.77977535604E+03 -0.12805765575E+04  0.15362122956E+04  0.46999998093E+01 0.  1.
</event>
<event>
 5   0  0.3807334E-06  0.3010602E+04  0.7818609E-02  0.8240710E-01
        1   -1    0    0  501    0  0.00000000000E+00  0.00000000000E+00  0.17993935683E+04  0.17993935683E+04  0.50400001928E-02 0. -1.
       -1   -1    0    0    0  501  0.00000000000E+00  0.00000000000E+00 -0.12592752546E+04  0.12592752546E+04  0.50400001928E-02 0.  1.
    10030    2    1    2    0    0  0.00000000000E+00  0.00000000000E+00  0.54011831373E+03  0.30586688229E+04  0.30106024605E+04 0.  0.
        4    1    3    3  502    0 -0.53487656657E+03  0.26514479899E+03 -0.11338626167E+04  0.12814213797E+04  0.12699999809E+01 0.  1.
       -4    1    3    3    0  502  0.53487656657E+03 -0.26514479899E+03  0.16739809304E+04  0.17772474432E+04  0.12699999809E+01 0. -1.
</event>
<event>
 5   0  0.3838525E-06  0.3023124E+04  0.7818609E-02  0.8237158E-01
        1   -1    0    0  501    0  0.00000000000E+00  0.00000000000E+00  0.11413735370E+04  0.11413735371E+04  0.50400001928E-02 0. -1.
       -1   -1    0    0    0  501  0.00000000000E+00  0.00000000000E+00 -0.20018164725E+04  0.20018164725E+04  0.50400001928E-02 0.  1.
    10030    2    1    2    0    0  0.00000000000E+00  0.00000000000E+00 -0.86044293550E+03  0.31431900096E+04  0.30231244419E+04 0.  0.
        3    1    3    3  502    0  0.86566702233E+03 -0.10903609630E+04 -0.10422899481E+04  0.17391477135E+04  0.10100000352E+00 0.  1.
       -3    1    3    3    0  502 -0.86566702233E+03  0.10903609630E+04  0.18184701257E+03  0.14040422961E+04  0.10100000352E+00 0. -1.
</event>
<event>
 5   0  0.4139628E-06  0.2912624E+04  0.7818609E-02  0.8269131E-01
        1   -1    0    0  501    0  0.00000000000E+00  0.00000000000E+00  0.13245482812E+04  0.13245482812E+04  0.50400001928E-02 0. -1.
       -1   -1    0    0    0  501  0.00000000000E+00  0.00000000000E+00 -0.16011832214E+04  0.16011832214E+04  0.50400001928E-02 0.  1.
    10030    2    1    2    0    0  0.00000000000E+00  0.00000000000E+00 -0.27663494025E+03  0.29257315026E+04  0.29126238918E+04 0.  0.
        5    1    3    3  502    0  0.12742180473E+04 -0.45210533874E+03  0.40521977740E+03  0.14114729992E+04  0.46999998093E+01 0. -1.
       -5    1    3    3    0  502 -0.12742180473E+04  0.45210533874E+03 -0.68185471764E+03  0.15142585035E+04  0.46999998093E+01 0.  1.
</event>
<event>
 5   0  0.1108153E-05  0.3088281E+04  0.7818609E-02  0.8218961E-01
       -2   -1    0    0    0  501  0.00000000000E+00  0.00000000000E+00  0.10304179116E+04  0.10304179116E+04  0.25500000920E-02 0. -1.
        2   -1    0    0  501    0  0.00000000000E+00  0.00000000000E+00 -0.23139836263E+04  0.23139836263E+04  0.25500000920E-02 0.  1.
    10030    2    1    2    0    0  0.00000000000E+00  0.00000000000E+00 -0.12835657147E+04  0.33444015379E+04  0.30882811891E+04 0.  0.
        4    1    3    3  502    0  0.52829539798E+02  0.11025095701E+04  0.52760939354E+03  0.12233934762E+04  0.12699999809E+01 0. -1.
       -4    1    3    3    0  502 -0.52829539798E+02 -0.11025095701E+04 -0.18111751082E+04  0.21210080617E+04  0.12699999809E+01 0.  1.
</event>
<event>
 5   0  0.9797278E-06  0.3072647E+04  0.7818609E-02  0.8223285E-01
        2   -1    0    0  501    0  0.00000000000E+00  0.00000000000E+00  0.20393365230E+04  0.20393365230E+04  0.25500000920E-02 0. -1.
       -2   -1    0    0    0  501  0.00000000000E+00  0.00000000000E+00 -0.11573810071E+04  0.11573810071E+04  0.25500000920E-02 0.  1.
    10030    2    1    2    0    0  0.00000000000E+00  0.00000000000E+00  0.88195551598E+03  0.31967175301E+04  0.30726466499E+04 0.  0.
        1    1    3    3  502    0 -0.61988368754E+03  0.14051828210E+04  0.40075378354E+03  0.15872612077E+04  0.50400001928E-02 0.  1.
       -1    1    3    3    0  502  0.61988368754E+03 -0.14051828210E+04  0.48120173244E+03  0.16094563224E+04  0.50400001928E-02 0. -1.
</event>
<event>
 5   0  0.1001961E-05  0.3097565E+04  0.7818609E-02  0.8216407E-01
        2   -1    0    0  501    0  0.00000000000E+00  0.00000000000E+00  0.15454093282E+04  0.15454093282E+04  0.25500000920E-02 0.  1.
       -2   -1    0    0    0  501  0.00000000000E+00  0.00000000000E+00 -0.15521625880E+04  0.15521625880E+04  0.25500000920E-02 0. -1.
    10030    2    1    2    0    0  0.00000000000E+00  0.00000000000E+00 -0.67532598135E+01  0.30975719162E+04  0.30975645545E+04 0.  0.
        5    1    3    3  502    0  0.10970517799E+04  0.44021448503E+03 -0.10040752917E+04  0.15509676598E+04  0.46999998093E+01 0. -1.
       -5    1    3    3    0  502 -0.10970517799E+04 -0.44021448503E+03  0.99732203184E+03  0.15466042563E+04  0.46999998093E+01 0.  1.
</event>
<event>
 5   0  0.1108153E-05  0.3108050E+04  0.7818609E-02  0.8213532E-01
       -2   -1    0    0    0  501  0.00000000000E+00  0.00000000000E+00  0.18438825055E+04  0.18438825055E+04  0.25500000920E-02 0.  1.
        2   -1    0    0  501    0  0.00000000000E+00  0.00000000000E+00 -0.13097327931E+04  0.13097327931E+04  0.25500000920E-02 0. -1.
    10030    2    1    2    0    0  0.00000000000E+00  0.00000000000E+00  0.53414971244E+03  0.31536152986E+04  0.31080497963E+04 0.  0.
        4    1    3    3  502    0 -0.43324831136E+03 -0.13105081076E+04  0.99158519258E+03  0.16995229938E+04  0.12699999809E+01 0.  1.
       -4    1    3    3    0  502  0.43324831136E+03  0.13105081076E+04 -0.45743548015E+03  0.14540923048E+04  0.12699999809E+01 0. -1.
</event>
<event>
 5   0  0.1119100E-05  0.3105878E+04  0.7818609E-02  0.8214127E-01
       -2   -1    0    0    0  501  0.00000000000E+00  0.00000000000E+00  0.97361158658E+03  0.97361158658E+03  0.25500000920E-02 0. -1.
        2   -1    0    0  501    0  0.00000000000E+00  0.00000000000E+00 -0.24769834364E+04  0.24769834364E+04  0.25500000920E-02 0.  1.
    10030    2    1    2    0    0  0.00000000000E+00  0.00000000000E+00 -0.15033718498E+04  0.34505950230E+04  0.31058781518E+04 0.  0.
        2    1    3    3  502    0 -0.13558460546E+04 -0.30211924652E+03  0.19651590095E+02  0.13892374700E+04  0.25500000920E-02 0. -1.
       -2    1    3    3    0  502  0.13558460546E+04  0.30211924652E+03 -0.15230234399E+04  0.20613575530E+04  0.25500000920E-02 0.  1.
</event>
<event>
 5   0  0.1001961E-05  0.3337804E+04  0.7818609E-02  0.8153342E-01
       -2   -1    0    0    0  501  0.00000000000E+00  0.00000000000E+00  0.10118201342E+04  0.10118201342E+04  0.25500000920E-02 0.  1.
        2   -1    0    0  501    0  0.00000000000E+00  0.00000000000E+00 -0.27526970658E+04  0.27526970658E+04  0.25500000920E-02 0. -1.
    10030    2    1    2    0    0  0.00000000000E+00  0.00000000000E+00 -0.17408769316E+04  0.37645172000E+04  0.33378042570E+04 0.  0.
        5    1    3    3  502    0 -0.12755686014E+04 -0.10419527480E+04 -0.11740595050E+04  0.20226662101E+04  0.46999998093E+01 0. -1.
       -5    1    3    3    0  502  0.12755686014E+04  0.10419527480E+04 -0.56681742655E+03  0.17418509899E+04  0.46999998093E+01 0.  1.
</event>
<event>
 5   0  0.1001961E-05  0.3104461E+04  0.7818609E-02  0.8214515E-01
       -2   -1    0    0    0  501  0.00000000000E+00  0.00000000000E+00  0.10441458854E+04  0.10441458854E+04  0.25500000920E-02 0.  1.
        2   -1    0    0  501    0  0.00000000000E+00  0.00000000000E+00 -0.23075512923E+04  0.23075512923E+04  0.25500000920E-02 0. -1.
    10030    2    1    2    0    0  0.00000000000E+00  0.00000000000E+00 -0.12634054069E+04  0.33516971778E+04  0.31044614266E+04 0.  0.
        5    1    3    3  502    0  0.50895892049E+03  0.47972213001E+03  0.86437666009E+03  0.11119089915E+04  0.46999998093E+01 0.  1.
       -5    1    3    3    0  502 -0.50895892049E+03 -0.47972213001E+03 -0.21277820670E+04  0.22397881863E+04  0.46999998093E+01 0. -1.
</event>
<event>
 5   0  0.3848286E-06  0.3295917E+04  0.7818609E-02  0.8163935E-01
       -1   -1    0    0    0  501  0.00000000000E+00  0.00000000000E+00  0.18220063748E+04  0.18220063748E+04  0.50400001928E-02 0. -1.
        1   -1    0    0  501    0  0.00000000000E+00  0.00000000000E+00 -0.14905361958E+04  0.14905361958E+04  0.50400001928E-02 0.  1.
    10030    2    1    2    0    0  0.00000000000E+00  0.00000000000E+00  0.33147017899E+03  0.33125425707E+04  0.32959165346E+04 0.  0.
        2    1    3    3  502    0 -0.45404652860E+02  0.23583977832E+02  0.18212079244E+04  0.18219264777E+04  0.25500000920E-02 0. -1.
       -2    1    3    3    0  502  0.45404652860E+02 -0.23583977832E+02 -0.14897377454E+04  0.14906160929E+04  0.25500000920E-02 0.  1.
</event>
<event>
 5   0  0.3848286E-06  0.3035232E+04  0.7818609E-02  0.8233741E-01
        1   -1    0    0  501    0  0.00000000000E+00  0.00000000000E+00  0.20615390767E+04  0.20615390767E+04  0.50400001928E-02 0.  1.
       -1   -1    0    0    0  501  0.00000000000E+00  0.00000000000E+00 -0.11172033576E+04  0.11172033576E+04  0.50400001928E-02 0. -1.
    10030    2    1    2    0    0  0.00000000000E+00  0.00000000000E+00  0.94433571916E+03  0.31787424343E+04  0.30352320362E+04 0.  0.
        2    1    3    3  502    0  0.61304736716E+03 -0.22711951229E+02 -0.98156130894E+03  0.11574996805E+04  0.25500000920E-02 0. -1.
       -2    1    3    3    0  502 -0.61304736716E+03  0.22711951229E+02  0.19258970281E+04  0.20212427538E+04  0.25500000920E-02 0.  1.
</event>
<event>
 5   0  0.3493125E-06  0.1770233E+04  0.7818609E-02  0.8722291E-01
        4   -1    0    0  501    0  0.00000000000E+00  0.00000000000E+00  0.76042857564E+03  0.76042963616E+03  0.12699999809E+01 0.  1.
       -4   -1    0    0    0  501  0.00000000000E+00  0.00000000000E+00 -0.10302470798E+04  0.10302478625E+04  0.12699999809E+01 0. -1.
    10030    2    1    2    0    0  0.00000000000E+00  0.00000000000E+00 -0.26981850411E+03  0.17906774987E+04  0.17702327189E+04 0.  0.
        3    1    3    3  502    0  0.50870295914E+03 -0.44521256805E+03 -0.71285541647E+03  0.98242342520E+03  0.10100000352E+00 0. -1.
       -3    1    3    3    0  502 -0.50870295914E+03  0.44521256805E+03  0.44303691236E+03  0.80825407349E+03  0.10100000352E+00 0.  1.
</event>
<event>
 5   0  0.4139628E-06  0.3172234E+04  0.7818609E-02  0.8196189E-01
       -1   -1    0    0    0  501  0.00000000000E+00  0.00000000000E+00  0.19485054810E+04  0.19485054810E+04  0.50400001928E-02 0. -1.
        1   -1    0    0  501    0  0.00000000000E+00  0.00000000000E+00 -0.12911265050E+04  0.12911265050E+04  0.50400001928E-02 0.  1.
    10030    2    1    2    0    0  0.00000000000E+00  0.00000000000E+00  0.65737897600E+03  0.32396319860E+04  0.31722339584E+04 0.  0.
        5    1    3    3  502    0  0.67975230223E+03 -0.11112775577E+04  0.12527587581E+04  0.18073260908E+04  0.46999998093E+01 0. -1.
       -5    1    3    3    0  502 -0.67975230223E+03  0.11112775577E+04 -0.59537978210E+03  0.14323058952E+04  0.46999998093E+01 0.  1.
</event>
<event>
 5   0  0.1007567E-05  0.3118017E+04  0.7818609E-02  0.8210811E-01
       -2   -1    0    0    0  501  0.00000000000E+00  0.00000000000E+00  0.14655473094E+04  0.14655473094E+04  0.25500000920E-02 0.  1.
        2   -1    0    0  501    0  0.00000000000E+00  0.00000000000E+00 -0.16584293866E+04  0.16584293866E+04  0.25500000920E-02 0. -1.
    10030    2    1    2    0    0  0.00000000000E+00  0.00000000000E+00 -0.19288207722E+03  0.31239766960E+04  0.31180165012E+04 0.  0.
        3    1    3    3  502    0 -0.11090888486E+03 -0.13055988887E+04  0.74993257395E+03  0.15097311399E+04  0.10100000352E+00 0.  1.
       -3    1    3    3    0  502  0.11090888486E+03  0.13055988887E+04 -0.94281465117E+03  0.16142455562E+04  0.10100000352E+00 0. -1.
</event>
<event>
 5   0  0.4250961E-06  0.2283524E+04  0.7818609E-02  0.8484446E-01
       -1   -1    0    0    0  501  0.00000000000E+00  0.00000000000E+00  0.77683265950E+03  0.77683265951E+03  0.50400001928E-02 0. -1.
        1   -1    0    0  501    0  0.00000000000E+00  0.00000000000E+00 -0.16781232772E+04  0.16781232772E+04  0.50400001928E-02 0.  1.
    10030    2    1    2    0    0  0.00000000000E+00  0.00000000000E+00 -0.90129061775E+03  0.24549559368E+04  0.22835244413E+04 0.  0.
        1    1    3    3  502    0  0.54108558708E+03 -0.31059850762E+03  0.57737200255E+03  0.85006086537E+03  0.50400001928E-02 0. -1.
       -1    1    3    3    0  502 -0.54108558708E+03  0.31059850762E+03 -0.14786626203E+04  0.16048950714E+04  0.50400001928E-02 0.  1.
</event>
<event>
 5   0  0.3848286E-06  0.2397382E+04  0.7818609E-02  0.8440484E-01
       -1   -1    0    0    0  501  0.00000000000E+00  0.00000000000E+00  0.13064246427E+04  0.13064246427E+04  0.50400001928E-02 0. -1.
        1   -1    0    0  501    0  0.00000000000E+00  0.00000000000E+00 -0.10998413352E+04  0.10998413352E+04  0.50400001928E-02 0.  1.
    10030    2    1    2    0    0  0.00000000000E+00  0.00000000000E+00  0.20658330748E+03  0.24062659779E+04  0.23973817580E+04 0.  0.
        2    1    3    3  502    0  0.10234797244E+04  0.60737323385E+03  0.24681397470E+03  0.12154547007E+04  0.25500000920E-02 0.  1.
       -2    1    3    3    0  502 -0.10234797244E+04 -0.60737323385E+03 -0.40230667221E+02  0.11908112772E+04  0.25500000920E-02 0. -1.
</event>
<event>
 5   0  0.4139628E-06  0.3094576E+04  0.7818609E-02  0.8217228E-01
        1   -1    0    0  501    0  0.00000000000E+00  0.00000000000E+00  0.16449424862E+04  0.16449424862E+04  0.50400001928E-02 0. -1.
       -1   -1    0    0    0  501  0.00000000000E+00  0.00000000000E+00 -0.14554311044E+04  0.14554311044E+04  0.50400001928E-02 0.  1.
    10030    2    1    2    0    0  0.00000000000E+00  0.00000000000E+00  0.18951138183E+03  0.31003735906E+04  0.30945761968E+04 0.  0.
        5    1    3    3  502    0  0.10777303439E+04 -0.10821578414E+04  0.34323257886E+03  0.15653750289E+04  0.46999998093E+01 0. -1.
       -5    1    3    3    0  502 -0.10777303439E+04  0.10821578414E+04 -0.15372119703E+03  0.15349985617E+04  0.46999998093E+01 0.  1.
</event>
<event>
 5   0  0.1119100E-05  0.1827684E+04  0.7818609E-02  0.8691714E-01
       -2   -1    0    0    0  501  0.00000000000E+00  0.00000000000E+00  0.62999369110E+03  0.62999369111E+03  0.25500000920E-02 0.  1.
        2   -1    0    0  501    0  0.00000000000E+00  0.00000000000E+00 -0.13255806571E+04  0.13255806571E+04  0.25500000920E-02 0. -1.
    10030    2    1    2    0    0  0.00000000000E+00  0.00000000000E+00 -0.69558696596E+03  0.19555743482E+04  0.18276842736E+04 0.  0.
        2    1    3    3  502    0 -0.59389549839E+03  0.42321632796E+03  0.24145377258E+03  0.76819518845E+03  0.25500000920E-02 0.  1.
       -2    1    3    3    0  502  0.59389549839E+03 -0.42321632796E+03 -0.93704073854E+03  0.11873791597E+04  0.25500000920E-02 0. -1.
</event>
<event>
 5   0  0.1108153E-05  0.3205881E+04  0.7818609E-02  0.8187266E-01
       -2   -1    0    0    0  501  0.00000000000E+00  0.00000000000E+00  0.13134830271E+04  0.13134830271E+04  0.25500000920E-02 0.  1.
        2   -1    0    0  501    0  0.00000000000E+00  0.00000000000E+00 -0.19561869929E+04  0.19561869929E+04  0.25500000920E-02 0. -1.
    10030    2    1    2    0    0  0.00000000000E+00  0.00000000000E+00 -0.64270396582E+03  0.32696700201E+04  0.32058811039E+04 0.  0.
        4    1    3    3  502    0  0.15695247396E+04  0.11664737566E+03 -0.63137780032E+03  0.16957753560E+04  0.12699999809E+01 0. -1.
       -4    1    3    3    0  502 -0.15695247396E+04 -0.11664737566E+03 -0.11326165502E+02  0.15738946640E+04  0.12699999809E+01 0.  1.
</event>
<event>
 5   0  0.3838525E-06  0.2868139E+04  0.7818609E-02  0.8282421E-01
       -1   -1    0    0    0  501  0.00000000000E+00  0.00000000000E+00  0.14593065883E+04  0.14593065883E+04  0.50400001928E-02 0.  1.
        1   -1    0    0  501    0  0.00000000000E+00  0.00000000000E+00 -0.14092691197E+04  0.14092691197E+04  0.50400001928E-02 0. -1.
    10030    2    1    2    0    0  0.00000000000E+00  0.00000000000E+00  0.50037468558E+02  0.28685757080E+04  0.28681392651E+04 0.  0.
        3    1    3    3  502    0  0.11076798011E+03  0.11474685413E+04 -0.82810702217E+03  0.14194065130E+04  0.10100000352E+00 0. -1.
       -3    1    3    3    0  502 -0.11076798011E+03 -0.11474685413E+04  0.87814449073E+03  0.14491691950E+04  0.10100000352E+00 0.  1.
</event>
<event>
 5   0  0.1119100E-05  0.2887493E+04  0.7818609E-02  0.8276608E-01
        2   -1    0    0  501    0  0.00000000000E+00  0.00000000000E+00  0.23873934360E+04  0.23873934360E+04  0.25500000920E-02 0.  1.
       -2   -1    0    0    0  501  0.00000000000E+00  0.00000000000E+00 -0.87308793206E+03  0.87308793207E+03  0.25500000920E-02 0. -1.
    10030    2    1    2    0    0  0.00000000000E+00  0.00000000000E+00  0.15143055039E+04  0.32604813680E+04  0.28874933060E+04 0.  0.
        2    1    3    3  502    0  0.26409020154E+03 -0.39933171835E+03  0.22951498376E+04  0.23445516059E+04  0.25500000920E-02 0.  1.
       -2    1    3    3    0  502 -0.26409020154E+03  0.39933171835E+03 -0.78084433364E+03  0.91592976216E+03  0.25500000920E-02 0. -1.
</event>
<event>
 5   0  0.4139628E-06  0.2990228E+04  0.7818609E-02  0.8246527E-01
       -1   -1    0    0    0  501  0.00000000000E+00  0.00000000000E+00  0.76836170534E+03  0.76836170536E+03  0.50400001928E-02 0. -1.
        1   -1    0    0  501    0  0.00000000000E+00  0.00000000000E+00 -0.29092626288E+04  0.29092626288E+04  0.50400001928E-02 0.  1.
    10030    2    1    2    0    0  0.00000000000E+00  0.00000000000E+00 -0.21409009234E+04  0.36776243341E+04  0.29902280814E+04 0.  0.
        5    1    3    3  502    0  0.31789084282E+02 -0.11973203016E+03 -0.29029307057E+04  0.29055765481E+04  0.46999998093E+01 0.  1.
       -5    1    3    3    0  502 -0.31789084282E+02  0.11973203016E+03  0.76202978223E+03  0.77204778605E+03  0.46999998093E+01 0. -1.
</event>
<event>
 5   0  0.3807334E-06  0.3098850E+04  0.7818609E-02  0.8216053E-01
        1   -1    0    0  501    0  0.00000000000E+00  0.00000000000E+00  0.14484090399E+04  0.14484090399E+04  0.50400001928E-02 0. -1.
       -1   -1    0    0    0  501  0.00000000000E+00  0.00000000000E+00 -0.16574865345E+04  0.16574865345E+04  0.50400001928E-02 0.  1.
    10030    2    1    2    0    0  0.00000000000E+00  0.00000000000E+00 -0.20907749459E+03  0.31058955745E+04  0.30988504192E+04 0.  0.
        4    1    3    3  502    0 -0.54047982063E+03  0.11683437443E+04  0.75972750167E+03  0.14947685543E+04  0.12699999809E+01 0. -1.
       -4    1    3    3    0  502  0.54047982063E+03 -0.11683437443E+04 -0.96880499626E+03  0.16111270201E+04  0.12699999809E+01 0.  1.
</event>
<event>
 5   0  0.3848286E-06  0.3085105E+04  0.7818609E-02  0.8219838E-01
       -1   -1    0    0    0  501  0.00000000000E+00  0.00000000000E+00  0.24247925449E+04  0.24247925449E+04  0.50400001928E-02 0.  1.
        1   -1    0    0  501    0  0.00000000000E+00  0.00000000000E+00 -0.98130822996E+03  0.98130822997E+03  0.50400001928E-02 0. -1.
    10030    2    1    2    0    0  0.00000000000E+00  0.00000000000E+00  0.14434843149E+04  0.34061007748E+04  0.30851054311E+04 0.  0.
        2    1    3    3  502    0  0.12409116600E+04  0.32708325220E+03 -0.22324946473E+03  0.13025688179E+04  0.25500000920E-02 0. -1.
       -2    1    3    3    0  502 -0.12409116600E+04 -0.32708325220E+03  0.16667337796E+04  0.21035319570E+04  0.25500000920E-02 0.  1.
</event>
<event>
 5   0  0.4139628E-06  0.2674241E+04  0.7818609E-02  0.8343411E-01
       -1   -1    0    0    0  501  0.00000000000E+00  0.00000000000E+00  0.22775519345E+04  0.22775519346E+04  0.50400001928E-02 0. -1.
        1   -1    0    0  501    0  0.00000000000E+00  0.00000000000E+00 -0.78500593561E+03  0.78500593562E+03  0.50400001928E-02 0.  1.
    10030    2    1    2    0    0  0.00000000000E+00  0.00000000000E+00  0.14925459989E+04  0.30625578702E+04  0.26742414157E+04 0.  0.
        5    1    3    3  502    0  0.91180355464E+03 -0.12131821679E+03 -0.36508803560E+03  0.98965407881E+03  0.46999998093E+01 0.  1.
       -5    1    3    3    0  502 -0.91180355464E+03  0.12131821679E+03  0.18576340345E+04  0.20729037914E+04  0.46999998093E+01 0. -1.
</event>
<event>
 5   0  0.4250961E-06  0.2815500E+04  0.7818609E-02  0.8298472E-01
       -1   -1    0    0    0  501  0.00000000000E+00  0.00000000000E+00  0.10819337388E+04  0.10819337388E+04  0.50400001928E-02 0.  1.
        1   -1    0    0  501    0  0.00000000000E+00  0.00000000000E+00 -0.18316834456E+04  0.18316834456E+04  0.50400001928E-02 0. -1.
    10030    2    1    2    0    0  0.00000000000E+00  0.00000000000E+00 -0.74974970686E+03  0.29136171844E+04  0.28155000398E+04 0.  0.
        1    1    3    3  502    0  0.13046039494E+04  0.44472801562E+03 -0.78565157397E+02  0.13805603778E+04  0.50400001928E-02 0.  1.
       -1    1    3    3    0  502 -0.13046039494E+04 -0.44472801562E+03 -0.67118454946E+03  0.15330568066E+04  0.50400001928E-02 0. -1.
</event>
<event>
 5   0  0.1007567E-05  0.3174517E+04  0.7818609E-02  0.8195580E-01
        2   -1    0    0  501    0  0.00000000000E+00  0.00000000000E+00  0.14969173557E+04  0.14969173557E+04  0.25500000920E-02 0. -1.
       -2   -1    0    0    0  501  0.00000000000E+00  0.00000000000E+00 -0.16830516909E+04  0.16830516909E+04  0.25500000920E-02 0.  1.
    10030    2    1    2    0    0  0.00000000000E+00  0.00000000000E+00 -0.18613433518E+03  0.31799690467E+04  0.31745168368E+04 0.  0.
        3    1    3    3  502    0  0.49354185141E+03 -0.14046129961E+04 -0.64434685117E+03  0.16222527863E+04  0.10100000352E+00 0.  1.
       -3    1    3    3    0  502 -0.49354185141E+03  0.14046129961E+04  0.45821251599E+03  0.15577162604E+04  0.10100000352E+00 0. -1.
</event>
<event>
 5   0  0.1007567E-05  0.3151912E+04  0.7818609E-02  0.8201634E-01
        2   -1    0    0  501    0  0.00000000000E+00  0.00000000000E+00  0.12207867409E+04  0.12207867409E+04  0.25500000920E-02 0. -1.
       -2   -1    0    0    0  501  0.00000000000E+00  0.00000000000E+00 -0.20344557109E+04  0.20344557109E+04  0.25500000920E-02 0.  1.
    10030    2    1    2    0    0  0.00000000000E+00  0.00000000000E+00 -0.81366897000E+03  0.32552424519E+04  0.31519115196E+04 0.  0.
        3    1    3    3  502    0  0.71513334878E+03 -0.11953629085E+04  0.35443865904E+03  0.14373360646E+04  0.10100000352E+00 0. -1.
       -3    1    3    3    0  502 -0.71513334878E+03  0.11953629085E+04 -0.11681076290E+04  0.18179063872E+04  0.10100000352E+00 0.  1.
</event>
<event>
 5   0  0.4139628E-06  0.3102322E+04  0.7818609E-02  0.8215101E-01
        1   -1    0    0  501    0  0.00000000000E+00  0.00000000000E+00  0.17102332585E+04  0.17102332585E+04  0.50400001928E-02 0.  1.
       -1   -1    0    0    0  501  0.00000000000E+00  0.00000000000E+00 -0.14068839790E+04  0.14068839790E+04  0.50400001928E-02 0. -1.
    10030    2    1    2    0    0  0.00000000000E+00  0.00000000000E+00  0.30334927946E+03  0.31171172375E+04  0.31023215641E+04 0.  0.
        5    1    3    3  502    0 -0.60536617290E+03 -0.96944091559E+03  0.12053867142E+04  0.16611029808E+04  0.46999998093E+01 0.  1.
       -5    1    3    3    0  502  0.60536617290E+03  0.96944091559E+03 -0.90203743470E+03  0.14560142567E+04  0.46999998093E+01 0. -1.
</event>
<event>
 5   0  0.3838525E-06  0.2585560E+04  0.7818609E-02  0.8373123E-01
        1   -1    0    0  501    0  0.00000000000E+00  0.00000000000E+00  0.16453367504E+04  0.16453367504E+04  0.50400001928E-02 0.  1.
       -1   -1    0    0    0  501  0.00000000000E+00  0.00000000000E+00 -0.10157677664E+04  0.10157677664E+04  0.50400001928E-02 0. -1.
    10030    2    1    2    0    0  0.00000000000E+00  0.00000000000E+00  0.62956898397E+03  0.26611045168E+04  0.25855599285E+04 0.  0.
        3    1    3    3  502    0  0.30774259862E+03 -0.40423641048E+03 -0.90871596390E+03  0.10410942781E+04  0.10100000352E+00 0. -1.
       -3    1    3    3    0  502 -0.30774259862E+03  0.40423641048E+03  0.15382849479E+04  0.16200102387E+04  0.10100000352E+00 0.  1.
</event>
<event>
 5   0  0.3838525E-06  0.3060274E+04  0.7818609E-02  0.8226726E-01
       -1   -1    0    0    0  501  0.00000000000E+00  0.00000000000E+00  0.22836906154E+04  0.22836906154E+04  0.50400001928E-02 0.  1.
        1   -1    0    0  501    0  0.00000000000E+00  0.00000000000E+00 -0.10252346925E+04  0.10252346926E+04  0.50400001928E-02 0. -1.
    10030    2    1    2    0    0  0.00000000000E+00  0.00000000000E+00  0.12584559228E+04  0.33089253079E+04  0.30602737433E+04 0.  0.
        3    1    3    3  502    0  0.50106875125E+02  0.58460002058E+03  0.21572205955E+04  0.22355913291E+04  0.10100000352E+00 0.  1.
       -3    1    3    3    0  502 -0.50106875125E+02 -0.58460002058E+03 -0.89876467268E+03  0.10733339788E+04  0.10100000352E+00 0. -1.
</event>
<event>
 5   0  0.1108153E-05  0.3111012E+04  0.7818609E-02  0.8212722E-01
       -2   -1    0    0    0  501  0.00000000000E+00  0.00000000000E+00  0.11907904214E+04  0.11907904214E+04  0.25500000920E-02 0. -1.
        2   -1    0    0  501    0  0.00000000000E+00  0.00000000000E+00 -0.20319273835E+04  0.20319273835E+04  0.25500000920E-02 0.  1.
    10030    2    1    2    0    0  0.00000000000E+00  0.00000000000E+00 -0.84113696213E+03  0.32227178049E+04  0.31110124816E+04 0.  0.
        4    1    3    3  502    0 -0.35287079367E+03  0.22304642848E+02 -0.19897471215E+04  0.20209182354E+04  0.12699999809E+01 0.  1.
       -4    1    3    3    0  502  0.35287079367E+03 -0.22304642848E+02  0.11486101593E+04  0.12017995694E+04  0.12699999809E+01 0. -1.
</event>
<event>
 5   0  0.1119100E-05  0.2667161E+04  0.7818609E-02  0.8345739E-01
       -2   -1    0    0    0  501  0.00000000000E+00  0.00000000000E+00  0.74410945449E+03  0.74410945450E+03  0.25500000920E-02 0. -1.
        2   -1    0    0  501    0  0.00000000000E+00  0.00000000000E+00 -0.23900211827E+04  0.23900211827E+04  0.25500000920E-02 0.  1.
    10030    2    1    2    0    0  0.00000000000E+00  0.00000000000E+00 -0.16459117282E+04  0.31341306372E+04  0.26671613063E+04 0.  0.
        2    1    3    3  502    0 -0.19033823623E+03  0.29793581325E+03 -0.23339487591E+04  0.23605743375E+04  0.25500000920E-02 0.  1.
       -2    1    3    3    0  502  0.19033823623E+03 -0.29793581325E+03  0.68803703084E+03  0.77355629970E+03  0.25500000920E-02 0. -1.
</event>
<event>
 5   0  0.3807334E-06  0.3140683E+04  0.7818609E-02  0.8204661E-01
       -1   -1    0    0    0  501  0.00000000000E+00  0.00000000000E+00  0.85383211091E+03  0.85383211093E+03  0.50400001928E-02 0.  1.
        1   -1    0    0  501    0  0.00000000000E+00  0.00000000000E+00 -0.28881228990E+04  0.28881228990E+04  0.50400001928E-02 0. -1.
    10030    2    1    2    0    0  0.00000000000E+00  0.00000000000E+00 -0.20342907880E+04  0.37419550099E+04  0.31406827738E+04 0.  0.
        4    1    3    3  502    0  0.21466892219E+03  0.14465585907E+04 -0.16988317674E+04  0.22415721021E+04  0.12699999809E+01 0. -1.
       -4    1    3    3    0  502 -0.21466892219E+03 -0.14465585907E+04 -0.33545902068E+03  0.15003829077E+04  0.12699999809E+01 0.  1.
</event>
<event>
 5   0  0.9797278E-06  0.3351931E+04  0.7818609E-02  0.8149806E-01
       -2   -1    0    0    0  501  0.00000000000E+00  0.00000000000E+00  0.18161215096E+04  0.18161215096E+04  0.25500000920E-02 0.  1.
        2   -1    0    0  501    0  0.00000000000E+00  0.00000000000E+00 -0.15466259002E+04  0.15466259002E+04  0.25500000920E-02 0. -1.
    10030    2    1    2    0    0  0.00000000000E+00  0.00000000000E+00  0.26949560933E+03  0.33627474098E+04  0.33519311238E+04 0.  0.
        1    1    3    3  502    0 -0.16368640508E+04 -0.37419209082E+02  0.49386441962E+03  0.17101538478E+04  0.50400001928E-02 0. -1.
       -1    1    3    3    0  502  0.16368640508E+04  0.37419209082E+02 -0.22436881029E+03  0.16525935620E+04  0.50400001928E-02 0.  1.
</event>
<event>
 5   0  0.3493125E-06  0.2998508E+04  0.7818609E-02  0.8244157E-01
       -3   -1    0    0    0  501  0.00000000000E+00  0.00000000000E+00  0.14678605954E+04  0.14678605989E+04  0.10100000352E+00 0. -1.
        3   -1    0    0  501    0  0.00000000000E+00  0.00000000000E+00 -0.15313183204E+04  0.15313183238E+04  0.10100000352E+00 0.  1.
    10030    2    1    2    0    0  0.00000000000E+00  0.00000000000E+00 -0.63457725005E+02  0.29991789227E+04  0.29985075166E+04 0.  0.
        5    1    3    3  502    0  0.32912872073E+03 -0.13448929223E+04  0.54344516095E+03  0.14874197189E+04  0.46999998093E+01 0. -1.
       -5    1    3    3    0  502 -0.32912872073E+03  0.13448929223E+04 -0.60690288595E+03  0.15117592038E+04  0.46999998093E+01 0.  1.
</event>
<event>
 5   0  0.1001961E-05  0.2860776E+04  0.7818609E-02  0.8284644E-01
        2   -1    0    0  501    0  0.00000000000E+00  0.00000000000E+00  0.18481592566E+04  0.18481592566E+04  0.25500000920E-02 0.  1.
       -2   -1    0    0    0  501  0.00000000000E+00  0.00000000000E+00 -0.11070527791E+04  0.11070527791E+04  0.25500000920E-02 0. -1.
    10030    2    1    2    0    0  0.00000000000E+00  0.00000000000E+00  0.74110647745E+03  0.29552120357E+04  0.28607760075E+04 0.  0.
        5    1    3    3  502    0  0.86537625455E+03 -0.10724858592E+04 -0.25355106227E+02  0.13783203371E+04  0.46999998093E+01 0. -1.
       -5    1    3    3    0  502 -0.86537625455E+03  0.10724858592E+04  0.76646158367E+03  0.15768916987E+04  0.46999998093E+01 0.  1.
</event>
<event>
 5   0  0.1001961E-05  0.3110303E+04  0.7818609E-02  0.8212916E-01
       -2   -1    0    0    0  501  0.00000000000E+00  0.00000000000E+00  0.11929443473E+04  0.11929443474E+04  0.25500000920E-02 0.  1.
        2   -1    0    0  501    0  0.00000000000E+00  0.00000000000E+00 -0.20273333039E+04  0.20273333039E+04  0.25500000920E-02 0. -1.
    10030    2    1    2    0    0  0.00000000000E+00  0.00000000000E+00 -0.83438895658E+03  0.32202776513E+04  0.31103027538E+04 0.  0.
        5    1    3    3  502    0  0.76161801072E+01  0.15515350523E+04 -0.52654463625E+03  0.16384719615E+04  0.46999998093E+01 0. -1.
       -5    1    3    3    0  502 -0.76161801072E+01 -0.15515350523E+04 -0.30784432033E+03  0.15818056898E+04  0.46999998093E+01 0.  1.
</event>
<event>
 5   0  0.1119100E-05  0.3101234E+04  0.7818609E-02  0.8215399E-01
       -2   -1    0    0    0  501  0.00000000000E+00  0.00000000000E+00  0.22749859009E+04  0.22749859009E+04  0.25500000920E-02 0.  1.
        2   -1    0    0  501    0  0.00000000000E+00  0.00000000000E+00 -0.10568917510E+04  0.10568917510E+04  0.25500000920E-02 0. -1.
    10030    2    1    2    0    0  0.00000000000E+00  0.00000000000E+00  0.12180941498E+04  0.33318776519E+04  0.31012344847E+04 0.  0.
        2    1    3    3  502    0  0.65758504944E+03 -0.46962761117E+03  0.20308937689E+04  0.21857487712E+04  0.25500000920E-02 0.  1.
       -2    1    3    3    0  502 -0.65758504944E+03  0.46962761117E+03 -0.81279961905E+03  0.11461288807E+04  0.25500000920E-02 0. -1.
</event>
<event>
 5   0  0.4139628E-06  0.3072220E+04  0.7818609E-02  0.8223404E-01
       -1   -1    0    0    0  501  0.00000000000E+00  0.00000000000E+00  0.11105490039E+04  0.11105490039E+04  0.50400001928E-02 0.  1.
        1   -1    0    0  501    0  0.00000000000E+00  0.00000000000E+00 -0.21247448345E+04  0.21247448345E+04  0.50400001928E-02 0. -1.
    10030    2    1    2    0    0  0.00000000000E+00  0.00000000000E+00 -0.10141958306E+04  0.32352938384E+04  0.30722195621E+04 0.  0.
        5    1    3    3  502    0 -0.36668075115E+03 -0.11934355966E+04 -0.14495123219E+04  0.19130737984E+04  0.46999998093E+01 0. -1.
       -5    1    3    3    0  502  0.36668075115E+03  0.11934355966E+04  0.43531649130E+03  0.13222200400E+04  0.46999998093E+01 0.  1.
</event>
<event>
 5   0  0.1007567E-05  0.3125426E+04  0.7818609E-02  0.8208794E-01
       -2   -1    0    0    0  501  0.00000000000E+00  0.00000000000E+00  0.16001164723E+04  0.16001164723E+04  0.25500000920E-02 0.  1.
        2   -1    0    0  501    0  0.00000000000E+00  0.00000000000E+00 -0.15261841526E+04  0.15261841526E+04  0.25500000920E-02 0. -1.
    10030    2    1    2    0    0  0.00000000000E+00  0.00000000000E+00  0.73932319744E+02  0.31263006249E+04  0.31254263084E+04 0.  0.
        3    1    3    3  502    0 -0.99326295207E+03  0.31383837863E+03 -0.11282659650E+04  0.15355943207E+04  0.10100000352E+00 0. -1.
       -3    1    3    3    0  502  0.99326295207E+03 -0.31383837863E+03  0.12021982848E+04  0.15907063041E+04  0.10100000352E+00 0.  1.
</event>
<event>
 5   0  0.3838525E-06  0.3131288E+04  0.7818609E-02  0.8207203E-01
       -1   -1    0    0    0  501  0.00000000000E+00  0.00000000000E+00  0.11288363112E+04  0.11288363113E+04  0.50400001928E-02 0.  1.
        1   -1    0    0  501    0  0.00000000000E+00  0.00000000000E+00 -0.21714756196E+04  0.21714756196E+04  0.50400001928E-02 0. -1.
    10030    2    1    2    0    0  0.00000000000E+00  0.00000000000E+00 -0.10426393084E+04  0.33003119309E+04  0.31312876128E+04 0.  0.
        3    1    3    3  502    0 -0.40397732256E+03 -0.11584571999E+04 -0.15464571830E+04  0.19740188931E+04  0.10100000352E+00 0. -1.
       -3    1    3    3    0  502  0.40397732256E+03  0.11584571999E+04  0.50381787466E+03  0.13262930378E+04  0.10100000352E+00 0.  1.
</event>
<event>
 5   0  0.1108153E-05  0.3016577E+04  0.7818609E-02  0.8239013E-01
        2   -1    0    0  501    0  0.00000000000E+00  0.00000000000E+00  0.18041175751E+04  0.18041175751E+04  0.25500000920E-02 0.  1.
       -2   -1    0    0    0  501  0.00000000000E+00  0.00000000000E+00 -0.12609675069E+04  0.12609675069E+04  0.25500000920E-02 0. -1.
    10030    2    1    2    0    0  0.00000000000E+00  0.00000000000E+00  0.54315006814E+03  0.30650850820E+04  0.30165766298E+04 0.  0.
        4    1    3    3  502    0 -0.12010304431E+04 -0.77640387183E+03 -0.21535443525E+03  0.14462559397E+04  0.12699999809E+01 0. -1.
       -4    1    3    3    0  502  0.12010304431E+04  0.77640387183E+03  0.75850450338E+03  0.16188291423E+04  0.12699999809E+01 0.  1.
</event>
<event>
 5   0  0.3848286E-06  0.3077139E+04  0.7818609E-02  0.8222040E-01
        1   -1    0    0  501    0  0.00000000000E+00  0.00000000000E+00  0.82926125218E+03  0.82926125219E+03  0.50400001928E-02 0.  1.
       -1   -1    0    0    0  501  0.00000000000E+00  0.00000000000E+00 -0.28545849702E+04  0.28545849702E+04  0.50400001928E-02 0. -1.
    10030    2    1    2    0    0  0.00000000000E+00  0.00000000000E+00 -0.20253237180E+04  0.36838462224E+04  0.30771393903E+04 0.  0.
        2    1    3    3  502    0 -0.67623206109E+03 -0.64899046916E+03  0.44803664115E+03  0.10388528584E+04  0.25500000920E-02 0.  1.
       -2    1    3    3    0  502  0.67623206109E+03  0.64899046916E+03 -0.24733603591E+04  0.26449933640E+04  0.25500000920E-02 0. -1.
</event>
<event>
 5   0  0.4250961E-06  0.3092068E+04  0.7818609E-02  0.8217918E-01
       -1   -1    0    0    0  501  0.00000000000E+00  0.00000000000E+00  0.13999063550E+04  0.13999063550E+04  0.50400001928E-02 0.  1.
        1   -1    0    0  501    0  0.00000000000E+00  0.00000000000E+00 -0.17074147967E+04  0.17074147967E+04  0.50400001928E-02 0. -1.
    10030    2    1    2    0    0  0.00000000000E+00  0.00000000000E+00 -0.30750844174E+03  0.31073211517E+04  0.30920678030E+04 0.  0.
        1    1    3    3  502    0 -0.49857208358E+03 -0.34240860840E+03  0.12760797921E+04  0.14121605481E+04  0.50400001928E-02 0.  1.
       -1    1    3    3    0  502  0.49857208358E+03  0.34240860840E+03 -0.15835882339E+04  0.16951606036E+04  0.50400001928E-02 0. -1.
</event>
<event>
 5   0  0.1001961E-05  0.3113728E+04  0.7818609E-02  0.8211980E-01
       -2   -1    0    0    0  501  0.00000000000E+00  0.00000000000E+00  0.17303269306E+04  0.17303269306E+04  0.25500000920E-02 0. -1.
        2   -1    0    0  501    0  0.00000000000E+00  0.00000000000E+00 -0.14007907876E+04  0.14007907876E+04  0.25500000920E-02 0.  1.
    10030    2    1    2    0    0  0.00000000000E+00  0.00000000000E+00  0.32953614301E+03  0.31311177183E+04  0.31137283273E+04 0.  0.
        5    1    3    3  502    0  0.31079019614E+03  0.33167969947E+03  0.16621111020E+04  0.17231475196E+04  0.46999998093E+01 0. -1.
       -5    1    3    3    0  502 -0.31079019614E+03 -0.33167969947E+03 -0.13325749590E+04  0.14079701987E+04  0.46999998093E+01 0.  1.
</event>
<event>
 5   0  0.4139628E-06  0.3006198E+04  0.7818609E-02  0.8241963E-01
       -1   -1    0    0    0  501  0.00000000000E+00  0.00000000000E+00  0.13383876365E+04  0.13383876365E+04  0.50400001928E-02 0.  1.
        1   -1    0    0  501    0  0.00000000000E+00  0.00000000000E+00 -0.16880810924E+04  0.16880810924E+04  0.50400001928E-02 0. -1.
    10030    2    1    2    0    0  0.00000000000E+00  0.00000000000E+00 -0.34969345585E+03  0.30264687289E+04  0.30061981728E+04 0.  0.
        5    1    3    3  502    0 -0.12080710290E+04  0.13040248108E+03  0.71590422705E+03  0.14103125081E+04  0.46999998093E+01 0.  1.
       -5    1    3    3    0  502  0.12080710290E+04 -0.13040248108E+03 -0.10655976829E+04  0.16161562208E+04  0.46999998093E+01 0. -1.
</event>
<event>
 5   0  0.1007567E-05  0.3022632E+04  0.7818609E-02  0.8237298E-01
        2   -1    0    0  501    0  0.00000000000E+00  0.00000000000E+00  0.15296252262E+04  0.15296252263E+04  0.25500000920E-02 0.  1.
       -2   -1    0    0    0  501  0.00000000000E+00  0.00000000000E+00 -0.14932255985E+04  0.14932255985E+04  0.25500000920E-02 0. -1.
    10030    2    1    2    0    0  0.00000000000E+00  0.00000000000E+00  0.36399627719E+02  0.30228508248E+04  0.30226316640E+04 0.  0.
        3    1    3    3  502    0 -0.10988096782E+04  0.83788696047E+03 -0.59392157585E+03  0.15040545589E+04  0.10100000352E+00 0. -1.
       -3    1    3    3    0  502  0.10988096782E+04 -0.83788696047E+03  0.63032120357E+03  0.15187962659E+04  0.10100000352E+00 0.  1.
</event>
<event>
 5   0  0.9797278E-06  0.2003641E+04  0.7818609E-02  0.8604920E-01
       -2   -1    0    0    0  501  0.00000000000E+00  0.00000000000E+00  0.54691857420E+03  0.54691857420E+03  0.25500000920E-02 0.  1.
        2   -1    0    0  501    0  0.00000000000E+00  0.00000000000E+00 -0.18350885306E+04  0.18350885306E+04  0.25500000920E-02 0. -1.
    10030    2    1    2    0    0  0.00000000000E+00  0.00000000000E+00 -0.12881699564E+04  0.23820071048E+04  0.20036406890E+04 0.  0.
        1    1    3    3  502    0 -0.46956621014E+03 -0.48252510069E+03  0.23783929095E+03  0.71406612218E+03  0.50400001928E-02 0.  1.
       -1    1    3    3    0  502  0.46956621014E+03  0.48252510069E+03 -0.15260092474E+04  0.16679409826E+04  0.50400001928E-02 0. -1.
</event>
<event>
 5   0  0.3848286E-06  0.3064002E+04  0.7818609E-02  0.8225687E-01
       -1   -1    0    0    0  501  0.00000000000E+00  0.00000000000E+00  0.82583118274E+03  0.82583118275E+03  0.50400001928E-02 0.  1.
        1   -1    0    0  501    0  0.00000000000E+00  0.00000000000E+00 -0.28420185441E+04  0.28420185441E+04  0.50400001928E-02 0. -1.
    10030    2    1    2    0    0  0.00000000000E+00  0.00000000000E+00 -0.20161873613E+04  0.36678497268E+04  0.30640023079E+04 0.  0.
        2    1    3    3  502    0  0.41367149571E+03 -0.99919130727E+03 -0.23070861157E+04  0.25479705100E+04  0.25500000920E-02 0. -1.
       -2    1    3    3    0  502 -0.41367149571E+03  0.99919130727E+03  0.29089875435E+03  0.11198792168E+04  0.25500000920E-02 0.  1.
</event>
<event>
 5   0  0.3848286E-06  0.2081662E+04  0.7818609E-02  0.8569365E-01
        1   -1    0    0  501    0  0.00000000000E+00  0.00000000000E+00  0.12273311781E+04  0.12273311781E+04  0.50400001928E-02 0. -1.
       -1   -1    0    0    0  501  0.00000000000E+00  0.00000000000E+00 -0.88267036202E+03  0.88267036204E+03  0.50400001928E-02 0.  1.
    10030    2    1    2    0    0  0.00000000000E+00  0.00000000000E+00  0.34466081608E+03  0.21100015401E+04  0.20816616971E+04 0.  0.
        2    1    3    3  502    0  0.39166553050E+03 -0.51911512153E+03  0.99607282339E+03  0.11895559956E+04  0.25500000920E-02 0. -1.
       -2    1    3    3    0  502 -0.39166553050E+03  0.51911512153E+03 -0.65141200731E+03  0.92044554454E+03  0.25500000920E-02 0.  1.
</event>
<event>
 5   0  0.1007567E-05  0.2721691E+04  0.7818609E-02  0.8328001E-01
       -2   -1    0    0    0  501  0.00000000000E+00  0.00000000000E+00  0.11692853852E+04  0.11692853852E+04  0.25500000920E-02 0. -1.
        2   -1    0    0  501    0  0.00000000000E+00  0.00000000000E+00 -0.15837884075E+04  0.15837884075E+04  0.25500000920E-02 0.  1.
    10030    2    1    2    0    0  0.00000000000E+00  0.00000000000E+00 -0.41450302227E+03  0.27530737927E+04  0.27216911200E+04 0.  0.
        3    1    3    3  502    0 -0.63488120023E+03 -0.86083505392E+03  0.64375145458E+03  0.12484098181E+04  0.10100000352E+00 0. -1.
       -3    1    3    3    0  502  0.63488120023E+03  0.86083505392E+03 -0.10582544768E+04  0.15046639746E+04  0.10100000352E+00 0.  1.
</event>
<event>
 5   0  0.1007567E-05  0.3228906E+04  0.7818609E-02  0.8181225E-01
        2   -1    0    0  501    0  0.00000000000E+00  0.00000000000E+00  0.25519958356E+04  0.25519958356E+04  0.25500000920E-02 0. -1.
       -2   -1    0    0    0  501  0.00000000000E+00  0.00000000000E+00 -0.10213413661E+04  0.10213413661E+04  0.25500000920E-02 0.  1.
    10030    2    1    2    0    0  0.00000000000E+00  0.00000000000E+00  0.15306544695E+04  0.35733372017E+04  0.32289062625E+04 0.  0.
        3    1    3    3  502    0 -0.83010888603E+03  0.81855656700E+03  0.20013075682E+04  0.23161061308E+04  0.10100000352E+00 0. -1.
       -3    1    3    3    0  502  0.83010888603E+03 -0.81855656700E+03 -0.47065309875E+03  0.12572310709E+04  0.10100000352E+00 0.  1.
</event>
<event>
 5   0  0.3807334E-06  0.3118024E+04  0.7818609E-02  0.8210809E-01
       -1   -1    0    0    0  501  0.00000000000E+00  0.00000000000E+00  0.14949513262E+04  0.14949513263E+04  0.50400001928E-02 0. -1.
        1   -1    0    0  501    0  0.00000000000E+00  0.00000000000E+00 -0.16258178598E+04  0.16258178598E+04  0.50400001928E-02 0.  1.
    10030    2    1    2    0    0  0.00000000000E+00  0.00000000000E+00 -0.13086653354E+03  0.31207691860E+04  0.31180240960E+04 0.  0.
        4    1    3    3  502    0  0.84935366977E+03  0.11690582576E+04  0.52024691734E+03  0.15358246429E+04  0.12699999809E+01 0. -1.
       -4    1    3    3    0  502 -0.84935366977E+03 -0.11690582576E+04 -0.65111345087E+03  0.15849445431E+04  0.12699999809E+01 0.  1.
</event>
<event>
 5   0  0.3807334E-06  0.3095125E+04  0.7818609E-02  0.8217077E-01
        1   -1    0    0  501    0  0.00000000000E+00  0.00000000000E+00  0.23893524071E+04  0.23893524071E+04  0.50400001928E-02 0. -1.
       -1   -1    0    0    0  501  0.00000000000E+00  0.00000000000E+00 -0.10023424487E+04  0.10023424488E+04  0.50400001928E-02 0.  1.
    10030    2    1    2    0    0  0.00000000000E+00  0.00000000000E+00  0.13870099584E+04  0.33916948559E+04  0.30951247747E+04 0.  0.
        4    1    3    3  502    0 -0.43152093991E+03 -0.51156420458E+03  0.22225701262E+04  0.23211479564E+04  0.12699999809E+01 0. -1.
       -4    1    3    3    0  502  0.43152093991E+03  0.51156420458E+03 -0.83556016780E+03  0.10705468994E+04  0.12699999809E+01 0.  1.
</event>
<event>
 5   0  0.4250961E-06  0.2367096E+04  0.7818609E-02  0.8451926E-01
        1   -1    0    0  501    0  0.00000000000E+00  0.00000000000E+00  0.10762077302E+04  0.10762077302E+04  0.50400001928E-02 0.  1.
       -1   -1    0    0    0  501  0.00000000000E+00  0.00000000000E+00 -0.13015943318E+04  0.13015943318E+04  0.50400001928E-02 0. -1.
    10030    2    1    2    0    0  0.00000000000E+00  0.00000000000E+00 -0.22538660155E+03  0.23778020620E+04  0.23670960111E+04 0.  0.
        1    1    3    3  502    0  0.40577859196E+03  0.59504143562E+03 -0.10561190688E+04  0.12783262742E+04  0.50400001928E-02 0. -1.
       -1    1    3    3    0  502 -0.40577859196E+03 -0.59504143562E+03  0.83073246726E+03  0.10994757878E+04  0.50400001928E-02 0.  1.
</event>
<event>
 5   0  0.4250961E-06  0.3058624E+04  0.7818609E-02  0.8227186E-01
       -1   -1    0    0    0  501  0.00000000000E+00  0.00000000000E+00  0.96500124612E+03  0.96500124613E+03  0.50400001928E-02 0. -1.
        1   -1    0    0  501    0  0.00000000000E+00  0.00000000000E+00 -0.24236195701E+04  0.24236195701E+04  0.50400001928E-02 0.  1.
    10030    2    1    2    0    0  0.00000000000E+00  0.00000000000E+00 -0.14586183240E+04  0.33886208163E+04  0.30586244655E+04 0.  0.
        1    1    3    3  502    0  0.10350120889E+04  0.19359892096E+03  0.49943341386E+03  0.11654030639E+04  0.50400001928E-02 0. -1.
       -1    1    3    3    0  502 -0.10350120889E+04 -0.19359892096E+03 -0.19580517379E+04  0.22232177524E+04  0.50400001928E-02 0.  1.
</event>
<event>
 5   0  0.3848286E-06  0.3062373E+04  0.7818609E-02  0.8226141E-01
       -1   -1    0    0    0  501  0.00000000000E+00  0.00000000000E+00  0.12716453562E+04  0.12716453562E+04  0.50400001928E-02 0.  1.
        1   -1    0    0  501    0  0.00000000000E+00  0.00000000000E+00 -0.18436994455E+04  0.18436994455E+04  0.50400001928E-02 0. -1.
    10030    2    1    2    0    0  0.00000000000E+00  0.00000000000E+00 -0.57205408925E+03  0.31153448017E+04  0.30623728304E+04 0.  0.
        2    1    3    3  502    0  0.19492271736E+03 -0.39154205063E+03  0.12067448500E+04  0.12835626888E+04  0.25500000920E-02 0.  1.
       -2    1    3    3    0  502 -0.19492271736E+03  0.39154205063E+03 -0.17787989392E+04  0.18317821129E+04  0.25500000920E-02 0. -1.
</event>
<event>
 5   0  0.4139628E-06  0.3098609E+04  0.7818609E-02  0.8216120E-01
       -1   -1    0    0    0  501  0.00000000000E+00  0.00000000000E+00  0.19371786110E+04  0.19371786110E+04  0.50400001928E-02 0. -1.
        1   -1    0    0  501    0  0.00000000000E+00  0.00000000000E+00 -0.12390932386E+04  0.12390932386E+04  0.50400001928E-02 0.  1.
    10030    2    1    2    0    0  0.00000000000E+00  0.00000000000E+00  0.69808537246E+03  0.31762718496E+04  0.30986093131E+04 0.  0.
        5    1    3    3  502    0 -0.81840030852E+03 -0.11510019993E+04  0.10019834339E+04  0.17316401356E+04  0.46999998093E+01 0.  1.
       -5    1    3    3    0  502  0.81840030852E+03  0.11510019993E+04 -0.30389806146E+03  0.14446317140E+04  0.46999998093E+01 0. -1.
</event>
<event>
 5   0  0.3848286E-06  0.3092208E+04  0.7818609E-02  0.8217879E-01
        1   -1    0    0  501    0  0.00000000000E+00  0.00000000000E+00  0.91799457184E+03  0.91799457185E+03  0.50400001928E-02 0. -1.
       -1   -1    0    0    0  501  0.00000000000E+00  0.00000000000E+00 -0.26039786192E+04  0.26039786192E+04  0.50400001928E-02 0.  1.
    10030    2    1    2    0    0  0.00000000000E+00  0.00000000000E+00 -0.16859840473E+04  0.35219731910E+04  0.30922084261E+04 0.  0.
        2    1    3    3  502    0  0.14406969631E+04 -0.39097341729E+03 -0.13013818391E+04  0.19804198150E+04  0.25500000920E-02 0.  1.
       -2    1    3    3    0  502 -0.14406969631E+04  0.39097341729E+03 -0.38460220821E+03  0.15415533760E+04  0.25500000920E-02 0. -1.
</event>
<event>
 5   0  0.9797278E-06  0.1689726E+04  0.7818609E-02  0.8767246E-01
        2   -1    0    0  501    0  0.00000000000E+00  0.00000000000E+00  0.14055536698E+04  0.14055536698E+04  0.25500000920E-02 0. -1.
       -2   -1    0    0    0  501  0.00000000000E+00  0.00000000000E+00 -0.50783765384E+03  0.50783765385E+03  0.25500000920E-02 0.  1.
    10030    2    1    2    0    0  0.00000000000E+00  0.00000000000E+00  0.89771601596E+03  0.19133913236E+04  0.16897255138E+04 0.  0.
        1    1    3    3  502    0 -0.81722479433E+02 -0.31219658310E+03  0.13330104420E+04  0.13715181766E+04  0.50400001928E-02 0. -1.
       -1    1    3    3    0  502  0.81722479433E+02  0.31219658310E+03 -0.43529442605E+03  0.54187314707E+03  0.50400001928E-02 0.  1.
</event>
<event>
 5   0  0.9797278E-06  0.3182687E+04  0.7818609E-02  0.8193405E-01
       -2   -1    0    0    0  501  0.00000000000E+00  0.00000000000E+00  0.15718790362E+04  0.15718790362E+04  0.25500000920E-02 0. -1.
        2   -1    0    0  501    0  0.00000000000E+00  0.00000000000E+00 -0.16110488764E+04  0.16110488764E+04  0.25500000920E-02 0.  1.
    10030    2    1    2    0    0  0.00000000000E+00  0.00000000000E+00 -0.39169840242E+02  0.31829279126E+04  0.31826868870E+04 0.  0.
        1    1    3    3  502    0  0.11736390583E+04 -0.35777036395E+03 -0.10330449490E+04  0.16039358277E+04  0.50400001928E-02 0.  1.
       -1    1    3    3    0  502 -0.11736390583E+04  0.35777036395E+03  0.99387510879E+03  0.15789920850E+04  0.50400001928E-02 0. -1.
</event>
<event>
 5   0  0.1119100E-05  0.3096174E+04  0.7818609E-02  0.8216789E-01
       -2   -1    0    0    0  501  0.00000000000E+00  0.00000000000E+00  0.11561771864E+04  0.11561771864E+04  0.25500000920E-02 0.  1.
        2   -1    0    0  501    0  0.00000000000E+00  0.00000000000E+00 -0.20728426672E+04  0.20728426672E+04  0.25500000920E-02 0. -1.
    10030    2    1    2    0    0  0.00000000000E+00  0.00000000000E+00 -0.91666548082E+03  0.32290198537E+04  0.30961740280E+04 0.  0.
        2    1    3    3  502    0  0.10266853559E+04 -0.91785767401E+03  0.27913403484E+03  0.14051552722E+04  0.25500000920E-02 0. -1.
       -2    1    3    3    0  502 -0.10266853559E+04  0.91785767401E+03 -0.11957995157E+04  0.18238645814E+04  0.25500000920E-02 0.  1.
</event>
<event>
 5   0  0.3807334E-06  0.3237241E+04  0.7818609E-02  0.8179051E-01
        1   -1    0    0  501    0  0.00000000000E+00  0.00000000000E+00  0.13377849750E+04  0.13377849750E+04  0.50400001928E-02 0.  1.
       -1   -1    0    0    0  501  0.00000000000E+00  0.00000000000E+00 -0.19584102199E+04  0.19584102199E+04  0.50400001928E-02 0. -1.
    10030    2    1    2    0    0  0.00000000000E+00  0.00000000000E+00 -0.62062524490E+03  0.32961951949E+04  0.32372406566E+04 0.  0.
        4    1    3    3  502    0 -0.13874859627E+04 -0.62388295627E+03 -0.87317532306E+03  0.17540763945E+04  0.12699999809E+01 0. -1.
       -4    1    3    3    0  502  0.13874859627E+04  0.62388295627E+03  0.25255007816E+03  0.15421188005E+04  0.12699999809E+01 0.  1.
</event>
<event>
 5   0  0.3807334E-06  0.3005343E+04  0.7818609E-02  0.8242207E-01
        1   -1    0    0  501    0  0.00000000000E+00  0.00000000000E+00  0.10151573334E+04  0.10151573334E+04  0.50400001928E-02 0. -1.
       -1   -1    0    0    0  501  0.00000000000E+00  0.00000000000E+00 -0.22243071153E+04  0.22243071153E+04  0.50400001928E-02 0.  1.
    10030    2    1    2    0    0  0.00000000000E+00  0.00000000000E+00 -0.12091497818E+04  0.32394644487E+04  0.30053430286E+04 0.  0.
        4    1    3    3  502    0  0.78042416851E+03 -0.39078483838E+03  0.71392646909E+03  0.11275935832E+04  0.12699999809E+01 0. -1.
       -4    1    3    3    0  502 -0.78042416851E+03  0.39078483838E+03 -0.19230762509E+04  0.21118708655E+04  0.12699999809E+01 0.  1.
</event>
<event>
 5   0  0.4250961E-06  0.3167689E+04  0.7818609E-02  0.8197403E-01
       -1   -1    0    0    0  501  0.00000000000E+00  0.00000000000E+00  0.11494319555E+04  0.11494319555E+04  0.50400001928E-02 0. -1.
        1   -1    0    0  501    0  0.00000000000E+00  0.00000000000E+00 -0.21824375742E+04  0.21824375742E+04  0.50400001928E-02 0.  1.
    10030    2    1    2    0    0  0.00000000000E+00  0.00000000000E+00 -0.10330056186E+04  0.33318695297E+04  0.31676890559E+04 0.  0.
        1    1    3    3  502    0 -0.10761406653E+03  0.13225185536E+04  0.39314893740E+03  0.13839083058E+04  0.50400001928E-02 0. -1.
       -1    1    3    3    0  502  0.10761406653E+03 -0.13225185536E+04 -0.14261545560E+04  0.19479612239E+04  0.50400001928E-02 0.  1.
</event>
<event>
 5   0  0.3848286E-06  0.2966150E+04  0.7818609E-02  0.8253463E-01
        1   -1    0    0  501    0  0.00000000000E+00  0.00000000000E+00  0.99491145690E+03  0.99491145691E+03  0.50400001928E-02 0.  1.
       -1   -1    0    0    0  501  0.00000000000E+00  0.00000000000E+00 -0.22107615102E+04  0.22107615102E+04  0.50400001928E-02 0. -1.
    10030    2    1    2    0    0  0.00000000000E+00  0.00000000000E+00 -0.12158500533E+04  0.32056729671E+04  0.29661503367E+04 0.  0.
        2    1    3    3  502    0  0.42826188717E+03 -0.74969462628E+03 -0.19111442282E+04  0.20971224422E+04  0.25500000920E-02 0. -1.
       -2    1    3    3    0  502 -0.42826188717E+03  0.74969462628E+03  0.69529417487E+03  0.11085505249E+04  0.25500000920E-02 0.  1.
</event>
<event>
 5   0  0.3848286E-06  0.2741949E+04  0.7818609E-02  0.8321521E-01
       -1   -1    0    0    0  501  0.00000000000E+00  0.00000000000E+00  0.15940324062E+04  0.15940324062E+04  0.50400001928E-02 0.  1.
        1   -1    0    0  501    0  0.00000000000E+00  0.00000000000E+00 -0.11791299208E+04  0.11791299208E+04  0.50400001928E-02 0. -1.
    10030    2    1    2    0    0  0.00000000000E+00  0.00000000000E+00  0.41490248543E+03  0.27731623271E+04  0.27419491643E+04 0.  0.
        2    1    3    3  502    0  0.10477037992E+04  0.79845337557E+02  0.10981080089E+04  0.15198354279E+04  0.25500000920E-02 0.  1.
       -2    1    3    3    0  502 -0.10477037992E+04 -0.79845337557E+02 -0.68320552352E+03  0.12533268991E+04  0.25500000920E-02 0. -1.
</event>
<event>
 5   0  0.1007567E-05  0.2778784E+04  0.7818609E-02  0.8309885E-01
        2   -1    0    0  501    0  0.00000000000E+00  0.00000000000E+00  0.19806402028E+04  0.19806402028E+04  0.25500000920E-02 0.  1.
       -2   -1    0    0    0  501  0.00000000000E+00  0.00000000000E+00 -0.97463969543E+03  0.97463969543E+03  0.25500000920E-02 0. -1.
    10030    2    1    2    0    0  0.00000000000E+00  0.00000000000E+00  0.10060005074E+04  0.29552798983E+04  0.27787843126E+04 0.  0.
        3    1    3    3  502    0 -0.86827944179E+03  0.57629581845E+03  0.14802687664E+04  0.18103098327E+04  0.10100000352E+00 0.  1.
       -3    1    3    3    0  502  0.86827944179E+03 -0.57629581845E+03 -0.47426825897E+03  0.11449700656E+04  0.10100000352E+00 0. -1.
</event>
<event>
 5   0  0.9797278E-06  0.3074612E+04  0.7818609E-02  0.8222740E-01
        2   -1    0    0  501    0  0.00000000000E+00  0.00000000000E+00  0.13873216245E+04  0.13873216245E+04  0.25500000920E-02 0.  1.
       -2   -1    0    0    0  501  0.00000000000E+00  0.00000000000E+00 -0.17035054603E+04  0.17035054603E+04  0.25500000920E-02 0. -1.
    10030    2    1    2    0    0  0.00000000000E+00  0.00000000000E+00 -0.31618383583E+03  0.30908270849E+04  0.30746121463E+04 0.  0.
        1    1    3    3  502    0  0.61409493796E+03 -0.12402629330E+04 -0.83090871834E+03  0.16142410086E+04  0.50400001928E-02 0. -1.
       -1    1    3    3    0  502 -0.61409493796E+03  0.12402629330E+04  0.51472488250E+03  0.14765860762E+04  0.50400001928E-02 0.  1.
</event>
<event>
 5   0  0.1007567E-05  0.3093795E+04  0.7818609E-02  0.8217443E-01
        2   -1    0    0  501    0  0.00000000000E+00  0.00000000000E+00  0.17488509251E+04  0.17488509251E+04  0.25500000920E-02 0.  1.
       -2   -1    0    0    0  501  0.00000000000E+00  0.00000000000E+00 -0.13682649942E+04  0.13682649942E+04  0.25500000920E-02 0. -1.
    10030    2    1    2    0    0  0.00000000000E+00  0.00000000000E+00  0.38058593085E+03  0.31171159193E+04  0.30937947578E+04 0.  0.
        3    1    3    3  502    0  0.12273262034E+02  0.18776066389E+03 -0.13566919819E+04  0.13696780073E+04  0.10100000352E+00 0. -1.
       -3    1    3    3    0  502 -0.12273262034E+02 -0.18776066389E+03  0.17372779127E+04  0.17474379120E+04  0.10100000352E+00 0.  1.
</event>
<event>
 5   0  0.4250961E-06  0.2250109E+04  0.7818609E-02  0.8497856E-01
        1   -1    0    0  501    0  0.00000000000E+00  0.00000000000E+00  0.16103663989E+04  0.16103663989E+04  0.50400001928E-02 0. -1.
       -1   -1    0    0    0  501  0.00000000000E+00  0.00000000000E+00 -0.78599964799E+03  0.78599964800E+03  0.50400001928E-02 0.  1.
    10030    2    1    2    0    0  0.00000000000E+00  0.00000000000E+00  0.82436675094E+03  0.23963660469E+04  0.22501088176E+04 0.  0.
        1    1    3    3  502    0 -0.33101529576E+03  0.10625922978E+04  0.23694666653E+03  0.11379003648E+04  0.50400001928E-02 0.  1.
       -1    1    3    3    0  502  0.33101529576E+03 -0.10625922978E+04  0.58742008441E+03  0.12584656821E+04  0.50400001928E-02 0. -1.
</event>
<event>
 5   0  0.1119100E-05  0.1720643E+04  0.7818609E-02  0.8749678E-01
        2   -1    0    0  501    0  0.00000000000E+00  0.00000000000E+00  0.14814560890E+04  0.14814560890E+04  0.25500000920E-02 0. -1.
       -2   -1    0    0    0  501  0.00000000000E+00  0.00000000000E+00 -0.49961192513E+03  0.49961192514E+03  0.25500000920E-02 0.  1.
    10030    2    1    2    0    0  0.00000000000E+00  0.00000000000E+00  0.98184416383E+03  0.19810680141E+04  0.17206430526E+04 0.  0.
        2    1    3    3  502    0  0.43715268998E+03 -0.31734544776E+03 -0.28000546724E+03  0.60845186273E+03  0.25500000920E-02 0.  1.
       -2    1    3    3    0  502 -0.43715268998E+03  0.31734544776E+03  0.12618496311E+04  0.13726161514E+04  0.25500000920E-02 0. -1.
</event>
<event>
 5   0  0.1119100E-05  0.3101541E+04  0.7818609E-02  0.8215315E-01
       -2   -1    0    0    0  501  0.00000000000E+00  0.00000000000E+00  0.10796793787E+04  0.10796793787E+04  0.25500000920E-02 0. -1.
        2   -1    0    0  501    0  0.00000000000E+00  0.00000000000E+00 -0.22274107638E+04  0.22274107638E+04  0.25500000920E-02 0.  1.
    10030    2    1    2    0    0  0.00000000000E+00  0.00000000000E+00 -0.11477313851E+04  0.33070901425E+04  0.31015412101E+04 0.  0.
        2    1    3    3  502    0  0.56161663353E+03  0.46642737112E+03  0.88498995218E+03  0.11472466827E+04  0.25500000920E-02 0. -1.
       -2    1    3    3    0  502 -0.56161663353E+03 -0.46642737112E+03 -0.20327213373E+04  0.21598434598E+04  0.25500000920E-02 0.  1.
</event>
<event>
 5   0  0.3807334E-06  0.2488464E+04  0.7818609E-02  0.8407107E-01
        1   -1    0    0  501    0  0.00000000000E+00  0.00000000000E+00  0.96472610885E+03  0.96472610886E+03  0.50400001928E-02 0. -1.
       -1   -1    0    0    0  501  0.00000000000E+00  0.00000000000E+00 -0.16047182165E+04  0.16047182165E+04  0.50400001928E-02 0.  1.
    10030    2    1    2    0    0  0.00000000000E+00  0.00000000000E+00 -0.63999210761E+03  0.25694443253E+04  0.24884642338E+04 0.  0.
        4    1    3    3  502    0 -0.87120024478E+03  0.19134268325E+03  0.57570681157E+03  0.10616222656E+04  0.12699999809E+01 0. -1.
       -4    1    3    3    0  502  0.87120024478E+03 -0.19134268325E+03 -0.12156989192E+04  0.15078220598E+04  0.12699999809E+01 0.  1.
</event>
<event>
 5   0  0.3807334E-06  0.3067281E+04  0.7818609E-02  0.8224775E-01
        1   -1    0    0  501    0  0.00000000000E+00  0.00000000000E+00  0.26874191624E+04  0.26874191624E+04  0.50400001928E-02 0.  1.
       -1   -1    0    0    0  501  0.00000000000E+00  0.00000000000E+00 -0.87520917161E+03  0.87520917163E+03  0.50400001928E-02 0. -1.
    10030    2    1    2    0    0  0.00000000000E+00  0.00000000000E+00  0.18122099908E+04  0.35626283340E+04  0.30672814667E+04 0.  0.
        4    1    3    3  502    0 -0.23565157886E+03 -0.88958061903E+03  0.23310864842E+04  0.25061626352E+04  0.12699999809E+01 0.  1.
       -4    1    3    3    0  502  0.23565157886E+03  0.88958061903E+03 -0.51887649345E+03  0.10564656988E+04  0.12699999809E+01 0. -1.
</event>
<event>
 5   0  0.4139628E-06  0.3125475E+04  0.7818609E-02  0.8208781E-01
       -1   -1    0    0    0  501  0.00000000000E+00  0.00000000000E+00  0.19590630401E+04  0.19590630401E+04  0.50400001928E-02 0.  1.
        1   -1    0    0  501    0  0.00000000000E+00  0.00000000000E+00 -0.12465897568E+04  0.12465897568E+04  0.50400001928E-02 0. -1.
    10030    2    1    2    0    0  0.00000000000E+00  0.00000000000E+00  0.71247328328E+03  0.32056527968E+04  0.31254746319E+04 0.  0.
        5    1    3    3  502    0 -0.13967202298E+04 -0.61475761464E+03  0.10892210691E+02  0.15260717727E+04  0.46999998093E+01 0. -1.
       -5    1    3    3    0  502  0.13967202298E+04  0.61475761464E+03  0.70158107259E+03  0.16795810241E+04  0.46999998093E+01 0.  1.
</event>
<event>
 5   0  0.1108153E-05  0.2106016E+04  0.7818609E-02  0.8558598E-01
        2   -1    0    0  501    0  0.00000000000E+00  0.00000000000E+00  0.44802857661E+03  0.44802857662E+03  0.25500000920E-02 0.  1.
       -2   -1    0    0    0  501  0.00000000000E+00  0.00000000000E+00 -0.24748990754E+04  0.24748990754E+04  0.25500000920E-02 0. -1.
    10030    2    1    2    0    0  0.00000000000E+00  0.00000000000E+00 -0.20268704988E+04  0.29229276521E+04  0.21060156790E+04 0.  0.
        4    1    3    3  502    0 -0.10573200896E+03  0.81357589984E+03 -0.19295916697E+04  0.20967619386E+04  0.12699999809E+01 0. -1.
       -4    1    3    3    0  502  0.10573200896E+03 -0.81357589984E+03 -0.97278829080E+02  0.82616571340E+03  0.12699999809E+01 0.  1.
</event>
<event>
 5   0  0.4139628E-06  0.3149471E+04  0.7818609E-02  0.8202291E-01
       -1   -1    0    0    0  501  0.00000000000E+00  0.00000000000E+00  0.19501137717E+04  0.19501137718E+04  0.50400001928E-02 0.  1.
        1   -1    0    0  501    0  0.00000000000E+00  0.00000000000E+00 -0.12716137080E+04  0.12716137080E+04  0.50400001928E-02 0. -1.
    10030    2    1    2    0    0  0.00000000000E+00  0.00000000000E+00  0.67850006374E+03  0.32217274798E+04  0.31494706885E+04 0.  0.
        5    1    3    3  502    0 -0.76535360450E+03  0.44772555539E+03  0.16704693194E+04  0.18912202806E+04  0.46999998093E+01 0.  1.
       -5    1    3    3    0  502  0.76535360450E+03 -0.44772555539E+03 -0.99196925563E+03  0.13305071992E+04  0.46999998093E+01 0. -1.
</event>
<event>
 5   0  0.1007567E-05  0.3082950E+04  0.7818609E-02  0.8220433E-01
        2   -1    0    0  501    0  0.00000000000E+00  0.00000000000E+00  0.25929652367E+04  0.25929652367E+04  0.25500000920E-02 0.  1.
       -2   -1    0    0    0  501  0.00000000000E+00  0.00000000000E+00 -0.91638140860E+03  0.91638140860E+03  0.25500000920E-02 0. -1.
    10030    2    1    2    0    0  0.00000000000E+00  0.00000000000E+00  0.16765838281E+04  0.35093466453E+04  0.30829499744E+04 0.  0.
        3    1    3    3  502    0  0.12943348999E+02  0.14462083452E+04  0.23117875738E+03  0.14646261420E+04  0.10100000352E+00 0. -1.
       -3    1    3    3    0  502 -0.12943348999E+02 -0.14462083452E+04  0.14454050708E+04  0.20447205033E+04  0.10100000352E+00 0.  1.
</event>
<event>
 5   0  0.4139628E-06  0.2863384E+04  0.7818609E-02  0.8283856E-01
        1   -1    0    0  501    0  0.00000000000E+00  0.00000000000E+00  0.97548013885E+03  0.97548013887E+03  0.50400001928E-02 0.  1.
       -1   -1    0    0    0  501  0.00000000000E+00  0.00000000000E+00 -0.21012651625E+04  0.21012651626E+04  0.50400001928E-02 0. -1.
    10030    2    1    2    0    0  0.00000000000E+00  0.00000000000E+00 -0.11257850237E+04  0.30767453014E+04  0.28633843141E+04 0.  0.
        5    1    3    3  502    0 -0.43591254483E+03 -0.11115763115E+04 -0.14117573476E+04  0.18489733751E+04  0.46999998093E+01 0.  1.
       -5    1    3    3    0  502  0.43591254483E+03  0.11115763115E+04  0.28597232395E+03  0.12277719264E+04  0.46999998093E+01 0. -1.
</event>
<event>
 5   0  0.3838525E-06  0.2984297E+04  0.7818609E-02  0.8248229E-01
       -1   -1    0    0    0  501  0.00000000000E+00  0.00000000000E+00  0.10734005833E+04  0.10734005833E+04  0.50400001928E-02 0.  1.
        1   -1    0    0  501    0  0.00000000000E+00  0.00000000000E+00 -0.20742550431E+04  0.20742550431E+04  0.50400001928E-02 0. -1.
    10030    2    1    2    0    0  0.00000000000E+00  0.00000000000E+00 -0.10008544598E+04  0.31476556265E+04  0.29842966161E+04 0.  0.
        3    1    3    3  502    0 -0.77547799806E+03  0.99319376508E+03 -0.13433657905E+04  0.18418554877E+04  0.10100000352E+00 0. -1.
       -3    1    3    3    0  502  0.77547799806E+03 -0.99319376508E+03  0.34251133066E+03  0.13058001387E+04  0.10100000352E+00 0.  1.
</event>
<event>
 5   0  0.3838525E-06  0.3077971E+04  0.7818609E-02  0.8221810E-01
       -1   -1    0    0    0  501  0.00000000000E+00  0.00000000000E+00  0.95313489641E+03  0.95313489642E+03  0.50400001928E-02 0. -1.
        1   -1    0    0  501    0  0.00000000000E+00  0.00000000000E+00 -0.24849335727E+04  0.24849335727E+04  0.50400001928E-02 0.  1.
    10030    2    1    2    0    0  0.00000000000E+00  0.00000000000E+00 -0.15317986763E+04  0.34380684691E+04  0.30779713471E+04 0.  0.
        3    1    3    3  502    0 -0.38444324524E+03  0.18046604112E+03  0.88638486863E+03  0.98287473584E+03  0.10100000352E+00 0. -1.
       -3    1    3    3    0  502  0.38444324524E+03 -0.18046604112E+03 -0.24181835449E+04  0.24551937333E+04  0.10100000352E+00 0.  1.
</event>
<event>
 5   0  0.4139628E-06  0.3186409E+04  0.7818609E-02  0.8192416E-01
       -1   -1    0    0    0  501  0.00000000000E+00  0.00000000000E+00  0.12588301865E+04  0.12588301865E+04  0.50400001928E-02 0. -1.
        1   -1    0    0  501    0  0.00000000000E+00  0.00000000000E+00 -0.20163958942E+04  0.20163958942E+04  0.50400001928E-02 0.  1.
    10030    2    1    2    0    0  0.00000000000E+00  0.00000000000E+00 -0.75756570775E+03  0.32752260807E+04  0.31864086490E+04 0.  0.
        5    1    3    3  502    0  0.11882201135E+04 -0.33207541257E+03 -0.14149168034E+04  0.18772726942E+04  0.46999998093E+01 0.  1.
       -5    1    3    3    0  502 -0.11882201135E+04  0.33207541257E+03  0.65735109565E+03  0.13979533865E+04  0.46999998093E+01 0. -1.
</event>
<event>
 5   0  0.1108153E-05  0.3090163E+04  0.7818609E-02  0.8218443E-01
       -2   -1    0    0    0  501  0.00000000000E+00  0.00000000000E+00  0.10308799021E+04  0.10308799021E+04  0.25500000920E-02 0.  1.
        2   -1    0    0  501    0  0.00000000000E+00  0.00000000000E+00 -0.23157660360E+04  0.23157660360E+04  0.25500000920E-02 0. -1.
    10030    2    1    2    0    0  0.00000000000E+00  0.00000000000E+00 -0.12848861339E+04  0.33466459381E+04  0.30901628853E+04 0.  0.
        4    1    3    3  502    0 -0.34885973596E+03 -0.60328984689E+03  0.85100284634E+03  0.10999405494E+04  0.12699999809E+01 0.  1.
       -4    1    3    3    0  502  0.34885973596E+03  0.60328984689E+03 -0.21358889803E+04  0.22467053887E+04  0.12699999809E+01 0. -1.
</event>
<event>
 5   0  0.1007567E-05  0.3019574E+04  0.7818609E-02  0.8238163E-01
       -2   -1    0    0    0  501  0.00000000000E+00  0.00000000000E+00  0.10553733037E+04  0.10553733037E+04  0.25500000920E-02 0.  1.
        2   -1    0    0  501    0  0.00000000000E+00  0.00000000000E+00 -0.21598588982E+04  0.21598588982E+04  0.25500000920E-02 0. -1.
    10030    2    1    2    0    0  0.00000000000E+00  0.00000000000E+00 -0.11044855944E+04  0.32152322019E+04  0.30195744210E+04 0.  0.
        3    1    3    3  502    0  0.13827696547E+03  0.51345961746E+03 -0.20568481111E+04  0.21244729841E+04  0.10100000352E+00 0. -1.
       -3    1    3    3    0  502 -0.13827696547E+03 -0.51345961746E+03  0.95236251663E+03  0.10907592178E+04  0.10100000352E+00 0.  1.
</event>
<event>
 5   0  0.1119100E-05  0.3074596E+04  0.7818609E-02  0.8222744E-01
       -2   -1    0    0    0  501  0.00000000000E+00  0.00000000000E+00  0.99787403262E+03  0.99787403262E+03  0.25500000920E-02 0.  1.
        2   -1    0    0  501    0  0.00000000000E+00  0.00000000000E+00 -0.23683206905E+04  0.23683206905E+04  0.25500000920E-02 0. -1.
    10030    2    1    2    0    0  0.00000000000E+00  0.00000000000E+00 -0.13704466579E+04  0.33661947232E+04  0.30745963755E+04 0.  0.
        2    1    3    3  502    0  0.13783788062E+04  0.34065812584E+03 -0.13304458742E+04  0.19457806445E+04  0.25500000920E-02 0. -1.
       -2    1    3    3    0  502 -0.13783788062E+04 -0.34065812584E+03 -0.40000783674E+02  0.14204140787E+04  0.25500000920E-02 0.  1.
</event>
<event>
 5   0  0.9797278E-06  0.3058806E+04  0.7818609E-02  0.8227135E-01
       -2   -1    0    0    0  501  0.00000000000E+00  0.00000000000E+00  0.11934256641E+04  0.11934256641E+04  0.25500000920E-02 0. -1.
        2   -1    0    0  501    0  0.00000000000E+00  0.00000000000E+00 -0.19599652140E+04  0.19599652140E+04  0.25500000920E-02 0.  1.
    10030    2    1    2    0    0  0.00000000000E+00  0.00000000000E+00 -0.76653954987E+03  0.31533908780E+04  0.30588055100E+04 0.  0.
        1    1    3    3  502    0  0.34777601153E+02  0.10870116440E+04  0.72528047092E+03  0.13072243714E+04  0.50400001928E-02 0. -1.
       -1    1    3    3    0  502 -0.34777601153E+02 -0.10870116440E+04 -0.14918200208E+04  0.18461665066E+04  0.50400001928E-02 0.  1.
</event>
<event>
 5   0  0.1001961E-05  0.3082642E+04  0.7818609E-02  0.8220518E-01
        2   -1    0    0  501    0  0.00000000000E+00  0.00000000000E+00  0.18476041558E+04  0.18476041558E+04  0.25500000920E-02 0.  1.
       -2   -1    0    0    0  501  0.00000000000E+00  0.00000000000E+00 -0.12858113038E+04  0.12858113038E+04  0.25500000920E-02 0. -1.
    10030    2    1    2    0    0  0.00000000000E+00  0.00000000000E+00  0.56179285200E+03  0.31334154596E+04  0.30826419244E+04 0.  0.
        5    1    3    3  502    0  0.10724203870E+04  0.81856054055E+03 -0.47671285746E+03  0.14308752858E+04  0.46999998093E+01 0. -1.
       -5    1    3    3    0  502 -0.10724203870E+04 -0.81856054055E+03  0.10385057095E+04  0.17025401738E+04  0.46999998093E+01 0.  1.
</event>
<event>
 5   0  0.1007567E-05  0.3065360E+04  0.7818609E-02  0.8225309E-01
       -2   -1    0    0    0  501  0.00000000000E+00  0.00000000000E+00  0.11607757681E+04  0.11607757682E+04  0.25500000920E-02 0.  1.
        2   -1    0    0  501    0  0.00000000000E+00  0.00000000000E+00 -0.20237400799E+04  0.20237400799E+04  0.25500000920E-02 0. -1.
    10030    2    1    2    0    0  0.00000000000E+00  0.00000000000E+00 -0.86296431170E+03  0.31845158480E+04  0.30653603023E+04 0.  0.
        3    1    3    3  502    0  0.13880583861E+04 -0.64597075195E+03 -0.50584780511E+03  0.16124100929E+04  0.10100000352E+00 0.  1.
       -3    1    3    3    0  502 -0.13880583861E+04  0.64597075195E+03 -0.35711650660E+03  0.15721057551E+04  0.10100000352E+00 0. -1.
</event>
<event>
 5   0  0.4250961E-06  0.1737860E+04  0.7818609E-02  0.8740061E-01
        1   -1    0    0  501    0  0.00000000000E+00  0.00000000000E+00  0.13102612995E+04  0.13102612996E+04  0.50400001928E-02 0.  1.
       -1   -1    0    0    0  501  0.00000000000E+00  0.00000000000E+00 -0.57625124949E+03  0.57625124951E+03  0.50400001928E-02 0. -1.
    10030    2    1    2    0    0  0.00000000000E+00  0.00000000000E+00  0.73401005006E+03  0.18865125491E+04  0.17378604214E+04 0.  0.
        1    1    3    3  502    0  0.26968080469E+01 -0.82766650205E+03  0.79797584968E+02  0.83150872875E+03  0.50400001928E-02 0. -1.
       -1    1    3    3    0  502 -0.26968080469E+01  0.82766650205E+03  0.65421246509E+03  0.10550038203E+04  0.50400001928E-02 0.  1.
</event>
<event>
 5   0  0.3838525E-06  0.3068731E+04  0.7818609E-02  0.8224372E-01
       -1   -1    0    0    0  501  0.00000000000E+00  0.00000000000E+00  0.14045847589E+04  0.14045847589E+04  0.50400001928E-02 0. -1.
        1   -1    0    0  501    0  0.00000000000E+00  0.00000000000E+00 -0.16761374980E+04  0.16761374980E+04  0.50400001928E-02 0.  1.
    10030    2    1    2    0    0  0.00000000000E+00  0.00000000000E+00 -0.27155273909E+03  0.30807222570E+04  0.30687308019E+04 0.  0.
        3    1    3    3  502    0  0.43548033793E+03 -0.13769347926E+04 -0.65614985740E+03  0.15862298678E+04  0.10100000352E+00 0.  1.
       -3    1    3    3    0  502 -0.43548033793E+03  0.13769347926E+04  0.38459711831E+03  0.14944923892E+04  0.10100000352E+00 0. -1.
</event>
<event>
 5   0  0.4139628E-06  0.3112283E+04  0.7818609E-02  0.8212375E-01
       -1   -1    0    0    0  501  0.00000000000E+00  0.00000000000E+00  0.15151685076E+04  0.15151685077E+04  0.50400001928E-02 0.  1.
        1   -1    0    0  501    0  0.00000000000E+00  0.00000000000E+00 -0.15982229814E+04  0.15982229814E+04  0.50400001928E-02 0. -1.
    10030    2    1    2    0    0  0.00000000000E+00  0.00000000000E+00 -0.83054473709E+02  0.31133914890E+04  0.31122834894E+04 0.  0.
        5    1    3    3  502    0  0.22945438654E+03  0.28914683068E+03 -0.15537862414E+04  0.15970375634E+04  0.46999998093E+01 0. -1.
       -5    1    3    3    0  502 -0.22945438654E+03 -0.28914683068E+03  0.14707317677E+04  0.15163539256E+04  0.46999998093E+01 0.  1.
</event>
<event>
 5   0  0.3838525E-06  0.3125665E+04  0.7818609E-02  0.8208729E-01
        1   -1    0    0  501    0  0.00000000000E+00  0.00000000000E+00  0.33998752272E+04  0.33998752272E+04  0.50400001928E-02 0. -1.
       -1   -1    0    0    0  501  0.00000000000E+00  0.00000000000E+00 -0.71839263670E+03  0.71839263672E+03  0.50400001928E-02 0.  1.
    10030    2    1    2    0    0  0.00000000000E+00  0.00000000000E+00  0.26814825905E+04  0.41182678639E+04  0.31256649398E+04 0.  0.
        3    1    3    3  502    0  0.13792848610E+04 -0.61963402208E+03  0.82022414589E+03  0.17202153088E+04  0.10100000352E+00 0.  1.
       -3    1    3    3    0  502 -0.13792848610E+04  0.61963402208E+03  0.18612584446E+04  0.23980525551E+04  0.10100000352E+00 0. -1.
</event>
<event>
 5   0  0.1119100E-05  0.2664185E+04  0.7818609E-02  0.8346720E-01
        2   -1    0    0  501    0  0.00000000000E+00  0.00000000000E+00  0.16445382725E+04  0.16445382725E+04  0.25500000920E-02 0. -1.
       -2   -1    0    0    0  501  0.00000000000E+00  0.00000000000E+00 -0.10790084205E+04  0.10790084205E+04  0.25500000920E-02 0.  1.
    10030    2    1    2    0    0  0.00000000000E+00  0.00000000000E+00  0.56552985201E+03  0.27235466930E+04  0.26641851616E+04 0.  0.
        2    1    3    3  502    0  0.22710078570E+03 -0.11514838392E+04 -0.36133788729E+03  0.12280288546E+04  0.25500000920E-02 0.  1.
       -2    1    3    3    0  502 -0.22710078570E+03  0.11514838392E+04  0.92686773929E+03  0.14955178384E+04  0.25500000920E-02 0. -1.
</event>
<event>
 5   0  0.1007567E-05  0.3132231E+04  0.7818609E-02  0.8206948E-01
        2   -1    0    0  501    0  0.00000000000E+00  0.00000000000E+00  0.11802606314E+04  0.11802606314E+04  0.25500000920E-02 0.  1.
       -2   -1    0    0    0  501  0.00000000000E+00  0.00000000000E+00 -0.20781149937E+04  0.20781149937E+04  0.25500000920E-02 0. -1.
    10030    2    1    2    0    0  0.00000000000E+00  0.00000000000E+00 -0.89785436229E+03  0.32583756251E+04  0.31322307161E+04 0.  0.
        3    1    3    3  502    0 -0.61473291481E+03  0.60486136731E+03  0.91099417650E+03  0.12544577434E+04  0.10100000352E+00 0.  1.
       -3    1    3    3    0  502  0.61473291481E+03 -0.60486136731E+03 -0.18088485388E+04  0.20039178817E+04  0.10100000352E+00 0. -1.
</event>
<event>
 5   0  0.3838525E-06  0.3152877E+04  0.7818609E-02  0.8201374E-01
        1   -1    0    0  501    0  0.00000000000E+00  0.00000000000E+00  0.18664404008E+04  0.18664404008E+04  0.50400001928E-02 0. -1.
       -1   -1    0    0    0  501  0.00000000000E+00  0.00000000000E+00 -0.13314963853E+04  0.13314963854E+04  0.50400001928E-02 0.  1.
    10030    2    1    2    0    0  0.00000000000E+00  0.00000000000E+00  0.53494401544E+03  0.31979367861E+04  0.31528771921E+04 0.  0.
        3    1    3    3  502    0  0.10001899249E+04 -0.54709925469E+03  0.13718213683E+04  0.17837015885E+04  0.10100000352E+00 0. -1.
       -3    1    3    3    0  502 -0.10001899249E+04  0.54709925469E+03 -0.83687735284E+03  0.14142351976E+04  0.10100000352E+00 0.  1.
</event>
<event>
 5   0  0.3848286E-06  0.3022695E+04  0.7818609E-02  0.8237280E-01
        1   -1    0    0  501    0  0.00000000000E+00  0.00000000000E+00  0.23591534355E+04  0.23591534355E+04  0.50400001928E-02 0.  1.
       -1   -1    0    0    0  501  0.00000000000E+00  0.00000000000E+00 -0.96821656431E+03  0.96821656432E+03  0.50400001928E-02 0. -1.
    10030    2    1    2    0    0  0.00000000000E+00  0.00000000000E+00  0.13909368712E+04  0.33273699998E+04  0.30226951113E+04 0.  0.
        2    1    3    3  502    0  0.97759906948E+03 -0.56941436504E+03  0.17985947533E+04  0.21248236977E+04  0.25500000920E-02 0. -1.
       -2    1    3    3    0  502 -0.97759906948E+03  0.56941436504E+03 -0.40765788215E+03  0.12025463021E+04  0.25500000920E-02 0.  1.
</event>
<event>
 5   0  0.1119100E-05  0.3067635E+04  0.7818609E-02  0.8224677E-01
       -2   -1    0    0    0  501  0.00000000000E+00  0.00000000000E+00  0.14767413087E+04  0.14767413087E+04  0.25500000920E-02 0. -1.
        2   -1    0    0  501    0  0.00000000000E+00  0.00000000000E+00 -0.15931000471E+04  0.15931000471E+04  0.25500000920E-02 0.  1.
    10030    2    1    2    0    0  0.00000000000E+00  0.00000000000E+00 -0.11635873839E+03  0.30698413558E+04  0.30676353424E+04 0.  0.
        2    1    3    3  502    0  0.15116982476E+04  0.13547251281E+03 -0.27972568981E+03  0.15433181315E+04  0.25500000920E-02 0.  1.
       -2    1    3    3    0  502 -0.15116982476E+04 -0.13547251281E+03  0.16336695143E+03  0.15265232243E+04  0.25500000920E-02 0. -1.
</event>
<event>
 5   0  0.3807334E-06  0.1829135E+04  0.7818609E-02  0.8690957E-01
       -1   -1    0    0    0  501  0.00000000000E+00  0.00000000000E+00  0.11084770132E+04  0.11084770132E+04  0.50400001928E-02 0.  1.
        1   -1    0    0  501    0  0.00000000000E+00  0.00000000000E+00 -0.75457931907E+03  0.75457931909E+03  0.50400001928E-02 0. -1.
    10030    2    1    2    0    0  0.00000000000E+00  0.00000000000E+00  0.35389769410E+03  0.18630563323E+04  0.18291351288E+04 0.  0.
        4    1    3    3  502    0 -0.28551688802E+03 -0.35855743352E+03  0.98304779127E+03  0.10846510496E+04  0.12699999809E+01 0.  1.
       -4    1    3    3    0  502  0.28551688802E+03  0.35855743352E+03 -0.62915009717E+03  0.77840528271E+03  0.12699999809E+01 0. -1.
</event>
<event>
 5   0  0.9797278E-06  0.3129461E+04  0.7818609E-02  0.8207699E-01
        2   -1    0    0  501    0  0.00000000000E+00  0.00000000000E+00  0.17131295672E+04  0.17131295672E+04  0.25500000920E-02 0. -1.
       -2   -1    0    0    0  501  0.00000000000E+00  0.00000000000E+00 -0.14291861007E+04  0.14291861007E+04  0.25500000920E-02 0.  1.
    10030    2    1    2    0    0  0.00000000000E+00  0.00000000000E+00  0.28394346654E+03  0.31423156679E+04  0.31294606348E+04 0.  0.
        1    1    3    3  502    0 -0.67401528149E+02  0.49148918426E+03 -0.13481310590E+04  0.14365103329E+04  0.50400001928E-02 0.  1.
       -1    1    3    3    0  502  0.67401528149E+02 -0.49148918426E+03  0.16320745255E+04  0.17058053351E+04  0.50400001928E-02 0. -1.
</event>
<event>
 5   0  0.3807334E-06  0.2075236E+04  0.7818609E-02  0.8572231E-01
        1   -1    0    0  501    0  0.00000000000E+00  0.00000000000E+00  0.85865591269E+03  0.85865591270E+03  0.50400001928E-02 0.  1.
       -1   -1    0    0    0  501  0.00000000000E+00  0.00000000000E+00 -0.12538792437E+04  0.12538792438E+04  0.50400001928E-02 0. -1.
    10030    2    1    2    0    0  0.00000000000E+00  0.00000000000E+00 -0.39522333106E+03  0.21125351565E+04  0.20752357230E+04 0.  0.
        4    1    3    3  502    0 -0.79678173703E+03 -0.63355380868E+03  0.69925390167E+01  0.10179892305E+04  0.12699999809E+01 0.  1.
       -4    1    3    3    0  502  0.79678173703E+03  0.63355380868E+03 -0.40221587007E+03  0.10945459259E+04  0.12699999809E+01 0. -1.
</event>
<event>
 5   0  0.3838525E-06  0.3014257E+04  0.7818609E-02  0.8239671E-01
        1   -1    0    0  501    0  0.00000000000E+00  0.00000000000E+00  0.12084876076E+04  0.12084876076E+04  0.50400001928E-02 0.  1.
       -1   -1    0    0    0  501  0.00000000000E+00  0.00000000000E+00 -0.18795693436E+04  0.18795693436E+04  0.50400001928E-02 0. -1.
    10030    2    1    2    0    0  0.00000000000E+00  0.00000000000E+00 -0.67108173593E+03  0.30880569512E+04  0.30142569628E+04 0.  0.
        3    1    3    3  502    0 -0.11005598736E+03  0.13364929262E+04 -0.10402118075E+04  0.16971641868E+04  0.10100000352E+00 0. -1.
       -3    1    3    3    0  502  0.11005598736E+03 -0.13364929262E+04  0.36913007161E+03  0.13908927644E+04  0.10100000352E+00 0.  1.
</event>
<event>
 5   0  0.3848286E-06  0.3087814E+04  0.7818609E-02  0.8219090E-01
        1   -1    0    0  501    0  0.00000000000E+00  0.00000000000E+00  0.20093301037E+04  0.20093301038E+04  0.50400001928E-02 0.  1.
       -1   -1    0    0    0  501  0.00000000000E+00  0.00000000000E+00 -0.11862906253E+04  0.11862906253E+04  0.50400001928E-02 0. -1.
    10030    2    1    2    0    0  0.00000000000E+00  0.00000000000E+00  0.82303947849E+03  0.31956207290E+04  0.30878144149E+04 0.  0.
        2    1    3    3  502    0  0.12094228419E+04  0.47047567947E+03  0.12771421087E+04  0.18207533993E+04  0.25500000920E-02 0.  1.
       -2    1    3    3    0  502 -0.12094228419E+04 -0.47047567947E+03 -0.45410263018E+03  0.13748673297E+04  0.25500000920E-02 0. -1.
</event>
<event>
 5   0  0.9797278E-06  0.3175380E+04  0.7818609E-02  0.8195350E-01
        2   -1    0    0  501    0  0.00000000000E+00  0.00000000000E+00  0.18141918493E+04  0.18141918493E+04  0.25500000920E-02 0.  1.
       -2   -1    0    0    0  501  0.00000000000E+00  0.00000000000E+00 -0.13894668318E+04  0.13894668318E+04  0.25500000920E-02 0. -1.
    10030    2    1    2    0    0  0.00000000000E+00  0.00000000000E+00  0.42472501754E+03  0.32036586811E+04  0.31753799150E+04 0.  0.
        1    1    3    3  502    0 -0.34301447166E+03  0.48035927351E+03  0.16993797009E+04  0.17989706299E+04  0.50400001928E-02 0.  1.
       -1    1    3    3    0  502  0.34301447166E+03 -0.48035927351E+03 -0.12746546834E+04  0.14046880512E+04  0.50400001928E-02 0. -1.
</event>
<event>
 5   0  0.1001961E-05  0.3097169E+04  0.7818609E-02  0.8216515E-01
       -2   -1    0    0    0  501  0.00000000000E+00  0.00000000000E+00  0.15012310776E+04  0.15012310776E+04  0.25500000920E-02 0. -1.
        2   -1    0    0  501    0  0.00000000000E+00  0.00000000000E+00 -0.15974311272E+04  0.15974311272E+04  0.25500000920E-02 0.  1.
    10030    2    1    2    0    0  0.00000000000E+00  0.00000000000E+00 -0.96200049631E+02  0.30986622048E+04  0.30971685472E+04 0.  0.
        5    1    3    3  502    0 -0.41489961592E+03 -0.98085800339E+03 -0.11728606132E+04  0.15842500504E+04  0.46999998093E+01 0.  1.
       -5    1    3    3    0  502  0.41489961592E+03  0.98085800339E+03  0.10766605636E+04  0.15144121544E+04  0.46999998093E+01 0. -1.
</event>
<event>
 5   0  0.4139628E-06  0.2906628E+04  0.7818609E-02  0.8270908E-01
       -1   -1    0    0    0  501  0.00000000000E+00  0.00000000000E+00  0.14711998609E+04  0.14711998609E+04  0.50400001928E-02 0.  1.
        1   -1    0    0  501    0  0.00000000000E+00  0.00000000000E+00 -0.14356455024E+04  0.14356455024E+04  0.50400001928E-02 0. -1.
    10030    2    1    2    0    0  0.00000000000E+00  0.00000000000E+00  0.35554358463E+02  0.29068453633E+04  0.29066279180E+04 0.  0.
        5    1    3    3  502    0 -0.11041277654E+04  0.32896864657E+03  0.90372204447E+03  0.14642588967E+04  0.46999998093E+01 0.  1.
       -5    1    3    3    0  502  0.11041277654E+04 -0.32896864657E+03 -0.86816768600E+03  0.14425864667E+04  0.46999998093E+01 0. -1.
</event>
<event>
 5   0  0.1108153E-05  0.2934817E+04  0.7818609E-02  0.8262593E-01
       -2   -1    0    0    0  501  0.00000000000E+00  0.00000000000E+00  0.10098839441E+04  0.10098839441E+04  0.25500000920E-02 0. -1.
        2   -1    0    0  501    0  0.00000000000E+00  0.00000000000E+00 -0.21322134814E+04  0.21322134814E+04  0.25500000920E-02 0.  1.
    10030    2    1    2    0    0  0.00000000000E+00  0.00000000000E+00 -0.11223295373E+04  0.31420974255E+04  0.29348173097E+04 0.  0.
        4    1    3    3  502    0 -0.74541723495E+03 -0.83099340535E+03 -0.15808442533E+04  0.19352692474E+04  0.12699999809E+01 0.  1.
       -4    1    3    3    0  502  0.74541723495E+03  0.83099340535E+03  0.45851471597E+03  0.12068281781E+04  0.12699999809E+01 0. -1.
</event>
<event>
 5   0  0.3807334E-06  0.2473975E+04  0.7818609E-02  0.8412316E-01
        1   -1    0    0  501    0  0.00000000000E+00  0.00000000000E+00  0.16254474478E+04  0.16254474478E+04  0.50400001928E-02 0.  1.
       -1   -1    0    0    0  501  0.00000000000E+00  0.00000000000E+00 -0.94136441902E+03  0.94136441903E+03  0.50400001928E-02 0. -1.
    10030    2    1    2    0    0  0.00000000000E+00  0.00000000000E+00  0.68408302873E+03  0.25668118668E+04  0.24739752564E+04 0.  0.
        4    1    3    3  502    0  0.13617341675E+03  0.11984602156E+04  0.62672206236E+03  0.13592763678E+04  0.12699999809E+01 0.  1.
       -4    1    3    3    0  502 -0.13617341675E+03 -0.11984602156E+04  0.57360966377E+02  0.12075354989E+04  0.12699999809E+01 0. -1.
</event>
<event>
 5   0  0.4139628E-06  0.1866119E+04  0.7818609E-02  0.8671907E-01
        1   -1    0    0  501    0  0.00000000000E+00  0.00000000000E+00  0.64891287612E+03  0.64891287614E+03  0.50400001928E-02 0. -1.
       -1   -1    0    0    0  501  0.00000000000E+00  0.00000000000E+00 -0.13416286356E+04  0.13416286356E+04  0.50400001928E-02 0.  1.
    10030    2    1    2    0    0  0.00000000000E+00  0.00000000000E+00 -0.69271575948E+03  0.19905415118E+04  0.18661190709E+04 0.  0.
        5    1    3    3  502    0  0.44709846219E+03 -0.88645026956E+02  0.52206385223E+03  0.69305680251E+03  0.46999998093E+01 0. -1.
       -5    1    3    3    0  502 -0.44709846219E+03  0.88645026956E+02 -0.12147796117E+04  0.12974847092E+04  0.46999998093E+01 0.  1.
</event>
<event>
 5   0  0.3848286E-06  0.3035381E+04  0.7818609E-02  0.8233699E-01
       -1   -1    0    0    0  501  0.00000000000E+00  0.00000000000E+00  0.13162954123E+04  0.13162954124E+04  0.50400001928E-02 0.  1.
        1   -1    0    0  501    0  0.00000000000E+00  0.00000000000E+00 -0.17498990925E+04  0.17498990925E+04  0.50400001928E-02 0. -1.
    10030    2    1    2    0    0  0.00000000000E+00  0.00000000000E+00 -0.43360368015E+03  0.30661945049E+04  0.30353807982E+04 0.  0.
        2    1    3    3  502    0 -0.11115835098E+04  0.37319169685E+03  0.75656403741E+03  0.13954494203E+04  0.25500000920E-02 0.  1.
       -2    1    3    3    0  502  0.11115835098E+04 -0.37319169685E+03 -0.11901677176E+04  0.16707450846E+04  0.25500000920E-02 0. -1.
</event>
<event>
 5   0  0.3848286E-06  0.3171701E+04  0.7818609E-02  0.8196331E-01
       -1   -1    0    0    0  501  0.00000000000E+00  0.00000000000E+00  0.11102941103E+04  0.11102941103E+04  0.50400001928E-02 0. -1.
        1   -1    0    0  501    0  0.00000000000E+00  0.00000000000E+00 -0.22650953312E+04  0.22650953312E+04  0.50400001928E-02 0.  1.
    10030    2    1    2    0    0  0.00000000000E+00  0.00000000000E+00 -0.11548012209E+04  0.33753894414E+04  0.31717011243E+04 0.  0.
        2    1    3    3  502    0  0.75916554405E+03  0.60300954773E+03  0.75817247797E+03  0.12307633177E+04  0.25500000920E-02 0. -1.
       -2    1    3    3    0  502 -0.75916554405E+03 -0.60300954773E+03 -0.19129736989E+04  0.21446261237E+04  0.25500000920E-02 0.  1.
</event>
<event>
 5   0  0.4139628E-06  0.3201915E+04  0.7818609E-02  0.8188312E-01
       -1   -1    0    0    0  501  0.00000000000E+00  0.00000000000E+00  0.95223931805E+03  0.95223931807E+03  0.50400001928E-02 0. -1.
        1   -1    0    0  501    0  0.00000000000E+00  0.00000000000E+00 -0.26916176477E+04  0.26916176477E+04  0.50400001928E-02 0.  1.
    10030    2    1    2    0    0  0.00000000000E+00  0.00000000000E+00 -0.17393783297E+04  0.36438569658E+04  0.32019145231E+04 0.  0.
        5    1    3    3  502    0 -0.21708396682E+03  0.13909040685E+04 -0.17373553602E+04  0.22361049426E+04  0.46999998093E+01 0.  1.
       -5    1    3    3    0  502  0.21708396682E+03 -0.13909040685E+04 -0.20229694895E+01  0.14077520232E+04  0.46999998093E+01 0. -1.
</event>
<event>
 5   0  0.4139628E-06  0.2262812E+04  0.7818609E-02  0.8492730E-01
       -1   -1    0    0    0  501  0.00000000000E+00  0.00000000000E+00  0.83592565340E+03  0.83592565342E+03  0.50400001928E-02 0.  1.
        1   -1    0    0  501    0  0.00000000000E+00  0.00000000000E+00 -0.15313316328E+04  0.15313316328E+04  0.50400001928E-02 0. -1.
    10030    2    1    2    0    0  0.00000000000E+00  0.00000000000E+00 -0.69540597942E+03  0.23672572863E+04  0.22628118753E+04 0.  0.
        5    1    3    3  502    0 -0.38885162085E+02 -0.30936021490E+03  0.79008223761E+03  0.84939262452E+03  0.46999998093E+01 0.  1.
       -5    1    3    3    0  502  0.38885162085E+02  0.30936021490E+03 -0.14854882170E+04  0.15178646617E+04  0.46999998093E+01 0. -1.
</event>
<event>
 5   0  0.3848286E-06  0.3066460E+04  0.7818609E-02  0.8225003E-01
       -1   -1    0    0    0  501  0.00000000000E+00  0.00000000000E+00  0.13069769515E+04  0.13069769515E+04  0.50400001928E-02 0.  1.
        1   -1    0    0  501    0  0.00000000000E+00  0.00000000000E+00 -0.17986506706E+04  0.17986506706E+04  0.50400001928E-02 0. -1.
    10030    2    1    2    0    0  0.00000000000E+00  0.00000000000E+00 -0.49167371910E+03  0.31056276222E+04  0.30664604810E+04 0.  0.
        2    1    3    3  502    0  0.10512129936E+04 -0.88679018016E+03 -0.93224682505E+03  0.16614841933E+04  0.25500000920E-02 0. -1.
       -2    1    3    3    0  502 -0.10512129936E+04  0.88679018016E+03  0.44057310595E+03  0.14441434289E+04  0.25500000920E-02 0.  1.
</event>
<event>
 5   0  0.3848286E-06  0.2997815E+04  0.7818609E-02  0.8244355E-01
       -1   -1    0    0    0  501  0.00000000000E+00  0.00000000000E+00  0.14084005439E+04  0.14084005439E+04  0.50400001928E-02 0. -1.
        1   -1    0    0  501    0  0.00000000000E+00  0.00000000000E+00 -0.15952311522E+04  0.15952311522E+04  0.50400001928E-02 0.  1.
    10030    2    1    2    0    0  0.00000000000E+00  0.00000000000E+00 -0.18683060830E+03  0.30036316961E+04  0.29978154863E+04 0.  0.
        2    1    3    3  502    0  0.14317581705E+04 -0.42407183532E+03  0.37052701360E+02  0.14937005332E+04  0.25500000920E-02 0.  1.
       -2    1    3    3    0  502 -0.14317581705E+04  0.42407183532E+03 -0.22388330966E+03  0.15099311629E+04  0.25500000920E-02 0. -1.
</event>
<event>
 5   0  0.3493125E-06  0.2024943E+04  0.7818609E-02  0.8595047E-01
       -4   -1    0    0    0  501  0.00000000000E+00  0.00000000000E+00  0.84537156833E+03  0.84537252229E+03  0.12699999809E+01 0. -1.
        4   -1    0    0  501    0  0.00000000000E+00  0.00000000000E+00 -0.12125986754E+04  0.12125993405E+04  0.12699999809E+01 0.  1.
    10030    2    1    2    0    0  0.00000000000E+00  0.00000000000E+00 -0.36722710711E+03  0.20579718628E+04  0.20249425769E+04 0.  0.
        1    1    3    3  502    0  0.45988675523E+03  0.77538164991E+03  0.28475662267E+03  0.94540936362E+03  0.50400001928E-02 0. -1.
       -1    1    3    3    0  502 -0.45988675523E+03 -0.77538164991E+03 -0.65198372977E+03  0.11125624992E+04  0.50400001928E-02 0.  1.
</event>
<event>
 5   0  0.9797278E-06  0.3177574E+04  0.7818609E-02  0.8194765E-01
        2   -1    0    0  501    0  0.00000000000E+00  0.00000000000E+00  0.20631208834E+04  0.20631208834E+04  0.25500000920E-02 0.  1.
       -2   -1    0    0    0  501  0.00000000000E+00  0.00000000000E+00 -0.12235076347E+04  0.12235076347E+04  0.25500000920E-02 0. -1.
    10030    2    1    2    0    0  0.00000000000E+00  0.00000000000E+00  0.83961324872E+03  0.32866285180E+04  0.31775740130E+04 0.  0.
        1    1    3    3  502    0 -0.34342755666E+03  0.10395820674E+04  0.16106548312E+04  0.19475323738E+04  0.50400001928E-02 0.  1.
       -1    1    3    3    0  502  0.34342755666E+03 -0.10395820674E+04 -0.77104158248E+03  0.13390961443E+04  0.50400001928E-02 0. -1.
</event>
<event>
 5   0  0.4139628E-06  0.1647995E+04  0.7818609E-02  0.8791594E-01
       -1   -1    0    0    0  501  0.00000000000E+00  0.00000000000E+00  0.34222159428E+03  0.34222159431E+03  0.50400001928E-02 0.  1.
        1   -1    0    0  501    0  0.00000000000E+00  0.00000000000E+00 -0.19840114777E+04  0.19840114777E+04  0.50400001928E-02 0. -1.
    10030    2    1    2    0    0  0.00000000000E+00  0.00000000000E+00 -0.16417898834E+04  0.23262330720E+04  0.16479946250E+04 0.  0.
        5    1    3    3  502    0  0.44782875193E+03  0.68984390548E+03 -0.89167385848E+03  0.12130703050E+04  0.46999998093E+01 0. -1.
       -5    1    3    3    0  502 -0.44782875193E+03 -0.68984390548E+03 -0.75011602495E+03  0.11131627670E+04  0.46999998093E+01 0.  1.
</event>
<event>
 5   0  0.3848286E-06  0.2818822E+04  0.7818609E-02  0.8297449E-01
       -1   -1    0    0    0  501  0.00000000000E+00  0.00000000000E+00  0.11250372453E+04  0.11250372453E+04  0.50400001928E-02 0.  1.
        1   -1    0    0  501    0  0.00000000000E+00  0.00000000000E+00 -0.17656648612E+04  0.17656648612E+04  0.50400001928E-02 0. -1.
    10030    2    1    2    0    0  0.00000000000E+00  0.00000000000E+00 -0.64062761589E+03  0.28907021065E+04  0.28188215492E+04 0.  0.
        2    1    3    3  502    0  0.13267260618E+04  0.24281498452E+03  0.99111482411E+02  0.13523994402E+04  0.25500000920E-02 0.  1.
       -2    1    3    3    0  502 -0.13267260618E+04 -0.24281498452E+03 -0.73973909830E+03  0.15383026664E+04  0.25500000920E-02 0. -1.
</event>
<event>
 5   0  0.4250961E-06  0.3057213E+04  0.7818609E-02  0.8227579E-01
       -1   -1    0    0    0  501  0.00000000000E+00  0.00000000000E+00  0.25703875813E+04  0.25703875813E+04  0.50400001928E-02 0. -1.
        1   -1    0    0  501    0  0.00000000000E+00  0.00000000000E+00 -0.90906076137E+03  0.90906076138E+03  0.50400001928E-02 0.  1.
    10030    2    1    2    0    0  0.00000000000E+00  0.00000000000E+00  0.16613268199E+04  0.34794483427E+04  0.30572134317E+04 0.  0.
        1    1    3    3  502    0  0.18340945659E+03 -0.13458946070E+04  0.32712693192E+02  0.13587278765E+04  0.50400001928E-02 0.  1.
       -1    1    3    3    0  502 -0.18340945659E+03  0.13458946070E+04  0.16286141267E+04  0.21207204662E+04  0.50400001928E-02 0. -1.
</event>
<event>
 5   0  0.1001961E-05  0.1980305E+04  0.7818609E-02  0.8615884E-01
       -2   -1    0    0    0  501  0.00000000000E+00  0.00000000000E+00  0.11291867179E+04  0.11291867179E+04  0.25500000920E-02 0. -1.
        2   -1    0    0  501    0  0.00000000000E+00  0.00000000000E+00 -0.86823742070E+03  0.86823742071E+03  0.25500000920E-02 0.  1.
    10030    2    1    2    0    0  0.00000000000E+00  0.00000000000E+00  0.26094929723E+03  0.19974241386E+04  0.19803051921E+04 0.  0.
        5    1    3    3  502    0 -0.67624969862E+03  0.52485112084E+03  0.63236805250E+03  0.10642808829E+04  0.46999998093E+01 0. -1.
       -5    1    3    3    0  502  0.67624969862E+03 -0.52485112084E+03 -0.37141875527E+03  0.93314325572E+03  0.46999998093E+01 0.  1.
</event>
<event>
 5   0  0.1001961E-05  0.3088793E+04  0.7818609E-02  0.8218820E-01
        2   -1    0    0  501    0  0.00000000000E+00  0.00000000000E+00  0.28438084646E+04  0.28438084646E+04  0.25500000920E-02 0.  1.
       -2   -1    0    0    0  501  0.00000000000E+00  0.00000000000E+00 -0.83872054737E+03  0.83872054737E+03  0.25500000920E-02 0. -1.
    10030    2    1    2    0    0  0.00000000000E+00  0.00000000000E+00  0.20050879172E+04  0.36825290119E+04  0.30887930277E+04 0.  0.
        5    1    3    3  502    0  0.23873491658E+03  0.15060937541E+04  0.12941532977E+04  0.20000419007E+04  0.46999998093E+01 0.  1.
       -5    1    3    3    0  502 -0.23873491658E+03 -0.15060937541E+04  0.71093461948E+03  0.16824871113E+04  0.46999998093E+01 0. -1.
</event>
<event>
 5   0  0.1108153E-05  0.3103401E+04  0.7818609E-02  0.8214805E-01
       -2   -1    0    0    0  501  0.00000000000E+00  0.00000000000E+00  0.10334343756E+04  0.10334343756E+04  0.25500000920E-02 0. -1.
        2   -1    0    0  501    0  0.00000000000E+00  0.00000000000E+00 -0.23298761721E+04  0.23298761721E+04  0.25500000920E-02 0.  1.
    10030    2    1    2    0    0  0.00000000000E+00  0.00000000000E+00 -0.12964417966E+04  0.33633105477E+04  0.31034007972E+04 0.  0.
        4    1    3    3  502    0  0.13258905016E+04 -0.17990965767E+03 -0.14997887156E+04  0.20099056972E+04  0.12699999809E+01 0.  1.
       -4    1    3    3    0  502 -0.13258905016E+04  0.17990965767E+03  0.20334691902E+03  0.13534048505E+04  0.12699999809E+01 0. -1.
</event>
<event>
 5   0  0.4139628E-06  0.3006847E+04  0.7818609E-02  0.8241778E-01
        1   -1    0    0  501    0  0.00000000000E+00  0.00000000000E+00  0.18902433489E+04  0.18902433489E+04  0.50400001928E-02 0.  1.
       -1   -1    0    0    0  501  0.00000000000E+00  0.00000000000E+00 -0.11957627398E+04  0.11957627398E+04  0.50400001928E-02 0. -1.
    10030    2    1    2    0    0  0.00000000000E+00  0.00000000000E+00  0.69448060911E+03  0.30860060886E+04  0.30068472297E+04 0.  0.
        5    1    3    3  502    0  0.51070570554E+03  0.91866474874E+03 -0.75599841419E+03  0.12947281300E+04  0.46999998093E+01 0. -1.
       -5    1    3    3    0  502 -0.51070570554E+03 -0.91866474874E+03  0.14504790233E+04  0.17912779587E+04  0.46999998093E+01 0.  1.
</event>
<event>
 5   0  0.1119100E-05  0.2782713E+04  0.7818609E-02  0.8308655E-01
       -2   -1    0    0    0  501  0.00000000000E+00  0.00000000000E+00  0.92140666962E+03  0.92140666962E+03  0.25500000920E-02 0.  1.
        2   -1    0    0  501    0  0.00000000000E+00  0.00000000000E+00 -0.21009973693E+04  0.21009973693E+04  0.25500000920E-02 0. -1.
    10030    2    1    2    0    0  0.00000000000E+00  0.00000000000E+00 -0.11795906997E+04  0.30224040389E+04  0.27827130567E+04 0.  0.
        2    1    3    3  502    0  0.46443566446E+03  0.13039016962E+04 -0.43614315304E+03  0.14512342918E+04  0.25500000920E-02 0. -1.
       -2    1    3    3    0  502 -0.46443566446E+03 -0.13039016962E+04 -0.74344754665E+03  0.15711697471E+04  0.25500000920E-02 0.  1.
</event>
<event>
 5   0  0.3848286E-06  0.3089601E+04  0.7818609E-02  0.8218598E-01
        1   -1    0    0  501    0  0.00000000000E+00  0.00000000000E+00  0.22036550924E+04  0.22036550924E+04  0.50400001928E-02 0.  1.
       -1   -1    0    0    0  501  0.00000000000E+00  0.00000000000E+00 -0.10829322118E+04  0.10829322118E+04  0.50400001928E-02 0. -1.
    10030    2    1    2    0    0  0.00000000000E+00  0.00000000000E+00  0.11207228806E+04  0.32865873042E+04  0.30896013227E+04 0.  0.
        2    1    3    3  502    0  0.13410177702E+04 -0.18200844558E+03 -0.23208691641E+03  0.13730695799E+04  0.25500000920E-02 0. -1.
       -2    1    3    3    0  502 -0.13410177702E+04  0.18200844558E+03  0.13528097970E+04  0.19135177243E+04  0.25500000920E-02 0.  1.
</event>
<event>
 5   0  0.1119100E-05  0.2036180E+04  0.7818609E-02  0.8589889E-01
        2   -1    0    0  501    0  0.00000000000E+00  0.00000000000E+00  0.15856037538E+04  0.15856037538E+04  0.25500000920E-02 0. -1.
       -2   -1    0    0    0  501  0.00000000000E+00  0.00000000000E+00 -0.65369910067E+03  0.65369910067E+03  0.25500000920E-02 0.  1.
    10030    2    1    2    0    0  0.00000000000E+00  0.00000000000E+00  0.93190465315E+03  0.22393028545E+04  0.20361804909E+04 0.  0.
        2    1    3    3  502    0 -0.82163557362E+03 -0.23880782261E+02 -0.19468237883E+03  0.84472275702E+03  0.25500000920E-02 0.  1.
       -2    1    3    3    0  502  0.82163557362E+03  0.23880782261E+02  0.11265870320E+04  0.13945800975E+04  0.25500000920E-02 0. -1.
</event>
<event>
 5   0  0.4139628E-06  0.3109891E+04  0.7818609E-02  0.8213029E-01
       -1   -1    0    0    0  501  0.00000000000E+00  0.00000000000E+00  0.16118949864E+04  0.16118949864E+04  0.50400001928E-02 0. -1.
        1   -1    0    0  501    0  0.00000000000E+00  0.00000000000E+00 -0.15000077044E+04  0.15000077044E+04  0.50400001928E-02 0.  1.
    10030    2    1    2    0    0  0.00000000000E+00  0.00000000000E+00  0.11188728204E+03  0.31119026908E+04  0.31098906079E+04 0.  0.
        5    1    3    3  502    0 -0.12504986137E+04 -0.65730440188E+03 -0.59412038403E+03  0.15325785397E+04  0.46999998093E+01 0.  1.
       -5    1    3    3    0  502  0.12504986137E+04  0.65730440188E+03  0.70600766607E+03  0.15793241511E+04  0.46999998093E+01 0. -1.
</event>
<event>
 5   0  0.1108153E-05  0.3135708E+04  0.7818609E-02  0.8206006E-01
       -2   -1    0    0    0  501  0.00000000000E+00  0.00000000000E+00  0.30794867837E+04  0.30794867837E+04  0.25500000920E-02 0.  1.
        2   -1    0    0  501    0  0.00000000000E+00  0.00000000000E+00 -0.79823914724E+03  0.79823914725E+03  0.25500000920E-02 0. -1.
    10030    2    1    2    0    0  0.00000000000E+00  0.00000000000E+00  0.22812476364E+04  0.38777259309E+04  0.31357084712E+04 0.  0.
        4    1    3    3  502    0 -0.14995194938E+04 -0.36289844504E+03  0.14858006596E+04  0.21419288519E+04  0.12699999809E+01 0. -1.
       -4    1    3    3    0  502  0.14995194938E+04  0.36289844504E+03  0.79544697686E+03  0.17357970790E+04  0.12699999809E+01 0.  1.
</event>
<event>
 5   0  0.4250961E-06  0.3061436E+04  0.7818609E-02  0.8226402E-01
       -1   -1    0    0    0  501  0.00000000000E+00  0.00000000000E+00  0.20273830926E+04  0.20273830926E+04  0.50400001928E-02 0.  1.
        1   -1    0    0  501    0  0.00000000000E+00  0.00000000000E+00 -0.11557247790E+04  0.11557247790E+04  0.50400001928E-02 0. -1.
    10030    2    1    2    0    0  0.00000000000E+00  0.00000000000E+00  0.87165831357E+03  0.31831078716E+04  0.30614355303E+04 0.  0.
        1    1    3    3  502    0  0.62684917561E+03 -0.13814192097E+04  0.22315659581E+03  0.15333159453E+04  0.50400001928E-02 0.  1.
       -1    1    3    3    0  502 -0.62684917561E+03  0.13814192097E+04  0.64850171776E+03  0.16497919262E+04  0.50400001928E-02 0. -1.
</event>
<event>
 5   0  0.4139628E-06  0.3074662E+04  0.7818609E-02  0.8222726E-01
       -1   -1    0    0    0  501  0.00000000000E+00  0.00000000000E+00  0.15761141772E+04  0.15761141772E+04  0.50400001928E-02 0.  1.
        1   -1    0    0  501    0  0.00000000000E+00  0.00000000000E+00 -0.14995019716E+04  0.14995019716E+04  0.50400001928E-02 0. -1.
    10030    2    1    2    0    0  0.00000000000E+00  0.00000000000E+00  0.76612205642E+02  0.30756161489E+04  0.30746618131E+04 0.  0.
        5    1    3    3  502    0  0.14744400795E+04  0.43259238700E+03 -0.91902620721E+01  0.15366249615E+04  0.46999998093E+01 0. -1.
       -5    1    3    3    0  502 -0.14744400795E+04 -0.43259238700E+03  0.85802467714E+02  0.15389911874E+04  0.46999998093E+01 0.  1.
</event>
<event>
 5   0  0.3807334E-06  0.3148978E+04  0.7818609E-02  0.8202423E-01
       -1   -1    0    0    0  501  0.00000000000E+00  0.00000000000E+00  0.16966283156E+04  0.16966283156E+04  0.50400001928E-02 0. -1.
        1   -1    0    0  501    0  0.00000000000E+00  0.00000000000E+00 -0.14611423505E+04  0.14611423505E+04  0.50400001928E-02 0.  1.
    10030    2    1    2    0    0  0.00000000000E+00  0.00000000000E+00  0.23548596515E+03  0.31577706661E+04  0.31489779199E+04 0.  0.
        4    1    3    3  502    0  0.38592942875E+03 -0.14814313326E+04 -0.25129758513E+03  0.15513646916E+04  0.12699999809E+01 0. -1.
       -4    1    3    3    0  502 -0.38592942875E+03  0.14814313326E+04  0.48678355028E+03  0.16064059745E+04  0.12699999809E+01 0.  1.
</event>
<event>
 5   0  0.1119100E-05  0.2421348E+04  0.7818609E-02  0.8431554E-01
        2   -1    0    0  501    0  0.00000000000E+00  0.00000000000E+00  0.27737231817E+04  0.27737231817E+04  0.25500000920E-02 0. -1.
       -2   -1    0    0    0  501  0.00000000000E+00  0.00000000000E+00 -0.52843463515E+03  0.52843463516E+03  0.25500000920E-02 0.  1.
    10030    2    1    2    0    0  0.00000000000E+00  0.00000000000E+00  0.22452885466E+04  0.33021578169E+04  0.24213478871E+04 0.  0.
        2    1    3    3  502    0  0.20812091464E+03  0.30781831511E+03  0.26940375186E+04  0.27195412448E+04  0.25500000920E-02 0. -1.
       -2    1    3    3    0  502 -0.20812091464E+03 -0.30781831511E+03 -0.44874897203E+03  0.58261657214E+03  0.25500000920E-02 0.  1.
</event>
<event>
 5   0  0.1007567E-05  0.2222267E+04  0.7818609E-02  0.8509217E-01
       -2   -1    0    0    0  501  0.00000000000E+00  0.00000000000E+00  0.14411132329E+04  0.14411132329E+04  0.25500000920E-02 0.  1.
        2   -1    0    0  501    0  0.00000000000E+00  0.00000000000E+00 -0.85671094222E+03  0.85671094222E+03  0.25500000920E-02 0. -1.
    10030    2    1    2    0    0  0.00000000000E+00  0.00000000000E+00  0.58440229071E+03  0.22978241751E+04  0.22222668387E+04 0.  0.
        3    1    3    3  502    0  0.84700094676E+03  0.71437569750E+03  0.37793107001E+03  0.11707156550E+04  0.10100000352E+00 0. -1.
       -3    1    3    3    0  502 -0.84700094676E+03 -0.71437569750E+03  0.20647122070E+03  0.11271085201E+04  0.10100000352E+00 0.  1.
</event>
<event>
 5   0  0.4139628E-06  0.2524580E+04  0.7818609E-02  0.8394281E-01
        1   -1    0    0  501    0  0.00000000000E+00  0.00000000000E+00  0.22218027245E+04  0.22218027245E+04  0.50400001928E-02 0.  1.
       -1   -1    0    0    0  501  0.00000000000E+00  0.00000000000E+00 -0.71715451928E+03  0.71715451930E+03  0.50400001928E-02 0. -1.
    10030    2    1    2    0    0  0.00000000000E+00  0.00000000000E+00  0.15046482052E+04  0.29389572438E+04  0.25245798580E+04 0.  0.
        5    1    3    3  502    0  0.11526814838E+03  0.10665422167E+04 -0.22115668381E+02  0.10729912576E+04  0.46999998093E+01 0. -1.
       -5    1    3    3    0  502 -0.11526814838E+03 -0.10665422167E+04  0.15267638736E+04  0.18659659862E+04  0.46999998093E+01 0.  1.
</event>
<event>
 5   0  0.1001961E-05  0.3068195E+04  0.7818609E-02  0.8224521E-01
       -2   -1    0    0    0  501  0.00000000000E+00  0.00000000000E+00  0.90478832750E+03  0.90478832750E+03  0.25500000920E-02 0. -1.
        2   -1    0    0  501    0  0.00000000000E+00  0.00000000000E+00 -0.26011108475E+04  0.26011108475E+04  0.25500000920E-02 0.  1.
    10030    2    1    2    0    0  0.00000000000E+00  0.00000000000E+00 -0.16963225200E+04  0.35058991750E+04  0.30681947352E+04 0.  0.
        5    1    3    3  502    0  0.64111811675E+03 -0.91307002193E+03  0.35500094101E+03  0.11708018887E+04  0.46999998093E+01 0. -1.
       -5    1    3    3    0  502 -0.64111811675E+03  0.91307002193E+03 -0.20513234610E+04  0.23350972862E+04  0.46999998093E+01 0.  1.
</event>
<event>
 5   0  0.1001961E-05  0.2061313E+04  0.7818609E-02  0.8578479E-01
       -2   -1    0    0    0  501  0.00000000000E+00  0.00000000000E+00  0.18299364407E+04  0.18299364407E+04  0.25500000920E-02 0. -1.
        2   -1    0    0  501    0  0.00000000000E+00  0.00000000000E+00 -0.58048644000E+03  0.58048644000E+03  0.25500000920E-02 0.  1.
    10030    2    1    2    0    0  0.00000000000E+00  0.00000000000E+00  0.12494500007E+04  0.24104228807E+04  0.20613134549E+04 0.  0.
        5    1    3    3  502    0 -0.37025857423E+03 -0.47625686415E+03  0.16019086477E+04  0.17117375436E+04  0.46999998093E+01 0. -1.
       -5    1    3    3    0  502  0.37025857423E+03  0.47625686415E+03 -0.35245864703E+03  0.69868533712E+03  0.46999998093E+01 0.  1.
</event>
<event>
 5   0  0.1001961E-05  0.3111516E+04  0.7818609E-02  0.8212584E-01
       -2   -1    0    0    0  501  0.00000000000E+00  0.00000000000E+00  0.14845487756E+04  0.14845487756E+04  0.25500000920E-02 0.  1.
        2   -1    0    0  501    0  0.00000000000E+00  0.00000000000E+00 -0.16303832018E+04  0.16303832018E+04  0.25500000920E-02 0. -1.
    10030    2    1    2    0    0  0.00000000000E+00  0.00000000000E+00 -0.14583442627E+03  0.31149319774E+04  0.31115162773E+04 0.  0.
        5    1    3    3  502    0  0.61168779941E+03 -0.11519407941E+04 -0.92192351130E+03  0.15972146404E+04  0.46999998093E+01 0.  1.
       -5    1    3    3    0  502 -0.61168779941E+03  0.11519407941E+04  0.77608908503E+03  0.15177173369E+04  0.46999998093E+01 0. -1.
</event>
<event>
 5   0  0.3807334E-06  0.3053378E+04  0.7818609E-02  0.8228651E-01
       -1   -1    0    0    0  501  0.00000000000E+00  0.00000000000E+00  0.16114021098E+04  0.16114021098E+04  0.50400001928E-02 0. -1.
        1   -1    0    0  501    0  0.00000000000E+00  0.00000000000E+00 -0.14464288844E+04  0.14464288844E+04  0.50400001928E-02 0.  1.
    10030    2    1    2    0    0  0.00000000000E+00  0.00000000000E+00  0.16497322533E+03  0.30578309942E+04  0.30533775109E+04 0.  0.
        4    1    3    3  502    0  0.10532783486E+04 -0.10857854963E+04 -0.12385156738E+03  0.15177833334E+04  0.12699999809E+01 0.  1.
       -4    1    3    3    0  502 -0.10532783486E+04  0.10857854963E+04  0.28882479271E+03  0.15400476608E+04  0.12699999809E+01 0. -1.
</event>
<event>
 5   0  0.1108153E-05  0.3041771E+04  0.7818609E-02  0.8231902E-01
       -2   -1    0    0    0  501  0.00000000000E+00  0.00000000000E+00  0.11467288021E+04  0.11467288021E+04  0.25500000920E-02 0. -1.
        2   -1    0    0  501    0  0.00000000000E+00  0.00000000000E+00 -0.20171230730E+04  0.20171230730E+04  0.25500000920E-02 0.  1.
    10030    2    1    2    0    0  0.00000000000E+00  0.00000000000E+00 -0.87039427083E+03  0.31638518751E+04  0.30417712769E+04 0.  0.
        4    1    3    3  502    0  0.12126409104E+04  0.84678372855E+03 -0.80374968486E+03  0.16833169129E+04  0.12699999809E+01 0. -1.
       -4    1    3    3    0  502 -0.12126409104E+04 -0.84678372855E+03 -0.66644585968E+02  0.14805349622E+04  0.12699999809E+01 0.  1.
</event>
<event>
 5   0  0.4250961E-06  0.3092560E+04  0.7818609E-02  0.8217783E-01
        1   -1    0    0  501    0  0.00000000000E+00  0.00000000000E+00  0.18989128109E+04  0.18989128109E+04  0.50400001928E-02 0.  1.
       -1   -1    0    0    0  501  0.00000000000E+00  0.00000000000E+00 -0.12591320998E+04  0.12591320998E+04  0.50400001928E-02 0. -1.
    10030    2    1    2    0    0  0.00000000000E+00  0.00000000000E+00  0.63978071115E+03  0.31580449107E+04  0.30925601530E+04 0.  0.
        1    1    3    3  502    0  0.99720003947E+03  0.11740831615E+04  0.18249436602E+03  0.15511877328E+04  0.50400001928E-02 0. -1.
       -1    1    3    3    0  502 -0.99720003947E+03 -0.11740831615E+04  0.45728634513E+03  0.16068571779E+04  0.50400001928E-02 0.  1.
</event>
<event>
 5   0  0.4250961E-06  0.3277238E+04  0.7818609E-02  0.8168711E-01
        1   -1    0    0  501    0  0.00000000000E+00  0.00000000000E+00  0.13093746628E+04  0.13093746628E+04  0.50400001928E-02 0.  1.
       -1   -1    0    0    0  501  0.00000000000E+00  0.00000000000E+00 -0.20506529492E+04  0.20506529492E+04  0.50400001928E-02 0. -1.
    10030    2    1    2    0    0  0.00000000000E+00  0.00000000000E+00 -0.74127828639E+03  0.33600276120E+04  0.32772384801E+04 0.  0.
        1    1    3    3  502    0 -0.75032208375E+03  0.14545737170E+04 -0.28922866242E+03  0.16620532924E+04  0.50400001928E-02 0.  1.
       -1    1    3    3    0  502  0.75032208375E+03 -0.14545737170E+04 -0.45204962397E+03  0.16979743196E+04  0.50400001928E-02 0. -1.
</event>
<event>
 5   0  0.3848286E-06  0.3233528E+04  0.7818609E-02  0.8180018E-01
        1   -1    0    0  501    0  0.00000000000E+00  0.00000000000E+00  0.14925654817E+04  0.14925654817E+04  0.50400001928E-02 0.  1.
       -1   -1    0    0    0  501  0.00000000000E+00  0.00000000000E+00 -0.17512968396E+04  0.17512968396E+04  0.50400001928E-02 0. -1.
    10030    2    1    2    0    0  0.00000000000E+00  0.00000000000E+00 -0.25873135787E+03  0.32438623213E+04  0.32335276161E+04 0.  0.
        2    1    3    3  502    0 -0.55022912544E+03 -0.92181913842E+03 -0.13421225612E+04  0.17186609857E+04  0.25500000920E-02 0. -1.
       -2    1    3    3    0  502  0.55022912544E+03  0.92181913842E+03  0.10833912034E+04  0.15252013356E+04  0.25500000920E-02 0.  1.
</event>
<event>
 5   0  0.1108153E-05  0.3179411E+04  0.7818609E-02  0.8194276E-01
       -2   -1    0    0    0  501  0.00000000000E+00  0.00000000000E+00  0.15652755946E+04  0.15652755946E+04  0.25500000920E-02 0.  1.
        2   -1    0    0  501    0  0.00000000000E+00  0.00000000000E+00 -0.16145163212E+04  0.16145163212E+04  0.25500000920E-02 0. -1.
    10030    2    1    2    0    0  0.00000000000E+00  0.00000000000E+00 -0.49240726561E+02  0.31797919158E+04  0.31794106338E+04 0.  0.
        4    1    3    3  502    0 -0.24714014228E+03 -0.24307874503E+03 -0.15762560147E+04  0.16139238405E+04  0.12699999809E+01 0. -1.
       -4    1    3    3    0  502  0.24714014228E+03  0.24307874503E+03  0.15270152881E+04  0.15658680753E+04  0.12699999809E+01 0.  1.
</event>
<event>
 5   0  0.3807334E-06  0.2369531E+04  0.7818609E-02  0.8451000E-01
        1   -1    0    0  501    0  0.00000000000E+00  0.00000000000E+00  0.18812458838E+04  0.18812458838E+04  0.50400001928E-02 0.  1.
       -1   -1    0    0    0  501  0.00000000000E+00  0.00000000000E+00 -0.74613783087E+03  0.74613783089E+03  0.50400001928E-02 0. -1.
    10030    2    1    2    0    0  0.00000000000E+00  0.00000000000E+00  0.11351080529E+04  0.26273837147E+04  0.23695305215E+04 0.  0.
        4    1    3    3  502    0  0.10813299398E+04  0.42300263301E+03  0.30642401796E+03  0.12008759128E+04  0.12699999809E+01 0.  1.
       -4    1    3    3    0  502 -0.10813299398E+04 -0.42300263301E+03  0.82868403495E+03  0.14265078019E+04  0.12699999809E+01 0. -1.
</event>
<event>
 5   0  0.3838525E-06  0.3065398E+04  0.7818609E-02  0.8225299E-01
       -1   -1    0    0    0  501  0.00000000000E+00  0.00000000000E+00  0.20018896905E+04  0.20018896905E+04  0.50400001928E-02 0.  1.
        1   -1    0    0  501    0  0.00000000000E+00  0.00000000000E+00 -0.11734743091E+04  0.11734743091E+04  0.50400001928E-02 0. -1.
    10030    2    1    2    0    0  0.00000000000E+00  0.00000000000E+00  0.82841538138E+03  0.31753639997E+04  0.30653979328E+04 0.  0.
        3    1    3    3  502    0  0.79163203666E+03  0.38717102071E+03 -0.88480532997E+03  0.12487846743E+04  0.10100000352E+00 0. -1.
       -3    1    3    3    0  502 -0.79163203666E+03 -0.38717102071E+03  0.17132207114E+04  0.19265793253E+04  0.10100000352E+00 0.  1.
</event>
<event>
 5   0  0.9797278E-06  0.1556704E+04  0.7818609E-02  0.8847597E-01
       -2   -1    0    0    0  501  0.00000000000E+00  0.00000000000E+00  0.40006927350E+03  0.40006927350E+03  0.25500000920E-02 0. -1.
        2   -1    0    0  501    0  0.00000000000E+00  0.00000000000E+00 -0.15143168649E+04  0.15143168649E+04  0.25500000920E-02 0.  1.
    10030    2    1    2    0    0  0.00000000000E+00  0.00000000000E+00 -0.11142475914E+04  0.19143861384E+04  0.15567037586E+04 0.  0.
        1    1    3    3  502    0  0.45659489355E+03  0.40601129994E+03  0.35859037470E+02  0.61205387270E+03  0.50400001928E-02 0. -1.
       -1    1    3    3    0  502 -0.45659489355E+03 -0.40601129994E+03 -0.11501066289E+04  0.13023322657E+04  0.50400001928E-02 0.  1.
</event>
<event>
 5   0  0.1001961E-05  0.3155381E+04  0.7818609E-02  0.8200701E-01
       -2   -1    0    0    0  501  0.00000000000E+00  0.00000000000E+00  0.12762636512E+04  0.12762636512E+04  0.25500000920E-02 0.  1.
        2   -1    0    0  501    0  0.00000000000E+00  0.00000000000E+00 -0.19503084945E+04  0.19503084945E+04  0.25500000920E-02 0. -1.
    10030    2    1    2    0    0  0.00000000000E+00  0.00000000000E+00 -0.67404484328E+03  0.32265721456E+04  0.31553813336E+04 0.  0.
        5    1    3    3  502    0  0.68524769224E+03 -0.12438848199E+04  0.36570286866E+03  0.14664837275E+04  0.46999998093E+01 0.  1.
       -5    1    3    3    0  502 -0.68524769224E+03  0.12438848199E+04 -0.10397477119E+04  0.17600884181E+04  0.46999998093E+01 0. -1.
</event>
<event>
 5   0  0.3807334E-06  0.2774198E+04  0.7818609E-02  0.8311324E-01
        1   -1    0    0  501    0  0.00000000000E+00  0.00000000000E+00  0.90166685446E+03  0.90166685447E+03  0.50400001928E-02 0. -1.
       -1   -1    0    0    0  501  0.00000000000E+00  0.00000000000E+00 -0.21338737186E+04  0.21338737187E+04  0.50400001928E-02 0.  1.
    10030    2    1    2    0    0  0.00000000000E+00  0.00000000000E+00 -0.12322068642E+04  0.30355405731E+04  0.27741976885E+04 0.  0.
        4    1    3    3  502    0 -0.50666840282E+03 -0.73901302651E+03 -0.17747152324E+04  0.19880817118E+04  0.12699999809E+01 0.  1.
       -4    1    3    3    0  502  0.50666840282E+03  0.73901302651E+03  0.54250836819E+03  0.10474588613E+04  0.12699999809E+01 0. -1.
</event>
<event>
 5   0  0.9797278E-06  0.3081870E+04  0.7818609E-02  0.8220731E-01
       -2   -1    0    0    0  501  0.00000000000E+00  0.00000000000E+00  0.95566906423E+03  0.95566906424E+03  0.25500000920E-02 0.  1.
        2   -1    0    0  501    0  0.00000000000E+00  0.00000000000E+00 -0.24846259183E+04  0.24846259183E+04  0.25500000920E-02 0. -1.
    10030    2    1    2    0    0  0.00000000000E+00  0.00000000000E+00 -0.15289568541E+04  0.34402949825E+04  0.30818696444E+04 0.  0.
        1    1    3    3  502    0 -0.44210724287E+03  0.82913787107E+03  0.59885025942E+03  0.11142486512E+04  0.50400001928E-02 0.  1.
       -1    1    3    3    0  502  0.44210724287E+03 -0.82913787107E+03 -0.21278071135E+04  0.23260463314E+04  0.50400001928E-02 0. -1.
</event>
<event>
 5   0  0.1119100E-05  0.3096696E+04  0.7818609E-02  0.8216645E-01
       -2   -1    0    0    0  501  0.00000000000E+00  0.00000000000E+00  0.11953386256E+04  0.11953386256E+04  0.25500000920E-02 0.  1.
        2   -1    0    0  501    0  0.00000000000E+00  0.00000000000E+00 -0.20056092466E+04  0.20056092466E+04  0.25500000920E-02 0. -1.
    10030    2    1    2    0    0  0.00000000000E+00  0.00000000000E+00 -0.81027062097E+03  0.32009478722E+04  0.30966964335E+04 0.  0.
        2    1    3    3  502    0 -0.41509366113E+03 -0.32643363549E+03  0.10993789436E+04  0.12196293402E+04  0.25500000920E-02 0.  1.
       -2    1    3    3    0  502  0.41509366113E+03  0.32643363549E+03 -0.19096495645E+04  0.19813185320E+04  0.25500000920E-02 0. -1.
</event>
<event>
 5   0  0.4250961E-06  0.2407838E+04  0.7818609E-02  0.8436575E-01
       -1   -1    0    0    0  501  0.00000000000E+00  0.00000000000E+00  0.13256569220E+04  0.13256569220E+04  0.50400001928E-02 0.  1.
        1   -1    0    0  501    0  0.00000000000E+00  0.00000000000E+00 -0.10933605182E+04  0.10933605182E+04  0.50400001928E-02 0. -1.
    10030    2    1    2    0    0  0.00000000000E+00  0.00000000000E+00  0.23229640381E+03  0.24190174403E+04  0.24078379840E+04 0.  0.
        1    1    3    3  502    0  0.48948395621E+03  0.89572635181E+03  0.75746987518E+03  0.12710943523E+04  0.50400001928E-02 0.  1.
       -1    1    3    3    0  502 -0.48948395621E+03 -0.89572635181E+03 -0.52517347138E+03  0.11479230879E+04  0.50400001928E-02 0. -1.
</event>
<event>
 5   0  0.1119100E-05  0.2899830E+04  0.7818609E-02  0.8272928E-01
       -2   -1    0    0    0  501  0.00000000000E+00  0.00000000000E+00  0.94276825727E+03  0.94276825727E+03  0.25500000920E-02 0. -1.
        2   -1    0    0  501    0  0.00000000000E+00  0.00000000000E+00 -0.22298728380E+04  0.22298728380E+04  0.25500000920E-02 0.  1.
    10030    2    1    2    0    0  0.00000000000E+00  0.00000000000E+00 -0.12871045807E+04  0.31726410952E+04  0.28998298773E+04 0.  0.
        2    1    3    3  502    0  0.66348717821E+03  0.50789650691E+03 -0.19399678447E+04  0.21122616637E+04  0.25500000920E-02 0.  1.
       -2    1    3    3    0  502 -0.66348717821E+03 -0.50789650691E+03  0.65286326400E+03  0.10603794316E+04  0.25500000920E-02 0. -1.
</event>
<event>
 5   0  0.3848286E-06  0.3082183E+04  0.7818609E-02  0.8220645E-01
       -1   -1    0    0    0  501  0.00000000000E+00  0.00000000000E+00  0.14155336401E+04  0.14155336402E+04  0.50400001928E-02 0.  1.
        1   -1    0    0  501    0  0.00000000000E+00  0.00000000000E+00 -0.16777863676E+04  0.16777863676E+04  0.50400001928E-02 0. -1.
    10030    2    1    2    0    0  0.00000000000E+00  0.00000000000E+00 -0.26225272749E+03  0.30933200078E+04  0.30821830214E+04 0.  0.
        2    1    3    3  502    0 -0.66947271055E+03  0.91969549669E+03 -0.11745606837E+04  0.16351227222E+04  0.25500000920E-02 0. -1.
       -2    1    3    3    0  502  0.66947271055E+03 -0.91969549669E+03  0.91230795623E+03  0.14581972856E+04  0.25500000920E-02 0.  1.
</event>
<event>
 5   0  0.3807334E-06  0.3147828E+04  0.7818609E-02  0.8202733E-01
        1   -1    0    0  501    0  0.00000000000E+00  0.00000000000E+00  0.26717734209E+04  0.26717734209E+04  0.50400001928E-02 0. -1.
       -1   -1    0    0    0  501  0.00000000000E+00  0.00000000000E+00 -0.92717633873E+03  0.92717633874E+03  0.50400001928E-02 0.  1.
    10030    2    1    2    0    0  0.00000000000E+00  0.00000000000E+00  0.17445970822E+04  0.35989497596E+04  0.31478278850E+04 0.  0.
        4    1    3    3  502    0 -0.98762648884E+03 -0.36620013434E+03 -0.46478768231E+03  0.11513200347E+04  0.12699999809E+01 0.  1.
       -4    1    3    3    0  502  0.98762648884E+03  0.36620013434E+03  0.22093847645E+04  0.24476297249E+04  0.12699999809E+01 0. -1.
</event>
<event>
 5   0  0.9797278E-06  0.3129929E+04  0.7818609E-02  0.8207572E-01
        2   -1    0    0  501    0  0.00000000000E+00  0.00000000000E+00  0.23076635966E+04  0.23076635966E+04  0.25500000920E-02 0.  1.
       -2   -1    0    0    0  501  0.00000000000E+00  0.00000000000E+00 -0.10612957597E+04  0.10612957597E+04  0.25500000920E-02 0. -1.
    10030    2    1    2    0    0  0.00000000000E+00  0.00000000000E+00  0.12463678369E+04  0.33689593564E+04  0.31299288107E+04 0.  0.
        1    1    3    3  502    0 -0.38809789180E+03  0.38328180422E+03  0.22020341556E+04  0.22685853164E+04  0.50400001928E-02 0.  1.
       -1    1    3    3    0  502  0.38809789180E+03 -0.38328180422E+03 -0.95566631876E+03  0.11003740400E+04  0.50400001928E-02 0. -1.
</event>
<event>
 5   0  0.1119100E-05  0.3090836E+04  0.7818609E-02  0.8218257E-01
       -2   -1    0    0    0  501  0.00000000000E+00  0.00000000000E+00  0.12342544837E+04  0.12342544837E+04  0.25500000920E-02 0. -1.
        2   -1    0    0  501    0  0.00000000000E+00  0.00000000000E+00 -0.19350281951E+04  0.19350281951E+04  0.25500000920E-02 0.  1.
    10030    2    1    2    0    0  0.00000000000E+00  0.00000000000E+00 -0.70077371141E+03  0.31692826788E+04  0.30908362790E+04 0.  0.
        2    1    3    3  502    0 -0.19502150993E+02 -0.17932871356E+02 -0.19347953165E+04  0.19349767023E+04  0.25500000920E-02 0.  1.
       -2    1    3    3    0  502  0.19502150993E+02  0.17932871356E+02  0.12340216051E+04  0.12343059765E+04  0.25500000920E-02 0. -1.
</event>
<event>
 5   0  0.4250961E-06  0.2572527E+04  0.7818609E-02  0.8377593E-01
       -1   -1    0    0    0  501  0.00000000000E+00  0.00000000000E+00  0.12424993061E+04  0.12424993061E+04  0.50400001928E-02 0.  1.
        1   -1    0    0  501    0  0.00000000000E+00  0.00000000000E+00 -0.13315696588E+04  0.13315696588E+04  0.50400001928E-02 0. -1.
    10030    2    1    2    0    0  0.00000000000E+00  0.00000000000E+00 -0.89070352703E+02  0.25740689649E+04  0.25725274553E+04 0.  0.
        1    1    3    3  502    0  0.72835481700E+02 -0.12838901995E+04 -0.72753587142E+02  0.12880109224E+04  0.50400001928E-02 0.  1.
       -1    1    3    3    0  502 -0.72835481700E+02  0.12838901995E+04 -0.16316765562E+02  0.12860580425E+04  0.50400001928E-02 0. -1.
</event>
<event>
 5   0  0.3848286E-06  0.3178558E+04  0.7818609E-02  0.8194503E-01
       -1   -1    0    0    0  501  0.00000000000E+00  0.00000000000E+00  0.18204044342E+04  0.18204044342E+04  0.50400001928E-02 0. -1.
        1   -1    0    0  501    0  0.00000000000E+00  0.00000000000E+00 -0.13874983394E+04  0.13874983394E+04  0.50400001928E-02 0.  1.
    10030    2    1    2    0    0  0.00000000000E+00  0.00000000000E+00  0.43290609480E+03  0.32079027736E+04  0.31785582452E+04 0.  0.
        2    1    3    3  502    0 -0.99146545441E+03  0.12410563095E+04  0.16515447857E+03  0.15970286511E+04  0.25500000920E-02 0.  1.
       -2    1    3    3    0  502  0.99146545441E+03 -0.12410563095E+04  0.26775161623E+03  0.16108741225E+04  0.25500000920E-02 0. -1.
</event>
<event>
 5   0  0.9797278E-06  0.2232594E+04  0.7818609E-02  0.8504983E-01
        2   -1    0    0  501    0  0.00000000000E+00  0.00000000000E+00  0.19177944757E+04  0.19177944757E+04  0.25500000920E-02 0. -1.
       -2   -1    0    0    0  501  0.00000000000E+00  0.00000000000E+00 -0.64976664107E+03  0.64976664107E+03  0.25500000920E-02 0.  1.
    10030    2    1    2    0    0  0.00000000000E+00  0.00000000000E+00  0.12680278346E+04  0.25675611167E+04  0.22325938948E+04 0.  0.
        1    1    3    3  502    0  0.99348172132E+03 -0.48928465032E+03  0.47254361768E+03  0.12040360752E+04  0.50400001928E-02 0.  1.
       -1    1    3    3    0  502 -0.99348172132E+03  0.48928465032E+03  0.79548421692E+03  0.13635250416E+04  0.50400001928E-02 0. -1.
</event>
<event>
 5   0  0.3848286E-06  0.3027894E+04  0.7818609E-02  0.8235810E-01
        1   -1    0    0  501    0  0.00000000000E+00  0.00000000000E+00  0.18005603896E+04  0.18005603897E+04  0.50400001928E-02 0. -1.
       -1   -1    0    0    0  501  0.00000000000E+00  0.00000000000E+00 -0.12729564007E+04  0.12729564007E+04  0.50400001928E-02 0.  1.
    10030    2    1    2    0    0  0.00000000000E+00  0.00000000000E+00  0.52760398896E+03  0.30735167903E+04  0.30278935733E+04 0.  0.
        2    1    3    3  502    0  0.12223276353E+02  0.56703628135E+03  0.16886458018E+04  0.17813489823E+04  0.25500000920E-02 0. -1.
       -2    1    3    3    0  502 -0.12223276353E+02 -0.56703628135E+03 -0.11610418129E+04  0.12921678080E+04  0.25500000920E-02 0.  1.
</event>
<event>
 5   0  0.3838525E-06  0.2892460E+04  0.7818609E-02  0.8275124E-01
       -1   -1    0    0    0  501  0.00000000000E+00  0.00000000000E+00  0.86757321671E+03  0.86757321673E+03  0.50400001928E-02 0. -1.
        1   -1    0    0  501    0  0.00000000000E+00  0.00000000000E+00 -0.24108412319E+04  0.24108412319E+04  0.50400001928E-02 0.  1.
    10030    2    1    2    0    0  0.00000000000E+00  0.00000000000E+00 -0.15432680151E+04  0.32784144486E+04  0.28924600482E+04 0.  0.
        3    1    3    3  502    0  0.77820972962E+03 -0.10788501478E+04 -0.14148551744E+04  0.19419946446E+04  0.10100000352E+00 0.  1.
       -3    1    3    3    0  502 -0.77820972962E+03  0.10788501478E+04 -0.12841284072E+03  0.13364198040E+04  0.10100000352E+00 0. -1.
</event>
<event>
 5   0  0.9797278E-06  0.3108096E+04  0.7818609E-02  0.8213520E-01
       -2   -1    0    0    0  501  0.00000000000E+00  0.00000000000E+00  0.11833143551E+04  0.11833143551E+04  0.25500000920E-02 0.  1.
        2   -1    0    0  501    0  0.00000000000E+00  0.00000000000E+00 -0.20409328792E+04  0.20409328792E+04  0.25500000920E-02 0. -1.
    10030    2    1    2    0    0  0.00000000000E+00  0.00000000000E+00 -0.85761852419E+03  0.32242472343E+04  0.31080959919E+04 0.  0.
        1    1    3    3  502    0 -0.58535229718E+03  0.87584946605E+03 -0.16140093435E+04  0.19273753553E+04  0.50400001928E-02 0. -1.
       -1    1    3    3    0  502  0.58535229718E+03 -0.87584946605E+03  0.75639081935E+03  0.12968718790E+04  0.50400001928E-02 0.  1.
</event>
<event>
 5   0  0.1108153E-05  0.2962336E+04  0.7818609E-02  0.8254569E-01
       -2   -1    0    0    0  501  0.00000000000E+00  0.00000000000E+00  0.10471775374E+04  0.10471775374E+04  0.25500000920E-02 0.  1.
        2   -1    0    0  501    0  0.00000000000E+00  0.00000000000E+00 -0.20950203555E+04  0.20950203555E+04  0.25500000920E-02 0. -1.
    10030    2    1    2    0    0  0.00000000000E+00  0.00000000000E+00 -0.10478428180E+04  0.31421978929E+04  0.29623357384E+04 0.  0.
        4    1    3    3  502    0 -0.16487107886E+03 -0.93232557377E+03  0.68429138817E+03  0.11681908085E+04  0.12699999809E+01 0.  1.
       -4    1    3    3    0  502  0.16487107886E+03  0.93232557377E+03 -0.17321342062E+04  0.19740070844E+04  0.12699999809E+01 0. -1.
</event>
<event>
 5   0  0.1108153E-05  0.3150143E+04  0.7818609E-02  0.8202110E-01
       -2   -1    0    0    0  501  0.00000000000E+00  0.00000000000E+00  0.12946771989E+04  0.12946771989E+04  0.25500000920E-02 0. -1.
        2   -1    0    0  501    0  0.00000000000E+00  0.00000000000E+00 -0.19161918058E+04  0.19161918058E+04  0.25500000920E-02 0.  1.
    10030    2    1    2    0    0  0.00000000000E+00  0.00000000000E+00 -0.62151460694E+03  0.32108690047E+04  0.31501427521E+04 0.  0.
        4    1    3    3  502    0  0.10674557849E+04  0.29191836537E+03  0.83163842084E+03  0.13843056962E+04  0.12699999809E+01 0. -1.
       -4    1    3    3    0  502 -0.10674557849E+04 -0.29191836537E+03 -0.14531530278E+04  0.18265633084E+04  0.12699999809E+01 0.  1.
</event>
<event>
 5   0  0.1007567E-05  0.3017482E+04  0.7818609E-02  0.8238756E-01
       -2   -1    0    0    0  501  0.00000000000E+00  0.00000000000E+00  0.14730157283E+04  0.14730157283E+04  0.25500000920E-02 0. -1.
        2   -1    0    0  501    0  0.00000000000E+00  0.00000000000E+00 -0.15453329282E+04  0.15453329282E+04  0.25500000920E-02 0.  1.
    10030    2    1    2    0    0  0.00000000000E+00  0.00000000000E+00 -0.72317199957E+02  0.30183486565E+04  0.30174822013E+04 0.  0.
        3    1    3    3  502    0  0.12459142493E+03 -0.88400719312E+03  0.11804586907E+04  0.14800251590E+04  0.10100000352E+00 0. -1.
       -3    1    3    3    0  502 -0.12459142493E+03  0.88400719312E+03 -0.12527758906E+04  0.15383234975E+04  0.10100000352E+00 0.  1.
</event>
<event>
 5   0  0.4250961E-06  0.2872994E+04  0.7818609E-02  0.8280958E-01
        1   -1    0    0  501    0  0.00000000000E+00  0.00000000000E+00  0.16787119668E+04  0.16787119668E+04  0.50400001928E-02 0.  1.
       -1   -1    0    0    0  501  0.00000000000E+00  0.00000000000E+00 -0.12292303395E+04  0.12292303395E+04  0.50400001928E-02 0. -1.
    10030    2    1    2    0    0  0.00000000000E+00  0.00000000000E+00  0.44948162738E+03  0.29079423063E+04  0.28729940347E+04 0.  0.
        1    1    3    3  502    0  0.31987944720E+03  0.60028452184E+03 -0.10559009037E+04  0.12560219291E+04  0.50400001928E-02 0. -1.
       -1    1    3    3    0  502 -0.31987944720E+03 -0.60028452184E+03  0.15053825310E+04  0.16519203772E+04  0.50400001928E-02 0.  1.
</event>
<event>
 5   0  0.1119100E-05  0.3060746E+04  0.7818609E-02  0.8226594E-01
        2   -1    0    0  501    0  0.00000000000E+00  0.00000000000E+00  0.18779519144E+04  0.18779519144E+04  0.25500000920E-02 0.  1.
       -2   -1    0    0    0  501  0.00000000000E+00  0.00000000000E+00 -0.12471257724E+04  0.12471257724E+04  0.25500000920E-02 0. -1.
    10030    2    1    2    0    0  0.00000000000E+00  0.00000000000E+00  0.63082614200E+03  0.31250776868E+04  0.30607464657E+04 0.  0.
        2    1    3    3  502    0 -0.14519716154E+04  0.22923174228E+03 -0.11929788257E+03  0.14747883741E+04  0.25500000920E-02 0. -1.
       -2    1    3    3    0  502  0.14519716154E+04 -0.22923174228E+03  0.75012402457E+03  0.16502893127E+04  0.25500000920E-02 0.  1.
</event>
<event>
 5   0  0.9797278E-06  0.3110443E+04  0.7818609E-02  0.8212878E-01
       -2   -1    0    0    0  501  0.00000000000E+00  0.00000000000E+00  0.10496690006E+04  0.10496690006E+04  0.25500000920E-02 0.  1.
        2   -1    0    0  501    0  0.00000000000E+00  0.00000000000E+00 -0.23042632839E+04  0.23042632839E+04  0.25500000920E-02 0. -1.
    10030    2    1    2    0    0  0.00000000000E+00  0.00000000000E+00 -0.12545942832E+04  0.33539322845E+04  0.31104428871E+04 0.  0.
        1    1    3    3  502    0 -0.28017504130E+03 -0.19992630025E+03 -0.22626787951E+04  0.22887079126E+04  0.50400001928E-02 0. -1.
       -1    1    3    3    0  502  0.28017504130E+03  0.19992630025E+03  0.10080845119E+04  0.10652243719E+04  0.50400001928E-02 0.  1.
</event>
<event>
 5   0  0.3848286E-06  0.3179265E+04  0.7818609E-02  0.8194315E-01
        1   -1    0    0  501    0  0.00000000000E+00  0.00000000000E+00  0.26304877091E+04  0.26304877091E+04  0.50400001928E-02 0. -1.
       -1   -1    0    0    0  501  0.00000000000E+00  0.00000000000E+00 -0.96063215907E+03  0.96063215909E+03  0.50400001928E-02 0.  1.
    10030    2    1    2    0    0  0.00000000000E+00  0.00000000000E+00  0.16698555500E+04  0.35911198682E+04  0.31792647499E+04 0.  0.
        2    1    3    3  502    0 -0.80549300345E+03 -0.12437088969E+04  0.14850785940E+04  0.20978773151E+04  0.25500000920E-02 0. -1.
       -2    1    3    3    0  502  0.80549300345E+03  0.12437088969E+04  0.18477695601E+03  0.14932425531E+04  0.25500000920E-02 0.  1.
</event>
<event>
 5   0  0.3848286E-06  0.2746619E+04  0.7818609E-02  0.8320035E-01
        1   -1    0    0  501    0  0.00000000000E+00  0.00000000000E+00  0.22239406595E+04  0.22239406595E+04  0.50400001928E-02 0. -1.
       -1   -1    0    0    0  501  0.00000000000E+00  0.00000000000E+00 -0.84803485909E+03  0.84803485910E+03  0.50400001928E-02 0.  1.
    10030    2    1    2    0    0  0.00000000000E+00  0.00000000000E+00  0.13759058004E+04  0.30719755186E+04  0.27466191610E+04 0.  0.
        2    1    3    3  502    0 -0.11138883313E+04 -0.33802709924E+03 -0.12704063108E+03  0.11709606553E+04  0.25500000920E-02 0.  1.
       -2    1    3    3    0  502  0.11138883313E+04  0.33802709924E+03  0.15029464315E+04  0.19010148633E+04  0.25500000920E-02 0. -1.
</event>
<event>
 5   0  0.9797278E-06  0.3184681E+04  0.7818609E-02  0.8192875E-01
        2   -1    0    0  501    0  0.00000000000E+00  0.00000000000E+00  0.27856288111E+04  0.27856288111E+04  0.25500000920E-02 0.  1.
       -2   -1    0    0    0  501  0.00000000000E+00  0.00000000000E+00 -0.91022454279E+03  0.91022454279E+03  0.25500000920E-02 0. -1.
    10030    2    1    2    0    0  0.00000000000E+00  0.00000000000E+00  0.18754042683E+04  0.36958533539E+04  0.31846806502E+04 0.  0.
        1    1    3    3  502    0 -0.12511583314E+04  0.98469315509E+03  0.91098692626E+03  0.18343704532E+04  0.50400001928E-02 0. -1.
       -1    1    3    3    0  502  0.12511583314E+04 -0.98469315509E+03  0.96441734204E+03  0.18614829007E+04  0.50400001928E-02 0.  1.
</event>
<event>
 5   0  0.1108153E-05  0.1776516E+04  0.7818609E-02  0.8718889E-01
       -2   -1    0    0    0  501  0.00000000000E+00  0.00000000000E+00  0.54458259890E+03  0.54458259890E+03  0.25500000920E-02 0. -1.
        2   -1    0    0  501    0  0.00000000000E+00  0.00000000000E+00 -0.14488194256E+04  0.14488194256E+04  0.25500000920E-02 0.  1.
    10030    2    1    2    0    0  0.00000000000E+00  0.00000000000E+00 -0.90423682668E+03  0.19934020245E+04  0.17765155199E+04 0.  0.
        4    1    3    3  502    0 -0.41690631137E+02 -0.20974194819E+03 -0.14195033490E+04  0.14355212169E+04  0.12699999809E+01 0.  1.
       -4    1    3    3    0  502  0.41690631137E+02  0.20974194819E+03  0.51526652229E+03  0.55788080757E+03  0.12699999809E+01 0. -1.
</event>
<event>
 5   0  0.1108153E-05  0.3119655E+04  0.7818609E-02  0.8210364E-01
       -2   -1    0    0    0  501  0.00000000000E+00  0.00000000000E+00  0.14774132972E+04  0.14774132972E+04  0.25500000920E-02 0. -1.
        2   -1    0    0  501    0  0.00000000000E+00  0.00000000000E+00 -0.16468390593E+04  0.16468390593E+04  0.25500000920E-02 0.  1.
    10030    2    1    2    0    0  0.00000000000E+00  0.00000000000E+00 -0.16942576217E+03  0.31242523565E+04  0.31196550608E+04 0.  0.
        4    1    3    3  502    0  0.27385994457E+03 -0.14188916210E+04  0.50335566425E+03  0.15302356809E+04  0.12699999809E+01 0. -1.
       -4    1    3    3    0  502 -0.27385994457E+03  0.14188916210E+04 -0.67278142643E+03  0.15940166756E+04  0.12699999809E+01 0.  1.
</event>
<event>
 5   0  0.3838525E-06  0.3335665E+04  0.7818609E-02  0.8153879E-01
        1   -1    0    0  501    0  0.00000000000E+00  0.00000000000E+00  0.11707684015E+04  0.11707684015E+04  0.50400001928E-02 0.  1.
       -1   -1    0    0    0  501  0.00000000000E+00  0.00000000000E+00 -0.23759311509E+04  0.23759311509E+04  0.50400001928E-02 0. -1.
    10030    2    1    2    0    0  0.00000000000E+00  0.00000000000E+00 -0.12051627494E+04  0.35466995524E+04  0.33356649206E+04 0.  0.
        3    1    3    3  502    0 -0.13379076940E+04  0.94977106535E+03 -0.28430578380E+03  0.16652002472E+04  0.10100000352E+00 0.  1.
       -3    1    3    3    0  502  0.13379076940E+04 -0.94977106535E+03 -0.92085696564E+03  0.18814993053E+04  0.10100000352E+00 0. -1.
</event>
<event>
 5   0  0.4139628E-06  0.3116051E+04  0.7818609E-02  0.8211347E-01
       -1   -1    0    0    0  501  0.00000000000E+00  0.00000000000E+00  0.13674103501E+04  0.13674103501E+04  0.50400001928E-02 0.  1.
        1   -1    0    0  501    0  0.00000000000E+00  0.00000000000E+00 -0.17752119658E+04  0.17752119658E+04  0.50400001928E-02 0. -1.
    10030    2    1    2    0    0  0.00000000000E+00  0.00000000000E+00 -0.40780161574E+03  0.31426223159E+04  0.31160508441E+04 0.  0.
        5    1    3    3  502    0 -0.98763821524E+03  0.15747521265E+03 -0.14087399689E+04  0.17276568168E+04  0.46999998093E+01 0. -1.
       -5    1    3    3    0  502  0.98763821524E+03 -0.15747521265E+03  0.10009383531E+04  0.14149654991E+04  0.46999998093E+01 0.  1.
</event>
<event>
 5   0  0.1119100E-05  0.3138737E+04  0.7818609E-02  0.8205187E-01
        2   -1    0    0  501    0  0.00000000000E+00  0.00000000000E+00  0.14611478075E+04  0.14611478075E+04  0.25500000920E-02 0. -1.
       -2   -1    0    0    0  501  0.00000000000E+00  0.00000000000E+00 -0.16856043624E+04  0.16856043624E+04  0.25500000920E-02 0.  1.
    10030    2    1    2    0    0  0.00000000000E+00  0.00000000000E+00 -0.22445655492E+03  0.31467521700E+04  0.31387367641E+04 0.  0.
        2    1    3    3  502    0 -0.13664988825E+04  0.40022874428E+03 -0.77377310291E+03  0.16205638088E+04  0.25500000920E-02 0.  1.
       -2    1    3    3    0  502  0.13664988825E+04 -0.40022874428E+03  0.54931654799E+03  0.15261883611E+04  0.25500000920E-02 0. -1.
</event>
<event>
 5   0  0.3848286E-06  0.1820884E+04  0.7818609E-02  0.8695272E-01
       -1   -1    0    0    0  501  0.00000000000E+00  0.00000000000E+00  0.12059745907E+04  0.12059745907E+04  0.50400001928E-02 0.  1.
        1   -1    0    0  501    0  0.00000000000E+00  0.00000000000E+00 -0.68733178636E+03  0.68733178638E+03  0.50400001928E-02 0. -1.
    10030    2    1    2    0    0  0.00000000000E+00  0.00000000000E+00  0.51864280433E+03  0.18933063771E+04  0.18208840378E+04 0.  0.
        2    1    3    3  502    0  0.60834091601E+03 -0.33632947292E+03  0.87067662749E+03  0.11141247570E+04  0.25500000920E-02 0.  1.
       -2    1    3    3    0  502 -0.60834091601E+03  0.33632947292E+03 -0.35203382316E+03  0.77918162010E+03  0.25500000920E-02 0. -1.
</event>
<event>
 5   0  0.3848286E-06  0.1532087E+04  0.7818609E-02  0.8863392E-01
       -1   -1    0    0    0  501  0.00000000000E+00  0.00000000000E+00  0.94723182912E+03  0.94723182914E+03  0.50400001928E-02 0.  1.
        1   -1    0    0  501    0  0.00000000000E+00  0.00000000000E+00 -0.61951310436E+03  0.61951310438E+03  0.50400001928E-02 0. -1.
    10030    2    1    2    0    0  0.00000000000E+00  0.00000000000E+00  0.32771872476E+03  0.15667449335E+04  0.15320868527E+04 0.  0.
        2    1    3    3  502    0 -0.75669777901E+03 -0.11913956186E+03  0.17006011611E+03  0.78466948905E+03  0.25500000920E-02 0.  1.
       -2    1    3    3    0  502  0.75669777901E+03  0.11913956186E+03  0.15765860865E+03  0.78207544447E+03  0.25500000920E-02 0. -1.
</event>
<event>
 5   0  0.4250961E-06  0.3119656E+04  0.7818609E-02  0.8210364E-01
       -1   -1    0    0    0  501  0.00000000000E+00  0.00000000000E+00  0.11101670605E+04  0.11101670605E+04  0.50400001928E-02 0. -1.
        1   -1    0    0  501    0  0.00000000000E+00  0.00000000000E+00 -0.21916197487E+04  0.21916197487E+04  0.50400001928E-02 0.  1.
    10030    2    1    2    0    0  0.00000000000E+00  0.00000000000E+00 -0.10814526882E+04  0.33017868092E+04  0.31196564260E+04 0.  0.
        1    1    3    3  502    0 -0.47201013187E+02  0.45834197756E+03 -0.21179488016E+04  0.21674898916E+04  0.50400001928E-02 0.  1.
       -1    1    3    3    0  502  0.47201013187E+02 -0.45834197756E+03  0.10364961134E+04  0.11342969175E+04  0.50400001928E-02 0. -1.
</event>
<event>
 5   0  0.1119100E-05  0.3138423E+04  0.7818609E-02  0.8205271E-01
       -2   -1    0    0    0  501  0.00000000000E+00  0.00000000000E+00  0.16133997338E+04  0.16133997338E+04  0.25500000920E-02 0.  1.
        2   -1    0    0  501    0  0.00000000000E+00  0.00000000000E+00 -0.15262335482E+04  0.15262335482E+04  0.25500000920E-02 0. -1.
    10030    2    1    2    0    0  0.00000000000E+00  0.00000000000E+00  0.87166185657E+02  0.31396332820E+04  0.31384230438E+04 0.  0.
        2    1    3    3  502    0 -0.78785150029E+03  0.32231198050E+03 -0.12751929848E+04  0.15332032311E+04  0.25500000920E-02 0. -1.
       -2    1    3    3    0  502  0.78785150029E+03 -0.32231198050E+03  0.13623591705E+04  0.16064300510E+04  0.25500000920E-02 0.  1.
</event>
<event>
 5   0  0.1108153E-05  0.3118083E+04  0.7818609E-02  0.8210793E-01
       -2   -1    0    0    0  501  0.00000000000E+00  0.00000000000E+00  0.24434647496E+04  0.24434647496E+04  0.25500000920E-02 0. -1.
        2   -1    0    0  501    0  0.00000000000E+00  0.00000000000E+00 -0.99473930553E+03  0.99473930554E+03  0.25500000920E-02 0.  1.
    10030    2    1    2    0    0  0.00000000000E+00  0.00000000000E+00  0.14487254441E+04  0.34382040552E+04  0.31180830189E+04 0.  0.
        4    1    3    3  502    0  0.56412428013E+03 -0.95877109765E+03 -0.48008502920E+03  0.12115945977E+04  0.12699999809E+01 0.  1.
       -4    1    3    3    0  502 -0.56412428013E+03  0.95877109765E+03  0.19288104733E+04  0.22266094574E+04  0.12699999809E+01 0. -1.
</event>
<event>
 5   0  0.4250961E-06  0.3067772E+04  0.7818609E-02  0.8224639E-01
       -1   -1    0    0    0  501  0.00000000000E+00  0.00000000000E+00  0.17680407067E+04  0.17680407067E+04  0.50400001928E-02 0.  1.
        1   -1    0    0  501    0  0.00000000000E+00  0.00000000000E+00 -0.13307419952E+04  0.13307419952E+04  0.50400001928E-02 0. -1.
    10030    2    1    2    0    0  0.00000000000E+00  0.00000000000E+00  0.43729871151E+03  0.30987827020E+04  0.30677718414E+04 0.  0.
        1    1    3    3  502    0  0.41483047007E+03 -0.35905527166E+03  0.16655399248E+04  0.17535758461E+04  0.50400001928E-02 0.  1.
       -1    1    3    3    0  502 -0.41483047007E+03  0.35905527166E+03 -0.12282412133E+04  0.13452068558E+04  0.50400001928E-02 0. -1.
</event>
<event>
 5   0  0.9797278E-06  0.2290151E+04  0.7818609E-02  0.8481814E-01
       -2   -1    0    0    0  501  0.00000000000E+00  0.00000000000E+00  0.11252703314E+04  0.11252703314E+04  0.25500000920E-02 0.  1.
        2   -1    0    0  501    0  0.00000000000E+00  0.00000000000E+00 -0.11652294331E+04  0.11652294331E+04  0.25500000920E-02 0. -1.
    10030    2    1    2    0    0  0.00000000000E+00  0.00000000000E+00 -0.39959101689E+02  0.22904997645E+04  0.22901511831E+04 0.  0.
        1    1    3    3  502    0 -0.45169234630E+03  0.48066600452E+03 -0.95614142644E+03  0.11615817711E+04  0.50400001928E-02 0.  1.
       -1    1    3    3    0  502  0.45169234630E+03 -0.48066600452E+03  0.91618232475E+03  0.11289179934E+04  0.50400001928E-02 0. -1.
</event>
<event>
 5   0  0.3848286E-06  0.3085610E+04  0.7818609E-02  0.8219698E-01
       -1   -1    0    0    0  501  0.00000000000E+00  0.00000000000E+00  0.13644568238E+04  0.13644568238E+04  0.50400001928E-02 0.  1.
        1   -1    0    0  501    0  0.00000000000E+00  0.00000000000E+00 -0.17444645653E+04  0.17444645653E+04  0.50400001928E-02 0. -1.
    10030    2    1    2    0    0  0.00000000000E+00  0.00000000000E+00 -0.38000774154E+03  0.31089213891E+04  0.30856095541E+04 0.  0.
        2    1    3    3  502    0 -0.72655141794E+02  0.15409323963E+04 -0.21242418786E+03  0.15572011608E+04  0.25500000920E-02 0.  1.
       -2    1    3    3    0  502  0.72655141794E+02 -0.15409323963E+04 -0.16758355369E+03  0.15517202283E+04  0.25500000920E-02 0. -1.
</event>
<event>
 5   0  0.4250961E-06  0.3200301E+04  0.7818609E-02  0.8188738E-01
        1   -1    0    0  501    0  0.00000000000E+00  0.00000000000E+00  0.14923980759E+04  0.14923980759E+04  0.50400001928E-02 0.  1.
       -1   -1    0    0    0  501  0.00000000000E+00  0.00000000000E+00 -0.17156828639E+04  0.17156828639E+04  0.50400001928E-02 0. -1.
    10030    2    1    2    0    0  0.00000000000E+00  0.00000000000E+00 -0.22328478796E+03  0.32080809398E+04  0.32003011139E+04 0.  0.
        1    1    3    3  502    0  0.25756612744E+03  0.58497596539E+03  0.13588745029E+04  0.15016914146E+04  0.50400001928E-02 0.  1.
       -1    1    3    3    0  502 -0.25756612744E+03 -0.58497596539E+03 -0.15821592908E+04  0.17063895252E+04  0.50400001928E-02 0. -1.
</event>
<event>
 5   0  0.4250961E-06  0.2756118E+04  0.7818609E-02  0.8317023E-01
       -1   -1    0    0    0  501  0.00000000000E+00  0.00000000000E+00  0.94403753451E+03  0.94403753452E+03  0.50400001928E-02 0.  1.
        1   -1    0    0  501    0  0.00000000000E+00  0.00000000000E+00 -0.20116212785E+04  0.20116212785E+04  0.50400001928E-02 0. -1.
    10030    2    1    2    0    0  0.00000000000E+00  0.00000000000E+00 -0.10675837440E+04  0.29556588131E+04  0.27561175535E+04 0.  0.
        1    1    3    3  502    0  0.61250308865E+03 -0.51315412403E+03  0.67024037221E+03  0.10429330492E+04  0.50400001928E-02 0.  1.
       -1    1    3    3    0  502 -0.61250308865E+03  0.51315412403E+03 -0.17378241162E+04  0.19127257638E+04  0.50400001928E-02 0. -1.
</event>
<event>
 5   0  0.4250961E-06  0.3110954E+04  0.7818609E-02  0.8212738E-01
        1   -1    0    0  501    0  0.00000000000E+00  0.00000000000E+00  0.81290664771E+03  0.81290664773E+03  0.50400001928E-02 0. -1.
       -1   -1    0    0    0  501  0.00000000000E+00  0.00000000000E+00 -0.29763678494E+04  0.29763678495E+04  0.50400001928E-02 0.  1.
    10030    2    1    2    0    0  0.00000000000E+00  0.00000000000E+00 -0.21634612017E+04  0.37892744972E+04  0.31109543300E+04 0.  0.
        1    1    3    3  502    0  0.18477650666E+03 -0.55134269058E+03  0.67554129774E+03  0.89133448539E+03  0.50400001928E-02 0. -1.
       -1    1    3    3    0  502 -0.18477650666E+03  0.55134269058E+03 -0.28390024995E+04  0.28979400118E+04  0.50400001928E-02 0.  1.
</event>
<event>
 5   0  0.4250961E-06  0.2223949E+04  0.7818609E-02  0.8508526E-01
        1   -1    0    0  501    0  0.00000000000E+00  0.00000000000E+00  0.13998749674E+04  0.13998749674E+04  0.50400001928E-02 0.  1.
       -1   -1    0    0    0  501  0.00000000000E+00  0.00000000000E+00 -0.88328426935E+03  0.88328426936E+03  0.50400001928E-02 0. -1.
    10030    2    1    2    0    0  0.00000000000E+00  0.00000000000E+00  0.51659069809E+03  0.22831592368E+04  0.22239492241E+04 0.  0.
        1    1    3    3  502    0 -0.12207060890E+03 -0.86246591434E+03  0.96788392481E+03  0.13021320896E+04  0.50400001928E-02 0.  1.
       -1    1    3    3    0  502  0.12207060890E+03  0.86246591434E+03 -0.45129322673E+03  0.98102714716E+03  0.50400001928E-02 0. -1.
</event>
<event>
 5   0  0.3848286E-06  0.1818466E+04  0.7818609E-02  0.8696541E-01
        1   -1    0    0  501    0  0.00000000000E+00  0.00000000000E+00  0.12364881035E+04  0.12364881035E+04  0.50400001928E-02 0. -1.
       -1   -1    0    0    0  501  0.00000000000E+00  0.00000000000E+00 -0.66859070577E+03  0.66859070579E+03  0.50400001928E-02 0.  1.
    10030    2    1    2    0    0  0.00000000000E+00  0.00000000000E+00  0.56789739770E+03  0.19050788093E+04  0.18184657861E+04 0.  0.
        2    1    3    3  502    0 -0.90742195170E+03  0.49996615951E+02  0.25449942338E+03  0.94376067757E+03  0.25500000920E-02 0. -1.
       -2    1    3    3    0  502  0.90742195170E+03 -0.49996615951E+02  0.31339797431E+03  0.96131813170E+03  0.25500000920E-02 0.  1.
</event>
<event>
 5   0  0.3807334E-06  0.1555054E+04  0.7818609E-02  0.8848646E-01
       -1   -1    0    0    0  501  0.00000000000E+00  0.00000000000E+00  0.16725558789E+04  0.16725558789E+04  0.50400001928E-02 0. -1.
        1   -1    0    0  501    0  0.00000000000E+00  0.00000000000E+00 -0.36145184677E+03  0.36145184681E+03  0.50400001928E-02 0.  1.
    10030    2    1    2    0    0  0.00000000000E+00  0.00000000000E+00  0.13111040321E+04  0.20340077257E+04  0.15550542258E+04 0.  0.
        4    1    3    3  502    0 -0.49818567787E+03  0.41624597479E+03  0.12152423592E+04  0.13777754845E+04  0.12699999809E+01 0. -1.
       -4    1    3    3    0  502  0.49818567787E+03 -0.41624597479E+03  0.95861672903E+02  0.65623224120E+03  0.12699999809E+01 0.  1.
</event>
<event>
 5   0  0.1119100E-05  0.3094383E+04  0.7818609E-02  0.8217281E-01
       -2   -1    0    0    0  501  0.00000000000E+00  0.00000000000E+00  0.11231553858E+04  0.11231553858E+04  0.25500000920E-02 0.  1.
        2   -1    0    0  501    0  0.00000000000E+00  0.00000000000E+00 -0.21313179486E+04  0.21313179486E+04  0.25500000920E-02 0. -1.
    10030    2    1    2    0    0  0.00000000000E+00  0.00000000000E+00 -0.10081625629E+04  0.32544733344E+04  0.30943828029E+04 0.  0.
        2    1    3    3  502    0 -0.32354341922E+03  0.91150284355E+03  0.76598870433E+03  0.12337975819E+04  0.25500000920E-02 0.  1.
       -2    1    3    3    0  502  0.32354341922E+03 -0.91150284355E+03 -0.17741512672E+04  0.20206757525E+04  0.25500000920E-02 0. -1.
</event>
<event>
 5   0  0.3848286E-06  0.1941331E+04  0.7818609E-02  0.8634553E-01
        1   -1    0    0  501    0  0.00000000000E+00  0.00000000000E+00  0.10657874440E+04  0.10657874440E+04  0.50400001928E-02 0. -1.
       -1   -1    0    0    0  501  0.00000000000E+00  0.00000000000E+00 -0.88403285936E+03  0.88403285937E+03  0.50400001928E-02 0.  1.
    10030    2    1    2    0    0  0.00000000000E+00  0.00000000000E+00  0.18175458464E+03  0.19498203034E+04  0.19413305969E+04 0.  0.
        2    1    3    3  502    0 -0.41901097742E+03 -0.74895863519E+03  0.54638225300E+03  0.10173705337E+04  0.25500000920E-02 0. -1.
       -2    1    3    3    0  502  0.41901097742E+03  0.74895863519E+03 -0.36462766836E+03  0.93244976968E+03  0.25500000920E-02 0.  1.
</event>
<event>
 5   0  0.4139628E-06  0.2776147E+04  0.7818609E-02  0.8310712E-01
        1   -1    0    0  501    0  0.00000000000E+00  0.00000000000E+00  0.19917187396E+04  0.19917187397E+04  0.50400001928E-02 0.  1.
       -1   -1    0    0    0  501  0.00000000000E+00  0.00000000000E+00 -0.96737928370E+03  0.96737928371E+03  0.50400001928E-02 0. -1.
    10030    2    1    2    0    0  0.00000000000E+00  0.00000000000E+00  0.10243394560E+04  0.29590980234E+04  0.27761465723E+04 0.  0.
        5    1    3    3  502    0 -0.52110597611E+03 -0.81847007978E+03 -0.54585772454E+03  0.11132957627E+04  0.46999998093E+01 0. -1.
       -5    1    3    3    0  502  0.52110597611E+03  0.81847007978E+03  0.15701971805E+04  0.18458022607E+04  0.46999998093E+01 0.  1.
</event>
<event>
 5   0  0.9797278E-06  0.1810307E+04  0.7818609E-02  0.8700837E-01
        2   -1    0    0  501    0  0.00000000000E+00  0.00000000000E+00  0.97089840868E+03  0.97089840869E+03  0.25500000920E-02 0. -1.
       -2   -1    0    0    0  501  0.00000000000E+00  0.00000000000E+00 -0.84386053278E+03  0.84386053279E+03  0.25500000920E-02 0.  1.
    10030    2    1    2    0    0  0.00000000000E+00  0.00000000000E+00  0.12703787590E+03  0.18147589415E+04  0.18103069888E+04 0.  0.
        1    1    3    3  502    0 -0.28291747922E+03 -0.29124871000E+03 -0.74744191192E+03  0.85061008861E+03  0.50400001928E-02 0.  1.
       -1    1    3    3    0  502  0.28291747922E+03  0.29124871000E+03  0.87447978783E+03  0.96414885286E+03  0.50400001928E-02 0. -1.
</event>
<event>
 5   0  0.9797278E-06  0.3027711E+04  0.7818609E-02  0.8235862E-01
       -2   -1    0    0    0  501  0.00000000000E+00  0.00000000000E+00  0.13085752387E+04  0.13085752387E+04  0.25500000920E-02 0.  1.
        2   -1    0    0  501    0  0.00000000000E+00  0.00000000000E+00 -0.17513381678E+04  0.17513381678E+04  0.25500000920E-02 0. -1.
    10030    2    1    2    0    0  0.00000000000E+00  0.00000000000E+00 -0.44276292911E+03  0.30599134065E+04  0.30277105284E+04 0.  0.
        1    1    3    3  502    0 -0.11309662086E+03 -0.83852837530E+03  0.10472937137E+04  0.13463821169E+04  0.50400001928E-02 0.  1.
       -1    1    3    3    0  502  0.11309662086E+03  0.83852837530E+03 -0.14900566428E+04  0.17135312897E+04  0.50400001928E-02 0. -1.
</event>
<event>
 5   0  0.1119100E-05  0.3321332E+04  0.7818609E-02  0.8157489E-01
        2   -1    0    0  501    0  0.00000000000E+00  0.00000000000E+00  0.12159781385E+04  0.12159781385E+04  0.25500000920E-02 0.  1.
       -2   -1    0    0    0  501  0.00000000000E+00  0.00000000000E+00 -0.22679773975E+04  0.22679773975E+04  0.25500000920E-02 0. -1.
    10030    2    1    2    0    0  0.00000000000E+00  0.00000000000E+00 -0.10519992590E+04  0.34839555360E+04  0.33213316208E+04 0.  0.
        2    1    3    3  502    0 -0.19833937416E+03 -0.11258581433E+04  0.73751850249E+03  0.13604516191E+04  0.25500000920E-02 0.  1.
       -2    1    3    3    0  502  0.19833937416E+03  0.11258581433E+04 -0.17895177615E+04  0.21235039169E+04  0.25500000920E-02 0. -1.
</event>
<event>
 5   0  0.1001961E-05  0.3047936E+04  0.7818609E-02  0.8230173E-01
        2   -1    0    0  501    0  0.00000000000E+00  0.00000000000E+00  0.21768938586E+04  0.21768938586E+04  0.25500000920E-02 0.  1.
       -2   -1    0    0    0  501  0.00000000000E+00  0.00000000000E+00 -0.10668773082E+04  0.10668773082E+04  0.25500000920E-02 0. -1.
    10030    2    1    2    0    0  0.00000000000E+00  0.00000000000E+00  0.11100165504E+04  0.32437711668E+04  0.30479361281E+04 0.  0.
        5    1    3    3  502    0 -0.67556954080E+03  0.32877509407E+03 -0.85606637883E+03  0.11390166820E+04  0.46999998093E+01 0. -1.
       -5    1    3    3    0  502  0.67556954080E+03 -0.32877509407E+03  0.19660829292E+04  0.21047544848E+04  0.46999998093E+01 0.  1.
</event>
<event>
 5   0  0.3807334E-06  0.3118112E+04  0.7818609E-02  0.8210785E-01
        1   -1    0    0  501    0  0.00000000000E+00  0.00000000000E+00  0.10835877848E+04  0.10835877848E+04  0.50400001928E-02 0. -1.
       -1   -1    0    0    0  501  0.00000000000E+00  0.00000000000E+00 -0.22431558890E+04  0.22431558890E+04  0.50400001928E-02 0.  1.
    10030    2    1    2    0    0  0.00000000000E+00  0.00000000000E+00 -0.11595681042E+04  0.33267436738E+04  0.31181124552E+04 0.  0.
        4    1    3    3  502    0 -0.29550901110E+02  0.61115422339E+03  0.95013285177E+03  0.11301047692E+04  0.12699999809E+01 0. -1.
       -4    1    3    3    0  502  0.29550901110E+02 -0.61115422339E+03 -0.21097009560E+04  0.21966389046E+04  0.12699999809E+01 0.  1.
</event>
<event>
 5   0  0.9797278E-06  0.3026015E+04  0.7818609E-02  0.8236341E-01
       -2   -1    0    0    0  501  0.00000000000E+00  0.00000000000E+00  0.11838825273E+04  0.11838825273E+04  0.25500000920E-02 0.  1.
        2   -1    0    0  501    0  0.00000000000E+00  0.00000000000E+00 -0.19336304546E+04  0.19336304546E+04  0.25500000920E-02 0. -1.
    10030    2    1    2    0    0  0.00000000000E+00  0.00000000000E+00 -0.74974792729E+03  0.31175129818E+04  0.30260147451E+04 0.  0.
        1    1    3    3  502    0 -0.11759525912E+04 -0.60359772692E+03 -0.11333389039E+04  0.17411639164E+04  0.50400001928E-02 0. -1.
       -1    1    3    3    0  502  0.11759525912E+04  0.60359772692E+03  0.38359097658E+03  0.13763490655E+04  0.50400001928E-02 0.  1.
</event>
<event>
 5   0  0.4250961E-06  0.3026154E+04  0.7818609E-02  0.8236302E-01
        1   -1    0    0  501    0  0.00000000000E+00  0.00000000000E+00  0.26582992475E+04  0.26582992475E+04  0.50400001928E-02 0. -1.
       -1   -1    0    0    0  501  0.00000000000E+00  0.00000000000E+00 -0.86122806993E+03  0.86122806995E+03  0.50400001928E-02 0.  1.
    10030    2    1    2    0    0  0.00000000000E+00  0.00000000000E+00  0.17970711775E+04  0.35195273174E+04  0.30261539486E+04 0.  0.
        1    1    3    3  502    0 -0.10708652949E+04 -0.67051761171E+02 -0.34224143790E+03  0.11262227223E+04  0.50400001928E-02 0.  1.
       -1    1    3    3    0  502  0.10708652949E+04  0.67051761171E+02  0.21393126154E+04  0.23933045951E+04  0.50400001928E-02 0. -1.
</event>
<event>
 5   0  0.3848286E-06  0.3116779E+04  0.7818609E-02  0.8211148E-01
        1   -1    0    0  501    0  0.00000000000E+00  0.00000000000E+00  0.21528434579E+04  0.21528434579E+04  0.50400001928E-02 0. -1.
       -1   -1    0    0    0  501  0.00000000000E+00  0.00000000000E+00 -0.11280789791E+04  0.11280789791E+04  0.50400001928E-02 0.  1.
    10030    2    1    2    0    0  0.00000000000E+00  0.00000000000E+00  0.10247644788E+04  0.32809224370E+04  0.31167787539E+04 0.  0.
        2    1    3    3  502    0  0.13552069370E+04  0.63152101345E+03  0.49721128705E+02  0.14959534830E+04  0.25500000920E-02 0.  1.
       -2    1    3    3    0  502 -0.13552069370E+04 -0.63152101345E+03  0.97504335005E+03  0.17849689541E+04  0.25500000920E-02 0. -1.
</event>
<event>
 5   0  0.4250961E-06  0.3100477E+04  0.7818609E-02  0.8215607E-01
       -1   -1    0    0    0  501  0.00000000000E+00  0.00000000000E+00  0.10139395083E+04  0.10139395083E+04  0.50400001928E-02 0. -1.
        1   -1    0    0  501    0  0.00000000000E+00  0.00000000000E+00 -0.23701994813E+04  0.23701994813E+04  0.50400001928E-02 0.  1.
    10030    2    1    2    0    0  0.00000000000E+00  0.00000000000E+00 -0.13562599730E+04  0.33841389896E+04  0.31004766708E+04 0.  0.
        1    1    3    3  502    0 -0.10054940054E+04  0.49322314341E+03  0.49182889053E+03  0.12231855630E+04  0.50400001928E-02 0. -1.
       -1    1    3    3    0  502  0.10054940054E+04 -0.49322314341E+03 -0.18480888636E+04  0.21609534265E+04  0.50400001928E-02 0.  1.
</event>
<event>
 5   0  0.4139628E-06  0.3022814E+04  0.7818609E-02  0.8237246E-01
       -1   -1    0    0    0  501  0.00000000000E+00  0.00000000000E+00  0.19221153406E+04  0.19221153406E+04  0.50400001928E-02 0.  1.
        1   -1    0    0  501    0  0.00000000000E+00  0.00000000000E+00 -0.11884571480E+04  0.11884571480E+04  0.50400001928E-02 0. -1.
    10030    2    1    2    0    0  0.00000000000E+00  0.00000000000E+00  0.73365819256E+03  0.31105724886E+04  0.30228143945E+04 0.  0.
        5    1    3    3  502    0  0.14954168613E+04  0.18790297441E+03  0.25063271430E+03  0.15278802192E+04  0.46999998093E+01 0. -1.
       -5    1    3    3    0  502 -0.14954168613E+04 -0.18790297441E+03  0.48302547826E+03  0.15826922694E+04  0.46999998093E+01 0.  1.
</event>
<event>
 5   0  0.3848286E-06  0.3317337E+04  0.7818609E-02  0.8158498E-01
       -1   -1    0    0    0  501  0.00000000000E+00  0.00000000000E+00  0.26960246040E+04  0.26960246040E+04  0.50400001928E-02 0.  1.
        1   -1    0    0  501    0  0.00000000000E+00  0.00000000000E+00 -0.10204585676E+04  0.10204585677E+04  0.50400001928E-02 0. -1.
    10030    2    1    2    0    0  0.00000000000E+00  0.00000000000E+00  0.16755660363E+04  0.37164831716E+04  0.33173371283E+04 0.  0.
        2    1    3    3  502    0 -0.56817157955E+03 -0.15849955823E+03  0.25745484439E+04  0.26412574172E+04  0.25500000920E-02 0.  1.
       -2    1    3    3    0  502  0.56817157955E+03  0.15849955823E+03 -0.89898240762E+03  0.10752257544E+04  0.25500000920E-02 0. -1.
</event>
<event>
 5   0  0.9797278E-06  0.3060957E+04  0.7818609E-02  0.8226535E-01
        2   -1    0    0  501    0  0.00000000000E+00  0.00000000000E+00  0.19842507871E+04  0.19842507871E+04  0.25500000920E-02 0. -1.
       -2   -1    0    0    0  501  0.00000000000E+00  0.00000000000E+00 -0.11804778257E+04  0.11804778257E+04  0.25500000920E-02 0.  1.
    10030    2    1    2    0    0  0.00000000000E+00  0.00000000000E+00  0.80377296142E+03  0.31647286128E+04  0.30609567489E+04 0.  0.
        1    1    3    3  502    0  0.41791352558E+03 -0.10814982676E+04 -0.63101908166E+03  0.13200285221E+04  0.50400001928E-02 0.  1.
       -1    1    3    3    0  502 -0.41791352558E+03  0.10814982676E+04  0.14347920431E+04  0.18447000907E+04  0.50400001928E-02 0. -1.
</event>
<event>
 5   0  0.1007567E-05  0.3071524E+04  0.7818609E-02  0.8223597E-01
       -2   -1    0    0    0  501  0.00000000000E+00  0.00000000000E+00  0.18135196000E+04  0.18135196001E+04  0.25500000920E-02 0.  1.
        2   -1    0    0  501    0  0.00000000000E+00  0.00000000000E+00 -0.13005452624E+04  0.13005452624E+04  0.25500000920E-02 0. -1.
    10030    2    1    2    0    0  0.00000000000E+00  0.00000000000E+00  0.51297433766E+03  0.31140648624E+04  0.30715236116E+04 0.  0.
        3    1    3    3  502    0  0.16059905948E+03  0.10736938744E+04  0.13577888011E+04  0.17384478803E+04  0.10100000352E+00 0.  1.
       -3    1    3    3    0  502 -0.16059905948E+03 -0.10736938744E+04 -0.84481446342E+03  0.13756169822E+04  0.10100000352E+00 0. -1.
</event>
<event>
 5   0  0.4250961E-06  0.1682600E+04  0.7818609E-02  0.8771351E-01
       -1   -1    0    0    0  501  0.00000000000E+00  0.00000000000E+00  0.98389230479E+03  0.98389230481E+03  0.50400001928E-02 0. -1.
        1   -1    0    0  501    0  0.00000000000E+00  0.00000000000E+00 -0.71937280550E+03  0.71937280552E+03  0.50400001928E-02 0.  1.
    10030    2    1    2    0    0  0.00000000000E+00  0.00000000000E+00  0.26451949929E+03  0.17032651103E+04  0.16825996168E+04 0.  0.
        1    1    3    3  502    0  0.52791605284E+03 -0.59031201214E+03 -0.15516723605E+03  0.80699473461E+03  0.50400001928E-02 0.  1.
       -1    1    3    3    0  502 -0.52791605284E+03  0.59031201214E+03  0.41968673534E+03  0.89627037571E+03  0.50400001928E-02 0. -1.
</event>
<event>
 5   0  0.3848286E-06  0.2046037E+04  0.7818609E-02  0.8585394E-01
        1   -1    0    0  501    0  0.00000000000E+00  0.00000000000E+00  0.20603753802E+04  0.20603753802E+04  0.50400001928E-02 0.  1.
       -1   -1    0    0    0  501  0.00000000000E+00  0.00000000000E+00 -0.50794964371E+03  0.50794964373E+03  0.50400001928E-02 0. -1.
    10030    2    1    2    0    0  0.00000000000E+00  0.00000000000E+00  0.15524257365E+04  0.25683250239E+04  0.20460370870E+04 0.  0.
        2    1    3    3  502    0  0.37399016829E+03  0.60356114440E+03  0.17007007483E+04  0.18429698143E+04  0.25500000920E-02 0.  1.
       -2    1    3    3    0  502 -0.37399016829E+03 -0.60356114440E+03 -0.14827501185E+03  0.72535520964E+03  0.25500000920E-02 0. -1.
</event>
<event>
 5   0  0.3807334E-06  0.2953843E+04  0.7818609E-02  0.8257035E-01
        1   -1    0    0  501    0  0.00000000000E+00  0.00000000000E+00  0.18587306592E+04  0.18587306592E+04  0.50400001928E-02 0.  1.
       -1   -1    0    0    0  501  0.00000000000E+00  0.00000000000E+00 -0.11735415102E+04  0.11735415102E+04  0.50400001928E-02 0. -1.
    10030    2    1    2    0    0  0.00000000000E+00  0.00000000000E+00  0.68518914895E+03  0.30322721694E+04  0.29538433167E+04 0.  0.
        4    1    3    3  502    0 -0.10981253711E+04 -0.97649018586E+03  0.19073586827E+03  0.14818212436E+04  0.12699999809E+01 0.  1.
       -4    1    3    3    0  502  0.10981253711E+04  0.97649018586E+03  0.49445328068E+03  0.15504509258E+04  0.12699999809E+01 0. -1.
</event>
<event>
 5   0  0.3848286E-06  0.3025922E+04  0.7818609E-02  0.8236367E-01
        1   -1    0    0  501    0  0.00000000000E+00  0.00000000000E+00  0.25691562833E+04  0.25691562833E+04  0.50400001928E-02 0.  1.
       -1   -1    0    0    0  501  0.00000000000E+00  0.00000000000E+00 -0.89097364759E+03  0.89097364761E+03  0.50400001928E-02 0. -1.
    10030    2    1    2    0    0  0.00000000000E+00  0.00000000000E+00  0.16781826357E+04  0.34601299309E+04  0.30259217075E+04 0.  0.
        2    1    3    3  502    0  0.30533463271E+03 -0.66086814397E+03 -0.67752892921E+03  0.99449554627E+03  0.25500000920E-02 0. -1.
       -2    1    3    3    0  502 -0.30533463271E+03  0.66086814397E+03  0.23557115649E+04  0.24656343846E+04  0.25500000920E-02 0.  1.
</event>
<event>
 5   0  0.3838525E-06  0.1729164E+04  0.7818609E-02  0.8744904E-01
        1   -1    0    0  501    0  0.00000000000E+00  0.00000000000E+00  0.14942855004E+04  0.14942855004E+04  0.50400001928E-02 0. -1.
       -1   -1    0    0    0  501  0.00000000000E+00  0.00000000000E+00 -0.50024023332E+03  0.50024023334E+03  0.50400001928E-02 0.  1.
    10030    2    1    2    0    0  0.00000000000E+00  0.00000000000E+00  0.99404526712E+03  0.19945257338E+04  0.17291636446E+04 0.  0.
        3    1    3    3  502    0  0.73975574763E+03  0.39903989836E+03  0.73066734231E+03  0.11137083020E+04  0.10100000352E+00 0.  1.
       -3    1    3    3    0  502 -0.73975574763E+03 -0.39903989836E+03  0.26337792481E+03  0.88081743178E+03  0.10100000352E+00 0. -1.
</event>
<event>
 5   0  0.9797278E-06  0.2991150E+04  0.7818609E-02  0.8246262E-01
        2   -1    0    0  501    0  0.00000000000E+00  0.00000000000E+00  0.22570128790E+04  0.22570128790E+04  0.25500000920E-02 0.  1.
       -2   -1    0    0    0  501  0.00000000000E+00  0.00000000000E+00 -0.99102003900E+03  0.99102003900E+03  0.25500000920E-02 0. -1.
    10030    2    1    2    0    0  0.00000000000E+00  0.00000000000E+00  0.12659928400E+04  0.32480329180E+04  0.29911502746E+04 0.  0.
        1    1    3    3  502    0 -0.14285143594E+04  0.11479180412E+03  0.10974115134E+04  0.18050325379E+04  0.50400001928E-02 0.  1.
       -1    1    3    3    0  502  0.14285143594E+04 -0.11479180412E+03  0.16858132660E+03  0.14430003801E+04  0.50400001928E-02 0. -1.
</event>
<event>
 5   0  0.4139628E-06  0.3108260E+04  0.7818609E-02  0.8213475E-01
       -1   -1    0    0    0  501  0.00000000000E+00  0.00000000000E+00  0.16272961138E+04  0.16272961138E+04  0.50400001928E-02 0. -1.
        1   -1    0    0  501    0  0.00000000000E+00  0.00000000000E+00 -0.14842537812E+04  0.14842537812E+04  0.50400001928E-02 0.  1.
    10030    2    1    2    0    0  0.00000000000E+00  0.00000000000E+00  0.14304233263E+03  0.31115498950E+04  0.31082602272E+04 0.  0.
        5    1    3    3  502    0  0.50904635931E+02  0.11094054870E+03  0.16224830966E+04  0.16270748526E+04  0.46999998093E+01 0. -1.
       -5    1    3    3    0  502 -0.50904635931E+02 -0.11094054870E+03 -0.14794407640E+04  0.14844750424E+04  0.46999998093E+01 0.  1.
</event>
<event>
 5   0  0.1119100E-05  0.3251423E+04  0.7818609E-02  0.8175367E-01
        2   -1    0    0  501    0  0.00000000000E+00  0.00000000000E+00  0.28545193989E+04  0.28545193989E+04  0.25500000920E-02 0. -1.
       -2   -1    0    0    0  501  0.00000000000E+00  0.00000000000E+00 -0.92587848873E+03  0.92587848874E+03  0.25500000920E-02 0.  1.
    10030    2    1    2    0    0  0.00000000000E+00  0.00000000000E+00  0.19286409101E+04  0.37803978876E+04  0.32514231389E+04 0.  0.
        2    1    3    3  502    0  0.50816982250E+03  0.11568124920E+04  0.21537283405E+04  0.24969976922E+04  0.25500000920E-02 0. -1.
       -2    1    3    3    0  502 -0.50816982250E+03 -0.11568124920E+04 -0.22508743037E+03  0.12834001954E+04  0.25500000920E-02 0.  1.
</event>
<event>
 5   0  0.3848286E-06  0.3066067E+04  0.7818609E-02  0.8225113E-01
       -1   -1    0    0    0  501  0.00000000000E+00  0.00000000000E+00  0.12035602891E+04  0.12035602891E+04  0.50400001928E-02 0. -1.
        1   -1    0    0  501    0  0.00000000000E+00  0.00000000000E+00 -0.19526994793E+04  0.19526994793E+04  0.50400001928E-02 0.  1.
    10030    2    1    2    0    0  0.00000000000E+00  0.00000000000E+00 -0.74913919020E+03  0.31562597685E+04  0.30660668942E+04 0.  0.
        2    1    3    3  502    0 -0.10122562149E+04  0.83970054036E+03  0.43627602684E+03  0.13856754359E+04  0.25500000920E-02 0. -1.
       -2    1    3    3    0  502  0.10122562149E+04 -0.83970054036E+03 -0.11854152170E+04  0.17705843326E+04  0.25500000920E-02 0.  1.
</event>
<event>
 5   0  0.1007567E-05  0.3194470E+04  0.7818609E-02  0.8190279E-01
        2   -1    0    0  501    0  0.00000000000E+00  0.00000000000E+00  0.14814693502E+04  0.14814693502E+04  0.25500000920E-02 0. -1.
       -2   -1    0    0    0  501  0.00000000000E+00  0.00000000000E+00 -0.17220470462E+04  0.17220470462E+04  0.25500000920E-02 0.  1.
    10030    2    1    2    0    0  0.00000000000E+00  0.00000000000E+00 -0.24057769594E+03  0.32035163964E+04  0.31944701711E+04 0.  0.
        3    1    3    3  502    0 -0.13633801871E+04 -0.38681531506E+03  0.61849831795E+03  0.15462767546E+04  0.10100000352E+00 0. -1.
       -3    1    3    3    0  502  0.13633801871E+04  0.38681531506E+03 -0.85907601390E+03  0.16572396418E+04  0.10100000352E+00 0.  1.
</event>
<event>
 5   0  0.4250961E-06  0.3075511E+04  0.7818609E-02  0.8222491E-01
       -1   -1    0    0    0  501  0.00000000000E+00  0.00000000000E+00  0.89198885120E+03  0.89198885122E+03  0.50400001928E-02 0.  1.
        1   -1    0    0  501    0  0.00000000000E+00  0.00000000000E+00 -0.26510323727E+04  0.26510323727E+04  0.50400001928E-02 0. -1.
    10030    2    1    2    0    0  0.00000000000E+00  0.00000000000E+00 -0.17590435215E+04  0.35430212240E+04  0.30755105727E+04 0.  0.
        1    1    3    3  502    0 -0.23877394104E+03 -0.14920859918E+04 -0.12081129479E+04  0.19346499675E+04  0.50400001928E-02 0. -1.
       -1    1    3    3    0  502  0.23877394104E+03  0.14920859918E+04 -0.55093057363E+03  0.16083712565E+04  0.50400001928E-02 0.  1.
</event>
<event>
 5   0  0.1007567E-05  0.3101531E+04  0.7818609E-02  0.8215318E-01
        2   -1    0    0  501    0  0.00000000000E+00  0.00000000000E+00  0.19568845985E+04  0.19568845985E+04  0.25500000920E-02 0. -1.
       -2   -1    0    0    0  501  0.00000000000E+00  0.00000000000E+00 -0.12289296788E+04  0.12289296788E+04  0.25500000920E-02 0.  1.
    10030    2    1    2    0    0  0.00000000000E+00  0.00000000000E+00  0.72795491962E+03  0.31858142773E+04  0.31015309517E+04 0.  0.
        3    1    3    3  502    0 -0.10113398084E+04  0.15627082756E+03 -0.83286616377E+03  0.13194297392E+04  0.10100000352E+00 0.  1.
       -3    1    3    3    0  502  0.10113398084E+04 -0.15627082756E+03  0.15608210834E+04  0.18663845381E+04  0.10100000352E+00 0. -1.
</event>
<event>
 5   0  0.3838525E-06  0.3054621E+04  0.7818609E-02  0.8228303E-01
       -1   -1    0    0    0  501  0.00000000000E+00  0.00000000000E+00  0.18699206024E+04  0.18699206024E+04  0.50400001928E-02 0. -1.
        1   -1    0    0  501    0  0.00000000000E+00  0.00000000000E+00 -0.12474742460E+04  0.12474742460E+04  0.50400001928E-02 0.  1.
    10030    2    1    2    0    0  0.00000000000E+00  0.00000000000E+00  0.62244635635E+03  0.31173948484E+04  0.30546212817E+04 0.  0.
        3    1    3    3  502    0  0.67026086757E+03 -0.10153930612E+04  0.12534543239E+04  0.17468315464E+04  0.10100000352E+00 0. -1.
       -3    1    3    3    0  502 -0.67026086757E+03  0.10153930612E+04 -0.63100796754E+03  0.13705633020E+04  0.10100000352E+00 0.  1.
</event>
<event>
 5   0  0.4139628E-06  0.2862324E+04  0.7818609E-02  0.8284176E-01
       -1   -1    0    0    0  501  0.00000000000E+00  0.00000000000E+00  0.11101431683E+04  0.11101431683E+04  0.50400001928E-02 0.  1.
        1   -1    0    0  501    0  0.00000000000E+00  0.00000000000E+00 -0.18450091657E+04  0.18450091657E+04  0.50400001928E-02 0. -1.
    10030    2    1    2    0    0  0.00000000000E+00  0.00000000000E+00 -0.73486599744E+03  0.29551523340E+04  0.28623237558E+04 0.  0.
        5    1    3    3  502    0  0.10976041054E+03 -0.75246416151E+03 -0.16191691027E+04  0.17888488855E+04  0.46999998093E+01 0. -1.
       -5    1    3    3    0  502 -0.10976041054E+03  0.75246416151E+03  0.88430310524E+03  0.11663034485E+04  0.46999998093E+01 0.  1.
</event>
<event>
 5   0  0.3838525E-06  0.2490885E+04  0.7818609E-02  0.8406240E-01
        1   -1    0    0  501    0  0.00000000000E+00  0.00000000000E+00  0.11717362882E+04  0.11717362882E+04  0.50400001928E-02 0.  1.
       -1   -1    0    0    0  501  0.00000000000E+00  0.00000000000E+00 -0.13237855992E+04  0.13237855992E+04  0.50400001928E-02 0. -1.
    10030    2    1    2    0    0  0.00000000000E+00  0.00000000000E+00 -0.15204931094E+03  0.24955218874E+04  0.24908854846E+04 0.  0.
        3    1    3    3  502    0  0.16354789698E+03 -0.85527750114E+03  0.81607090722E+03  0.11934065755E+04  0.10100000352E+00 0.  1.
       -3    1    3    3    0  502 -0.16354789698E+03  0.85527750114E+03 -0.96812021816E+03  0.13021153119E+04  0.10100000352E+00 0. -1.
</event>
<event>
 5   0  0.1001961E-05  0.3083132E+04  0.7818609E-02  0.8220383E-01
       -2   -1    0    0    0  501  0.00000000000E+00  0.00000000000E+00  0.10926622553E+04  0.10926622553E+04  0.25500000920E-02 0. -1.
        2   -1    0    0  501    0  0.00000000000E+00  0.00000000000E+00 -0.21748945289E+04  0.21748945289E+04  0.25500000920E-02 0.  1.
    10030    2    1    2    0    0  0.00000000000E+00  0.00000000000E+00 -0.10822322736E+04  0.32675567842E+04  0.30831316294E+04 0.  0.
        5    1    3    3  502    0 -0.14113185836E+04  0.60469468065E+03 -0.39531024853E+03  0.15854867025E+04  0.46999998093E+01 0.  1.
       -5    1    3    3    0  502  0.14113185836E+04 -0.60469468065E+03 -0.68692202505E+03  0.16820700817E+04  0.46999998093E+01 0. -1.
</event>
<event>
 5   0  0.9797278E-06  0.2959962E+04  0.7818609E-02  0.8255257E-01
        2   -1    0    0  501    0  0.00000000000E+00  0.00000000000E+00  0.26967203320E+04  0.26967203320E+04  0.25500000920E-02 0. -1.
       -2   -1    0    0    0  501  0.00000000000E+00  0.00000000000E+00 -0.81222515057E+03  0.81222515057E+03  0.25500000920E-02 0.  1.
    10030    2    1    2    0    0  0.00000000000E+00  0.00000000000E+00  0.18844951814E+04  0.35089454826E+04  0.29599622144E+04 0.  0.
        1    1    3    3  502    0  0.14167262834E+04 -0.32204150289E+03  0.12765416056E+04  0.19340068672E+04  0.50400001928E-02 0. -1.
       -1    1    3    3    0  502 -0.14167262834E+04  0.32204150289E+03  0.60795357582E+03  0.15749386153E+04  0.50400001928E-02 0.  1.
</event>
<event>
 5   0  0.9797278E-06  0.3087267E+04  0.7818609E-02  0.8219241E-01
        2   -1    0    0  501    0  0.00000000000E+00  0.00000000000E+00  0.15806338187E+04  0.15806338187E+04  0.25500000920E-02 0.  1.
       -2   -1    0    0    0  501  0.00000000000E+00  0.00000000000E+00 -0.15074993898E+04  0.15074993898E+04  0.25500000920E-02 0. -1.
    10030    2    1    2    0    0  0.00000000000E+00  0.00000000000E+00  0.73134428939E+02  0.30881332085E+04  0.30872670874E+04 0.  0.
        1    1    3    3  502    0 -0.88766128808E+02  0.80284469469E+03 -0.12792353995E+04  0.15129052306E+04  0.50400001928E-02 0. -1.
       -1    1    3    3    0  502  0.88766128808E+02 -0.80284469469E+03  0.13523698284E+04  0.15752279779E+04  0.50400001928E-02 0.  1.
</event>
<event>
 5   0  0.3848286E-06  0.1727006E+04  0.7818609E-02  0.8746110E-01
       -1   -1    0    0    0  501  0.00000000000E+00  0.00000000000E+00  0.33859436151E+03  0.33859436154E+03  0.50400001928E-02 0. -1.
        1   -1    0    0  501    0  0.00000000000E+00  0.00000000000E+00 -0.22021552404E+04  0.22021552404E+04  0.50400001928E-02 0.  1.
    10030    2    1    2    0    0  0.00000000000E+00  0.00000000000E+00 -0.18635608789E+04  0.25407496020E+04  0.17270059034E+04 0.  0.
        2    1    3    3  502    0 -0.23433324907E+03  0.82529814073E+03 -0.78757212462E+03  0.11646024833E+04  0.25500000920E-02 0.  1.
       -2    1    3    3    0  502  0.23433324907E+03 -0.82529814073E+03 -0.10759887543E+04  0.13761471186E+04  0.25500000920E-02 0. -1.
</event>
<event>
 5   0  0.1001961E-05  0.3046609E+04  0.7818609E-02  0.8230545E-01
       -2   -1    0    0    0  501  0.00000000000E+00  0.00000000000E+00  0.13683208694E+04  0.13683208694E+04  0.25500000920E-02 0.  1.
        2   -1    0    0  501    0  0.00000000000E+00  0.00000000000E+00 -0.16958421842E+04  0.16958421842E+04  0.25500000920E-02 0. -1.
    10030    2    1    2    0    0  0.00000000000E+00  0.00000000000E+00 -0.32752131485E+03  0.30641630536E+04  0.30466087716E+04 0.  0.
        5    1    3    3  502    0 -0.14381001302E+04  0.14817696983E+02 -0.66873188067E+03  0.15860567351E+04  0.46999998093E+01 0. -1.
       -5    1    3    3    0  502  0.14381001302E+04 -0.14817696983E+02  0.34121056582E+03  0.14781063185E+04  0.46999998093E+01 0.  1.
</event>
<event>
 5   0  0.1119100E-05  0.2990695E+04  0.7818609E-02  0.8246393E-01
       -2   -1    0    0    0  501  0.00000000000E+00  0.00000000000E+00  0.14088480661E+04  0.14088480661E+04  0.25500000920E-02 0. -1.
        2   -1    0    0  501    0  0.00000000000E+00  0.00000000000E+00 -0.15871572437E+04  0.15871572437E+04  0.25500000920E-02 0.  1.
    10030    2    1    2    0    0  0.00000000000E+00  0.00000000000E+00 -0.17830917765E+03  0.29960053098E+04  0.29906945102E+04 0.  0.
        2    1    3    3  502    0  0.34144647736E+03 -0.75967202357E+03  0.11549751559E+04  0.14239574752E+04  0.25500000920E-02 0. -1.
       -2    1    3    3    0  502 -0.34144647736E+03  0.75967202357E+03 -0.13332843336E+04  0.15720478346E+04  0.25500000920E-02 0.  1.
</event>
<event>
 5   0  0.4139628E-06  0.3146782E+04  0.7818609E-02  0.8203015E-01
       -1   -1    0    0    0  501  0.00000000000E+00  0.00000000000E+00  0.93177624738E+03  0.93177624740E+03  0.50400001928E-02 0.  1.
        1   -1    0    0  501    0  0.00000000000E+00  0.00000000000E+00 -0.26568166257E+04  0.26568166257E+04  0.50400001928E-02 0. -1.
    10030    2    1    2    0    0  0.00000000000E+00  0.00000000000E+00 -0.17250403783E+04  0.35885928731E+04  0.31467816102E+04 0.  0.
        5    1    3    3  502    0 -0.77567205720E+03  0.88531544026E+03 -0.20531807301E+04  0.23666482142E+04  0.46999998093E+01 0. -1.
       -5    1    3    3    0  502  0.77567205720E+03 -0.88531544026E+03  0.32814035178E+03  0.12219446590E+04  0.46999998093E+01 0.  1.
</event>
<event>
 5   0  0.3807334E-06  0.2979620E+04  0.7818609E-02  0.8249574E-01
       -1   -1    0    0    0  501  0.00000000000E+00  0.00000000000E+00  0.97690105009E+03  0.97690105010E+03  0.50400001928E-02 0. -1.
        1   -1    0    0  501    0  0.00000000000E+00  0.00000000000E+00 -0.22720157116E+04  0.22720157117E+04  0.50400001928E-02 0.  1.
    10030    2    1    2    0    0  0.00000000000E+00  0.00000000000E+00 -0.12951146616E+04  0.32489167618E+04  0.29796204688E+04 0.  0.
        4    1    3    3  502    0  0.66407142919E+03 -0.12232834688E+04 -0.12267116183E+04  0.18553264714E+04  0.12699999809E+01 0.  1.
       -4    1    3    3    0  502 -0.66407142919E+03  0.12232834688E+04 -0.68403043248E+02  0.13935902903E+04  0.12699999809E+01 0. -1.
</event>
<event>
 5   0  0.3838525E-06  0.3097687E+04  0.7818609E-02  0.8216373E-01
       -1   -1    0    0    0  501  0.00000000000E+00  0.00000000000E+00  0.97253059221E+03  0.97253059222E+03  0.50400001928E-02 0. -1.
        1   -1    0    0  501    0  0.00000000000E+00  0.00000000000E+00 -0.24666748559E+04  0.24666748559E+04  0.50400001928E-02 0.  1.
    10030    2    1    2    0    0  0.00000000000E+00  0.00000000000E+00 -0.14941442637E+04  0.34392054482E+04  0.30976873686E+04 0.  0.
        3    1    3    3  502    0  0.29315574650E+03  0.78078451170E+03  0.70194239017E+03  0.10900861777E+04  0.10100000352E+00 0. -1.
       -3    1    3    3    0  502 -0.29315574650E+03 -0.78078451170E+03 -0.21960866539E+04  0.23491192705E+04  0.10100000352E+00 0.  1.
</event>
<event>
 5   0  0.4139628E-06  0.3104013E+04  0.7818609E-02  0.8214637E-01
       -1   -1    0    0    0  501  0.00000000000E+00  0.00000000000E+00  0.16238049880E+04  0.16238049880E+04  0.50400001928E-02 0.  1.
        1   -1    0    0  501    0  0.00000000000E+00  0.00000000000E+00 -0.14833826823E+04  0.14833826823E+04  0.50400001928E-02 0. -1.
    10030    2    1    2    0    0  0.00000000000E+00  0.00000000000E+00  0.14042230563E+03  0.31071876703E+04  0.31040130146E+04 0.  0.
        5    1    3    3  502    0  0.57389978396E+03 -0.50078058249E+03 -0.12834144299E+04  0.14924197944E+04  0.46999998093E+01 0. -1.
       -5    1    3    3    0  502 -0.57389978396E+03  0.50078058249E+03  0.14238367355E+04  0.16147678759E+04  0.46999998093E+01 0.  1.
</event>
<event>
 5   0  0.1119100E-05  0.2985242E+04  0.7818609E-02  0.8247958E-01
        2   -1    0    0  501    0  0.00000000000E+00  0.00000000000E+00  0.18200979613E+04  0.18200979613E+04  0.25500000920E-02 0.  1.
       -2   -1    0    0    0  501  0.00000000000E+00  0.00000000000E+00 -0.12240647587E+04  0.12240647587E+04  0.25500000920E-02 0. -1.
    10030    2    1    2    0    0  0.00000000000E+00  0.00000000000E+00  0.59603320253E+03  0.30441627200E+04  0.29852422159E+04 0.  0.
        2    1    3    3  502    0  0.13681389729E+04  0.59577128986E+03  0.33289836446E+03  0.15289110504E+04  0.25500000920E-02 0. -1.
       -2    1    3    3    0  502 -0.13681389729E+04 -0.59577128986E+03  0.26313483808E+03  0.15152516696E+04  0.25500000920E-02 0.  1.
</event>
<event>
 5   0  0.1119100E-05  0.3258847E+04  0.7818609E-02  0.8173446E-01
       -2   -1    0    0    0  501  0.00000000000E+00  0.00000000000E+00  0.15550381329E+04  0.15550381329E+04  0.25500000920E-02 0. -1.
        2   -1    0    0  501    0  0.00000000000E+00  0.00000000000E+00 -0.17073667569E+04  0.17073667570E+04  0.25500000920E-02 0.  1.
    10030    2    1    2    0    0  0.00000000000E+00  0.00000000000E+00 -0.15232862403E+03  0.32624048899E+04  0.32588466757E+04 0.  0.
        2    1    3    3  502    0 -0.58057529500E+03  0.13293033864E+04  0.66687601709E+03  0.15965083114E+04  0.25500000920E-02 0. -1.
       -2    1    3    3    0  502  0.58057529500E+03 -0.13293033864E+04 -0.81920464112E+03  0.16658965785E+04  0.25500000920E-02 0.  1.
</event>
<event>
 5   0  0.3807334E-06  0.3018808E+04  0.7818609E-02  0.8238381E-01
        1   -1    0    0  501    0  0.00000000000E+00  0.00000000000E+00  0.21136879514E+04  0.21136879514E+04  0.50400001928E-02 0. -1.
       -1   -1    0    0    0  501  0.00000000000E+00  0.00000000000E+00 -0.10778789688E+04  0.10778789688E+04  0.50400001928E-02 0.  1.
    10030    2    1    2    0    0  0.00000000000E+00  0.00000000000E+00  0.10358089826E+04  0.31915669202E+04  0.30188075722E+04 0.  0.
        4    1    3    3  502    0  0.93152640730E+03 -0.11332281200E+03 -0.73200275538E+03  0.11901315700E+04  0.12699999809E+01 0.  1.
       -4    1    3    3    0  502 -0.93152640730E+03  0.11332281200E+03  0.17678117379E+04  0.20014353502E+04  0.12699999809E+01 0. -1.
</event>
<event>
 5   0  0.4250961E-06  0.1764108E+04  0.7818609E-02  0.8725623E-01
       -1   -1    0    0    0  501  0.00000000000E+00  0.00000000000E+00  0.90391151721E+03  0.90391151722E+03  0.50400001928E-02 0.  1.
        1   -1    0    0  501    0  0.00000000000E+00  0.00000000000E+00 -0.86072488907E+03  0.86072488909E+03  0.50400001928E-02 0. -1.
    10030    2    1    2    0    0  0.00000000000E+00  0.00000000000E+00  0.43186628138E+02  0.17646364063E+04  0.17641078656E+04 0.  0.
        1    1    3    3  502    0  0.43686601575E+03  0.22398391464E+03  0.75461463491E+03  0.90025771698E+03  0.50400001928E-02 0.  1.
       -1    1    3    3    0  502 -0.43686601575E+03 -0.22398391464E+03 -0.71142800677E+03  0.86437868933E+03  0.50400001928E-02 0. -1.
</event>
<event>
 5   0  0.4250961E-06  0.1581531E+04  0.7818609E-02  0.8831976E-01
        1   -1    0    0  501    0  0.00000000000E+00  0.00000000000E+00  0.22640373909E+04  0.22640373909E+04  0.50400001928E-02 0.  1.
       -1   -1    0    0    0  501  0.00000000000E+00  0.00000000000E+00 -0.27619230043E+03  0.27619230048E+03  0.50400001928E-02 0. -1.
    10030    2    1    2    0    0  0.00000000000E+00  0.00000000000E+00  0.19878450905E+04  0.25402296914E+04  0.15815305186E+04 0.  0.
        1    1    3    3  502    0 -0.32461312778E+03 -0.69448620338E+03  0.68236861253E+03  0.10263097451E+04  0.50400001928E-02 0.  1.
       -1    1    3    3    0  502  0.32461312778E+03  0.69448620338E+03  0.13054764780E+04  0.15139199463E+04  0.50400001928E-02 0. -1.
</event>
<event>
 5   0  0.4139628E-06  0.3109968E+04  0.7818609E-02  0.8213008E-01
        1   -1    0    0  501    0  0.00000000000E+00  0.00000000000E+00  0.18526800694E+04  0.18526800694E+04  0.50400001928E-02 0.  1.
       -1   -1    0    0    0  501  0.00000000000E+00  0.00000000000E+00 -0.13051227580E+04  0.13051227580E+04  0.50400001928E-02 0. -1.
    10030    2    1    2    0    0  0.00000000000E+00  0.00000000000E+00  0.54755731135E+03  0.31578028274E+04  0.31099677953E+04 0.  0.
        5    1    3    3  502    0 -0.45997686982E+03  0.91085217883E+03 -0.91760684363E+03  0.13723173182E+04  0.46999998093E+01 0. -1.
       -5    1    3    3    0  502  0.45997686982E+03 -0.91085217883E+03  0.14651641550E+04  0.17854855092E+04  0.46999998093E+01 0.  1.
</event>
<event>
 5   0  0.9797278E-06  0.3099743E+04  0.7818609E-02  0.8215809E-01
        2   -1    0    0  501    0  0.00000000000E+00  0.00000000000E+00  0.16896498523E+04  0.16896498523E+04  0.25500000920E-02 0. -1.
       -2   -1    0    0    0  501  0.00000000000E+00  0.00000000000E+00 -0.14216561195E+04  0.14216561195E+04  0.25500000920E-02 0.  1.
    10030    2    1    2    0    0  0.00000000000E+00  0.00000000000E+00  0.26799373275E+03  0.31113059718E+04  0.30997426038E+04 0.  0.
        1    1    3    3  502    0 -0.11050525826E+04 -0.46545358052E+03  0.11196544265E+04  0.16405530411E+04  0.50400001928E-02 0. -1.
       -1    1    3    3    0  502  0.11050525826E+04  0.46545358052E+03 -0.85166069375E+03  0.14707529307E+04  0.50400001928E-02 0.  1.
</event>
<event>
 5   0  0.1007567E-05  0.3059836E+04  0.7818609E-02  0.8226848E-01
        2   -1    0    0  501    0  0.00000000000E+00  0.00000000000E+00  0.20098224901E+04  0.20098224901E+04  0.25500000920E-02 0. -1.
       -2   -1    0    0    0  501  0.00000000000E+00  0.00000000000E+00 -0.11646050891E+04  0.11646050891E+04  0.25500000920E-02 0.  1.
    10030    2    1    2    0    0  0.00000000000E+00  0.00000000000E+00  0.84521740105E+03  0.31744275792E+04  0.30598362702E+04 0.  0.
        3    1    3    3  502    0 -0.40682176528E+02  0.87088881564E+02 -0.11614692930E+04  0.11654400205E+04  0.10100000352E+00 0.  1.
       -3    1    3    3    0  502  0.40682176528E+02 -0.87088881564E+02  0.20066866940E+04  0.20089875587E+04  0.10100000352E+00 0. -1.
</event>
<event>
 5   0  0.9797278E-06  0.3108775E+04  0.7818609E-02  0.8213334E-01
       -2   -1    0    0    0  501  0.00000000000E+00  0.00000000000E+00  0.14026054705E+04  0.14026054705E+04  0.25500000920E-02 0. -1.
        2   -1    0    0  501    0  0.00000000000E+00  0.00000000000E+00 -0.17225941926E+04  0.17225941926E+04  0.25500000920E-02 0.  1.
    10030    2    1    2    0    0  0.00000000000E+00  0.00000000000E+00 -0.31998872213E+03  0.31251996631E+04  0.31087747027E+04 0.  0.
        1    1    3    3  502    0  0.91754373668E+03  0.11100789320E+04 -0.74785595845E+03  0.16227908918E+04  0.50400001928E-02 0.  1.
       -1    1    3    3    0  502 -0.91754373668E+03 -0.11100789320E+04  0.42786723631E+03  0.15024087713E+04  0.50400001928E-02 0. -1.
</event>
<event>
 5   0  0.1007567E-05  0.3142899E+04  0.7818609E-02  0.8204062E-01
       -2   -1    0    0    0  501  0.00000000000E+00  0.00000000000E+00  0.10902238767E+04  0.10902238767E+04  0.25500000920E-02 0.  1.
        2   -1    0    0  501    0  0.00000000000E+00  0.00000000000E+00 -0.22650879495E+04  0.22650879495E+04  0.25500000920E-02 0. -1.
    10030    2    1    2    0    0  0.00000000000E+00  0.00000000000E+00 -0.11748640728E+04  0.33553118262E+04  0.31428986400E+04 0.  0.
        3    1    3    3  502    0  0.71898544277E+03  0.10792736058E+04  0.36006486853E+03  0.13458894096E+04  0.10100000352E+00 0.  1.
       -3    1    3    3    0  502 -0.71898544277E+03 -0.10792736058E+04 -0.15349289413E+04  0.20094224166E+04  0.10100000352E+00 0. -1.
</event>
<event>
 5   0  0.1001961E-05  0.3034446E+04  0.7818609E-02  0.8233963E-01
        2   -1    0    0  501    0  0.00000000000E+00  0.00000000000E+00  0.97931623036E+03  0.97931623036E+03  0.25500000920E-02 0.  1.
       -2   -1    0    0    0  501  0.00000000000E+00  0.00000000000E+00 -0.23505840633E+04  0.23505840634E+04  0.25500000920E-02 0. -1.
    10030    2    1    2    0    0  0.00000000000E+00  0.00000000000E+00 -0.13712678330E+04  0.33299002937E+04  0.30344456654E+04 0.  0.
        5    1    3    3  502    0  0.11863232597E+04 -0.86674541485E+03 -0.11010891825E+04  0.18360364834E+04  0.46999998093E+01 0. -1.
       -5    1    3    3    0  502 -0.11863232597E+04  0.86674541485E+03 -0.27017865053E+03  0.14938638103E+04  0.46999998093E+01 0.  1.
</event>
<event>
 5   0  0.1001961E-05  0.3168645E+04  0.7818609E-02  0.8197147E-01
        2   -1    0    0  501    0  0.00000000000E+00  0.00000000000E+00  0.12903268932E+04  0.12903268932E+04  0.25500000920E-02 0. -1.
       -2   -1    0    0    0  501  0.00000000000E+00  0.00000000000E+00 -0.19453035904E+04  0.19453035904E+04  0.25500000920E-02 0.  1.
    10030    2    1    2    0    0  0.00000000000E+00  0.00000000000E+00 -0.65497669725E+03  0.32356304836E+04  0.31686448448E+04 0.  0.
        5    1    3    3  502    0  0.14567534874E+04 -0.14909691070E+03  0.29002275044E+03  0.14928147566E+04  0.46999998093E+01 0. -1.
       -5    1    3    3    0  502 -0.14567534874E+04  0.14909691070E+03 -0.94499944768E+03  0.17428157269E+04  0.46999998093E+01 0.  1.
</event>
<event>
 5   0  0.3838525E-06  0.3145902E+04  0.7818609E-02  0.8203252E-01
        1   -1    0    0  501    0  0.00000000000E+00  0.00000000000E+00  0.19044298582E+04  0.19044298582E+04  0.50400001928E-02 0. -1.
       -1   -1    0    0    0  501  0.00000000000E+00  0.00000000000E+00 -0.12991681618E+04  0.12991681619E+04  0.50400001928E-02 0.  1.
    10030    2    1    2    0    0  0.00000000000E+00  0.00000000000E+00  0.60526169634E+03  0.32035980200E+04  0.31459018664E+04 0.  0.
        3    1    3    3  502    0 -0.46798804325E+03 -0.96189735168E+03  0.14770005480E+04  0.18236748484E+04  0.10100000352E+00 0. -1.
       -3    1    3    3    0  502  0.46798804325E+03  0.96189735168E+03 -0.87173885168E+03  0.13799231716E+04  0.10100000352E+00 0.  1.
</event>
<event>
 5   0  0.9797278E-06  0.3058518E+04  0.7818609E-02  0.8227215E-01
        2   -1    0    0  501    0  0.00000000000E+00  0.00000000000E+00  0.14795226846E+04  0.14795226846E+04  0.25500000920E-02 0.  1.
       -2   -1    0    0    0  501  0.00000000000E+00  0.00000000000E+00 -0.15806671081E+04  0.15806671081E+04  0.25500000920E-02 0. -1.
    10030    2    1    2    0    0  0.00000000000E+00  0.00000000000E+00 -0.10114442351E+03  0.30601897927E+04  0.30585178392E+04 0.  0.
        1    1    3    3  502    0  0.20542980570E+03 -0.44445429496E+03  0.13989750223E+04  0.14821849204E+04  0.50400001928E-02 0.  1.
       -1    1    3    3    0  502 -0.20542980570E+03  0.44445429496E+03 -0.15001194458E+04  0.15780048723E+04  0.50400001928E-02 0. -1.
</event>
<event>
 5   0  0.3838525E-06  0.2692938E+04  0.7818609E-02  0.8337300E-01
        1   -1    0    0  501    0  0.00000000000E+00  0.00000000000E+00  0.12841832169E+04  0.12841832169E+04  0.50400001928E-02 0.  1.
       -1   -1    0    0    0  501  0.00000000000E+00  0.00000000000E+00 -0.14117760959E+04  0.14117760959E+04  0.50400001928E-02 0. -1.
    10030    2    1    2    0    0  0.00000000000E+00  0.00000000000E+00 -0.12759287896E+03  0.26959593128E+04  0.26929382974E+04 0.  0.
        3    1    3    3  502    0  0.10184346702E+04 -0.48118255904E+03  0.67475287080E+03  0.13130260010E+04  0.10100000352E+00 0.  1.
       -3    1    3    3    0  502 -0.10184346702E+04  0.48118255904E+03 -0.80234574975E+03  0.13829333118E+04  0.10100000352E+00 0. -1.
</event>
<event>
 5   0  0.3848286E-06  0.3019772E+04  0.7818609E-02  0.8238107E-01
        1   -1    0    0  501    0  0.00000000000E+00  0.00000000000E+00  0.97076664995E+03  0.97076664997E+03  0.50400001928E-02 0. -1.
       -1   -1    0    0    0  501  0.00000000000E+00  0.00000000000E+00 -0.23484076503E+04  0.23484076503E+04  0.50400001928E-02 0.  1.
    10030    2    1    2    0    0  0.00000000000E+00  0.00000000000E+00 -0.13776410003E+04  0.33191743003E+04  0.30197720625E+04 0.  0.
        2    1    3    3  502    0 -0.67271180470E+03 -0.60422735065E+03 -0.20178909246E+04  0.22112249201E+04  0.25500000920E-02 0.  1.
       -2    1    3    3    0  502  0.67271180470E+03  0.60422735065E+03  0.64024992430E+03  0.11079493802E+04  0.25500000920E-02 0. -1.
</event>
<event>
 5   0  0.3807334E-06  0.2982472E+04  0.7818609E-02  0.8248754E-01
       -1   -1    0    0    0  501  0.00000000000E+00  0.00000000000E+00  0.12944808127E+04  0.12944808127E+04  0.50400001928E-02 0.  1.
        1   -1    0    0  501    0  0.00000000000E+00  0.00000000000E+00 -0.17178975674E+04  0.17178975674E+04  0.50400001928E-02 0. -1.
    10030    2    1    2    0    0  0.00000000000E+00  0.00000000000E+00 -0.42341675467E+03  0.30123783801E+04  0.29824724235E+04 0.  0.
        4    1    3    3  502    0  0.51425086147E+03 -0.11841447488E+04 -0.96560497452E+03  0.16121561073E+04  0.12699999809E+01 0. -1.
       -4    1    3    3    0  502 -0.51425086147E+03  0.11841447488E+04  0.54218821985E+03  0.14002222728E+04  0.12699999809E+01 0.  1.
</event>
<event>
 5   0  0.1108153E-05  0.3138659E+04  0.7818609E-02  0.8205208E-01
       -2   -1    0    0    0  501  0.00000000000E+00  0.00000000000E+00  0.11025153478E+04  0.11025153478E+04  0.25500000920E-02 0. -1.
        2   -1    0    0  501    0  0.00000000000E+00  0.00000000000E+00 -0.22337970217E+04  0.22337970217E+04  0.25500000920E-02 0.  1.
    10030    2    1    2    0    0  0.00000000000E+00  0.00000000000E+00 -0.11312816739E+04  0.33363123694E+04  0.31386592680E+04 0.  0.
        4    1    3    3  502    0  0.75365485442E+03 -0.22946399470E+03 -0.20083685822E+04  0.21573584170E+04  0.12699999809E+01 0.  1.
       -4    1    3    3    0  502 -0.75365485442E+03  0.22946399470E+03  0.87708690831E+03  0.11789539525E+04  0.12699999809E+01 0. -1.
</event>
<event>
 5   0  0.4139628E-06  0.3160009E+04  0.7818609E-02  0.8199459E-01
       -1   -1    0    0    0  501  0.00000000000E+00  0.00000000000E+00  0.10171389938E+04  0.10171389938E+04  0.50400001928E-02 0. -1.
        1   -1    0    0  501    0  0.00000000000E+00  0.00000000000E+00 -0.24543484057E+04  0.24543484057E+04  0.50400001928E-02 0.  1.
    10030    2    1    2    0    0  0.00000000000E+00  0.00000000000E+00 -0.14372094119E+04  0.34714873995E+04  0.31600085239E+04 0.  0.
        5    1    3    3  502    0 -0.14537144301E+04  0.15126284146E+03 -0.59257095275E+02  0.14627712004E+04  0.46999998093E+01 0. -1.
       -5    1    3    3    0  502  0.14537144301E+04 -0.15126284146E+03 -0.13779523166E+04  0.20087161991E+04  0.46999998093E+01 0.  1.
</event>
<event>
 5   0  0.4139628E-06  0.2971385E+04  0.7818609E-02  0.8251950E-01
        1   -1    0    0  501    0  0.00000000000E+00  0.00000000000E+00  0.15251850246E+04  0.15251850246E+04  0.50400001928E-02 0.  1.
       -1   -1    0    0    0  501  0.00000000000E+00  0.00000000000E+00 -0.14472226303E+04  0.14472226303E+04  0.50400001928E-02 0. -1.
    10030    2    1    2    0    0  0.00000000000E+00  0.00000000000E+00  0.77962394243E+02  0.29724076549E+04  0.29713850528E+04 0.  0.
        5    1    3    3  502    0  0.12544587152E+04  0.78136000825E+03  0.19092179138E+03  0.14901890320E+04  0.46999998093E+01 0. -1.
       -5    1    3    3    0  502 -0.12544587152E+04 -0.78136000825E+03 -0.11295939714E+03  0.14822186229E+04  0.46999998093E+01 0.  1.
</event>
<event>
 5   0  0.4139628E-06  0.3099890E+04  0.7818609E-02  0.8215768E-01
        1   -1    0    0  501    0  0.00000000000E+00  0.00000000000E+00  0.25501330310E+04  0.25501330310E+04  0.50400001928E-02 0.  1.
       -1   -1    0    0    0  501  0.00000000000E+00  0.00000000000E+00 -0.94204060607E+03  0.94204060608E+03  0.50400001928E-02 0. -1.
    10030    2    1    2    0    0  0.00000000000E+00  0.00000000000E+00  0.16080924250E+04  0.34921736371E+04  0.30998895891E+04 0.  0.
        5    1    3    3  502    0 -0.19518764290E+03 -0.13450277806E+03  0.25295840592E+04  0.25406705445E+04  0.46999998093E+01 0.  1.
       -5    1    3    3    0  502  0.19518764290E+03  0.13450277806E+03 -0.92149163424E+03  0.95150309259E+03  0.46999998093E+01 0. -1.
</event>
<event>
 5   0  0.1001961E-05  0.3093410E+04  0.7818609E-02  0.8217549E-01
        2   -1    0    0  501    0  0.00000000000E+00  0.00000000000E+00  0.11425198251E+04  0.11425198251E+04  0.25500000920E-02 0.  1.
       -2   -1    0    0    0  501  0.00000000000E+00  0.00000000000E+00 -0.20938768355E+04  0.20938768355E+04  0.25500000920E-02 0. -1.
    10030    2    1    2    0    0  0.00000000000E+00  0.00000000000E+00 -0.95135701042E+03  0.32363966606E+04  0.30934096372E+04 0.  0.
        5    1    3    3  502    0  0.65692435393E+03 -0.10169870059E+04  0.53134128435E+03  0.13221791964E+04  0.46999998093E+01 0.  1.
       -5    1    3    3    0  502 -0.65692435393E+03  0.10169870059E+04 -0.14826982948E+04  0.19142174642E+04  0.46999998093E+01 0. -1.
</event>
<event>
 5   0  0.9797278E-06  0.2956894E+04  0.7818609E-02  0.8256148E-01
       -2   -1    0    0    0  501  0.00000000000E+00  0.00000000000E+00  0.84384707122E+03  0.84384707122E+03  0.25500000920E-02 0.  1.
        2   -1    0    0  501    0  0.00000000000E+00  0.00000000000E+00 -0.25902871723E+04  0.25902871723E+04  0.25500000920E-02 0. -1.
    10030    2    1    2    0    0  0.00000000000E+00  0.00000000000E+00 -0.17464401011E+04  0.34341342436E+04  0.29568944817E+04 0.  0.
        1    1    3    3  502    0  0.40586074277E+03 -0.16145249549E+03  0.76719851456E+03  0.88282694317E+03  0.50400001928E-02 0.  1.
       -1    1    3    3    0  502 -0.40586074277E+03  0.16145249549E+03 -0.25136386157E+04  0.25513073004E+04  0.50400001928E-02 0. -1.
</event>
<event>
 5   0  0.3848286E-06  0.3091789E+04  0.7818609E-02  0.8217995E-01
       -1   -1    0    0    0  501  0.00000000000E+00  0.00000000000E+00  0.13525617474E+04  0.13525617474E+04  0.50400001928E-02 0. -1.
        1   -1    0    0  501    0  0.00000000000E+00  0.00000000000E+00 -0.17668619552E+04  0.17668619552E+04  0.50400001928E-02 0.  1.
    10030    2    1    2    0    0  0.00000000000E+00  0.00000000000E+00 -0.41430020780E+03  0.31194237025E+04  0.30917890571E+04 0.  0.
        2    1    3    3  502    0 -0.14757935941E+03  0.78746227744E+03  0.11267535629E+04  0.13825520234E+04  0.25500000920E-02 0. -1.
       -2    1    3    3    0  502  0.14757935941E+03 -0.78746227744E+03 -0.15410537707E+04  0.17368716792E+04  0.25500000920E-02 0.  1.
</event>
<event>
 5   0  0.1001961E-05  0.3136714E+04  0.7818609E-02  0.8205734E-01
        2   -1    0    0  501    0  0.00000000000E+00  0.00000000000E+00  0.12601461827E+04  0.12601461827E+04  0.25500000920E-02 0. -1.
       -2   -1    0    0    0  501  0.00000000000E+00  0.00000000000E+00 -0.19519514102E+04  0.19519514102E+04  0.25500000920E-02 0.  1.
    10030    2    1    2    0    0  0.00000000000E+00  0.00000000000E+00 -0.69180522750E+03  0.32120975930E+04  0.31367142800E+04 0.  0.
        5    1    3    3  502    0  0.12571395827E+04  0.86600501448E+03  0.22403927206E+02  0.15267248087E+04  0.46999998093E+01 0.  1.
       -5    1    3    3    0  502 -0.12571395827E+04 -0.86600501448E+03 -0.71420915470E+03  0.16853727843E+04  0.46999998093E+01 0. -1.
</event>
<event>
 5   0  0.9797278E-06  0.2874212E+04  0.7818609E-02  0.8280592E-01
        2   -1    0    0  501    0  0.00000000000E+00  0.00000000000E+00  0.15933194142E+04  0.15933194142E+04  0.25500000920E-02 0.  1.
       -2   -1    0    0    0  501  0.00000000000E+00  0.00000000000E+00 -0.12962079874E+04  0.12962079874E+04  0.25500000920E-02 0. -1.
    10030    2    1    2    0    0  0.00000000000E+00  0.00000000000E+00  0.29711142679E+03  0.28895274017E+04  0.28742117885E+04 0.  0.
        1    1    3    3  502    0  0.20783790733E+03  0.40114488681E+03 -0.12229570446E+04  0.13037399085E+04  0.50400001928E-02 0. -1.
       -1    1    3    3    0  502 -0.20783790733E+03 -0.40114488681E+03  0.15200684714E+04  0.15857874932E+04  0.50400001928E-02 0.  1.
</event>
<event>
 5   0  0.9797278E-06  0.3018296E+04  0.7818609E-02  0.8238526E-01
       -2   -1    0    0    0  501  0.00000000000E+00  0.00000000000E+00  0.94412348142E+03  0.94412348142E+03  0.25500000920E-02 0.  1.
        2   -1    0    0  501    0  0.00000000000E+00  0.00000000000E+00 -0.24123196500E+04  0.24123196500E+04  0.25500000920E-02 0. -1.
    10030    2    1    2    0    0  0.00000000000E+00  0.00000000000E+00 -0.14681961686E+04  0.33564431314E+04  0.30182959605E+04 0.  0.
        1    1    3    3  502    0 -0.72585753422E+03 -0.18413336313E+03 -0.21911379186E+04  0.23155689655E+04  0.50400001928E-02 0. -1.
       -1    1    3    3    0  502  0.72585753422E+03  0.18413336313E+03  0.72294175003E+03  0.10408741660E+04  0.50400001928E-02 0.  1.
</event>
<event>
 5   0  0.1007567E-05  0.1651620E+04  0.7818609E-02  0.8789449E-01
        2   -1    0    0  501    0  0.00000000000E+00  0.00000000000E+00  0.14372465947E+04  0.14372465947E+04  0.25500000920E-02 0. -1.
       -2   -1    0    0    0  501  0.00000000000E+00  0.00000000000E+00 -0.47449223950E+03  0.47449223950E+03  0.25500000920E-02 0.  1.
    10030    2    1    2    0    0  0.00000000000E+00  0.00000000000E+00  0.96275435525E+03  0.19117388343E+04  0.16516202414E+04 0.  0.
        3    1    3    3  502    0 -0.50190113901E+02 -0.56143138476E+03 -0.21719462281E+03  0.60406767974E+03  0.10100000352E+00 0.  1.
       -3    1    3    3    0  502  0.50190113901E+02  0.56143138476E+03  0.11799489781E+04  0.13076711545E+04  0.10100000352E+00 0. -1.
</event>
<event>
 5   0  0.3807334E-06  0.2548642E+04  0.7818609E-02  0.8385859E-01
       -1   -1    0    0    0  501  0.00000000000E+00  0.00000000000E+00  0.12512567816E+04  0.12512567816E+04  0.50400001928E-02 0. -1.
        1   -1    0    0  501    0  0.00000000000E+00  0.00000000000E+00 -0.12978100033E+04  0.12978100033E+04  0.50400001928E-02 0.  1.
    10030    2    1    2    0    0  0.00000000000E+00  0.00000000000E+00 -0.46553221767E+02  0.25490667849E+04  0.25486416522E+04 0.  0.
        4    1    3    3  502    0 -0.37579732407E+03  0.96685406180E+02  0.11907299053E+04  0.12523621748E+04  0.12699999809E+01 0. -1.
       -4    1    3    3    0  502  0.37579732407E+03 -0.96685406180E+02 -0.12372831271E+04  0.12967046101E+04  0.12699999809E+01 0.  1.
</event>
<event>
 5   0  0.3807334E-06  0.2174908E+04  0.7818609E-02  0.8528945E-01
       -1   -1    0    0    0  501  0.00000000000E+00  0.00000000000E+00  0.10781144030E+04  0.10781144031E+04  0.50400001928E-02 0.  1.
        1   -1    0    0  501    0  0.00000000000E+00  0.00000000000E+00 -0.10968743262E+04  0.10968743262E+04  0.50400001928E-02 0. -1.
    10030    2    1    2    0    0  0.00000000000E+00  0.00000000000E+00 -0.18759923122E+02  0.21749887292E+04  0.21749078228E+04 0.  0.
        4    1    3    3  502    0  0.10828518774E+04  0.24025348531E+02  0.87623598852E+02  0.10866576801E+04  0.12699999809E+01 0. -1.
       -4    1    3    3    0  502 -0.10828518774E+04 -0.24025348531E+02 -0.10638352197E+03  0.10883310491E+04  0.12699999809E+01 0.  1.
</event>
<event>
 5   0  0.4250961E-06  0.1931235E+04  0.7818609E-02  0.8639463E-01
       -1   -1    0    0    0  501  0.00000000000E+00  0.00000000000E+00  0.10202355643E+04  0.10202355643E+04  0.50400001928E-02 0. -1.
        1   -1    0    0  501    0  0.00000000000E+00  0.00000000000E+00 -0.91392322988E+03  0.91392322990E+03  0.50400001928E-02 0.  1.
    10030    2    1    2    0    0  0.00000000000E+00  0.00000000000E+00  0.10631233441E+03  0.19341587942E+04  0.19312348197E+04 0.  0.
        1    1    3    3  502    0  0.39263965499E+02  0.89362003932E+03  0.41746307634E+03  0.98710377052E+03  0.50400001928E-02 0. -1.
       -1    1    3    3    0  502 -0.39263965499E+02 -0.89362003932E+03 -0.31115074193E+03  0.94705502368E+03  0.50400001928E-02 0.  1.
</event>
<event>
 5   0  0.1001961E-05  0.2953494E+04  0.7818609E-02  0.8257137E-01
       -2   -1    0    0    0  501  0.00000000000E+00  0.00000000000E+00  0.16085170046E+04  0.16085170046E+04  0.25500000920E-02 0. -1.
        2   -1    0    0  501    0  0.00000000000E+00  0.00000000000E+00 -0.13557720303E+04  0.13557720303E+04  0.25500000920E-02 0.  1.
    10030    2    1    2    0    0  0.00000000000E+00  0.00000000000E+00  0.25274497431E+03  0.29642890350E+04  0.29534944491E+04 0.  0.
        5    1    3    3  502    0  0.84613855078E+03  0.45498951044E+03 -0.99924080358E+03  0.13861710483E+04  0.46999998093E+01 0.  1.
       -5    1    3    3    0  502 -0.84613855078E+03 -0.45498951044E+03  0.12519857779E+04  0.15781179866E+04  0.46999998093E+01 0. -1.
</event>
<event>
 5   0  0.4250961E-06  0.3116880E+04  0.7818609E-02  0.8211121E-01
        1   -1    0    0  501    0  0.00000000000E+00  0.00000000000E+00  0.71711894540E+03  0.71711894542E+03  0.50400001928E-02 0.  1.
       -1   -1    0    0    0  501  0.00000000000E+00  0.00000000000E+00 -0.33867946920E+04  0.33867946920E+04  0.50400001928E-02 0. -1.
    10030    2    1    2    0    0  0.00000000000E+00  0.00000000000E+00 -0.26696757466E+04  0.41039136375E+04  0.31168796178E+04 0.  0.
        1    1    3    3  502    0  0.76425532559E+03  0.94017904599E+03 -0.26253876075E+04  0.28914845548E+04  0.50400001928E-02 0. -1.
       -1    1    3    3    0  502 -0.76425532559E+03 -0.94017904599E+03 -0.44288139184E+02  0.12124290827E+04  0.50400001928E-02 0.  1.
</event>
<event>
 5   0  0.1001961E-05  0.1970349E+04  0.7818609E-02  0.8620610E-01
       -2   -1    0    0    0  501  0.00000000000E+00  0.00000000000E+00  0.94461007559E+03  0.94461007560E+03  0.25500000920E-02 0.  1.
        2   -1    0    0  501    0  0.00000000000E+00  0.00000000000E+00 -0.10274811119E+04  0.10274811119E+04  0.25500000920E-02 0. -1.
    10030    2    1    2    0    0  0.00000000000E+00  0.00000000000E+00 -0.82871036291E+02  0.19720911875E+04  0.19703492186E+04 0.  0.
        5    1    3    3  502    0  0.99037560955E+02  0.37339394739E+03  0.86563025689E+03  0.94792895834E+03  0.46999998093E+01 0.  1.
       -5    1    3    3    0  502 -0.99037560955E+02 -0.37339394739E+03 -0.94850129318E+03  0.10241622291E+04  0.46999998093E+01 0. -1.
</event>
<event>
 5   0  0.9797278E-06  0.2909406E+04  0.7818609E-02  0.8270084E-01
       -2   -1    0    0    0  501  0.00000000000E+00  0.00000000000E+00  0.16836565032E+04  0.16836565032E+04  0.25500000920E-02 0.  1.
        2   -1    0    0  501    0  0.00000000000E+00  0.00000000000E+00 -0.12568838382E+04  0.12568838382E+04  0.25500000920E-02 0. -1.
    10030    2    1    2    0    0  0.00000000000E+00  0.00000000000E+00  0.42677266505E+03  0.29405403414E+04  0.29094058829E+04 0.  0.
        1    1    3    3  502    0  0.88595466640E+03 -0.65044007654E+03 -0.74979275956E+03  0.13304800436E+04  0.50400001928E-02 0. -1.
       -1    1    3    3    0  502 -0.88595466640E+03  0.65044007654E+03  0.11765654246E+04  0.16100602978E+04  0.50400001928E-02 0.  1.
</event>
<event>
 5   0  0.9797278E-06  0.3090234E+04  0.7818609E-02  0.8218423E-01
       -2   -1    0    0    0  501  0.00000000000E+00  0.00000000000E+00  0.24981281786E+04  0.24981281786E+04  0.25500000920E-02 0. -1.
        2   -1    0    0  501    0  0.00000000000E+00  0.00000000000E+00 -0.95567034956E+03  0.95567034956E+03  0.25500000920E-02 0.  1.
    10030    2    1    2    0    0  0.00000000000E+00  0.00000000000E+00  0.15424578290E+04  0.34537985282E+04  0.30902343145E+04 0.  0.
        1    1    3    3  502    0 -0.30091155215E+03  0.88003823091E+03 -0.60777652831E+03  0.11110388645E+04  0.50400001928E-02 0.  1.
       -1    1    3    3    0  502  0.30091155215E+03 -0.88003823091E+03  0.21502343573E+04  0.23427596636E+04  0.50400001928E-02 0. -1.
</event>
<event>
 5   0  0.1001961E-05  0.3043453E+04  0.7818609E-02  0.8231430E-01
       -2   -1    0    0    0  501  0.00000000000E+00  0.00000000000E+00  0.11137658076E+04  0.11137658076E+04  0.25500000920E-02 0.  1.
        2   -1    0    0  501    0  0.00000000000E+00  0.00000000000E+00 -0.20791186752E+04  0.20791186752E+04  0.25500000920E-02 0. -1.
    10030    2    1    2    0    0  0.00000000000E+00  0.00000000000E+00 -0.96535286761E+03  0.31928844829E+04  0.30434528355E+04 0.  0.
        5    1    3    3  502    0 -0.27433255930E+02  0.48441488807E+03  0.10304357990E+04  0.11389602245E+04  0.46999998093E+01 0.  1.
       -5    1    3    3    0  502  0.27433255930E+02 -0.48441488807E+03 -0.19957886666E+04  0.20539242583E+04  0.46999998093E+01 0. -1.
</event>
<event>
 5   0  0.3807334E-06  0.3008958E+04  0.7818609E-02  0.8241178E-01
       -1   -1    0    0    0  501  0.00000000000E+00  0.00000000000E+00  0.98866293458E+03  0.98866293459E+03  0.50400001928E-02 0. -1.
        1   -1    0    0  501    0  0.00000000000E+00  0.00000000000E+00 -0.22894118851E+04  0.22894118851E+04  0.50400001928E-02 0.  1.
    10030    2    1    2    0    0  0.00000000000E+00  0.00000000000E+00 -0.13007489505E+04  0.32780748197E+04  0.30089577417E+04 0.  0.
        4    1    3    3  502    0 -0.40875145590E+03 -0.13683140090E+04 -0.11660992147E+04  0.18436783807E+04  0.12699999809E+01 0.  1.
       -4    1    3    3    0  502  0.40875145590E+03  0.13683140090E+04 -0.13464973587E+03  0.14343964390E+04  0.12699999809E+01 0. -1.
</event>
<event>
 5   0  0.9797278E-06  0.2817953E+04  0.7818609E-02  0.8297716E-01
        2   -1    0    0  501    0  0.00000000000E+00  0.00000000000E+00  0.79079032266E+03  0.79079032267E+03  0.25500000920E-02 0.  1.
       -2   -1    0    0    0  501  0.00000000000E+00  0.00000000000E+00 -0.25104182677E+04  0.25104182677E+04  0.25500000920E-02 0. -1.
    10030    2    1    2    0    0  0.00000000000E+00  0.00000000000E+00 -0.17196279450E+04  0.33012085904E+04  0.28179527831E+04 0.  0.
        1    1    3    3  502    0  0.13836844882E+04  0.18499283765E+03 -0.10833490956E+04  0.17670456632E+04  0.50400001928E-02 0. -1.
       -1    1    3    3    0  502 -0.13836844882E+04 -0.18499283765E+03 -0.63627884949E+03  0.15341629272E+04  0.50400001928E-02 0.  1.
</event>
<event>
 5   0  0.3807334E-06  0.3105274E+04  0.7818609E-02  0.8214292E-01
       -1   -1    0    0    0  501  0.00000000000E+00  0.00000000000E+00  0.20803446998E+04  0.20803446998E+04  0.50400001928E-02 0. -1.
        1   -1    0    0  501    0  0.00000000000E+00  0.00000000000E+00 -0.11587898839E+04  0.11587898839E+04  0.50400001928E-02 0.  1.
    10030    2    1    2    0    0  0.00000000000E+00  0.00000000000E+00  0.92155481586E+03  0.32391345837E+04  0.31052744762E+04 0.  0.
        4    1    3    3  502    0 -0.35357944725E+02  0.93424538582E+03  0.17538166244E+04  0.19874453427E+04  0.12699999809E+01 0. -1.
       -4    1    3    3    0  502  0.35357944725E+02 -0.93424538582E+03 -0.83226180857E+03  0.12516892410E+04  0.12699999809E+01 0.  1.
</event>
<event>
 5   0  0.3848286E-06  0.3085413E+04  0.7818609E-02  0.8219753E-01
       -1   -1    0    0    0  501  0.00000000000E+00  0.00000000000E+00  0.13872587287E+04  0.13872587287E+04  0.50400001928E-02 0.  1.
        1   -1    0    0  501    0  0.00000000000E+00  0.00000000000E+00 -0.17155723523E+04  0.17155723523E+04  0.50400001928E-02 0. -1.
    10030    2    1    2    0    0  0.00000000000E+00  0.00000000000E+00 -0.32831362359E+03  0.31028310810E+04  0.30854125951E+04 0.  0.
        2    1    3    3  502    0 -0.15003697083E+04  0.54771953731E+02 -0.52088958474E+03  0.15891617878E+04  0.25500000920E-02 0. -1.
       -2    1    3    3    0  502  0.15003697083E+04 -0.54771953731E+02  0.19257596115E+03  0.15136692932E+04  0.25500000920E-02 0.  1.
</event>
<event>
 5   0  0.3848286E-06  0.2910170E+04  0.7818609E-02  0.8269858E-01
       -1   -1    0    0    0  501  0.00000000000E+00  0.00000000000E+00  0.14866405011E+04  0.14866405011E+04  0.50400001928E-02 0.  1.
        1   -1    0    0  501    0  0.00000000000E+00  0.00000000000E+00 -0.14241996631E+04  0.14241996631E+04  0.50400001928E-02 0. -1.
    10030    2    1    2    0    0  0.00000000000E+00  0.00000000000E+00  0.62440838032E+02  0.29108401642E+04  0.29101703736E+04 0.  0.
        2    1    3    3  502    0  0.36062831294E+03  0.10910422735E+04 -0.86164783393E+03  0.14362670408E+04  0.25500000920E-02 0. -1.
       -2    1    3    3    0  502 -0.36062831294E+03 -0.10910422735E+04  0.92408867196E+03  0.14745731235E+04  0.25500000920E-02 0.  1.
</event>
<event>
 5   0  0.4250961E-06  0.3360527E+04  0.7818609E-02  0.8147663E-01
       -1   -1    0    0    0  501  0.00000000000E+00  0.00000000000E+00  0.83567403937E+03  0.83567403938E+03  0.50400001928E-02 0.  1.
        1   -1    0    0  501    0  0.00000000000E+00  0.00000000000E+00 -0.33784532722E+04  0.33784532722E+04  0.50400001928E-02 0. -1.
    10030    2    1    2    0    0  0.00000000000E+00  0.00000000000E+00 -0.25427792328E+04  0.42141273116E+04  0.33605271568E+04 0.  0.
        1    1    3    3  502    0 -0.26975967167E+03 -0.15571682125E+04 -0.55567892969E+03  0.16752081051E+04  0.50400001928E-02 0.  1.
       -1    1    3    3    0  502  0.26975967167E+03  0.15571682125E+04 -0.19871003031E+04  0.25389192065E+04  0.50400001928E-02 0. -1.
</event>
<event>
 5   0  0.3807334E-06  0.1747547E+04  0.7818609E-02  0.8734702E-01
        1   -1    0    0  501    0  0.00000000000E+00  0.00000000000E+00  0.86706657265E+03  0.86706657267E+03  0.50400001928E-02 0.  1.
       -1   -1    0    0    0  501  0.00000000000E+00  0.00000000000E+00 -0.88053235236E+03  0.88053235237E+03  0.50400001928E-02 0. -1.
    10030    2    1    2    0    0  0.00000000000E+00  0.00000000000E+00 -0.13465779705E+02  0.17475989250E+04  0.17475470453E+04 0.  0.
        4    1    3    3  502    0  0.33203266114E+03  0.13263406535E+03  0.79056179467E+03  0.86765606518E+03  0.12699999809E+01 0.  1.
       -4    1    3    3    0  502 -0.33203266114E+03 -0.13263406535E+03 -0.80402757437E+03  0.87994285985E+03  0.12699999809E+01 0. -1.
</event>
<event>
 5   0  0.1108153E-05  0.1777472E+04  0.7818609E-02  0.8718372E-01
       -2   -1    0    0    0  501  0.00000000000E+00  0.00000000000E+00  0.55682269107E+03  0.55682269108E+03  0.25500000920E-02 0.  1.
        2   -1    0    0  501    0  0.00000000000E+00  0.00000000000E+00 -0.14184983265E+04  0.14184983265E+04  0.25500000920E-02 0. -1.
    10030    2    1    2    0    0  0.00000000000E+00  0.00000000000E+00 -0.86167563545E+03  0.19753210176E+04  0.17774724251E+04 0.  0.
        4    1    3    3  502    0 -0.40407366260E+02 -0.51492546450E+03 -0.12345757993E+04  0.13382675392E+04  0.12699999809E+01 0. -1.
       -4    1    3    3    0  502  0.40407366260E+02  0.51492546450E+03  0.37290016388E+03  0.63705347842E+03  0.12699999809E+01 0.  1.
</event>
<event>
 5   0  0.1108153E-05  0.2961027E+04  0.7818609E-02  0.8254948E-01
       -2   -1    0    0    0  501  0.00000000000E+00  0.00000000000E+00  0.12523800918E+04  0.12523800918E+04  0.25500000920E-02 0. -1.
        2   -1    0    0  501    0  0.00000000000E+00  0.00000000000E+00 -0.17502037378E+04  0.17502037378E+04  0.25500000920E-02 0.  1.
    10030    2    1    2    0    0  0.00000000000E+00  0.00000000000E+00 -0.49782364602E+03  0.30025838297E+04  0.29610270636E+04 0.  0.
        4    1    3    3  502    0 -0.42756655324E+03 -0.14173525567E+04 -0.26385903785E+03  0.15037701394E+04  0.12699999809E+01 0.  1.
       -4    1    3    3    0  502  0.42756655324E+03  0.14173525567E+04 -0.23396460817E+03  0.14988136903E+04  0.12699999809E+01 0. -1.
</event>
<event>
 5   0  0.4139628E-06  0.3080525E+04  0.7818609E-02  0.8221103E-01
       -1   -1    0    0    0  501  0.00000000000E+00  0.00000000000E+00  0.14227228006E+04  0.14227228006E+04  0.50400001928E-02 0. -1.
        1   -1    0    0  501    0  0.00000000000E+00  0.00000000000E+00 -0.16675123702E+04  0.16675123702E+04  0.50400001928E-02 0.  1.
    10030    2    1    2    0    0  0.00000000000E+00  0.00000000000E+00 -0.24478956959E+03  0.30902351709E+04  0.30805245459E+04 0.  0.
        5    1    3    3  502    0  0.59036973758E+03 -0.82697562212E+03  0.10388208738E+04  0.14531331682E+04  0.46999998093E+01 0. -1.
       -5    1    3    3    0  502 -0.59036973758E+03  0.82697562212E+03 -0.12836104434E+04  0.16371020027E+04  0.46999998093E+01 0.  1.
</event>
<event>
 5   0  0.1119100E-05  0.3097815E+04  0.7818609E-02  0.8216338E-01
        2   -1    0    0  501    0  0.00000000000E+00  0.00000000000E+00  0.17935690622E+04  0.17935690622E+04  0.25500000920E-02 0. -1.
       -2   -1    0    0    0  501  0.00000000000E+00  0.00000000000E+00 -0.13376199215E+04  0.13376199215E+04  0.25500000920E-02 0.  1.
    10030    2    1    2    0    0  0.00000000000E+00  0.00000000000E+00  0.45594914073E+03  0.31311889838E+04  0.30978145253E+04 0.  0.
        2    1    3    3  502    0 -0.14011832379E+04  0.57062909253E+03 -0.10753782165E+03  0.15167387417E+04  0.25500000920E-02 0.  1.
       -2    1    3    3    0  502  0.14011832379E+04 -0.57062909253E+03  0.56348696238E+03  0.16144502421E+04  0.25500000920E-02 0. -1.
</event>
<event>
 5   0  0.4139628E-06  0.3223075E+04  0.7818609E-02  0.8182750E-01
        1   -1    0    0  501    0  0.00000000000E+00  0.00000000000E+00  0.18525938285E+04  0.18525938285E+04  0.50400001928E-02 0. -1.
       -1   -1    0    0    0  501  0.00000000000E+00  0.00000000000E+00 -0.14018470808E+04  0.14018470808E+04  0.50400001928E-02 0.  1.
    10030    2    1    2    0    0  0.00000000000E+00  0.00000000000E+00  0.45074674777E+03  0.32544409093E+04  0.32230750847E+04 0.  0.
        5    1    3    3  502    0 -0.31315461649E+03  0.10637419675E+03 -0.13672041984E+04  0.14066451911E+04  0.46999998093E+01 0.  1.
       -5    1    3    3    0  502  0.31315461649E+03 -0.10637419675E+03  0.18179509462E+04  0.18477957182E+04  0.46999998093E+01 0. -1.
</event>
<event>
 5   0  0.9797278E-06  0.2998002E+04  0.7818609E-02  0.8244302E-01
       -2   -1    0    0    0  501  0.00000000000E+00  0.00000000000E+00  0.14954722357E+04  0.14954722357E+04  0.25500000920E-02 0.  1.
        2   -1    0    0  501    0  0.00000000000E+00  0.00000000000E+00 -0.15025379435E+04  0.15025379435E+04  0.25500000920E-02 0. -1.
    10030    2    1    2    0    0  0.00000000000E+00  0.00000000000E+00 -0.70657077937E+01  0.29980101793E+04  0.29980018530E+04 0.  0.
        1    1    3    3  502    0 -0.33042598829E+03 -0.60625049971E+03  0.13269905802E+04  0.14958693132E+04  0.50400001928E-02 0.  1.
       -1    1    3    3    0  502  0.33042598829E+03  0.60625049971E+03 -0.13340562880E+04  0.15021408661E+04  0.50400001928E-02 0. -1.
</event>
<event>
 5   0  0.1108153E-05  0.3055172E+04  0.7818609E-02  0.8228149E-01
       -2   -1    0    0    0  501  0.00000000000E+00  0.00000000000E+00  0.11456843055E+04  0.11456843055E+04  0.25500000920E-02 0.  1.
        2   -1    0    0  501    0  0.00000000000E+00  0.00000000000E+00 -0.20367909591E+04  0.20367909592E+04  0.25500000920E-02 0. -1.
    10030    2    1    2    0    0  0.00000000000E+00  0.00000000000E+00 -0.89110665368E+03  0.31824752646E+04  0.30551722933E+04 0.  0.
        4    1    3    3  502    0  0.34351578076E+03  0.12523524131E+04  0.39240897438E+03  0.13566046124E+04  0.12699999809E+01 0.  1.
       -4    1    3    3    0  502 -0.34351578076E+03 -0.12523524131E+04 -0.12835156281E+04  0.18258706522E+04  0.12699999809E+01 0. -1.
</event>
<event>
 5   0  0.3838525E-06  0.3077814E+04  0.7818609E-02  0.8221853E-01
        1   -1    0    0  501    0  0.00000000000E+00  0.00000000000E+00  0.14191016911E+04  0.14191016911E+04  0.50400001928E-02 0.  1.
       -1   -1    0    0    0  501  0.00000000000E+00  0.00000000000E+00 -0.16688269965E+04  0.16688269965E+04  0.50400001928E-02 0. -1.
    10030    2    1    2    0    0  0.00000000000E+00  0.00000000000E+00 -0.24972530541E+03  0.30879286875E+04  0.30778142977E+04 0.  0.
        3    1    3    3  502    0  0.32004476449E+03  0.92350878731E+03  0.10677143025E+04  0.14475189027E+04  0.10100000352E+00 0.  1.
       -3    1    3    3    0  502 -0.32004476449E+03 -0.92350878731E+03 -0.13174396080E+04  0.16404097849E+04  0.10100000352E+00 0. -1.
</event>
<event>
 5   0  0.1108153E-05  0.2512384E+04  0.7818609E-02  0.8398587E-01
       -2   -1    0    0    0  501  0.00000000000E+00  0.00000000000E+00  0.87325020291E+03  0.87325020291E+03  0.25500000920E-02 0. -1.
        2   -1    0    0  501    0  0.00000000000E+00  0.00000000000E+00 -0.18070635752E+04  0.18070635752E+04  0.25500000920E-02 0.  1.
    10030    2    1    2    0    0  0.00000000000E+00  0.00000000000E+00 -0.93381337233E+03  0.26803137782E+04  0.25123842332E+04 0.  0.
        4    1    3    3  502    0  0.24972461306E+03 -0.51944293833E+03 -0.16576814224E+04  0.17550192762E+04  0.12699999809E+01 0.  1.
       -4    1    3    3    0  502 -0.24972461306E+03  0.51944293833E+03  0.72386805010E+03  0.92529450199E+03  0.12699999809E+01 0. -1.
</event>
<event>
 5   0  0.1001961E-05  0.2702671E+04  0.7818609E-02  0.8334139E-01
       -2   -1    0    0    0  501  0.00000000000E+00  0.00000000000E+00  0.93920122565E+03  0.93920122565E+03  0.25500000920E-02 0.  1.
        2   -1    0    0  501    0  0.00000000000E+00  0.00000000000E+00 -0.19443195086E+04  0.19443195086E+04  0.25500000920E-02 0. -1.
    10030    2    1    2    0    0  0.00000000000E+00  0.00000000000E+00 -0.10051182830E+04  0.28835207343E+04  0.27026707277E+04 0.  0.
        5    1    3    3  502    0  0.65443825178E+03 -0.11642234996E+03  0.75270720905E+03  0.10042080569E+04  0.46999998093E+01 0.  1.
       -5    1    3    3    0  502 -0.65443825178E+03  0.11642234996E+03 -0.17578254920E+04  0.18793126774E+04  0.46999998093E+01 0. -1.
</event>
<event>
 5   0  0.9797278E-06  0.3219900E+04  0.7818609E-02  0.8183581E-01
        2   -1    0    0  501    0  0.00000000000E+00  0.00000000000E+00  0.17957678285E+04  0.17957678285E+04  0.25500000920E-02 0. -1.
       -2   -1    0    0    0  501  0.00000000000E+00  0.00000000000E+00 -0.14433599116E+04  0.14433599116E+04  0.25500000920E-02 0.  1.
    10030    2    1    2    0    0  0.00000000000E+00  0.00000000000E+00  0.35240791682E+03  0.32391277401E+04  0.32199001812E+04 0.  0.
        1    1    3    3  502    0  0.47244309822E+02  0.90083344579E+03  0.15176609336E+04  0.17655105866E+04  0.50400001928E-02 0. -1.
       -1    1    3    3    0  502 -0.47244309822E+02 -0.90083344579E+03 -0.11652530168E+04  0.14736171535E+04  0.50400001928E-02 0.  1.
</event>
<event>
 5   0  0.3807334E-06  0.2842380E+04  0.7818609E-02  0.8290231E-01
        1   -1    0    0  501    0  0.00000000000E+00  0.00000000000E+00  0.16718730326E+04  0.16718730326E+04  0.50400001928E-02 0.  1.
       -1   -1    0    0    0  501  0.00000000000E+00  0.00000000000E+00 -0.12080943805E+04  0.12080943805E+04  0.50400001928E-02 0. -1.
    10030    2    1    2    0    0  0.00000000000E+00  0.00000000000E+00  0.46377865209E+03  0.28799674131E+04  0.28423795775E+04 0.  0.
        4    1    3    3  502    0  0.37745004456E+03  0.13697700731E+04  0.26456817457E+03  0.14452461801E+04  0.12699999809E+01 0.  1.
       -4    1    3    3    0  502 -0.37745004456E+03 -0.13697700731E+04  0.19921047752E+03  0.14347212330E+04  0.12699999809E+01 0. -1.
</event>
<event>
 5   0  0.9797278E-06  0.3092706E+04  0.7818609E-02  0.8217743E-01
        2   -1    0    0  501    0  0.00000000000E+00  0.00000000000E+00  0.23649083484E+04  0.23649083484E+04  0.25500000920E-02 0. -1.
       -2   -1    0    0    0  501  0.00000000000E+00  0.00000000000E+00 -0.10111203817E+04  0.10111203818E+04  0.25500000920E-02 0.  1.
    10030    2    1    2    0    0  0.00000000000E+00  0.00000000000E+00  0.13537879667E+04  0.33760287302E+04  0.30927056323E+04 0.  0.
        1    1    3    3  502    0  0.80077419389E+03 -0.13205112694E+04  0.76297012202E+03  0.17225309081E+04  0.50400001928E-02 0. -1.
       -1    1    3    3    0  502 -0.80077419389E+03  0.13205112694E+04  0.59081784465E+03  0.16534978221E+04  0.50400001928E-02 0.  1.
</event>
<event>
 5   0  0.3848286E-06  0.3121879E+04  0.7818609E-02  0.8209759E-01
       -1   -1    0    0    0  501  0.00000000000E+00  0.00000000000E+00  0.18255254373E+04  0.18255254373E+04  0.50400001928E-02 0. -1.
        1   -1    0    0  501    0  0.00000000000E+00  0.00000000000E+00 -0.13347017019E+04  0.13347017020E+04  0.50400001928E-02 0.  1.
    10030    2    1    2    0    0  0.00000000000E+00  0.00000000000E+00  0.49082373534E+03  0.31602271393E+04  0.31218788626E+04 0.  0.
        2    1    3    3  502    0 -0.13475090096E+04 -0.24634738075E+03  0.10029791564E+04  0.16977734688E+04  0.25500000920E-02 0. -1.
       -2    1    3    3    0  502  0.13475090096E+04  0.24634738075E+03 -0.51215542105E+03  0.14624536705E+04  0.25500000920E-02 0.  1.
</event>
<event>
 5   0  0.1007567E-05  0.3314346E+04  0.7818609E-02  0.8159254E-01
        2   -1    0    0  501    0  0.00000000000E+00  0.00000000000E+00  0.25356560449E+04  0.25356560449E+04  0.25500000920E-02 0.  1.
       -2   -1    0    0    0  501  0.00000000000E+00  0.00000000000E+00 -0.10830424436E+04  0.10830424436E+04  0.25500000920E-02 0. -1.
    10030    2    1    2    0    0  0.00000000000E+00  0.00000000000E+00  0.14526136013E+04  0.36186984885E+04  0.33143464629E+04 0.  0.
        3    1    3    3  502    0 -0.10243866697E+04 -0.37209679520E+03  0.20893004401E+04  0.23564805141E+04  0.10100000352E+00 0.  1.
       -3    1    3    3    0  502  0.10243866697E+04  0.37209679520E+03 -0.63668683877E+03  0.12622179744E+04  0.10100000352E+00 0. -1.
</event>
<event>
 5   0  0.3807334E-06  0.2547948E+04  0.7818609E-02  0.8386100E-01
       -1   -1    0    0    0  501  0.00000000000E+00  0.00000000000E+00  0.68530408735E+03  0.68530408737E+03  0.50400001928E-02 0.  1.
        1   -1    0    0  501    0  0.00000000000E+00  0.00000000000E+00 -0.23683058852E+04  0.23683058852E+04  0.50400001928E-02 0. -1.
    10030    2    1    2    0    0  0.00000000000E+00  0.00000000000E+00 -0.16830017979E+04  0.30536099726E+04  0.25479479612E+04 0.  0.
        4    1    3    3  502    0  0.77274363982E+03  0.95912415142E+03 -0.12316101407E+04  0.17418142904E+04  0.12699999809E+01 0.  1.
       -4    1    3    3    0  502 -0.77274363982E+03 -0.95912415142E+03 -0.45139165716E+03  0.13117956822E+04  0.12699999809E+01 0. -1.
</event>
<event>
 5   0  0.3807334E-06  0.1966691E+04  0.7818609E-02  0.8622354E-01
       -1   -1    0    0    0  501  0.00000000000E+00  0.00000000000E+00  0.38320690832E+03  0.38320690836E+03  0.50400001928E-02 0. -1.
        1   -1    0    0  501    0  0.00000000000E+00  0.00000000000E+00 -0.25233590593E+04  0.25233590593E+04  0.50400001928E-02 0.  1.
    10030    2    1    2    0    0  0.00000000000E+00  0.00000000000E+00 -0.21401521509E+04  0.29065659676E+04  0.19666912556E+04 0.  0.
        4    1    3    3  502    0  0.54547250561E+03  0.30632021756E+03 -0.21913258876E+04  0.22788775941E+04  0.12699999809E+01 0.  1.
       -4    1    3    3    0  502 -0.54547250561E+03 -0.30632021756E+03  0.51173736696E+02  0.62768837355E+03  0.12699999809E+01 0. -1.
</event>
<event>
 5   0  0.9797278E-06  0.3120851E+04  0.7818609E-02  0.8210039E-01
       -2   -1    0    0    0  501  0.00000000000E+00  0.00000000000E+00  0.11685736683E+04  0.11685736683E+04  0.25500000920E-02 0. -1.
        2   -1    0    0  501    0  0.00000000000E+00  0.00000000000E+00 -0.20836749740E+04  0.20836749740E+04  0.25500000920E-02 0.  1.
    10030    2    1    2    0    0  0.00000000000E+00  0.00000000000E+00 -0.91510130570E+03  0.32522486422E+04  0.31208509787E+04 0.  0.
        1    1    3    3  502    0 -0.10823741756E+03  0.15093555855E+04 -0.85445118426E+03  0.17378021891E+04  0.50400001928E-02 0.  1.
       -1    1    3    3    0  502  0.10823741756E+03 -0.15093555855E+04 -0.60650121444E+02  0.15144464531E+04  0.50400001928E-02 0. -1.
</event>
<event>
 5   0  0.9797278E-06  0.2946405E+04  0.7818609E-02  0.8259203E-01
        2   -1    0    0  501    0  0.00000000000E+00  0.00000000000E+00  0.16182940568E+04  0.16182940568E+04  0.25500000920E-02 0.  1.
       -2   -1    0    0    0  501  0.00000000000E+00  0.00000000000E+00 -0.13411196381E+04  0.13411196381E+04  0.25500000920E-02 0. -1.
    10030    2    1    2    0    0  0.00000000000E+00  0.00000000000E+00  0.27717441878E+03  0.29594136949E+04  0.29464052266E+04 0.  0.
        1    1    3    3  502    0 -0.15986258400E+03  0.11247785942E+04  0.10806208900E+04  0.15679363634E+04  0.50400001928E-02 0. -1.
       -1    1    3    3    0  502  0.15986258400E+03 -0.11247785942E+04 -0.80344647126E+03  0.13914773315E+04  0.50400001928E-02 0.  1.
</event>
<event>
 5   0  0.4139628E-06  0.1534429E+04  0.7818609E-02  0.8861875E-01
        1   -1    0    0  501    0  0.00000000000E+00  0.00000000000E+00  0.73345355634E+03  0.73345355636E+03  0.50400001928E-02 0.  1.
       -1   -1    0    0    0  501  0.00000000000E+00  0.00000000000E+00 -0.80252974230E+03  0.80252974232E+03  0.50400001928E-02 0. -1.
    10030    2    1    2    0    0  0.00000000000E+00  0.00000000000E+00 -0.69076185962E+02  0.15359832987E+04  0.15344292666E+04 0.  0.
        5    1    3    3  502    0  0.31015025528E+03 -0.22721516183E+03  0.63004415155E+03  0.73810408041E+03  0.46999998093E+01 0.  1.
       -5    1    3    3    0  502 -0.31015025528E+03  0.22721516183E+03 -0.69912033751E+03  0.79787921826E+03  0.46999998093E+01 0. -1.
</event>
<event>
 5   0  0.9797278E-06  0.2989735E+04  0.7818609E-02  0.8246668E-01
       -2   -1    0    0    0  501  0.00000000000E+00  0.00000000000E+00  0.18838302282E+04  0.18838302282E+04  0.25500000920E-02 0. -1.
        2   -1    0    0  501    0  0.00000000000E+00  0.00000000000E+00 -0.11862155396E+04  0.11862155396E+04  0.25500000920E-02 0.  1.
    10030    2    1    2    0    0  0.00000000000E+00  0.00000000000E+00  0.69761468855E+03  0.30700457678E+04  0.29897348984E+04 0.  0.
        1    1    3    3  502    0 -0.54319372248E+03  0.20070522364E+03 -0.10663588017E+04  0.12134509059E+04  0.50400001928E-02 0.  1.
       -1    1    3    3    0  502  0.54319372248E+03 -0.20070522364E+03  0.17639734903E+04  0.18565948619E+04  0.50400001928E-02 0. -1.
</event>
<event>
 5   0  0.1007567E-05  0.3157620E+04  0.7818609E-02  0.8200100E-01
        2   -1    0    0  501    0  0.00000000000E+00  0.00000000000E+00  0.17015849972E+04  0.17015849972E+04  0.25500000920E-02 0.  1.
       -2   -1    0    0    0  501  0.00000000000E+00  0.00000000000E+00 -0.14648936305E+04  0.14648936305E+04  0.25500000920E-02 0. -1.
    10030    2    1    2    0    0  0.00000000000E+00  0.00000000000E+00  0.23669136678E+03  0.31664786277E+04  0.31576200051E+04 0.  0.
        3    1    3    3  502    0  0.10149646264E+04  0.32451750202E+03 -0.10499016965E+04  0.14959138961E+04  0.10100000352E+00 0. -1.
       -3    1    3    3    0  502 -0.10149646264E+04 -0.32451750202E+03  0.12865930632E+04  0.16705647316E+04  0.10100000352E+00 0.  1.
</event>
<event>
 5   0  0.4250961E-06  0.2925334E+04  0.7818609E-02  0.8265380E-01
        1   -1    0    0  501    0  0.00000000000E+00  0.00000000000E+00  0.16836439816E+04  0.16836439816E+04  0.50400001928E-02 0. -1.
       -1   -1    0    0    0  501  0.00000000000E+00  0.00000000000E+00 -0.12706929839E+04  0.12706929839E+04  0.50400001928E-02 0.  1.
    10030    2    1    2    0    0  0.00000000000E+00  0.00000000000E+00  0.41295099775E+03  0.29543369656E+04  0.29253338920E+04 0.  0.
        1    1    3    3  502    0 -0.45906038891E+03  0.60269182667E+03  0.14700478786E+04  0.16537879683E+04  0.50400001928E-02 0. -1.
       -1    1    3    3    0  502  0.45906038891E+03 -0.60269182667E+03 -0.10570968809E+04  0.13005489972E+04  0.50400001928E-02 0.  1.
</event>
<event>
 5   0  0.3807334E-06  0.2962075E+04  0.7818609E-02  0.8254644E-01
       -1   -1    0    0    0  501  0.00000000000E+00  0.00000000000E+00  0.87987261077E+03  0.87987261078E+03  0.50400001928E-02 0. -1.
        1   -1    0    0  501    0  0.00000000000E+00  0.00000000000E+00 -0.24929433742E+04  0.24929433742E+04  0.50400001928E-02 0.  1.
    10030    2    1    2    0    0  0.00000000000E+00  0.00000000000E+00 -0.16130707634E+04  0.33728159850E+04  0.29620753503E+04 0.  0.
        4    1    3    3  502    0 -0.74891446003E+03  0.18085110980E+03 -0.22467981755E+04  0.23752228625E+04  0.12699999809E+01 0.  1.
       -4    1    3    3    0  502  0.74891446003E+03 -0.18085110980E+03  0.63372741204E+03  0.99759312249E+03  0.12699999809E+01 0. -1.
</event>
<event>
 5   0  0.3838525E-06  0.1810883E+04  0.7818609E-02  0.8700534E-01
       -1   -1    0    0    0  501  0.00000000000E+00  0.00000000000E+00  0.84344362191E+03  0.84344362192E+03  0.50400001928E-02 0.  1.
        1   -1    0    0  501    0  0.00000000000E+00  0.00000000000E+00 -0.97199610061E+03  0.97199610063E+03  0.50400001928E-02 0. -1.
    10030    2    1    2    0    0  0.00000000000E+00  0.00000000000E+00 -0.12855247870E+03  0.18154397225E+04  0.18108825601E+04 0.  0.
        3    1    3    3  502    0 -0.78135621412E+03 -0.36187321894E+02 -0.52149066251E+03  0.94009551477E+03  0.10100000352E+00 0. -1.
       -3    1    3    3    0  502  0.78135621412E+03  0.36187321894E+02  0.39293818380E+03  0.87534420778E+03  0.10100000352E+00 0.  1.
</event>
<event>
 5   0  0.4139628E-06  0.2455637E+04  0.7818609E-02  0.8418963E-01
        1   -1    0    0  501    0  0.00000000000E+00  0.00000000000E+00  0.17605848763E+04  0.17605848763E+04  0.50400001928E-02 0.  1.
       -1   -1    0    0    0  501  0.00000000000E+00  0.00000000000E+00 -0.85627161215E+03  0.85627161216E+03  0.50400001928E-02 0. -1.
    10030    2    1    2    0    0  0.00000000000E+00  0.00000000000E+00  0.90431326419E+03  0.26168564885E+04  0.24556374736E+04 0.  0.
        5    1    3    3  502    0  0.27384039966E+03 -0.92077866968E+03  0.12670115359E+04  0.15900195738E+04  0.46999998093E+01 0.  1.
       -5    1    3    3    0  502 -0.27384039966E+03  0.92077866968E+03 -0.36269827174E+03  0.10268369147E+04  0.46999998093E+01 0. -1.
</event>
<event>
 5   0  0.3838525E-06  0.2943244E+04  0.7818609E-02  0.8260126E-01
       -1   -1    0    0    0  501  0.00000000000E+00  0.00000000000E+00  0.15536884644E+04  0.15536884644E+04  0.50400001928E-02 0.  1.
        1   -1    0    0  501    0  0.00000000000E+00  0.00000000000E+00 -0.13938903830E+04  0.13938903830E+04  0.50400001928E-02 0. -1.
    10030    2    1    2    0    0  0.00000000000E+00  0.00000000000E+00  0.15979808140E+03  0.29475788474E+04  0.29432440665E+04 0.  0.
        3    1    3    3  502    0  0.25662890118E+03  0.29327013070E+03  0.15010752544E+04  0.15508361268E+04  0.10100000352E+00 0.  1.
       -3    1    3    3    0  502 -0.25662890118E+03 -0.29327013070E+03 -0.13412771730E+04  0.13967427206E+04  0.10100000352E+00 0. -1.
</event>
<event>
 5   0  0.1108153E-05  0.3067441E+04  0.7818609E-02  0.8224731E-01
        2   -1    0    0  501    0  0.00000000000E+00  0.00000000000E+00  0.96903228606E+03  0.96903228606E+03  0.25500000920E-02 0. -1.
       -2   -1    0    0    0  501  0.00000000000E+00  0.00000000000E+00 -0.24274710594E+04  0.24274710594E+04  0.25500000920E-02 0.  1.
    10030    2    1    2    0    0  0.00000000000E+00  0.00000000000E+00 -0.14584387733E+04  0.33965033454E+04  0.30674405161E+04 0.  0.
        4    1    3    3  502    0  0.14637134103E+04  0.45765326135E+03 -0.75116362963E+03  0.17076744030E+04  0.12699999809E+01 0. -1.
       -4    1    3    3    0  502 -0.14637134103E+04 -0.45765326135E+03 -0.70727514369E+03  0.16888289425E+04  0.12699999809E+01 0.  1.
</event>
<event>
 5   0  0.9797278E-06  0.3055578E+04  0.7818609E-02  0.8228036E-01
        2   -1    0    0  501    0  0.00000000000E+00  0.00000000000E+00  0.18212685689E+04  0.18212685689E+04  0.25500000920E-02 0. -1.
       -2   -1    0    0    0  501  0.00000000000E+00  0.00000000000E+00 -0.12816004331E+04  0.12816004331E+04  0.25500000920E-02 0.  1.
    10030    2    1    2    0    0  0.00000000000E+00  0.00000000000E+00  0.53966813580E+03  0.31028690021E+04  0.30555775800E+04 0.  0.
        1    1    3    3  502    0 -0.16502362125E+03  0.14185801351E+04 -0.28127741419E+03  0.14555821444E+04  0.50400001928E-02 0.  1.
       -1    1    3    3    0  502  0.16502362125E+03 -0.14185801351E+04  0.82094554999E+03  0.16472868577E+04  0.50400001928E-02 0. -1.
</event>
<event>
 5   0  0.3848286E-06  0.3093354E+04  0.7818609E-02  0.8217564E-01
       -1   -1    0    0    0  501  0.00000000000E+00  0.00000000000E+00  0.12112502170E+04  0.12112502170E+04  0.50400001928E-02 0. -1.
        1   -1    0    0  501    0  0.00000000000E+00  0.00000000000E+00 -0.19749916984E+04  0.19749916984E+04  0.50400001928E-02 0.  1.
    10030    2    1    2    0    0  0.00000000000E+00  0.00000000000E+00 -0.76374148143E+03  0.31862419154E+04  0.30933535997E+04 0.  0.
        2    1    3    3  502    0  0.12744180325E+04 -0.85406068031E+03 -0.58436539774E+03  0.16416588821E+04  0.25500000920E-02 0. -1.
       -2    1    3    3    0  502 -0.12744180325E+04  0.85406068031E+03 -0.17937608369E+03  0.15445830333E+04  0.25500000920E-02 0.  1.
</event>
<event>
 5   0  0.1001961E-05  0.3232932E+04  0.7818609E-02  0.8180174E-01
        2   -1    0    0  501    0  0.00000000000E+00  0.00000000000E+00  0.24339034354E+04  0.24339034354E+04  0.25500000920E-02 0. -1.
       -2   -1    0    0    0  501  0.00000000000E+00  0.00000000000E+00 -0.10735686467E+04  0.10735686467E+04  0.25500000920E-02 0.  1.
    10030    2    1    2    0    0  0.00000000000E+00  0.00000000000E+00  0.13603347887E+04  0.35074720821E+04  0.32329320545E+04 0.  0.
        5    1    3    3  502    0  0.58793850015E+03  0.81756610673E+03 -0.69166827683E+03  0.12216845395E+04  0.46999998093E+01 0.  1.
       -5    1    3    3    0  502 -0.58793850015E+03 -0.81756610673E+03  0.20520030655E+04  0.22857875426E+04  0.46999998093E+01 0. -1.
</event>
<event>
 5   0  0.3848286E-06  0.2774930E+04  0.7818609E-02  0.8311094E-01
        1   -1    0    0  501    0  0.00000000000E+00  0.00000000000E+00  0.22081467071E+04  0.22081467071E+04  0.50400001928E-02 0. -1.
       -1   -1    0    0    0  501  0.00000000000E+00  0.00000000000E+00 -0.87179825538E+03  0.87179825539E+03  0.50400001928E-02 0.  1.
    10030    2    1    2    0    0  0.00000000000E+00  0.00000000000E+00  0.13363484517E+04  0.30799449625E+04  0.27749295104E+04 0.  0.
        2    1    3    3  502    0  0.92818451199E+03 -0.12325326029E+03 -0.46825449613E+03  0.10468906952E+04  0.25500000920E-02 0.  1.
       -2    1    3    3    0  502 -0.92818451199E+03  0.12325326029E+03  0.18046029478E+04  0.20330542673E+04  0.25500000920E-02 0. -1.
</event>
<event>
 5   0  0.1119100E-05  0.3020552E+04  0.7818609E-02  0.8237886E-01
       -2   -1    0    0    0  501  0.00000000000E+00  0.00000000000E+00  0.10726923834E+04  0.10726923834E+04  0.25500000920E-02 0. -1.
        2   -1    0    0  501    0  0.00000000000E+00  0.00000000000E+00 -0.21263637568E+04  0.21263637568E+04  0.25500000920E-02 0.  1.
    10030    2    1    2    0    0  0.00000000000E+00  0.00000000000E+00 -0.10536713734E+04  0.31990561402E+04  0.30205524040E+04 0.  0.
        2    1    3    3  502    0 -0.14421341345E+04  0.37196678365E+03 -0.26137606376E+03  0.15120937791E+04  0.25500000920E-02 0. -1.
       -2    1    3    3    0  502  0.14421341345E+04 -0.37196678365E+03 -0.79229530959E+03  0.16869623611E+04  0.25500000920E-02 0.  1.
</event>
<event>
 5   0  0.1007567E-05  0.3089619E+04  0.7818609E-02  0.8218593E-01
       -2   -1    0    0    0  501  0.00000000000E+00  0.00000000000E+00  0.21474906082E+04  0.21474906082E+04  0.25500000920E-02 0. -1.
        2   -1    0    0  501    0  0.00000000000E+00  0.00000000000E+00 -0.11112675309E+04  0.11112675309E+04  0.25500000920E-02 0.  1.
    10030    2    1    2    0    0  0.00000000000E+00  0.00000000000E+00  0.10362230773E+04  0.32587581391E+04  0.30896191259E+04 0.  0.
        3    1    3    3  502    0  0.20946325319E+03 -0.87915396696E+03 -0.80333196247E+03  0.12091851819E+04  0.10100000352E+00 0.  1.
       -3    1    3    3    0  502 -0.20946325319E+03  0.87915396696E+03  0.18395550398E+04  0.20495729572E+04  0.10100000352E+00 0. -1.
</event>
<event>
 5   0  0.9797278E-06  0.3011927E+04  0.7818609E-02  0.8240333E-01
        2   -1    0    0  501    0  0.00000000000E+00  0.00000000000E+00  0.21308471158E+04  0.21308471158E+04  0.25500000920E-02 0. -1.
       -2   -1    0    0    0  501  0.00000000000E+00  0.00000000000E+00 -0.10643305958E+04  0.10643305958E+04  0.25500000920E-02 0.  1.
    10030    2    1    2    0    0  0.00000000000E+00  0.00000000000E+00  0.10665165201E+04  0.31951777116E+04  0.30119268121E+04 0.  0.
        1    1    3    3  502    0  0.11840584167E+03 -0.29863306122E+02 -0.10590698084E+04  0.10660865910E+04  0.50400001928E-02 0.  1.
       -1    1    3    3    0  502 -0.11840584167E+03  0.29863306122E+02  0.21255863284E+04  0.21290911207E+04  0.50400001928E-02 0. -1.
</event>
<event>
 5   0  0.1108153E-05  0.3102181E+04  0.7818609E-02  0.8215140E-01
        2   -1    0    0  501    0  0.00000000000E+00  0.00000000000E+00  0.29674459442E+04  0.29674459442E+04  0.25500000920E-02 0.  1.
       -2   -1    0    0    0  501  0.00000000000E+00  0.00000000000E+00 -0.81075840023E+03  0.81075840023E+03  0.25500000920E-02 0. -1.
    10030    2    1    2    0    0  0.00000000000E+00  0.00000000000E+00  0.21566875440E+04  0.37782043445E+04  0.31021809918E+04 0.  0.
        4    1    3    3  502    0 -0.52392752908E+03 -0.54351562139E+03  0.27285993095E+04  0.28311066902E+04  0.12699999809E+01 0.  1.
       -4    1    3    3    0  502  0.52392752908E+03  0.54351562139E+03 -0.57191176547E+03  0.94709765432E+03  0.12699999809E+01 0. -1.
</event>
<event>
 5   0  0.4139628E-06  0.3058762E+04  0.7818609E-02  0.8227147E-01
       -1   -1    0    0    0  501  0.00000000000E+00  0.00000000000E+00  0.12997825658E+04  0.12997825658E+04  0.50400001928E-02 0. -1.
        1   -1    0    0  501    0  0.00000000000E+00  0.00000000000E+00 -0.17995360646E+04  0.17995360646E+04  0.50400001928E-02 0.  1.
    10030    2    1    2    0    0  0.00000000000E+00  0.00000000000E+00 -0.49975349883E+03  0.30993186305E+04  0.30587615817E+04 0.  0.
        5    1    3    3  502    0  0.10530938096E+04 -0.81574328288E+02  0.87082769547E+03  0.13689499290E+04  0.46999998093E+01 0. -1.
       -5    1    3    3    0  502 -0.10530938096E+04  0.81574328288E+02 -0.13705811943E+04  0.17303687015E+04  0.46999998093E+01 0.  1.
</event>
<event>
 5   0  0.3807334E-06  0.3024885E+04  0.7818609E-02  0.8236660E-01
       -1   -1    0    0    0  501  0.00000000000E+00  0.00000000000E+00  0.95277747561E+03  0.95277747563E+03  0.50400001928E-02 0.  1.
        1   -1    0    0  501    0  0.00000000000E+00  0.00000000000E+00 -0.24008565353E+04  0.24008565353E+04  0.50400001928E-02 0. -1.
    10030    2    1    2    0    0  0.00000000000E+00  0.00000000000E+00 -0.14480790597E+04  0.33536340110E+04  0.30248848104E+04 0.  0.
        4    1    3    3  502    0 -0.52380327990E+03  0.13326868333E+03  0.84204920922E+03  0.10005892772E+04  0.12699999809E+01 0.  1.
       -4    1    3    3    0  502  0.52380327990E+03 -0.13326868333E+03 -0.22901282689E+04  0.23530447338E+04  0.12699999809E+01 0. -1.
</event>
<event>
 5   0  0.4139628E-06  0.3100439E+04  0.7818609E-02  0.8215617E-01
        1   -1    0    0  501    0  0.00000000000E+00  0.00000000000E+00  0.13256293225E+04  0.13256293225E+04  0.50400001928E-02 0. -1.
       -1   -1    0    0    0  501  0.00000000000E+00  0.00000000000E+00 -0.18128605772E+04  0.18128605772E+04  0.50400001928E-02 0.  1.
    10030    2    1    2    0    0  0.00000000000E+00  0.00000000000E+00 -0.48723125472E+03  0.31384898997E+04  0.31004394132E+04 0.  0.
        5    1    3    3  502    0  0.21538319483E+03  0.79962272464E+03 -0.15701843530E+04  0.17751865859E+04  0.46999998093E+01 0.  1.
       -5    1    3    3    0  502 -0.21538319483E+03 -0.79962272464E+03  0.10829530983E+04  0.13633033138E+04  0.46999998093E+01 0. -1.
</event>
<event>
 5   0  0.1007567E-05  0.3101849E+04  0.7818609E-02  0.8215231E-01
        2   -1    0    0  501    0  0.00000000000E+00  0.00000000000E+00  0.11818598716E+04  0.11818598716E+04  0.25500000920E-02 0. -1.
       -2   -1    0    0    0  501  0.00000000000E+00  0.00000000000E+00 -0.20352386792E+04  0.20352386792E+04  0.25500000920E-02 0.  1.
    10030    2    1    2    0    0  0.00000000000E+00  0.00000000000E+00 -0.85337880752E+03  0.32170985508E+04  0.31018490770E+04 0.  0.
        3    1    3    3  502    0  0.44983258364E+03 -0.12386365445E+04  0.42149617340E+03  0.13835566042E+04  0.10100000352E+00 0.  1.
       -3    1    3    3    0  502 -0.44983258364E+03  0.12386365445E+04 -0.12748749809E+04  0.18335419466E+04  0.10100000352E+00 0. -1.
</event>
<event>
 5   0  0.1119100E-05  0.3098754E+04  0.7818609E-02  0.8216080E-01
        2   -1    0    0  501    0  0.00000000000E+00  0.00000000000E+00  0.13952953810E+04  0.13952953810E+04  0.25500000920E-02 0.  1.
       -2   -1    0    0    0  501  0.00000000000E+00  0.00000000000E+00 -0.17204740359E+04  0.17204740359E+04  0.25500000920E-02 0. -1.
    10030    2    1    2    0    0  0.00000000000E+00  0.00000000000E+00 -0.32517865490E+03  0.31157694169E+04  0.30987542500E+04 0.  0.
        2    1    3    3  502    0  0.14897575219E+03 -0.10631196338E+04  0.96075261160E+03  0.14406466296E+04  0.25500000920E-02 0.  1.
       -2    1    3    3    0  502 -0.14897575219E+03  0.10631196338E+04 -0.12859312665E+04  0.16751227874E+04  0.25500000920E-02 0. -1.
</event>
<event>
 5   0  0.1001961E-05  0.3075899E+04  0.7818609E-02  0.8222384E-01
        2   -1    0    0  501    0  0.00000000000E+00  0.00000000000E+00  0.17439061373E+04  0.17439061373E+04  0.25500000920E-02 0. -1.
       -2   -1    0    0    0  501  0.00000000000E+00  0.00000000000E+00 -0.13563161287E+04  0.13563161287E+04  0.25500000920E-02 0.  1.
    10030    2    1    2    0    0  0.00000000000E+00  0.00000000000E+00  0.38759000852E+03  0.31002222660E+04  0.30758985815E+04 0.  0.
        5    1    3    3  502    0  0.20144588076E+03 -0.11862206325E+03  0.17258859539E+04  0.17416532526E+04  0.46999998093E+01 0. -1.
       -5    1    3    3    0  502 -0.20144588076E+03  0.11862206325E+03 -0.13382959453E+04  0.13585690134E+04  0.46999998093E+01 0.  1.
</event>
<event>
 5   0  0.3807334E-06  0.3097113E+04  0.7818609E-02  0.8216531E-01
       -1   -1    0    0    0  501  0.00000000000E+00  0.00000000000E+00  0.13345801021E+04  0.13345801021E+04  0.50400001928E-02 0.  1.
        1   -1    0    0  501    0  0.00000000000E+00  0.00000000000E+00 -0.17968400370E+04  0.17968400370E+04  0.50400001928E-02 0. -1.
    10030    2    1    2    0    0  0.00000000000E+00  0.00000000000E+00 -0.46225993494E+03  0.31314201391E+04  0.30971128233E+04 0.  0.
        4    1    3    3  502    0 -0.13720969214E+04  0.38961297818E+03 -0.84078278065E+03  0.16557069583E+04  0.12699999809E+01 0. -1.
       -4    1    3    3    0  502  0.13720969214E+04 -0.38961297818E+03  0.37852284570E+03  0.14757131808E+04  0.12699999809E+01 0.  1.
</event>
<event>
 5   0  0.4250961E-06  0.2256004E+04  0.7818609E-02  0.8495473E-01
       -1   -1    0    0    0  501  0.00000000000E+00  0.00000000000E+00  0.10180852335E+04  0.10180852335E+04  0.50400001928E-02 0. -1.
        1   -1    0    0  501    0  0.00000000000E+00  0.00000000000E+00 -0.12497853290E+04  0.12497853290E+04  0.50400001928E-02 0.  1.
    10030    2    1    2    0    0  0.00000000000E+00  0.00000000000E+00 -0.23170009551E+03  0.22678705625E+04  0.22560035359E+04 0.  0.
        1    1    3    3  502    0  0.82377504334E+03 -0.64617580846E+03  0.30616710461E+03  0.10908193221E+04  0.50400001928E-02 0. -1.
       -1    1    3    3    0  502 -0.82377504334E+03  0.64617580846E+03 -0.53786720012E+03  0.11770512404E+04  0.50400001928E-02 0.  1.
</event>
<event>
 5   0  0.1119100E-05  0.3106013E+04  0.7818609E-02  0.8214090E-01
        2   -1    0    0  501    0  0.00000000000E+00  0.00000000000E+00  0.12040159377E+04  0.12040159377E+04  0.25500000920E-02 0. -1.
       -2   -1    0    0    0  501  0.00000000000E+00  0.00000000000E+00 -0.20031536933E+04  0.20031536933E+04  0.25500000920E-02 0.  1.
    10030    2    1    2    0    0  0.00000000000E+00  0.00000000000E+00 -0.79913775560E+03  0.32071696309E+04  0.31060128604E+04 0.  0.
        2    1    3    3  502    0  0.10140035485E+03  0.12318746316E+03 -0.19946682145E+04  0.20010393472E+04  0.25500000920E-02 0.  1.
       -2    1    3    3    0  502 -0.10140035485E+03 -0.12318746316E+03  0.11955304589E+04  0.12061302837E+04  0.25500000920E-02 0. -1.
</event>
<event>
 5   0  0.3493125E-06  0.2986595E+04  0.7818609E-02  0.8247569E-01
        3   -1    0    0  501    0  0.00000000000E+00  0.00000000000E+00  0.13939556639E+04  0.13939556676E+04  0.10100000352E+00 0.  1.
       -3   -1    0    0    0  501  0.00000000000E+00  0.00000000000E+00 -0.15997194734E+04  0.15997194766E+04  0.10100000352E+00 0. -1.
    10030    2    1    2    0    0  0.00000000000E+00  0.00000000000E+00 -0.20576380944E+03  0.29936751441E+04  0.29865954067E+04 0.  0.
        3    1    3    3  502    0  0.33520598737E+03  0.69470434769E+03 -0.13845688348E+04  0.15849315611E+04  0.10100000352E+00 0. -1.
       -3    1    3    3    0  502 -0.33520598737E+03 -0.69470434769E+03  0.11788050254E+04  0.14087435831E+04  0.10100000352E+00 0.  1.
</event>
<event>
 5   0  0.3807334E-06  0.2925812E+04  0.7818609E-02  0.8265239E-01
       -1   -1    0    0    0  501  0.00000000000E+00  0.00000000000E+00  0.19104382315E+04  0.19104382315E+04  0.50400001928E-02 0.  1.
        1   -1    0    0  501    0  0.00000000000E+00  0.00000000000E+00 -0.11202110298E+04  0.11202110298E+04  0.50400001928E-02 0. -1.
    10030    2    1    2    0    0  0.00000000000E+00  0.00000000000E+00  0.79022720164E+03  0.30306492613E+04  0.29258120095E+04 0.  0.
        4    1    3    3  502    0  0.87185812283E+03 -0.79577484251E+03  0.12901935039E+04  0.17487124054E+04  0.12699999809E+01 0.  1.
       -4    1    3    3    0  502 -0.87185812283E+03  0.79577484251E+03 -0.49996630226E+03  0.12819368559E+04  0.12699999809E+01 0. -1.
</event>
<event>
 5   0  0.1108153E-05  0.3072113E+04  0.7818609E-02  0.8223433E-01
        2   -1    0    0  501    0  0.00000000000E+00  0.00000000000E+00  0.22437409393E+04  0.22437409393E+04  0.25500000920E-02 0.  1.
       -2   -1    0    0    0  501  0.00000000000E+00  0.00000000000E+00 -0.10515781204E+04  0.10515781204E+04  0.25500000920E-02 0. -1.
    10030    2    1    2    0    0  0.00000000000E+00  0.00000000000E+00  0.11921628190E+04  0.32953190597E+04  0.30721125498E+04 0.  0.
        4    1    3    3  502    0 -0.48253296578E+03  0.90170242640E+03 -0.63329712449E+03  0.12029015710E+04  0.12699999809E+01 0. -1.
       -4    1    3    3    0  502  0.48253296578E+03 -0.90170242640E+03  0.18254599434E+04  0.20924174887E+04  0.12699999809E+01 0.  1.
</event>
<event>
 5   0  0.4139628E-06  0.1767441E+04  0.7818609E-02  0.8723808E-01
       -1   -1    0    0    0  501  0.00000000000E+00  0.00000000000E+00  0.86678803330E+03  0.86678803332E+03  0.50400001928E-02 0.  1.
        1   -1    0    0  501    0  0.00000000000E+00  0.00000000000E+00 -0.90098377843E+03  0.90098377844E+03  0.50400001928E-02 0. -1.
    10030    2    1    2    0    0  0.00000000000E+00  0.00000000000E+00 -0.34195745121E+02  0.17677718118E+04  0.17674410399E+04 0.  0.
        5    1    3    3  502    0 -0.61383790331E+01 -0.39067405594E+03 -0.80988482505E+03  0.89922156198E+03  0.46999998093E+01 0. -1.
       -5    1    3    3    0  502  0.61383790331E+01  0.39067405594E+03  0.77568907993E+03  0.86855024978E+03  0.46999998093E+01 0.  1.
</event>
<event>
 5   0  0.1007567E-05  0.2164174E+04  0.7818609E-02  0.8533489E-01
        2   -1    0    0  501    0  0.00000000000E+00  0.00000000000E+00  0.18637797880E+04  0.18637797880E+04  0.25500000920E-02 0.  1.
       -2   -1    0    0    0  501  0.00000000000E+00  0.00000000000E+00 -0.62824630392E+03  0.62824630393E+03  0.25500000920E-02 0. -1.
    10030    2    1    2    0    0  0.00000000000E+00  0.00000000000E+00  0.12355334841E+04  0.24920260919E+04  0.21641744506E+04 0.  0.
        3    1    3    3  502    0  0.92353470758E+03  0.35540623875E+03  0.11219075981E+04  0.14959634419E+04  0.10100000352E+00 0.  1.
       -3    1    3    3    0  502 -0.92353470758E+03 -0.35540623875E+03  0.11362588601E+03  0.99606265005E+03  0.10100000352E+00 0. -1.
</event>
<event>
 5   0  0.9797278E-06  0.2315853E+04  0.7818609E-02  0.8471697E-01
        2   -1    0    0  501    0  0.00000000000E+00  0.00000000000E+00  0.19764632231E+04  0.19764632231E+04  0.25500000920E-02 0. -1.
       -2   -1    0    0    0  501  0.00000000000E+00  0.00000000000E+00 -0.67838045767E+03  0.67838045767E+03  0.25500000920E-02 0.  1.
    10030    2    1    2    0    0  0.00000000000E+00  0.00000000000E+00  0.12980827654E+04  0.26548436808E+04  0.23158532128E+04 0.  0.
        1    1    3    3  502    0 -0.11258959742E+04 -0.13306367406E+03  0.91897959435E+03  0.14594078186E+04  0.50400001928E-02 0.  1.
       -1    1    3    3    0  502  0.11258959742E+04  0.13306367406E+03  0.37910317108E+03  0.11954358622E+04  0.50400001928E-02 0. -1.
</event>
<event>
 5   0  0.3838525E-06  0.3234776E+04  0.7818609E-02  0.8179693E-01
        1   -1    0    0  501    0  0.00000000000E+00  0.00000000000E+00  0.16168218311E+04  0.16168218311E+04  0.50400001928E-02 0.  1.
       -1   -1    0    0    0  501  0.00000000000E+00  0.00000000000E+00 -0.16179546457E+04  0.16179546457E+04  0.50400001928E-02 0. -1.
    10030    2    1    2    0    0  0.00000000000E+00  0.00000000000E+00 -0.11328146009E+01  0.32347764769E+04  0.32347762785E+04 0.  0.
        3    1    3    3  502    0  0.13841345820E+04 -0.70525220835E+03  0.44969483831E+03  0.16172305575E+04  0.10100000352E+00 0.  1.
       -3    1    3    3    0  502 -0.13841345820E+04  0.70525220835E+03 -0.45082765291E+03  0.16175459193E+04  0.10100000352E+00 0. -1.
</event>
<event>
 5   0  0.3848286E-06  0.3196709E+04  0.7818609E-02  0.8189687E-01
        1   -1    0    0  501    0  0.00000000000E+00  0.00000000000E+00  0.14807242215E+04  0.14807242215E+04  0.50400001928E-02 0. -1.
       -1   -1    0    0    0  501  0.00000000000E+00  0.00000000000E+00 -0.17253296043E+04  0.17253296043E+04  0.50400001928E-02 0.  1.
    10030    2    1    2    0    0  0.00000000000E+00  0.00000000000E+00 -0.24460538285E+03  0.32060538258E+04  0.31967091424E+04 0.  0.
        2    1    3    3  502    0  0.71446395644E+03  0.81232179383E+03 -0.13023525226E+04  0.16930586330E+04  0.25500000920E-02 0.  1.
       -2    1    3    3    0  502 -0.71446395644E+03 -0.81232179383E+03  0.10577471397E+04  0.15129951928E+04  0.25500000920E-02 0. -1.
</event>
<event>
 5   0  0.3807334E-06  0.3144107E+04  0.7818609E-02  0.8203736E-01
       -1   -1    0    0    0  501  0.00000000000E+00  0.00000000000E+00  0.95993077406E+03  0.95993077407E+03  0.50400001928E-02 0.  1.
        1   -1    0    0  501    0  0.00000000000E+00  0.00000000000E+00 -0.25745112638E+04  0.25745112638E+04  0.50400001928E-02 0. -1.
    10030    2    1    2    0    0  0.00000000000E+00  0.00000000000E+00 -0.16145804897E+04  0.35344420379E+04  0.31441072439E+04 0.  0.
        4    1    3    3  502    0 -0.47490318507E+03 -0.11006703688E+04 -0.19505784833E+04  0.22894904080E+04  0.12699999809E+01 0. -1.
       -4    1    3    3    0  502  0.47490318507E+03  0.11006703688E+04  0.33599799362E+03  0.12449516298E+04  0.12699999809E+01 0.  1.
</event>
<event>
 5   0  0.3807334E-06  0.2978003E+04  0.7818609E-02  0.8250040E-01
       -1   -1    0    0    0  501  0.00000000000E+00  0.00000000000E+00  0.92430897430E+03  0.92430897432E+03  0.50400001928E-02 0. -1.
        1   -1    0    0  501    0  0.00000000000E+00  0.00000000000E+00 -0.23986850727E+04  0.23986850727E+04  0.50400001928E-02 0.  1.
    10030    2    1    2    0    0  0.00000000000E+00  0.00000000000E+00 -0.14743760984E+04  0.33229940470E+04  0.29780034515E+04 0.  0.
        4    1    3    3  502    0 -0.80224831212E+03  0.86123492584E+03  0.28049591255E+03  0.12099617852E+04  0.12699999809E+01 0. -1.
       -4    1    3    3    0  502  0.80224831212E+03 -0.86123492584E+03 -0.17548720109E+04  0.21130322618E+04  0.12699999809E+01 0.  1.
</event>
<event>
 5   0  0.4250961E-06  0.2952161E+04  0.7818609E-02  0.8257525E-01
       -1   -1    0    0    0  501  0.00000000000E+00  0.00000000000E+00  0.11461993234E+04  0.11461993234E+04  0.50400001928E-02 0. -1.
        1   -1    0    0  501    0  0.00000000000E+00  0.00000000000E+00 -0.19009033368E+04  0.19009033369E+04  0.50400001928E-02 0.  1.
    10030    2    1    2    0    0  0.00000000000E+00  0.00000000000E+00 -0.75470401347E+03  0.30471026602E+04  0.29521613225E+04 0.  0.
        1    1    3    3  502    0 -0.57691380332E+03  0.94052390350E+03 -0.13893948932E+04  0.17742133240E+04  0.50400001928E-02 0.  1.
       -1    1    3    3    0  502  0.57691380332E+03 -0.94052390350E+03  0.63469087978E+03  0.12728893363E+04  0.50400001928E-02 0. -1.
</event>
<event>
 5   0  0.1001961E-05  0.3130019E+04  0.7818609E-02  0.8207548E-01
        2   -1    0    0  501    0  0.00000000000E+00  0.00000000000E+00  0.11079168112E+04  0.11079168112E+04  0.25500000920E-02 0.  1.
       -2   -1    0    0    0  501  0.00000000000E+00  0.00000000000E+00 -0.22106841667E+04  0.22106841667E+04  0.25500000920E-02 0. -1.
    10030    2    1    2    0    0  0.00000000000E+00  0.00000000000E+00 -0.11027673556E+04  0.33186009779E+04  0.31300186278E+04 0.  0.
        5    1    3    3  502    0  0.11934953753E+04 -0.23535200583E+03  0.49252360204E+03  0.13124112793E+04  0.46999998093E+01 0.  1.
       -5    1    3    3    0  502 -0.11934953753E+04  0.23535200583E+03 -0.15952909576E+04  0.20061896986E+04  0.46999998093E+01 0. -1.
</event>
<event>
 5   0  0.1119100E-05  0.2780725E+04  0.7818609E-02  0.8309278E-01
        2   -1    0    0  501    0  0.00000000000E+00  0.00000000000E+00  0.19126863057E+04  0.19126863057E+04  0.25500000920E-02 0.  1.
       -2   -1    0    0    0  501  0.00000000000E+00  0.00000000000E+00 -0.10106766965E+04  0.10106766965E+04  0.25500000920E-02 0. -1.
    10030    2    1    2    0    0  0.00000000000E+00  0.00000000000E+00  0.90200960924E+03  0.29233630021E+04  0.27807247090E+04 0.  0.
        2    1    3    3  502    0  0.70338113042E+03 -0.11955010337E+04  0.35049887518E+03  0.14306701918E+04  0.25500000920E-02 0. -1.
       -2    1    3    3    0  502 -0.70338113042E+03  0.11955010337E+04  0.55151073406E+03  0.14926928103E+04  0.25500000920E-02 0.  1.
</event>
<event>
 5   0  0.3848286E-06  0.3068734E+04  0.7818609E-02  0.8224371E-01
       -1   -1    0    0    0  501  0.00000000000E+00  0.00000000000E+00  0.11671817831E+04  0.11671817831E+04  0.50400001928E-02 0. -1.
        1   -1    0    0  501    0  0.00000000000E+00  0.00000000000E+00 -0.20170655207E+04  0.20170655207E+04  0.50400001928E-02 0.  1.
    10030    2    1    2    0    0  0.00000000000E+00  0.00000000000E+00 -0.84988373764E+03  0.31842473038E+04  0.30687340263E+04 0.  0.
        2    1    3    3  502    0  0.13343927114E+04 -0.59086968366E+03  0.66763861375E+02  0.14608861367E+04  0.25500000920E-02 0.  1.
       -2    1    3    3    0  502 -0.13343927114E+04  0.59086968366E+03 -0.91664759901E+03  0.17233611671E+04  0.25500000920E-02 0. -1.
</event>
<event>
 5   0  0.4250961E-06  0.1882682E+04  0.7818609E-02  0.8663525E-01
       -1   -1    0    0    0  501  0.00000000000E+00  0.00000000000E+00  0.95272546366E+03  0.95272546367E+03  0.50400001928E-02 0. -1.
        1   -1    0    0  501    0  0.00000000000E+00  0.00000000000E+00 -0.93009246191E+03  0.93009246192E+03  0.50400001928E-02 0.  1.
    10030    2    1    2    0    0  0.00000000000E+00  0.00000000000E+00  0.22633001749E+02  0.18828179256E+04  0.18826818871E+04 0.  0.
        1    1    3    3  502    0  0.60227843419E+03  0.72222810453E+03 -0.30758201320E+02  0.94090319068E+03  0.50400001928E-02 0.  1.
       -1    1    3    3    0  502 -0.60227843419E+03 -0.72222810453E+03  0.53391203070E+02  0.94191473492E+03  0.50400001928E-02 0. -1.
</event>
<event>
 5   0  0.3838525E-06  0.3066886E+04  0.7818609E-02  0.8224885E-01
       -1   -1    0    0    0  501  0.00000000000E+00  0.00000000000E+00  0.10531377724E+04  0.10531377725E+04  0.50400001928E-02 0.  1.
        1   -1    0    0  501    0  0.00000000000E+00  0.00000000000E+00 -0.22328019600E+04  0.22328019600E+04  0.50400001928E-02 0. -1.
    10030    2    1    2    0    0  0.00000000000E+00  0.00000000000E+00 -0.11796641876E+04  0.32859397325E+04  0.30668864227E+04 0.  0.
        3    1    3    3  502    0  0.88731364740E+03 -0.67720620698E+03 -0.17163655302E+04  0.20473994235E+04  0.10100000352E+00 0. -1.
       -3    1    3    3    0  502 -0.88731364740E+03  0.67720620698E+03  0.53670134266E+03  0.12385403090E+04  0.10100000352E+00 0.  1.
</event>
<event>
 5   0  0.4250961E-06  0.2914500E+04  0.7818609E-02  0.8268576E-01
        1   -1    0    0  501    0  0.00000000000E+00  0.00000000000E+00  0.26027510203E+04  0.26027510203E+04  0.50400001928E-02 0. -1.
       -1   -1    0    0    0  501  0.00000000000E+00  0.00000000000E+00 -0.81589732095E+03  0.81589732097E+03  0.50400001928E-02 0.  1.
    10030    2    1    2    0    0  0.00000000000E+00  0.00000000000E+00  0.17868536993E+04  0.34186483412E+04  0.29145000151E+04 0.  0.
        1    1    3    3  502    0 -0.86715341112E+03 -0.32698643643E+03 -0.42569386940E+03  0.10198482429E+04  0.50400001928E-02 0.  1.
       -1    1    3    3    0  502  0.86715341112E+03  0.32698643643E+03  0.22125475687E+04  0.23988000983E+04  0.50400001928E-02 0. -1.
</event>
<event>
 5   0  0.3807334E-06  0.3042523E+04  0.7818609E-02  0.8231691E-01
        1   -1    0    0  501    0  0.00000000000E+00  0.00000000000E+00  0.13404305672E+04  0.13404305672E+04  0.50400001928E-02 0.  1.
       -1   -1    0    0    0  501  0.00000000000E+00  0.00000000000E+00 -0.17264871363E+04  0.17264871363E+04  0.50400001928E-02 0. -1.
    10030    2    1    2    0    0  0.00000000000E+00  0.00000000000E+00 -0.38605656910E+03  0.30669177035E+04  0.30425227239E+04 0.  0.
        4    1    3    3  502    0  0.10959569813E+04  0.39236103005E+03 -0.11802509037E+04  0.16577281717E+04  0.12699999809E+01 0. -1.
       -4    1    3    3    0  502 -0.10959569813E+04 -0.39236103005E+03  0.79419433459E+03  0.14091895318E+04  0.12699999809E+01 0.  1.
</event>
<event>
 5   0  0.3807334E-06  0.1884805E+04  0.7818609E-02  0.8662457E-01
        1   -1    0    0  501    0  0.00000000000E+00  0.00000000000E+00  0.96850694294E+03  0.96850694295E+03  0.50400001928E-02 0. -1.
       -1   -1    0    0    0  501  0.00000000000E+00  0.00000000000E+00 -0.91700187089E+03  0.91700187091E+03  0.50400001928E-02 0.  1.
    10030    2    1    2    0    0  0.00000000000E+00  0.00000000000E+00  0.51505072041E+02  0.18855088139E+04  0.18848052193E+04 0.  0.
        4    1    3    3  502    0  0.66227875254E+03  0.38628176345E+03  0.57394826702E+03  0.95772907075E+03  0.12699999809E+01 0. -1.
       -4    1    3    3    0  502 -0.66227875254E+03 -0.38628176345E+03 -0.52244319498E+03  0.92777974311E+03  0.12699999809E+01 0.  1.
</event>
<event>
 5   0  0.3838525E-06  0.2004191E+04  0.7818609E-02  0.8604664E-01
       -1   -1    0    0    0  501  0.00000000000E+00  0.00000000000E+00  0.12095359592E+04  0.12095359592E+04  0.50400001928E-02 0. -1.
        1   -1    0    0  501    0  0.00000000000E+00  0.00000000000E+00 -0.83023220869E+03  0.83023220870E+03  0.50400001928E-02 0.  1.
    10030    2    1    2    0    0  0.00000000000E+00  0.00000000000E+00  0.37930375052E+03  0.20397681679E+04  0.20041913191E+04 0.  0.
        3    1    3    3  502    0  0.51713331210E+03 -0.46565845786E+03  0.92351405358E+03  0.11563489435E+04  0.10100000352E+00 0. -1.
       -3    1    3    3    0  502 -0.51713331210E+03  0.46565845786E+03 -0.54421030306E+03  0.88341922439E+03  0.10100000352E+00 0.  1.
</event>
<event>
 5   0  0.1119100E-05  0.3001142E+04  0.7818609E-02  0.8243405E-01
        2   -1    0    0  501    0  0.00000000000E+00  0.00000000000E+00  0.85008417372E+03  0.85008417372E+03  0.25500000920E-02 0. -1.
       -2   -1    0    0    0  501  0.00000000000E+00  0.00000000000E+00 -0.26488117230E+04  0.26488117230E+04  0.25500000920E-02 0.  1.
    10030    2    1    2    0    0  0.00000000000E+00  0.00000000000E+00 -0.17987275493E+04  0.34988958968E+04  0.30011417327E+04 0.  0.
        2    1    3    3  502    0 -0.59688379835E+03  0.13630055362E+04 -0.67312012617E+03  0.16331396342E+04  0.25500000920E-02 0. -1.
       -2    1    3    3    0  502  0.59688379835E+03 -0.13630055362E+04 -0.11256074231E+04  0.18657562626E+04  0.25500000920E-02 0.  1.
</event>
<event>
 5   0  0.4139628E-06  0.3103787E+04  0.7818609E-02  0.8214699E-01
       -1   -1    0    0    0  501  0.00000000000E+00  0.00000000000E+00  0.12378843295E+04  0.12378843295E+04  0.50400001928E-02 0.  1.
        1   -1    0    0  501    0  0.00000000000E+00  0.00000000000E+00 -0.19455560762E+04  0.19455560762E+04  0.50400001928E-02 0. -1.
    10030    2    1    2    0    0  0.00000000000E+00  0.00000000000E+00 -0.70767174671E+03  0.31834404057E+04  0.31037869637E+04 0.  0.
        5    1    3    3  502    0  0.23556550172E+03  0.15259047044E+04 -0.19337604749E+03  0.15560503392E+04  0.46999998093E+01 0.  1.
       -5    1    3    3    0  502 -0.23556550172E+03 -0.15259047044E+04 -0.51429569922E+03  0.16273900665E+04  0.46999998093E+01 0. -1.
</event>
<event>
 5   0  0.9797278E-06  0.3124757E+04  0.7818609E-02  0.8208976E-01
        2   -1    0    0  501    0  0.00000000000E+00  0.00000000000E+00  0.25248389226E+04  0.25248389226E+04  0.25500000920E-02 0. -1.
       -2   -1    0    0    0  501  0.00000000000E+00  0.00000000000E+00 -0.96680498572E+03  0.96680498572E+03  0.25500000920E-02 0.  1.
    10030    2    1    2    0    0  0.00000000000E+00  0.00000000000E+00  0.15580339369E+04  0.34916439083E+04  0.31247571800E+04 0.  0.
        1    1    3    3  502    0  0.13293298900E+04  0.24522935909E+03  0.16544380843E+04  0.21364505072E+04  0.50400001928E-02 0. -1.
       -1    1    3    3    0  502 -0.13293298900E+04 -0.24522935909E+03 -0.96404147389E+02  0.13551934012E+04  0.50400001928E-02 0.  1.
</event>
<event>
 5   0  0.3838525E-06  0.2039857E+04  0.7818609E-02  0.8588210E-01
        1   -1    0    0  501    0  0.00000000000E+00  0.00000000000E+00  0.19430234370E+04  0.19430234370E+04  0.50400001928E-02 0.  1.
       -1   -1    0    0    0  501  0.00000000000E+00  0.00000000000E+00 -0.53537922359E+03  0.53537922362E+03  0.50400001928E-02 0. -1.
    10030    2    1    2    0    0  0.00000000000E+00  0.00000000000E+00  0.14076442134E+04  0.24784026606E+04  0.20398572295E+04 0.  0.
        3    1    3    3  502    0 -0.25508458798E+03 -0.10209174889E+03 -0.48956825527E+03  0.56139821783E+03  0.10100000352E+00 0. -1.
       -3    1    3    3    0  502  0.25508458798E+03  0.10209174889E+03  0.18972124686E+04  0.19170044428E+04  0.10100000352E+00 0.  1.
</event>
<event>
 5   0  0.9797278E-06  0.2236759E+04  0.7818609E-02  0.8503282E-01
        2   -1    0    0  501    0  0.00000000000E+00  0.00000000000E+00  0.17230208252E+04  0.17230208252E+04  0.25500000920E-02 0. -1.
       -2   -1    0    0    0  501  0.00000000000E+00  0.00000000000E+00 -0.72591850913E+03  0.72591850913E+03  0.25500000920E-02 0.  1.
    10030    2    1    2    0    0  0.00000000000E+00  0.00000000000E+00  0.99710231611E+03  0.24489393344E+04  0.22367590024E+04 0.  0.
        1    1    3    3  502    0 -0.19279159010E+03  0.62013382574E+03  0.14954385212E+04  0.16303591414E+04  0.50400001928E-02 0. -1.
       -1    1    3    3    0  502  0.19279159010E+03 -0.62013382574E+03 -0.49833620511E+03  0.81858019301E+03  0.50400001928E-02 0.  1.
</event>
<event>
 5   0  0.4250961E-06  0.2133666E+04  0.7818609E-02  0.8546557E-01
       -1   -1    0    0    0  501  0.00000000000E+00  0.00000000000E+00  0.24478792379E+04  0.24478792379E+04  0.50400001928E-02 0.  1.
        1   -1    0    0  501    0  0.00000000000E+00  0.00000000000E+00 -0.46494640078E+03  0.46494640081E+03  0.50400001928E-02 0. -1.
    10030    2    1    2    0    0  0.00000000000E+00  0.00000000000E+00  0.19829328371E+04  0.29128256387E+04  0.21336659919E+04 0.  0.
        1    1    3    3  502    0  0.90026513358E+03  0.35769708411E+03  0.16015452024E+04  0.18717295611E+04  0.50400001928E-02 0.  1.
       -1    1    3    3    0  502 -0.90026513358E+03 -0.35769708411E+03  0.38138763468E+03  0.10410960775E+04  0.50400001928E-02 0. -1.
</event>
<event>
 5   0  0.1001961E-05  0.3166249E+04  0.7818609E-02  0.8197788E-01
       -2   -1    0    0    0  501  0.00000000000E+00  0.00000000000E+00  0.99689045060E+03  0.99689045060E+03  0.25500000920E-02 0.  1.
        2   -1    0    0  501    0  0.00000000000E+00  0.00000000000E+00 -0.25141016144E+04  0.25141016144E+04  0.25500000920E-02 0. -1.
    10030    2    1    2    0    0  0.00000000000E+00  0.00000000000E+00 -0.15172111638E+04  0.35109920650E+04  0.31662494477E+04 0.  0.
        5    1    3    3  502    0  0.15779160211E+04  0.12479668120E+03 -0.72592426048E+03  0.17413733957E+04  0.46999998093E+01 0. -1.
       -5    1    3    3    0  502 -0.15779160211E+04 -0.12479668120E+03 -0.79128690328E+03  0.17696186693E+04  0.46999998093E+01 0.  1.
</event>
<event>
 5   0  0.3848286E-06  0.2473940E+04  0.7818609E-02  0.8412329E-01
       -1   -1    0    0    0  501  0.00000000000E+00  0.00000000000E+00  0.12020581261E+04  0.12020581261E+04  0.50400001928E-02 0. -1.
        1   -1    0    0  501    0  0.00000000000E+00  0.00000000000E+00 -0.12728956672E+04  0.12728956672E+04  0.50400001928E-02 0.  1.
    10030    2    1    2    0    0  0.00000000000E+00  0.00000000000E+00 -0.70837541067E+02  0.24749537933E+04  0.24739398379E+04 0.  0.
        2    1    3    3  502    0  0.22038268478E+03 -0.49002225947E+03  0.10792210980E+04  0.12055739384E+04  0.25500000920E-02 0. -1.
       -2    1    3    3    0  502 -0.22038268478E+03  0.49002225947E+03 -0.11500586391E+04  0.12693798549E+04  0.25500000920E-02 0.  1.
</event>
<event>
 5   0  0.1007567E-05  0.2974209E+04  0.7818609E-02  0.8251134E-01
        2   -1    0    0  501    0  0.00000000000E+00  0.00000000000E+00  0.26342858910E+04  0.26342858910E+04  0.25500000920E-02 0.  1.
       -2   -1    0    0    0  501  0.00000000000E+00  0.00000000000E+00 -0.83949858162E+03  0.83949858162E+03  0.25500000920E-02 0. -1.
    10030    2    1    2    0    0  0.00000000000E+00  0.00000000000E+00  0.17947873094E+04  0.34737844726E+04  0.29742086471E+04 0.  0.
        3    1    3    3  502    0  0.11379392049E+04  0.47557988714E+03 -0.73073876703E+02  0.12354843847E+04  0.10100000352E+00 0. -1.
       -3    1    3    3    0  502 -0.11379392049E+04 -0.47557988714E+03  0.18678611861E+04  0.22383000879E+04  0.10100000352E+00 0.  1.
</event>
<event>
 5   0  0.1119100E-05  0.2921681E+04  0.7818609E-02  0.8266456E-01
       -2   -1    0    0    0  501  0.00000000000E+00  0.00000000000E+00  0.14846297447E+04  0.14846297447E+04  0.25500000920E-02 0. -1.
        2   -1    0    0  501    0  0.00000000000E+00  0.00000000000E+00 -0.14374323292E+04  0.14374323292E+04  0.25500000920E-02 0.  1.
    10030    2    1    2    0    0  0.00000000000E+00  0.00000000000E+00  0.47197415477E+02  0.29220620739E+04  0.29216808805E+04 0.  0.
        2    1    3    3  502    0  0.50088056252E+03  0.58637015871E+03  0.12644634043E+04  0.14810735977E+04  0.25500000920E-02 0. -1.
       -2    1    3    3    0  502 -0.50088056252E+03 -0.58637015871E+03 -0.12172659888E+04  0.14409884762E+04  0.25500000920E-02 0.  1.
</event>
<event>
 5   0  0.3848286E-06  0.1660779E+04  0.7818609E-02  0.8784055E-01
        1   -1    0    0  501    0  0.00000000000E+00  0.00000000000E+00  0.88417976887E+03  0.88417976889E+03  0.50400001928E-02 0. -1.
       -1   -1    0    0    0  501  0.00000000000E+00  0.00000000000E+00 -0.77987195925E+03  0.77987195927E+03  0.50400001928E-02 0.  1.
    10030    2    1    2    0    0  0.00000000000E+00  0.00000000000E+00  0.10430780962E+03  0.16640517282E+04  0.16607793456E+04 0.  0.
        2    1    3    3  502    0 -0.30912274432E+03  0.24394078470E+03  0.78467788806E+03  0.87794268919E+03  0.25500000920E-02 0. -1.
       -2    1    3    3    0  502  0.30912274432E+03 -0.24394078470E+03 -0.68037007844E+03  0.78610903896E+03  0.25500000920E-02 0.  1.
</event>
<event>
 5   0  0.1001961E-05  0.3006013E+04  0.7818609E-02  0.8242016E-01
       -2   -1    0    0    0  501  0.00000000000E+00  0.00000000000E+00  0.15533805028E+04  0.15533805028E+04  0.25500000920E-02 0. -1.
        2   -1    0    0  501    0  0.00000000000E+00  0.00000000000E+00 -0.14542662319E+04  0.14542662319E+04  0.25500000920E-02 0.  1.
    10030    2    1    2    0    0  0.00000000000E+00  0.00000000000E+00  0.99114270889E+02  0.30076467347E+04  0.30060131806E+04 0.  0.
        5    1    3    3  502    0 -0.10671415642E+04  0.37408784367E+03  0.10401829958E+04  0.15364685443E+04  0.46999998093E+01 0. -1.
       -5    1    3    3    0  502  0.10671415642E+04 -0.37408784367E+03 -0.94106872494E+03  0.14711781904E+04  0.46999998093E+01 0.  1.
</event>
<event>
 5   0  0.1001961E-05  0.3096805E+04  0.7818609E-02  0.8216615E-01
       -2   -1    0    0    0  501  0.00000000000E+00  0.00000000000E+00  0.19467435655E+04  0.19467435655E+04  0.25500000920E-02 0. -1.
        2   -1    0    0  501    0  0.00000000000E+00  0.00000000000E+00 -0.12315698090E+04  0.12315698090E+04  0.25500000920E-02 0.  1.
    10030    2    1    2    0    0  0.00000000000E+00  0.00000000000E+00  0.71517375652E+03  0.31783133746E+04  0.30968051933E+04 0.  0.
        5    1    3    3  502    0  0.15188073384E+03  0.15349880092E+04  0.49632077805E+03  0.16203741390E+04  0.46999998093E+01 0. -1.
       -5    1    3    3    0  502 -0.15188073384E+03 -0.15349880092E+04  0.21885297847E+03  0.15579392356E+04  0.46999998093E+01 0.  1.
</event>
<event>
 5   0  0.1007567E-05  0.2782225E+04  0.7818609E-02  0.8308808E-01
       -2   -1    0    0    0  501  0.00000000000E+00  0.00000000000E+00  0.81864557423E+03  0.81864557424E+03  0.25500000920E-02 0. -1.
        2   -1    0    0  501    0  0.00000000000E+00  0.00000000000E+00 -0.23638963727E+04  0.23638963727E+04  0.25500000920E-02 0.  1.
    10030    2    1    2    0    0  0.00000000000E+00  0.00000000000E+00 -0.15452507985E+04  0.31825419470E+04  0.27822245082E+04 0.  0.
        3    1    3    3  502    0  0.22629291351E+03  0.70425221018E+02 -0.23406333308E+04  0.23526012398E+04  0.10100000352E+00 0.  1.
       -3    1    3    3    0  502 -0.22629291351E+03 -0.70425221018E+02  0.79538253228E+03  0.82994070711E+03  0.10100000352E+00 0. -1.
</event>
<event>
 5   0  0.9797278E-06  0.2558018E+04  0.7818609E-02  0.8382603E-01
       -2   -1    0    0    0  501  0.00000000000E+00  0.00000000000E+00  0.88805251271E+03  0.88805251272E+03  0.25500000920E-02 0. -1.
        2   -1    0    0  501    0  0.00000000000E+00  0.00000000000E+00 -0.18420800393E+04  0.18420800393E+04  0.25500000920E-02 0.  1.
    10030    2    1    2    0    0  0.00000000000E+00  0.00000000000E+00 -0.95402752662E+03  0.27301325521E+04  0.25580178323E+04 0.  0.
        1    1    3    3  502    0 -0.67571141903E+03  0.25091504423E+03 -0.16046640280E+04  0.17591165181E+04  0.50400001928E-02 0.  1.
       -1    1    3    3    0  502  0.67571141903E+03 -0.25091504423E+03  0.65063650143E+03  0.97101603398E+03  0.50400001928E-02 0. -1.
</event>
<event>
 5   0  0.4139628E-06  0.3096054E+04  0.7818609E-02  0.8216822E-01
        1   -1    0    0  501    0  0.00000000000E+00  0.00000000000E+00  0.24059473570E+04  0.24059473570E+04  0.50400001928E-02 0.  1.
       -1   -1    0    0    0  501  0.00000000000E+00  0.00000000000E+00 -0.99602669475E+03  0.99602669476E+03  0.50400001928E-02 0. -1.
    10030    2    1    2    0    0  0.00000000000E+00  0.00000000000E+00  0.14099206622E+04  0.34019740517E+04  0.30960541298E+04 0.  0.
        5    1    3    3  502    0 -0.41133216005E+03 -0.60529856850E+03 -0.79393246860E+03  0.10797830141E+04  0.46999998093E+01 0. -1.
       -5    1    3    3    0  502  0.41133216005E+03  0.60529856850E+03  0.22038531308E+04  0.23221910376E+04  0.46999998093E+01 0.  1.
</event>
<event>
 5   0  0.4250961E-06  0.3082829E+04  0.7818609E-02  0.8220466E-01
        1   -1    0    0  501    0  0.00000000000E+00  0.00000000000E+00  0.24641407133E+04  0.24641407133E+04  0.50400001928E-02 0.  1.
       -1   -1    0    0    0  501  0.00000000000E+00  0.00000000000E+00 -0.96421389061E+03  0.96421389063E+03  0.50400001928E-02 0. -1.
    10030    2    1    2    0    0  0.00000000000E+00  0.00000000000E+00  0.14999268227E+04  0.34283546039E+04  0.30828290282E+04 0.  0.
        1    1    3    3  502    0 -0.24103819355E+03 -0.85442176754E+03 -0.65135653689E+03  0.11010909616E+04  0.50400001928E-02 0. -1.
       -1    1    3    3    0  502  0.24103819355E+03  0.85442176754E+03  0.21512833596E+04  0.23272636423E+04  0.50400001928E-02 0.  1.
</event>
<event>
 5   0  0.1119100E-05  0.2718276E+04  0.7818609E-02  0.8329099E-01
       -2   -1    0    0    0  501  0.00000000000E+00  0.00000000000E+00  0.89035346869E+03  0.89035346869E+03  0.25500000920E-02 0.  1.
        2   -1    0    0  501    0  0.00000000000E+00  0.00000000000E+00 -0.20747449453E+04  0.20747449453E+04  0.25500000920E-02 0. -1.
    10030    2    1    2    0    0  0.00000000000E+00  0.00000000000E+00 -0.11843914766E+04  0.29650984139E+04  0.27182761881E+04 0.  0.
        2    1    3    3  502    0 -0.52118537991E+03 -0.23636388278E+02  0.77677625287E+03  0.93572123312E+03  0.25500000920E-02 0.  1.
       -2    1    3    3    0  502  0.52118537991E+03  0.23636388278E+02 -0.19611677294E+04  0.20293771808E+04  0.25500000920E-02 0. -1.
</event>
<event>
 5   0  0.3848286E-06  0.2111086E+04  0.7818609E-02  0.8556375E-01
        1   -1    0    0  501    0  0.00000000000E+00  0.00000000000E+00  0.15768943915E+04  0.15768943915E+04  0.50400001928E-02 0.  1.
       -1   -1    0    0    0  501  0.00000000000E+00  0.00000000000E+00 -0.70656047014E+03  0.70656047016E+03  0.50400001928E-02 0. -1.
    10030    2    1    2    0    0  0.00000000000E+00  0.00000000000E+00  0.87033392134E+03  0.22834548616E+04  0.21110862063E+04 0.  0.
        2    1    3    3  502    0  0.40321111041E+03  0.38868633937E+03 -0.53260089423E+03  0.77286478928E+03  0.25500000920E-02 0. -1.
       -2    1    3    3    0  502 -0.40321111041E+03 -0.38868633937E+03  0.14029348156E+04  0.15105900724E+04  0.25500000920E-02 0.  1.
</event>
<event>
 5   0  0.1007567E-05  0.3816844E+04  0.7818609E-02  0.8042550E-01
        2   -1    0    0  501    0  0.00000000000E+00  0.00000000000E+00  0.14041383684E+04  0.14041383684E+04  0.25500000920E-02 0. -1.
       -2   -1    0    0    0  501  0.00000000000E+00  0.00000000000E+00 -0.25938141660E+04  0.25938141660E+04  0.25500000920E-02 0.  1.
    10030    2    1    2    0    0  0.00000000000E+00  0.00000000000E+00 -0.11896757976E+04  0.39979525344E+04  0.38168437175E+04 0.  0.
        3    1    3    3  502    0  0.50284540545E+03 -0.36475566050E+03 -0.24849477413E+04  0.25614186462E+04  0.10100000352E+00 0.  1.
       -3    1    3    3    0  502 -0.50284540545E+03  0.36475566050E+03  0.12952719437E+04  0.14365338882E+04  0.10100000352E+00 0. -1.
</event>
<event>
 5   0  0.1001961E-05  0.3087402E+04  0.7818609E-02  0.8219204E-01
       -2   -1    0    0    0  501  0.00000000000E+00  0.00000000000E+00  0.17507079712E+04  0.17507079712E+04  0.25500000920E-02 0. -1.
        2   -1    0    0  501    0  0.00000000000E+00  0.00000000000E+00 -0.13611708755E+04  0.13611708755E+04  0.25500000920E-02 0.  1.
    10030    2    1    2    0    0  0.00000000000E+00  0.00000000000E+00  0.38953709572E+03  0.31118788468E+04  0.30874019512E+04 0.  0.
        5    1    3    3  502    0  0.78594118249E+03  0.21768891161E+03 -0.11263088733E+04  0.13905703048E+04  0.46999998093E+01 0.  1.
       -5    1    3    3    0  502 -0.78594118249E+03 -0.21768891161E+03  0.15158459691E+04  0.17213085419E+04  0.46999998093E+01 0. -1.
</event>
<event>
 5   0  0.3838525E-06  0.2639208E+04  0.7818609E-02  0.8355004E-01
        1   -1    0    0  501    0  0.00000000000E+00  0.00000000000E+00  0.16796787526E+04  0.16796787526E+04  0.50400001928E-02 0.  1.
       -1   -1    0    0    0  501  0.00000000000E+00  0.00000000000E+00 -0.10367187822E+04  0.10367187822E+04  0.50400001928E-02 0. -1.
    10030    2    1    2    0    0  0.00000000000E+00  0.00000000000E+00  0.64295997040E+03  0.27163975348E+04  0.26392078440E+04 0.  0.
        3    1    3    3  502    0 -0.49541536889E+03 -0.60734432438E+01 -0.93735351015E+03  0.10602381278E+04  0.10100000352E+00 0. -1.
       -3    1    3    3    0  502  0.49541536889E+03  0.60734432438E+01  0.15803134805E+04  0.16561594070E+04  0.10100000352E+00 0.  1.
</event>
<event>
 5   0  0.4139628E-06  0.3098779E+04  0.7818609E-02  0.8216073E-01
        1   -1    0    0  501    0  0.00000000000E+00  0.00000000000E+00  0.17060466255E+04  0.17060466255E+04  0.50400001928E-02 0.  1.
       -1   -1    0    0    0  501  0.00000000000E+00  0.00000000000E+00 -0.14071173450E+04  0.14071173450E+04  0.50400001928E-02 0. -1.
    10030    2    1    2    0    0  0.00000000000E+00  0.00000000000E+00  0.29892928046E+03  0.31131639705E+04  0.30987789842E+04 0.  0.
        5    1    3    3  502    0  0.81794629922E+03  0.68325072987E+03 -0.98035271968E+03  0.14480957335E+04  0.46999998093E+01 0. -1.
       -5    1    3    3    0  502 -0.81794629922E+03 -0.68325072987E+03  0.12792820001E+04  0.16650682371E+04  0.46999998093E+01 0.  1.
</event>
<event>
 5   0  0.9797278E-06  0.3097834E+04  0.7818609E-02  0.8216333E-01
       -2   -1    0    0    0  501  0.00000000000E+00  0.00000000000E+00  0.10328249768E+04  0.10328249768E+04  0.25500000920E-02 0. -1.
        2   -1    0    0  501    0  0.00000000000E+00  0.00000000000E+00 -0.23228945283E+04  0.23228945283E+04  0.25500000920E-02 0.  1.
    10030    2    1    2    0    0  0.00000000000E+00  0.00000000000E+00 -0.12900695515E+04  0.33557195050E+04  0.30978337510E+04 0.  0.
        1    1    3    3  502    0 -0.14182611174E+04  0.59088782117E+03 -0.43240224179E+03  0.15961155074E+04  0.50400001928E-02 0. -1.
       -1    1    3    3    0  502  0.14182611174E+04 -0.59088782117E+03 -0.85766730969E+03  0.17596039976E+04  0.50400001928E-02 0.  1.
</event>
<event>
 5   0  0.1108153E-05  0.3189437E+04  0.7818609E-02  0.8191612E-01
        2   -1    0    0  501    0  0.00000000000E+00  0.00000000000E+00  0.23535458170E+04  0.23535458170E+04  0.25500000920E-02 0. -1.
       -2   -1    0    0    0  501  0.00000000000E+00  0.00000000000E+00 -0.10805512038E+04  0.10805512038E+04  0.25500000920E-02 0.  1.
    10030    2    1    2    0    0  0.00000000000E+00  0.00000000000E+00  0.12729946132E+04  0.34340970208E+04  0.31894367940E+04 0.  0.
        4    1    3    3  502    0 -0.91007946674E+03 -0.98813801801E+03 -0.28876135345E+03  0.13740619020E+04  0.12699999809E+01 0.  1.
       -4    1    3    3    0  502  0.91007946674E+03  0.98813801801E+03  0.15617559667E+04  0.20600351188E+04  0.12699999809E+01 0. -1.
</event>
<event>
 5   0  0.3493125E-06  0.2734596E+04  0.7818609E-02  0.8323866E-01
       -4   -1    0    0    0  501  0.00000000000E+00  0.00000000000E+00  0.16658922641E+04  0.16658927482E+04  0.12699999809E+01 0.  1.
        4   -1    0    0  501    0  0.00000000000E+00  0.00000000000E+00 -0.11222230623E+04  0.11222237810E+04  0.12699999809E+01 0. -1.
    10030    2    1    2    0    0  0.00000000000E+00  0.00000000000E+00  0.54366920177E+03  0.27881165292E+04  0.27345964198E+04 0.  0.
        5    1    3    3  502    0 -0.81011836094E+03 -0.90941974418E+03 -0.36173394052E+03  0.12705154716E+04  0.46999998093E+01 0. -1.
       -5    1    3    3    0  502  0.81011836094E+03  0.90941974418E+03  0.90540314229E+03  0.15176010576E+04  0.46999998093E+01 0.  1.
</event>
<event>
 5   0  0.3807334E-06  0.3128961E+04  0.7818609E-02  0.8207834E-01
       -1   -1    0    0    0  501  0.00000000000E+00  0.00000000000E+00  0.95047751351E+03  0.95047751352E+03  0.50400001928E-02 0.  1.
        1   -1    0    0  501    0  0.00000000000E+00  0.00000000000E+00 -0.25751258813E+04  0.25751258813E+04  0.50400001928E-02 0. -1.
    10030    2    1    2    0    0  0.00000000000E+00  0.00000000000E+00 -0.16246483678E+04  0.35256033948E+04  0.31289610062E+04 0.  0.
        4    1    3    3  502    0  0.58339473438E+03 -0.38617291647E+03  0.76438940864E+03  0.10362295684E+04  0.12699999809E+01 0.  1.
       -4    1    3    3    0  502 -0.58339473438E+03  0.38617291647E+03 -0.23890377764E+04  0.24893738264E+04  0.12699999809E+01 0. -1.
</event>
<event>
 5   0  0.1007567E-05  0.1936076E+04  0.7818609E-02  0.8637104E-01
       -2   -1    0    0    0  501  0.00000000000E+00  0.00000000000E+00  0.12733396093E+04  0.12733396093E+04  0.25500000920E-02 0.  1.
        2   -1    0    0  501    0  0.00000000000E+00  0.00000000000E+00 -0.73593710338E+03  0.73593710339E+03  0.25500000920E-02 0. -1.
    10030    2    1    2    0    0  0.00000000000E+00  0.00000000000E+00  0.53740250589E+03  0.20092767127E+04  0.19360763040E+04 0.  0.
        3    1    3    3  502    0 -0.86392214652E+03 -0.25535483811E+03 -0.98996976356E+02  0.90629353972E+03  0.10100000352E+00 0. -1.
       -3    1    3    3    0  502  0.86392214652E+03  0.25535483811E+03  0.63639948225E+03  0.11029831729E+04  0.10100000352E+00 0.  1.
</event>
<event>
 5   0  0.4250961E-06  0.2047264E+04  0.7818609E-02  0.8584836E-01
        1   -1    0    0  501    0  0.00000000000E+00  0.00000000000E+00  0.11302436040E+04  0.11302436040E+04  0.50400001928E-02 0. -1.
       -1   -1    0    0    0  501  0.00000000000E+00  0.00000000000E+00 -0.92707709482E+03  0.92707709483E+03  0.50400001928E-02 0.  1.
    10030    2    1    2    0    0  0.00000000000E+00  0.00000000000E+00  0.20316650921E+03  0.20573206989E+04  0.20472644742E+04 0.  0.
        1    1    3    3  502    0  0.79804430830E+03  0.39119378798E+03 -0.40876531357E+03  0.97826191756E+03  0.50400001928E-02 0.  1.
       -1    1    3    3    0  502 -0.79804430830E+03 -0.39119378798E+03  0.61193182277E+03  0.10790587813E+04  0.50400001928E-02 0. -1.
</event>
<event>
 5   0  0.1001961E-05  0.3105831E+04  0.7818609E-02  0.8214139E-01
       -2   -1    0    0    0  501  0.00000000000E+00  0.00000000000E+00  0.90570372514E+03  0.90570372514E+03  0.25500000920E-02 0.  1.
        2   -1    0    0  501    0  0.00000000000E+00  0.00000000000E+00 -0.26626222808E+04  0.26626222808E+04  0.25500000920E-02 0. -1.
    10030    2    1    2    0    0  0.00000000000E+00  0.00000000000E+00 -0.17569185557E+04  0.35683260060E+04  0.31058312371E+04 0.  0.
        5    1    3    3  502    0  0.18837031299E+03  0.66657094607E+03 -0.24752914716E+04  0.25703871615E+04  0.46999998093E+01 0. -1.
       -5    1    3    3    0  502 -0.18837031299E+03 -0.66657094607E+03  0.71837291588E+03  0.99793884444E+03  0.46999998093E+01 0.  1.
</event>
<event>
 5   0  0.3848286E-06  0.3126318E+04  0.7818609E-02  0.8208552E-01
        1   -1    0    0  501    0  0.00000000000E+00  0.00000000000E+00  0.16906018431E+04  0.16906018431E+04  0.50400001928E-02 0. -1.
       -1   -1    0    0    0  501  0.00000000000E+00  0.00000000000E+00 -0.14453228165E+04  0.14453228165E+04  0.50400001928E-02 0.  1.
    10030    2    1    2    0    0  0.00000000000E+00  0.00000000000E+00  0.24527902652E+03  0.31359246596E+04  0.31263175894E+04 0.  0.
        2    1    3    3  502    0 -0.70950133426E+03  0.62275020673E+03 -0.11270845248E+04  0.14702140964E+04  0.25500000920E-02 0.  1.
       -2    1    3    3    0  502  0.70950133426E+03 -0.62275020673E+03  0.13723635513E+04  0.16657105632E+04  0.25500000920E-02 0. -1.
</event>
<event>
 5   0  0.9797278E-06  0.3164047E+04  0.7818609E-02  0.8198377E-01
        2   -1    0    0  501    0  0.00000000000E+00  0.00000000000E+00  0.23873143233E+04  0.23873143233E+04  0.25500000920E-02 0. -1.
       -2   -1    0    0    0  501  0.00000000000E+00  0.00000000000E+00 -0.10483739026E+04  0.10483739026E+04  0.25500000920E-02 0.  1.
    10030    2    1    2    0    0  0.00000000000E+00  0.00000000000E+00  0.13389404207E+04  0.34356882259E+04  0.31640467973E+04 0.  0.
        1    1    3    3  502    0 -0.10619117795E+04  0.86688504438E+03  0.15269855799E+04  0.20520310107E+04  0.50400001928E-02 0. -1.
       -1    1    3    3    0  502  0.10619117795E+04 -0.86688504438E+03 -0.18804515917E+03  0.13836572153E+04  0.50400001928E-02 0.  1.
</event>
<event>
 5   0  0.1119100E-05  0.1927317E+04  0.7818609E-02  0.8641377E-01
       -2   -1    0    0    0  501  0.00000000000E+00  0.00000000000E+00  0.78848979636E+03  0.78848979636E+03  0.25500000920E-02 0.  1.
        2   -1    0    0  501    0  0.00000000000E+00  0.00000000000E+00 -0.11777417375E+04  0.11777417375E+04  0.25500000920E-02 0. -1.
    10030    2    1    2    0    0  0.00000000000E+00  0.00000000000E+00 -0.38925194112E+03  0.19662315338E+04  0.19273166245E+04 0.  0.
        2    1    3    3  502    0  0.76854251611E+03  0.63471846889E+02 -0.78417918002E+03  0.10998287416E+04  0.25500000920E-02 0. -1.
       -2    1    3    3    0  502 -0.76854251611E+03 -0.63471846889E+02  0.39492723890E+03  0.86640279227E+03  0.25500000920E-02 0.  1.
</event>
<event>
 5   0  0.3493125E-06  0.2829271E+04  0.7818609E-02  0.8294238E-01
       -3   -1    0    0    0  501  0.00000000000E+00  0.00000000000E+00  0.20237775306E+04  0.20237775331E+04  0.10100000352E+00 0.  1.
        3   -1    0    0  501    0  0.00000000000E+00  0.00000000000E+00 -0.98884051574E+03  0.98884052089E+03  0.10100000352E+00 0. -1.
    10030    2    1    2    0    0  0.00000000000E+00  0.00000000000E+00  0.10349370148E+04  0.30126180540E+04  0.28292707390E+04 0.  0.
        1    1    3    3  502    0  0.44793522472E+02  0.53218531063E+03  0.19123067644E+04  0.19854835244E+04  0.50400001928E-02 0.  1.
       -1    1    3    3    0  502 -0.44793522472E+02 -0.53218531063E+03 -0.87736974953E+03  0.10271345296E+04  0.50400001928E-02 0. -1.
</event>
<event>
 5   0  0.3807334E-06  0.3194195E+04  0.7818609E-02  0.8190352E-01
        1   -1    0    0  501    0  0.00000000000E+00  0.00000000000E+00  0.26215542519E+04  0.26215542519E+04  0.50400001928E-02 0. -1.
       -1   -1    0    0    0  501  0.00000000000E+00  0.00000000000E+00 -0.97298014043E+03  0.97298014044E+03  0.50400001928E-02 0.  1.
    10030    2    1    2    0    0  0.00000000000E+00  0.00000000000E+00  0.16485741115E+04  0.35945343923E+04  0.31941948746E+04 0.  0.
        4    1    3    3  502    0 -0.43387255800E+02  0.42977107951E+03  0.25545702325E+04  0.25908331325E+04  0.12699999809E+01 0. -1.
       -4    1    3    3    0  502  0.43387255800E+02 -0.42977107951E+03 -0.90599612105E+03  0.10037012598E+04  0.12699999809E+01 0.  1.
</event>
<event>
 5   0  0.1108153E-05  0.3042644E+04  0.7818609E-02  0.8231657E-01
       -2   -1    0    0    0  501  0.00000000000E+00  0.00000000000E+00  0.80097771418E+03  0.80097771419E+03  0.25500000920E-02 0. -1.
        2   -1    0    0  501    0  0.00000000000E+00  0.00000000000E+00 -0.28894939492E+04  0.28894939492E+04  0.25500000920E-02 0.  1.
    10030    2    1    2    0    0  0.00000000000E+00  0.00000000000E+00 -0.20885162350E+04  0.36904716634E+04  0.30426437574E+04 0.  0.
        4    1    3    3  502    0 -0.29310846692E+03  0.14097415667E+04 -0.16398663648E+04  0.21823031791E+04  0.12699999809E+01 0.  1.
       -4    1    3    3    0  502  0.29310846692E+03 -0.14097415667E+04 -0.44864987027E+03  0.15081684843E+04  0.12699999809E+01 0. -1.
</event>
<event>
 5   0  0.1001961E-05  0.3103438E+04  0.7818609E-02  0.8214795E-01
        2   -1    0    0  501    0  0.00000000000E+00  0.00000000000E+00  0.20282816058E+04  0.20282816058E+04  0.25500000920E-02 0. -1.
       -2   -1    0    0    0  501  0.00000000000E+00  0.00000000000E+00 -0.11871292515E+04  0.11871292515E+04  0.25500000920E-02 0.  1.
    10030    2    1    2    0    0  0.00000000000E+00  0.00000000000E+00  0.84115235431E+03  0.32154108573E+04  0.31034383671E+04 0.  0.
        5    1    3    3  502    0  0.12835396775E+04  0.82488785271E+03  0.12771852416E+03  0.15310937870E+04  0.46999998093E+01 0.  1.
       -5    1    3    3    0  502 -0.12835396775E+04 -0.82488785271E+03  0.71343383016E+03  0.16843170703E+04  0.46999998093E+01 0. -1.
</event>
<event>
 5   0  0.4250961E-06  0.3087248E+04  0.7818609E-02  0.8219246E-01
       -1   -1    0    0    0  501  0.00000000000E+00  0.00000000000E+00  0.13331099276E+04  0.13331099276E+04  0.50400001928E-02 0. -1.
        1   -1    0    0  501    0  0.00000000000E+00  0.00000000000E+00 -0.17873804492E+04  0.17873804492E+04  0.50400001928E-02 0.  1.
    10030    2    1    2    0    0  0.00000000000E+00  0.00000000000E+00 -0.45427052154E+03  0.31204903768E+04  0.30872477201E+04 0.  0.
        1    1    3    3  502    0 -0.84524988719E+03 -0.11866736446E+04  0.28838889434E+03  0.14851969112E+04  0.50400001928E-02 0. -1.
       -1    1    3    3    0  502  0.84524988719E+03  0.11866736446E+04 -0.74265941588E+03  0.16352934656E+04  0.50400001928E-02 0.  1.
</event>
<event>
 5   0  0.1108153E-05  0.3164014E+04  0.7818609E-02  0.8198386E-01
       -2   -1    0    0    0  501  0.00000000000E+00  0.00000000000E+00  0.15799330853E+04  0.15799330853E+04  0.25500000920E-02 0.  1.
        2   -1    0    0  501    0  0.00000000000E+00  0.00000000000E+00 -0.15840831916E+04  0.15840831916E+04  0.25500000920E-02 0. -1.
    10030    2    1    2    0    0  0.00000000000E+00  0.00000000000E+00 -0.41501063182E+01  0.31640162768E+04  0.31640135551E+04 0.  0.
        4    1    3    3  502    0 -0.30081960653E+03  0.54975069192E+03 -0.14546690097E+04  0.15839134445E+04  0.12699999809E+01 0. -1.
       -4    1    3    3    0  502  0.30081960653E+03 -0.54975069192E+03  0.14505189034E+04  0.15801028324E+04  0.12699999809E+01 0.  1.
</event>
<event>
 5   0  0.3838525E-06  0.3042000E+04  0.7818609E-02  0.8231838E-01
        1   -1    0    0  501    0  0.00000000000E+00  0.00000000000E+00  0.15685692456E+04  0.15685692456E+04  0.50400001928E-02 0.  1.
       -1   -1    0    0    0  501  0.00000000000E+00  0.00000000000E+00 -0.14748736768E+04  0.14748736768E+04  0.50400001928E-02 0. -1.
    10030    2    1    2    0    0  0.00000000000E+00  0.00000000000E+00  0.93695568837E+02  0.30434429224E+04  0.30420003226E+04 0.  0.
        3    1    3    3  502    0 -0.28054920293E+03  0.11253287053E+04  0.10313718329E+04  0.15520310622E+04  0.10100000352E+00 0.  1.
       -3    1    3    3    0  502  0.28054920293E+03 -0.11253287053E+04 -0.93767626409E+03  0.14914118602E+04  0.10100000352E+00 0. -1.
</event>
<event>
 5   0  0.3848286E-06  0.3034988E+04  0.7818609E-02  0.8233810E-01
       -1   -1    0    0    0  501  0.00000000000E+00  0.00000000000E+00  0.15297884067E+04  0.15297884067E+04  0.50400001928E-02 0.  1.
        1   -1    0    0  501    0  0.00000000000E+00  0.00000000000E+00 -0.15052980967E+04  0.15052980968E+04  0.50400001928E-02 0. -1.
    10030    2    1    2    0    0  0.00000000000E+00  0.00000000000E+00  0.24490309923E+02  0.30350865034E+04  0.30349876949E+04 0.  0.
        2    1    3    3  502    0  0.86960200470E+02 -0.14112914570E+04  0.56315502502E+03  0.15219885792E+04  0.25500000920E-02 0.  1.
       -2    1    3    3    0  502 -0.86960200470E+02  0.14112914570E+04 -0.53866471510E+03  0.15130979242E+04  0.25500000920E-02 0. -1.
</event>
<event>
 5   0  0.3848286E-06  0.3098391E+04  0.7818609E-02  0.8216180E-01
        1   -1    0    0  501    0  0.00000000000E+00  0.00000000000E+00  0.27136236130E+04  0.27136236130E+04  0.50400001928E-02 0.  1.
       -1   -1    0    0    0  501  0.00000000000E+00  0.00000000000E+00 -0.88442862920E+03  0.88442862921E+03  0.50400001928E-02 0. -1.
    10030    2    1    2    0    0  0.00000000000E+00  0.00000000000E+00  0.18291949838E+04  0.35980522422E+04  0.30983908160E+04 0.  0.
        2    1    3    3  502    0  0.84169996337E+03  0.12618613939E+04  0.12804482663E+04  0.19850190852E+04  0.25500000920E-02 0.  1.
       -2    1    3    3    0  502 -0.84169996337E+03 -0.12618613939E+04  0.54874671748E+03  0.16130331570E+04  0.25500000920E-02 0. -1.
</event>
<event>
 5   0  0.4250961E-06  0.3103693E+04  0.7818609E-02  0.8214725E-01
       -1   -1    0    0    0  501  0.00000000000E+00  0.00000000000E+00  0.10566623967E+04  0.10566623967E+04  0.50400001928E-02 0. -1.
        1   -1    0    0  501    0  0.00000000000E+00  0.00000000000E+00 -0.22790890717E+04  0.22790890717E+04  0.50400001928E-02 0.  1.
    10030    2    1    2    0    0  0.00000000000E+00  0.00000000000E+00 -0.12224266750E+04  0.33357514684E+04  0.31036931039E+04 0.  0.
        1    1    3    3  502    0 -0.35610407347E+03  0.10572251456E+04 -0.17706153534E+04  0.20927526966E+04  0.50400001928E-02 0.  1.
       -1    1    3    3    0  502  0.35610407347E+03 -0.10572251456E+04  0.54818867838E+03  0.12429987718E+04  0.50400001928E-02 0. -1.
</event>
<event>
 5   0  0.4139628E-06  0.3019815E+04  0.7818609E-02  0.8238095E-01
       -1   -1    0    0    0  501  0.00000000000E+00  0.00000000000E+00  0.27563401395E+04  0.27563401395E+04  0.50400001928E-02 0.  1.
        1   -1    0    0  501    0  0.00000000000E+00  0.00000000000E+00 -0.82711867239E+03  0.82711867240E+03  0.50400001928E-02 0. -1.
    10030    2    1    2    0    0  0.00000000000E+00  0.00000000000E+00  0.19292214671E+04  0.35834588119E+04  0.30198148267E+04 0.  0.
        5    1    3    3  502    0 -0.11494478426E+04 -0.72796149912E+03  0.17415167097E+04  0.22099911374E+04  0.46999998093E+01 0.  1.
       -5    1    3    3    0  502  0.11494478426E+04  0.72796149912E+03  0.18770475741E+03  0.13734676745E+04  0.46999998093E+01 0. -1.
</event>
<event>
 5   0  0.3848286E-06  0.1658138E+04  0.7818609E-02  0.8785607E-01
       -1   -1    0    0    0  501  0.00000000000E+00  0.00000000000E+00  0.46669672862E+03  0.46669672865E+03  0.50400001928E-02 0. -1.
        1   -1    0    0  501    0  0.00000000000E+00  0.00000000000E+00 -0.14728093891E+04  0.14728093891E+04  0.50400001928E-02 0.  1.
    10030    2    1    2    0    0  0.00000000000E+00  0.00000000000E+00 -0.10061126604E+04  0.19395061177E+04  0.16581378999E+04 0.  0.
        2    1    3    3  502    0  0.51923907034E+03  0.39907010702E+03  0.91635094959E+02  0.66125876412E+03  0.25500000920E-02 0. -1.
       -2    1    3    3    0  502 -0.51923907034E+03 -0.39907010702E+03 -0.10977477554E+04  0.12782473536E+04  0.25500000920E-02 0.  1.
</event>
<event>
 5   0  0.1108153E-05  0.3056142E+04  0.7818609E-02  0.8227878E-01
        2   -1    0    0  501    0  0.00000000000E+00  0.00000000000E+00  0.18620730699E+04  0.18620730699E+04  0.25500000920E-02 0.  1.
       -2   -1    0    0    0  501  0.00000000000E+00  0.00000000000E+00 -0.12539791911E+04  0.12539791911E+04  0.25500000920E-02 0. -1.
    10030    2    1    2    0    0  0.00000000000E+00  0.00000000000E+00  0.60809387875E+03  0.31160522610E+04  0.30561419351E+04 0.  0.
        4    1    3    3  502    0  0.80711385342E+03  0.65156180054E+03  0.14481098146E+04  0.17812886348E+04  0.12699999809E+01 0.  1.
       -4    1    3    3    0  502 -0.80711385342E+03 -0.65156180054E+03 -0.84001593589E+03  0.13347636262E+04  0.12699999809E+01 0. -1.
</event>
<event>
 5   0  0.1108153E-05  0.3129331E+04  0.7818609E-02  0.8207734E-01
       -2   -1    0    0    0  501  0.00000000000E+00  0.00000000000E+00  0.28248063393E+04  0.28248063393E+04  0.25500000920E-02 0. -1.
        2   -1    0    0  501    0  0.00000000000E+00  0.00000000000E+00 -0.86667088667E+03  0.86667088667E+03  0.25500000920E-02 0.  1.
    10030    2    1    2    0    0  0.00000000000E+00  0.00000000000E+00  0.19581354526E+04  0.36914772259E+04  0.31293305448E+04 0.  0.
        4    1    3    3  502    0 -0.47396730918E+03  0.10716927497E+04  0.22021455325E+04  0.24945173720E+04  0.12699999809E+01 0. -1.
       -4    1    3    3    0  502  0.47396730918E+03 -0.10716927497E+04 -0.24401007991E+03  0.11969598539E+04  0.12699999809E+01 0.  1.
</event>
<event>
 5   0  0.9797278E-06  0.3085263E+04  0.7818609E-02  0.8219794E-01
        2   -1    0    0  501    0  0.00000000000E+00  0.00000000000E+00  0.16531421497E+04  0.16531421497E+04  0.25500000920E-02 0.  1.
       -2   -1    0    0    0  501  0.00000000000E+00  0.00000000000E+00 -0.14395083117E+04  0.14395083117E+04  0.25500000920E-02 0. -1.
    10030    2    1    2    0    0  0.00000000000E+00  0.00000000000E+00  0.21363383802E+03  0.30926504615E+04  0.30852629483E+04 0.  0.
        1    1    3    3  502    0  0.68815055972E+03 -0.13552471699E+04  0.37101162689E+03  0.15645752496E+04  0.50400001928E-02 0. -1.
       -1    1    3    3    0  502 -0.68815055972E+03  0.13552471699E+04 -0.15737778887E+03  0.15280752118E+04  0.50400001928E-02 0.  1.
</event>
<event>
 5   0  0.3807334E-06  0.3155966E+04  0.7818609E-02  0.8200544E-01
        1   -1    0    0  501    0  0.00000000000E+00  0.00000000000E+00  0.15446982511E+04  0.15446982511E+04  0.50400001928E-02 0.  1.
       -1   -1    0    0    0  501  0.00000000000E+00  0.00000000000E+00 -0.16119848926E+04  0.16119848926E+04  0.50400001928E-02 0. -1.
    10030    2    1    2    0    0  0.00000000000E+00  0.00000000000E+00 -0.67286641455E+02  0.31566831437E+04  0.31559659341E+04 0.  0.
        4    1    3    3  502    0  0.63209747997E+03  0.63632426295E+03 -0.13322344946E+04  0.16060218409E+04  0.12699999809E+01 0. -1.
       -4    1    3    3    0  502 -0.63209747997E+03 -0.63632426295E+03  0.12649478532E+04  0.15506613028E+04  0.12699999809E+01 0.  1.
</event>
<event>
 5   0  0.3807334E-06  0.3081905E+04  0.7818609E-02  0.8220721E-01
       -1   -1    0    0    0  501  0.00000000000E+00  0.00000000000E+00  0.12557862781E+04  0.12557862781E+04  0.50400001928E-02 0. -1.
        1   -1    0    0  501    0  0.00000000000E+00  0.00000000000E+00 -0.18908753451E+04  0.18908753451E+04  0.50400001928E-02 0.  1.
    10030    2    1    2    0    0  0.00000000000E+00  0.00000000000E+00 -0.63508906704E+03  0.31466616232E+04  0.30819054574E+04 0.  0.
        4    1    3    3  502    0  0.97702428417E+03 -0.19696495021E+03 -0.15174666300E+04  0.18155104598E+04  0.12699999809E+01 0.  1.
       -4    1    3    3    0  502 -0.97702428417E+03  0.19696495021E+03  0.88237756296E+03  0.13311511635E+04  0.12699999809E+01 0. -1.
</event>
<event>
 5   0  0.1001961E-05  0.3026783E+04  0.7818609E-02  0.8236124E-01
        2   -1    0    0  501    0  0.00000000000E+00  0.00000000000E+00  0.18336240564E+04  0.18336240564E+04  0.25500000920E-02 0. -1.
       -2   -1    0    0    0  501  0.00000000000E+00  0.00000000000E+00 -0.12490856311E+04  0.12490856311E+04  0.25500000920E-02 0.  1.
    10030    2    1    2    0    0  0.00000000000E+00  0.00000000000E+00  0.58453842528E+03  0.30827096875E+04  0.30267827552E+04 0.  0.
        5    1    3    3  502    0  0.42161938683E+03  0.13061960685E+04 -0.35702131880E+03  0.14182374233E+04  0.46999998093E+01 0.  1.
       -5    1    3    3    0  502 -0.42161938683E+03 -0.13061960685E+04  0.94155974408E+03  0.16644722642E+04  0.46999998093E+01 0. -1.
</event>
<event>
 5   0  0.4139628E-06  0.3199214E+04  0.7818609E-02  0.8189025E-01
       -1   -1    0    0    0  501  0.00000000000E+00  0.00000000000E+00  0.23476108738E+04  0.23476108738E+04  0.50400001928E-02 0. -1.
        1   -1    0    0  501    0  0.00000000000E+00  0.00000000000E+00 -0.10899349782E+04  0.10899349782E+04  0.50400001928E-02 0.  1.
    10030    2    1    2    0    0  0.00000000000E+00  0.00000000000E+00  0.12576758956E+04  0.34375458519E+04  0.31992144076E+04 0.  0.
        5    1    3    3  502    0  0.76120540208E+03  0.33825626336E+03  0.20961735392E+04  0.22556188863E+04  0.46999998093E+01 0. -1.
       -5    1    3    3    0  502 -0.76120540208E+03 -0.33825626336E+03 -0.83849764356E+03  0.11819269656E+04  0.46999998093E+01 0.  1.
</event>
<event>
 5   0  0.4139628E-06  0.2627966E+04  0.7818609E-02  0.8358763E-01
       -1   -1    0    0    0  501  0.00000000000E+00  0.00000000000E+00  0.87391307371E+03  0.87391307373E+03  0.50400001928E-02 0. -1.
        1   -1    0    0  501    0  0.00000000000E+00  0.00000000000E+00 -0.19756554301E+04  0.19756554301E+04  0.50400001928E-02 0.  1.
    10030    2    1    2    0    0  0.00000000000E+00  0.00000000000E+00 -0.11017423563E+04  0.28495685038E+04  0.26279658365E+04 0.  0.
        5    1    3    3  502    0 -0.59413564068E+02  0.43844367760E+03  0.79070030256E+03  0.90608602709E+03  0.46999998093E+01 0. -1.
       -5    1    3    3    0  502  0.59413564068E+02 -0.43844367760E+03 -0.18924426589E+04  0.19434824767E+04  0.46999998093E+01 0.  1.
</event>
<event>
 5   0  0.1108153E-05  0.3077985E+04  0.7818609E-02  0.8221806E-01
        2   -1    0    0  501    0  0.00000000000E+00  0.00000000000E+00  0.13230464522E+04  0.13230464522E+04  0.25500000920E-02 0. -1.
       -2   -1    0    0    0  501  0.00000000000E+00  0.00000000000E+00 -0.17901844716E+04  0.17901844716E+04  0.25500000920E-02 0.  1.
    10030    2    1    2    0    0  0.00000000000E+00  0.00000000000E+00 -0.46713801937E+03  0.31132309238E+04  0.30779845444E+04 0.  0.
        4    1    3    3  502    0  0.30605386376E+03  0.14830542069E+04  0.44123330944E+02  0.15149479296E+04  0.12699999809E+01 0. -1.
       -4    1    3    3    0  502 -0.30605386376E+03 -0.14830542069E+04 -0.51126135032E+03  0.15982829942E+04  0.12699999809E+01 0.  1.
</event>
<event>
 5   0  0.3838525E-06  0.3222594E+04  0.7818609E-02  0.8182876E-01
        1   -1    0    0  501    0  0.00000000000E+00  0.00000000000E+00  0.14153456354E+04  0.14153456354E+04  0.50400001928E-02 0. -1.
       -1   -1    0    0    0  501  0.00000000000E+00  0.00000000000E+00 -0.18343773304E+04  0.18343773304E+04  0.50400001928E-02 0.  1.
    10030    2    1    2    0    0  0.00000000000E+00  0.00000000000E+00 -0.41903169499E+03  0.32497229658E+04  0.32225939541E+04 0.  0.
        3    1    3    3  502    0  0.14826718900E+04 -0.40588618387E+02  0.42531901775E+03  0.15430034499E+04  0.10100000352E+00 0. -1.
       -3    1    3    3    0  502 -0.14826718900E+04  0.40588618387E+02 -0.84435071274E+03  0.17067195159E+04  0.10100000352E+00 0.  1.
</event>
<event>
 5   0  0.1007567E-05  0.3092933E+04  0.7818609E-02  0.8217680E-01
       -2   -1    0    0    0  501  0.00000000000E+00  0.00000000000E+00  0.18425802961E+04  0.18425802961E+04  0.25500000920E-02 0.  1.
        2   -1    0    0  501    0  0.00000000000E+00  0.00000000000E+00 -0.12979395864E+04  0.12979395864E+04  0.25500000920E-02 0. -1.
    10030    2    1    2    0    0  0.00000000000E+00  0.00000000000E+00  0.54464070967E+03  0.31405198825E+04  0.30929325292E+04 0.  0.
        3    1    3    3  502    0  0.94657830944E+03  0.21945135494E+03  0.14939052683E+04  0.17821117680E+04  0.10100000352E+00 0.  1.
       -3    1    3    3    0  502 -0.94657830944E+03 -0.21945135494E+03 -0.94926455859E+03  0.13584081145E+04  0.10100000352E+00 0. -1.
</event>
<event>
 5   0  0.1108153E-05  0.3133361E+04  0.7818609E-02  0.8206641E-01
        2   -1    0    0  501    0  0.00000000000E+00  0.00000000000E+00  0.11230522527E+04  0.11230522527E+04  0.25500000920E-02 0. -1.
       -2   -1    0    0    0  501  0.00000000000E+00  0.00000000000E+00 -0.21855513332E+04  0.21855513332E+04  0.25500000920E-02 0.  1.
    10030    2    1    2    0    0  0.00000000000E+00  0.00000000000E+00 -0.10624990806E+04  0.33086035859E+04  0.31333613568E+04 0.  0.
        4    1    3    3  502    0 -0.90935988250E+03 -0.58599158827E+03 -0.17278376996E+04  0.20385647565E+04  0.12699999809E+01 0.  1.
       -4    1    3    3    0  502  0.90935988250E+03  0.58599158827E+03  0.66533861898E+03  0.12700388294E+04  0.12699999809E+01 0. -1.
</event>
<event>
 5   0  0.1108153E-05  0.1671234E+04  0.7818609E-02  0.8777943E-01
       -2   -1    0    0    0  501  0.00000000000E+00  0.00000000000E+00  0.56867201199E+03  0.56867201199E+03  0.25500000920E-02 0.  1.
        2   -1    0    0  501    0  0.00000000000E+00  0.00000000000E+00 -0.12278715063E+04  0.12278715063E+04  0.25500000920E-02 0. -1.
    10030    2    1    2    0    0  0.00000000000E+00  0.00000000000E+00 -0.65919949430E+03  0.17965435183E+04  0.16712344658E+04 0.  0.
        4    1    3    3  502    0  0.28430841361E+02 -0.52086141870E+03 -0.10313481120E+04  0.11557618575E+04  0.12699999809E+01 0. -1.
       -4    1    3    3    0  502 -0.28430841361E+02  0.52086141870E+03  0.37214861771E+03  0.64078166078E+03  0.12699999809E+01 0.  1.
</event>
<event>
 5   0  0.3848286E-06  0.1543588E+04  0.7818609E-02  0.8855974E-01
        1   -1    0    0  501    0  0.00000000000E+00  0.00000000000E+00  0.11949271390E+04  0.11949271390E+04  0.50400001928E-02 0. -1.
       -1   -1    0    0    0  501  0.00000000000E+00  0.00000000000E+00 -0.49849580724E+03  0.49849580727E+03  0.50400001928E-02 0.  1.
    10030    2    1    2    0    0  0.00000000000E+00  0.00000000000E+00  0.69643133179E+03  0.16934229463E+04  0.15435882466E+04 0.  0.
        2    1    3    3  502    0 -0.13898211248E+03  0.15456996360E+03 -0.46720875865E+03  0.51136281191E+03  0.25500000920E-02 0.  1.
       -2    1    3    3    0  502  0.13898211248E+03 -0.15456996360E+03  0.11636400904E+04  0.11820601344E+04  0.25500000920E-02 0. -1.
</event>
<event>
 5   0  0.9797278E-06  0.3066308E+04  0.7818609E-02  0.8225046E-01
        2   -1    0    0  501    0  0.00000000000E+00  0.00000000000E+00  0.12672474960E+04  0.12672474960E+04  0.25500000920E-02 0.  1.
       -2   -1    0    0    0  501  0.00000000000E+00  0.00000000000E+00 -0.18548557714E+04  0.18548557714E+04  0.25500000920E-02 0. -1.
    10030    2    1    2    0    0  0.00000000000E+00  0.00000000000E+00 -0.58760827537E+03  0.31221032673E+04  0.30663080939E+04 0.  0.
        1    1    3    3  502    0  0.35640674995E+03 -0.14622981221E+04  0.34320165623E+01  0.15051090818E+04  0.50400001928E-02 0. -1.
       -1    1    3    3    0  502 -0.35640674995E+03  0.14622981221E+04 -0.59104029194E+03  0.16169941855E+04  0.50400001928E-02 0.  1.
</event>
<event>
 5   0  0.4250961E-06  0.3098339E+04  0.7818609E-02  0.8216194E-01
       -1   -1    0    0    0  501  0.00000000000E+00  0.00000000000E+00  0.17715863252E+04  0.17715863252E+04  0.50400001928E-02 0.  1.
        1   -1    0    0  501    0  0.00000000000E+00  0.00000000000E+00 -0.13546762239E+04  0.13546762239E+04  0.50400001928E-02 0. -1.
    10030    2    1    2    0    0  0.00000000000E+00  0.00000000000E+00  0.41691010138E+03  0.31262625491E+04  0.30983388280E+04 0.  0.
        1    1    3    3  502    0 -0.35186526057E+03 -0.11240429953E+03 -0.13095913961E+04  0.13606886172E+04  0.50400001928E-02 0. -1.
       -1    1    3    3    0  502  0.35186526057E+03  0.11240429953E+03  0.17265014975E+04  0.17655739319E+04  0.50400001928E-02 0.  1.
</event>
<event>
 5   0  0.4139628E-06  0.3048607E+04  0.7818609E-02  0.8229985E-01
        1   -1    0    0  501    0  0.00000000000E+00  0.00000000000E+00  0.30993012013E+04  0.30993012013E+04  0.50400001928E-02 0. -1.
       -1   -1    0    0    0  501  0.00000000000E+00  0.00000000000E+00 -0.74968567065E+03  0.74968567067E+03  0.50400001928E-02 0.  1.
    10030    2    1    2    0    0  0.00000000000E+00  0.00000000000E+00  0.23496155306E+04  0.38489868719E+04  0.30486073540E+04 0.  0.
        5    1    3    3  502    0  0.62422198579E+03  0.13431371877E+04  0.71992721527E+03  0.16468114276E+04  0.46999998093E+01 0.  1.
       -5    1    3    3    0  502 -0.62422198579E+03 -0.13431371877E+04  0.16296883154E+04  0.22021754444E+04  0.46999998093E+01 0. -1.
</event>
<event>
 5   0  0.9797278E-06  0.3596420E+04  0.7818609E-02  0.8091312E-01
        2   -1    0    0  501    0  0.00000000000E+00  0.00000000000E+00  0.12866503744E+04  0.12866503744E+04  0.25500000920E-02 0. -1.
       -2   -1    0    0    0  501  0.00000000000E+00  0.00000000000E+00 -0.25131600662E+04  0.25131600662E+04  0.25500000920E-02 0.  1.
    10030    2    1    2    0    0  0.00000000000E+00  0.00000000000E+00 -0.12265096918E+04  0.37998104407E+04  0.35964195196E+04 0.  0.
        1    1    3    3  502    0 -0.91869439309E+02  0.47125405130E+03  0.12176762344E+04  0.13089139722E+04  0.50400001928E-02 0. -1.
       -1    1    3    3    0  502  0.91869439309E+02 -0.47125405130E+03 -0.24441859262E+04  0.24908964685E+04  0.50400001928E-02 0.  1.
</event>
<event>
 5   0  0.4139628E-06  0.3034990E+04  0.7818609E-02  0.8233809E-01
        1   -1    0    0  501    0  0.00000000000E+00  0.00000000000E+00  0.18469088966E+04  0.18469088966E+04  0.50400001928E-02 0.  1.
       -1   -1    0    0    0  501  0.00000000000E+00  0.00000000000E+00 -0.12468351009E+04  0.12468351009E+04  0.50400001928E-02 0. -1.
    10030    2    1    2    0    0  0.00000000000E+00  0.00000000000E+00  0.60007379571E+03  0.30937439975E+04  0.30349898454E+04 0.  0.
        5    1    3    3  502    0 -0.29997191238E+03  0.99398795814E+03 -0.82808240202E+03  0.13280578917E+04  0.46999998093E+01 0. -1.
       -5    1    3    3    0  502  0.29997191238E+03 -0.99398795814E+03  0.14281561977E+04  0.17656861058E+04  0.46999998093E+01 0.  1.
</event>
<event>
 5   0  0.3838525E-06  0.2143343E+04  0.7818609E-02  0.8542387E-01
        1   -1    0    0  501    0  0.00000000000E+00  0.00000000000E+00  0.11267030524E+04  0.11267030524E+04  0.50400001928E-02 0. -1.
       -1   -1    0    0    0  501  0.00000000000E+00  0.00000000000E+00 -0.10193278161E+04  0.10193278161E+04  0.50400001928E-02 0.  1.
    10030    2    1    2    0    0  0.00000000000E+00  0.00000000000E+00  0.10737523634E+03  0.21460308685E+04  0.21433429607E+04 0.  0.
        3    1    3    3  502    0  0.64716747851E+03 -0.73197687589E+03  0.49453952428E+03  0.10950731680E+04  0.10100000352E+00 0. -1.
       -3    1    3    3    0  502 -0.64716747851E+03  0.73197687589E+03 -0.38716428794E+03  0.10509577005E+04  0.10100000352E+00 0.  1.
</event>
<event>
 5   0  0.3807334E-06  0.1606034E+04  0.7818609E-02  0.8816850E-01
       -1   -1    0    0    0  501  0.00000000000E+00  0.00000000000E+00  0.50327595631E+03  0.50327595633E+03  0.50400001928E-02 0.  1.
        1   -1    0    0  501    0  0.00000000000E+00  0.00000000000E+00 -0.12812774381E+04  0.12812774381E+04  0.50400001928E-02 0. -1.
    10030    2    1    2    0    0  0.00000000000E+00  0.00000000000E+00 -0.77800148175E+03  0.17845533944E+04  0.16060337829E+04 0.  0.
        4    1    3    3  502    0 -0.97075437367E+02 -0.79660539421E+03 -0.42102671276E+03  0.90623887601E+03  0.12699999809E+01 0. -1.
       -4    1    3    3    0  502  0.97075437367E+02  0.79660539421E+03 -0.35697476899E+03  0.87831451839E+03  0.12699999809E+01 0.  1.
</event>
<event>
 5   0  0.1001961E-05  0.2584867E+04  0.7818609E-02  0.8373360E-01
        2   -1    0    0  501    0  0.00000000000E+00  0.00000000000E+00  0.27693630471E+04  0.27693630471E+04  0.25500000920E-02 0.  1.
       -2   -1    0    0    0  501  0.00000000000E+00  0.00000000000E+00 -0.60316553893E+03  0.60316553894E+03  0.25500000920E-02 0. -1.
    10030    2    1    2    0    0  0.00000000000E+00  0.00000000000E+00  0.21661975082E+04  0.33725285860E+04  0.25848670022E+04 0.  0.
        5    1    3    3  502    0 -0.96498974081E+03  0.85535949855E+03  0.96997721826E+03  0.16136055793E+04  0.46999998093E+01 0.  1.
       -5    1    3    3    0  502  0.96498974081E+03 -0.85535949855E+03  0.11962202899E+04  0.17589230067E+04  0.46999998093E+01 0. -1.
</event>
<event>
 5   0  0.9797278E-06  0.3037828E+04  0.7818609E-02  0.8233011E-01
       -2   -1    0    0    0  501  0.00000000000E+00  0.00000000000E+00  0.16560386358E+04  0.16560386358E+04  0.25500000920E-02 0.  1.
        2   -1    0    0  501    0  0.00000000000E+00  0.00000000000E+00 -0.13931435222E+04  0.13931435222E+04  0.25500000920E-02 0. -1.
    10030    2    1    2    0    0  0.00000000000E+00  0.00000000000E+00  0.26289511361E+03  0.30491821579E+04  0.30378278410E+04 0.  0.
        1    1    3    3  502    0  0.11859786693E+03 -0.11207679890E+04 -0.89064777504E+03  0.14364678202E+04  0.50400001928E-02 0. -1.
       -1    1    3    3    0  502 -0.11859786693E+03  0.11207679890E+04  0.11535428887E+04  0.16127143377E+04  0.50400001928E-02 0.  1.
</event>
<event>
 5   0  0.3848286E-06  0.3099171E+04  0.7818609E-02  0.8215965E-01
        1   -1    0    0  501    0  0.00000000000E+00  0.00000000000E+00  0.26911315248E+04  0.26911315248E+04  0.50400001928E-02 0. -1.
       -1   -1    0    0    0  501  0.00000000000E+00  0.00000000000E+00 -0.89226972514E+03  0.89226972515E+03  0.50400001928E-02 0.  1.
    10030    2    1    2    0    0  0.00000000000E+00  0.00000000000E+00  0.17988617996E+04  0.35834012499E+04  0.30991709769E+04 0.  0.
        2    1    3    3  502    0  0.24541690991E+03 -0.60118055792E+03 -0.72737253220E+03  0.97504785703E+03  0.25500000920E-02 0.  1.
       -2    1    3    3    0  502 -0.24541690991E+03  0.60118055792E+03  0.25262343318E+04  0.26083533929E+04  0.25500000920E-02 0. -1.
</event>
<event>
 5   0  0.4139628E-06  0.3158703E+04  0.7818609E-02  0.8199810E-01
       -1   -1    0    0    0  501  0.00000000000E+00  0.00000000000E+00  0.12421503747E+04  0.12421503747E+04  0.50400001928E-02 0. -1.
        1   -1    0    0  501    0  0.00000000000E+00  0.00000000000E+00 -0.20080910052E+04  0.20080910052E+04  0.50400001928E-02 0.  1.
    10030    2    1    2    0    0  0.00000000000E+00  0.00000000000E+00 -0.76594063044E+03  0.32502413799E+04  0.31587028949E+04 0.  0.
        5    1    3    3  502    0 -0.44320303222E+03  0.59449886712E+02 -0.19415828201E+04  0.19924179166E+04  0.46999998093E+01 0.  1.
       -5    1    3    3    0  502  0.44320303222E+03 -0.59449886712E+02  0.11756421897E+04  0.12578234634E+04  0.46999998093E+01 0. -1.
</event>
<event>
 5   0  0.1007567E-05  0.3189722E+04  0.7818609E-02  0.8191537E-01
       -2   -1    0    0    0  501  0.00000000000E+00  0.00000000000E+00  0.12731135890E+04  0.12731135890E+04  0.25500000920E-02 0. -1.
        2   -1    0    0  501    0  0.00000000000E+00  0.00000000000E+00 -0.19979225416E+04  0.19979225416E+04  0.25500000920E-02 0.  1.
    10030    2    1    2    0    0  0.00000000000E+00  0.00000000000E+00 -0.72480895264E+03  0.32710361306E+04  0.31897224566E+04 0.  0.
        3    1    3    3  502    0  0.35774672832E+02  0.24855643953E+03 -0.19775215346E+04  0.19934020069E+04  0.10100000352E+00 0.  1.
       -3    1    3    3    0  502 -0.35774672832E+02 -0.24855643953E+03  0.12527125820E+04  0.12776341237E+04  0.10100000352E+00 0. -1.
</event>
<event>
 5   0  0.9797278E-06  0.3159040E+04  0.7818609E-02  0.8199719E-01
        2   -1    0    0  501    0  0.00000000000E+00  0.00000000000E+00  0.15349812137E+04  0.15349812137E+04  0.25500000920E-02 0.  1.
       -2   -1    0    0    0  501  0.00000000000E+00  0.00000000000E+00 -0.16253507841E+04  0.16253507841E+04  0.25500000920E-02 0. -1.
    10030    2    1    2    0    0  0.00000000000E+00  0.00000000000E+00 -0.90369570411E+02  0.31603319978E+04  0.31590396764E+04 0.  0.
        1    1    3    3  502    0  0.11202503711E+04 -0.11032407075E+04  0.10581392340E+03  0.15758481967E+04  0.50400001928E-02 0. -1.
       -1    1    3    3    0  502 -0.11202503711E+04  0.11032407075E+04 -0.19618349382E+03  0.15844838011E+04  0.50400001928E-02 0.  1.
</event>
<event>
 5   0  0.3493125E-06  0.1997402E+04  0.7818609E-02  0.8607836E-01
       -3   -1    0    0    0  501  0.00000000000E+00  0.00000000000E+00  0.42317540292E+03  0.42317541497E+03  0.10100000352E+00 0.  1.
        3   -1    0    0  501    0  0.00000000000E+00  0.00000000000E+00 -0.23569514301E+04  0.23569514323E+04  0.10100000352E+00 0. -1.
    10030    2    1    2    0    0  0.00000000000E+00  0.00000000000E+00 -0.19337760272E+04  0.27801268473E+04  0.19974022037E+04 0.  0.
        2    1    3    3  502    0  0.67217483201E+03  0.37757471731E+03 -0.18505040353E+04  0.20046812356E+04  0.25500000920E-02 0. -1.
       -2    1    3    3    0  502 -0.67217483201E+03 -0.37757471731E+03 -0.83271991926E+02  0.77544561162E+03  0.25500000920E-02 0.  1.
</event>
<event>
 5   0  0.3848286E-06  0.3159296E+04  0.7818609E-02  0.8199651E-01
       -1   -1    0    0    0  501  0.00000000000E+00  0.00000000000E+00  0.19805657050E+04  0.19805657050E+04  0.50400001928E-02 0.  1.
        1   -1    0    0  501    0  0.00000000000E+00  0.00000000000E+00 -0.12598862285E+04  0.12598862285E+04  0.50400001928E-02 0. -1.
    10030    2    1    2    0    0  0.00000000000E+00  0.00000000000E+00  0.72067947652E+03  0.32404519335E+04  0.31592957800E+04 0.  0.
        2    1    3    3  502    0 -0.97496387494E+03  0.10899317943E+04 -0.25231600663E+03  0.14839707682E+04  0.25500000920E-02 0. -1.
       -2    1    3    3    0  502  0.97496387494E+03 -0.10899317943E+04  0.97299548315E+03  0.17564811653E+04  0.25500000920E-02 0.  1.
</event>
<event>
 5   0  0.4139628E-06  0.3126947E+04  0.7818609E-02  0.8208381E-01
       -1   -1    0    0    0  501  0.00000000000E+00  0.00000000000E+00  0.24385850699E+04  0.24385850699E+04  0.50400001928E-02 0. -1.
        1   -1    0    0  501    0  0.00000000000E+00  0.00000000000E+00 -0.10024050625E+04  0.10024050626E+04  0.50400001928E-02 0.  1.
    10030    2    1    2    0    0  0.00000000000E+00  0.00000000000E+00  0.14361800074E+04  0.34409901325E+04  0.31269474057E+04 0.  0.
        5    1    3    3  502    0  0.56904867066E+02  0.14447649867E+04  0.13726790091E+04  0.19937035343E+04  0.46999998093E+01 0.  1.
       -5    1    3    3    0  502 -0.56904867066E+02 -0.14447649867E+04  0.63500998323E+02  0.14472865982E+04  0.46999998093E+01 0. -1.
</event>
<event>
 5   0  0.3848286E-06  0.1617917E+04  0.7818609E-02  0.8809616E-01
        1   -1    0    0  501    0  0.00000000000E+00  0.00000000000E+00  0.75461117341E+03  0.75461117342E+03  0.50400001928E-02 0.  1.
       -1   -1    0    0    0  501  0.00000000000E+00  0.00000000000E+00 -0.86721997293E+03  0.86721997295E+03  0.50400001928E-02 0. -1.
    10030    2    1    2    0    0  0.00000000000E+00  0.00000000000E+00 -0.11260879953E+03  0.16218311464E+04  0.16179170330E+04 0.  0.
        2    1    3    3  502    0  0.69997293444E+03  0.36868163366E+01 -0.46279519889E+03  0.83913949835E+03  0.25500000920E-02 0. -1.
       -2    1    3    3    0  502 -0.69997293444E+03 -0.36868163366E+01  0.35018639937E+03  0.78269164802E+03  0.25500000920E-02 0.  1.
</event>
<event>
 5   0  0.4139628E-06  0.3066067E+04  0.7818609E-02  0.8225113E-01
        1   -1    0    0  501    0  0.00000000000E+00  0.00000000000E+00  0.20173686119E+04  0.20173686119E+04  0.50400001928E-02 0. -1.
       -1   -1    0    0    0  501  0.00000000000E+00  0.00000000000E+00 -0.11649786573E+04  0.11649786573E+04  0.50400001928E-02 0.  1.
    10030    2    1    2    0    0  0.00000000000E+00  0.00000000000E+00  0.85238995461E+03  0.31823472692E+04  0.30660667813E+04 0.  0.
        5    1    3    3  502    0 -0.12714640815E+04 -0.77751429947E+03  0.79901076401E+03  0.16910321367E+04  0.46999998093E+01 0. -1.
       -5    1    3    3    0  502  0.12714640815E+04  0.77751429947E+03  0.53379190596E+02  0.14913151325E+04  0.46999998093E+01 0.  1.
</event>
<event>
 5   0  0.3848286E-06  0.3084551E+04  0.7818609E-02  0.8219990E-01
       -1   -1    0    0    0  501  0.00000000000E+00  0.00000000000E+00  0.10544272276E+04  0.10544272276E+04  0.50400001928E-02 0. -1.
        1   -1    0    0  501    0  0.00000000000E+00  0.00000000000E+00 -0.22558353134E+04  0.22558353134E+04  0.50400001928E-02 0.  1.
    10030    2    1    2    0    0  0.00000000000E+00  0.00000000000E+00 -0.12014080858E+04  0.33102625410E+04  0.30845512967E+04 0.  0.
        2    1    3    3  502    0 -0.12710440168E+04 -0.44723670441E+03  0.20456370203E+03  0.13628719201E+04  0.25500000920E-02 0.  1.
       -2    1    3    3    0  502  0.12710440168E+04  0.44723670441E+03 -0.14059717878E+04  0.19473906209E+04  0.25500000920E-02 0. -1.
</event>
<event>
 5   0  0.1007567E-05  0.3080291E+04  0.7818609E-02  0.8221168E-01
       -2   -1    0    0    0  501  0.00000000000E+00  0.00000000000E+00  0.73415183129E+03  0.73415183129E+03  0.25500000920E-02 0.  1.
        2   -1    0    0  501    0  0.00000000000E+00  0.00000000000E+00 -0.32310041867E+04  0.32310041867E+04  0.25500000920E-02 0. -1.
    10030    2    1    2    0    0  0.00000000000E+00  0.00000000000E+00 -0.24968523554E+04  0.39651560180E+04  0.30802906620E+04 0.  0.
        3    1    3    3  502    0  0.29068577959E+03 -0.31156691023E+02  0.69810630250E+03  0.75684964269E+03  0.10100000352E+00 0.  1.
       -3    1    3    3    0  502 -0.29068577959E+03  0.31156691023E+02 -0.31949586579E+04  0.32083063753E+04  0.10100000352E+00 0. -1.
</event>
<event>
 5   0  0.1119100E-05  0.3078198E+04  0.7818609E-02  0.8221747E-01
       -2   -1    0    0    0  501  0.00000000000E+00  0.00000000000E+00  0.10901347018E+04  0.10901347018E+04  0.25500000920E-02 0. -1.
        2   -1    0    0  501    0  0.00000000000E+00  0.00000000000E+00 -0.21729658041E+04  0.21729658041E+04  0.25500000920E-02 0.  1.
    10030    2    1    2    0    0  0.00000000000E+00  0.00000000000E+00 -0.10828311023E+04  0.32631005059E+04  0.30781978032E+04 0.  0.
        2    1    3    3  502    0 -0.12991966636E+04 -0.33625798607E+02  0.33259968009E+03  0.13415160127E+04  0.25500000920E-02 0. -1.
       -2    1    3    3    0  502  0.12991966636E+04  0.33625798607E+02 -0.14154307824E+04  0.19215844933E+04  0.25500000920E-02 0.  1.
</event>
<event>
 5   0  0.9797278E-06  0.3044582E+04  0.7818609E-02  0.8231113E-01
       -2   -1    0    0    0  501  0.00000000000E+00  0.00000000000E+00  0.14098834129E+04  0.14098834129E+04  0.25500000920E-02 0.  1.
        2   -1    0    0  501    0  0.00000000000E+00  0.00000000000E+00 -0.16436610160E+04  0.16436610161E+04  0.25500000920E-02 0. -1.
    10030    2    1    2    0    0  0.00000000000E+00  0.00000000000E+00 -0.23377760314E+03  0.30535444290E+04  0.30445823378E+04 0.  0.
        1    1    3    3  502    0 -0.88613219726E+03 -0.11574073226E+04 -0.55698386914E+03  0.15604656394E+04  0.50400001928E-02 0.  1.
       -1    1    3    3    0  502  0.88613219726E+03  0.11574073226E+04  0.32320626600E+03  0.14930787895E+04  0.50400001928E-02 0. -1.
</event>
<event>
 5   0  0.3848286E-06  0.3144764E+04  0.7818609E-02  0.8203559E-01
       -1   -1    0    0    0  501  0.00000000000E+00  0.00000000000E+00  0.15403161822E+04  0.15403161822E+04  0.50400001928E-02 0. -1.
        1   -1    0    0  501    0  0.00000000000E+00  0.00000000000E+00 -0.16051148926E+04  0.16051148926E+04  0.50400001928E-02 0.  1.
    10030    2    1    2    0    0  0.00000000000E+00  0.00000000000E+00 -0.64798710465E+02  0.31454310748E+04  0.31447635481E+04 0.  0.
        2    1    3    3  502    0  0.49294035295E+03  0.30727364652E+03  0.14290669019E+04  0.15426080175E+04  0.25500000920E-02 0. -1.
       -2    1    3    3    0  502 -0.49294035295E+03 -0.30727364652E+03 -0.14938656124E+04  0.16028230574E+04  0.25500000920E-02 0.  1.
</event>
<event>
 5   0  0.1108153E-05  0.3101978E+04  0.7818609E-02  0.8215195E-01
        2   -1    0    0  501    0  0.00000000000E+00  0.00000000000E+00  0.25265756481E+04  0.25265756481E+04  0.25500000920E-02 0.  1.
       -2   -1    0    0    0  501  0.00000000000E+00  0.00000000000E+00 -0.95210575771E+03  0.95210575771E+03  0.25500000920E-02 0. -1.
    10030    2    1    2    0    0  0.00000000000E+00  0.00000000000E+00  0.15744698904E+04  0.34786814058E+04  0.31019782216E+04 0.  0.
        4    1    3    3  502    0 -0.73225935142E+03 -0.52991574083E+03 -0.62620224514E+03  0.10996114381E+04  0.12699999809E+01 0. -1.
       -4    1    3    3    0  502  0.73225935142E+03  0.52991574083E+03  0.22006721355E+04  0.23790699677E+04  0.12699999809E+01 0.  1.
</event>
<event>
 5   0  0.4250961E-06  0.3096095E+04  0.7818609E-02  0.8216811E-01
       -1   -1    0    0    0  501  0.00000000000E+00  0.00000000000E+00  0.16412528838E+04  0.16412528838E+04  0.50400001928E-02 0.  1.
        1   -1    0    0  501    0  0.00000000000E+00  0.00000000000E+00 -0.14601348770E+04  0.14601348770E+04  0.50400001928E-02 0. -1.
    10030    2    1    2    0    0  0.00000000000E+00  0.00000000000E+00  0.18111800682E+03  0.31013877609E+04  0.30960946870E+04 0.  0.
        1    1    3    3  502    0  0.60318929194E+03  0.11351419286E+04 -0.77350831945E+03  0.15002331953E+04  0.50400001928E-02 0. -1.
       -1    1    3    3    0  502 -0.60318929194E+03 -0.11351419286E+04  0.95462632627E+03  0.16011545656E+04  0.50400001928E-02 0.  1.
</event>
<event>
 5   0  0.3807334E-06  0.3135187E+04  0.7818609E-02  0.8206147E-01
        1   -1    0    0  501    0  0.00000000000E+00  0.00000000000E+00  0.13783526793E+04  0.13783526793E+04  0.50400001928E-02 0. -1.
       -1   -1    0    0    0  501  0.00000000000E+00  0.00000000000E+00 -0.17828161868E+04  0.17828161868E+04  0.50400001928E-02 0.  1.
    10030    2    1    2    0    0  0.00000000000E+00  0.00000000000E+00 -0.40446350744E+03  0.31611688661E+04  0.31351870552E+04 0.  0.
        4    1    3    3  502    0 -0.50201834929E+03  0.95405231235E+03  0.94522810810E+03  0.14337698654E+04  0.12699999809E+01 0. -1.
       -4    1    3    3    0  502  0.50201834929E+03 -0.95405231235E+03 -0.13496916155E+04  0.17273990007E+04  0.12699999809E+01 0.  1.
</event>
<event>
 5   0  0.1007567E-05  0.3195525E+04  0.7818609E-02  0.8190000E-01
        2   -1    0    0  501    0  0.00000000000E+00  0.00000000000E+00  0.29856377641E+04  0.29856377641E+04  0.25500000920E-02 0.  1.
       -2   -1    0    0    0  501  0.00000000000E+00  0.00000000000E+00 -0.85504184705E+03  0.85504184706E+03  0.25500000920E-02 0. -1.
    10030    2    1    2    0    0  0.00000000000E+00  0.00000000000E+00  0.21305959171E+04  0.38406796112E+04  0.31955251390E+04 0.  0.
        3    1    3    3  502    0 -0.11443164035E+04  0.30803550199E+03 -0.22274756307E+03  0.12058036278E+04  0.10100000352E+00 0. -1.
       -3    1    3    3    0  502  0.11443164035E+04 -0.30803550199E+03  0.23533434801E+04  0.26348759833E+04  0.10100000352E+00 0.  1.
</event>
<event>
 5   0  0.4139628E-06  0.3148247E+04  0.7818609E-02  0.8202620E-01
        1   -1    0    0  501    0  0.00000000000E+00  0.00000000000E+00  0.21479992313E+04  0.21479992313E+04  0.50400001928E-02 0.  1.
       -1   -1    0    0    0  501  0.00000000000E+00  0.00000000000E+00 -0.11535690761E+04  0.11535690761E+04  0.50400001928E-02 0. -1.
    10030    2    1    2    0    0  0.00000000000E+00  0.00000000000E+00  0.99443015526E+03  0.33015683074E+04  0.31482474418E+04 0.  0.
        5    1    3    3  502    0 -0.29270378734E+03  0.15179912132E+04  0.80808102066E+03  0.17444167668E+04  0.46999998093E+01 0.  1.
       -5    1    3    3    0  502  0.29270378734E+03 -0.15179912132E+04  0.18634913459E+03  0.15571515406E+04  0.46999998093E+01 0. -1.
</event>
<event>
 5   0  0.1007567E-05  0.3013848E+04  0.7818609E-02  0.8239787E-01
        2   -1    0    0  501    0  0.00000000000E+00  0.00000000000E+00  0.16129979092E+04  0.16129979092E+04  0.25500000920E-02 0. -1.
       -2   -1    0    0    0  501  0.00000000000E+00  0.00000000000E+00 -0.14078260386E+04  0.14078260387E+04  0.25500000920E-02 0.  1.
    10030    2    1    2    0    0  0.00000000000E+00  0.00000000000E+00  0.20517187053E+03  0.30208239478E+04  0.30138483418E+04 0.  0.
        3    1    3    3  502    0 -0.84768462057E+03  0.12433811371E+04  0.23316995997E+02  0.15050280930E+04  0.10100000352E+00 0. -1.
       -3    1    3    3    0  502  0.84768462057E+03 -0.12433811371E+04  0.18185487453E+03  0.15157958549E+04  0.10100000352E+00 0.  1.
</event>
<event>
 5   0  0.3807334E-06  0.3095880E+04  0.7818609E-02  0.8216870E-01
       -1   -1    0    0    0  501  0.00000000000E+00  0.00000000000E+00  0.11359830194E+04  0.11359830194E+04  0.50400001928E-02 0.  1.
        1   -1    0    0  501    0  0.00000000000E+00  0.00000000000E+00 -0.21092903965E+04  0.21092903965E+04  0.50400001928E-02 0. -1.
    10030    2    1    2    0    0  0.00000000000E+00  0.00000000000E+00 -0.97330737707E+03  0.32452734160E+04  0.30958798901E+04 0.  0.
        4    1    3    3  502    0  0.98940170892E+03  0.10906370908E+04 -0.98687204884E+03  0.17726598826E+04  0.12699999809E+01 0. -1.
       -4    1    3    3    0  502 -0.98940170892E+03 -0.10906370908E+04  0.13564671765E+02  0.14726135334E+04  0.12699999809E+01 0.  1.
</event>
<event>
 5   0  0.4139628E-06  0.3145112E+04  0.7818609E-02  0.8203465E-01
       -1   -1    0    0    0  501  0.00000000000E+00  0.00000000000E+00  0.17365237030E+04  0.17365237030E+04  0.50400001928E-02 0.  1.
        1   -1    0    0  501    0  0.00000000000E+00  0.00000000000E+00 -0.14240707223E+04  0.14240707223E+04  0.50400001928E-02 0. -1.
    10030    2    1    2    0    0  0.00000000000E+00  0.00000000000E+00  0.31245298063E+03  0.31605944253E+04  0.31451121214E+04 0.  0.
        5    1    3    3  502    0 -0.50428657336E+03  0.13679927878E+04 -0.43591198713E+03  0.15217590368E+04  0.46999998093E+01 0. -1.
       -5    1    3    3    0  502  0.50428657336E+03 -0.13679927878E+04  0.74836496775E+03  0.16388353885E+04  0.46999998093E+01 0.  1.
</event>
<event>
 5   0  0.1001961E-05  0.2526617E+04  0.7818609E-02  0.8393564E-01
       -2   -1    0    0    0  501  0.00000000000E+00  0.00000000000E+00  0.18831790885E+04  0.18831790885E+04  0.25500000920E-02 0.  1.
        2   -1    0    0  501    0  0.00000000000E+00  0.00000000000E+00 -0.84747554594E+03  0.84747554595E+03  0.25500000920E-02 0. -1.
    10030    2    1    2    0    0  0.00000000000E+00  0.00000000000E+00  0.10357035425E+04  0.27306546344E+04  0.25266168891E+04 0.  0.
        5    1    3    3  502    0  0.80560392704E+03  0.46572884394E+02  0.15683322706E+04  0.17637615831E+04  0.46999998093E+01 0.  1.
       -5    1    3    3    0  502 -0.80560392704E+03 -0.46572884394E+02 -0.53262872808E+03  0.96689305137E+03  0.46999998093E+01 0. -1.
</event>
<event>
 5   0  0.4250961E-06  0.3042865E+04  0.7818609E-02  0.8231595E-01
       -1   -1    0    0    0  501  0.00000000000E+00  0.00000000000E+00  0.14199320772E+04  0.14199320772E+04  0.50400001928E-02 0.  1.
        1   -1    0    0  501    0  0.00000000000E+00  0.00000000000E+00 -0.16301886550E+04  0.16301886550E+04  0.50400001928E-02 0. -1.
    10030    2    1    2    0    0  0.00000000000E+00  0.00000000000E+00 -0.21025657779E+03  0.30501207321E+04  0.30428652044E+04 0.  0.
        1    1    3    3  502    0  0.11696803294E+04 -0.88696333285E+03 -0.50595817117E+03  0.15526911147E+04  0.50400001928E-02 0. -1.
       -1    1    3    3    0  502 -0.11696803294E+04  0.88696333285E+03  0.29570159338E+03  0.14974296174E+04  0.50400001928E-02 0.  1.
</event>
<event>
 5   0  0.1001961E-05  0.3061641E+04  0.7818609E-02  0.8226345E-01
       -2   -1    0    0    0  501  0.00000000000E+00  0.00000000000E+00  0.11301806182E+04  0.11301806182E+04  0.25500000920E-02 0. -1.
        2   -1    0    0  501    0  0.00000000000E+00  0.00000000000E+00 -0.20734837864E+04  0.20734837864E+04  0.25500000920E-02 0.  1.
    10030    2    1    2    0    0  0.00000000000E+00  0.00000000000E+00 -0.94330316811E+03  0.32036644046E+04  0.30616408591E+04 0.  0.
        5    1    3    3  502    0 -0.55080960859E+02  0.14851558787E+04 -0.87658247593E+02  0.14887672601E+04  0.46999998093E+01 0. -1.
       -5    1    3    3    0  502  0.55080960859E+02 -0.14851558787E+04 -0.85564492051E+03  0.17148971445E+04  0.46999998093E+01 0.  1.
</event>
<event>
 5   0  0.3848286E-06  0.3174646E+04  0.7818609E-02  0.8195545E-01
        1   -1    0    0  501    0  0.00000000000E+00  0.00000000000E+00  0.12520903488E+04  0.12520903488E+04  0.50400001928E-02 0. -1.
       -1   -1    0    0    0  501  0.00000000000E+00  0.00000000000E+00 -0.20123107264E+04  0.20123107264E+04  0.50400001928E-02 0.  1.
    10030    2    1    2    0    0  0.00000000000E+00  0.00000000000E+00 -0.76022037755E+03  0.32644010752E+04  0.31746463358E+04 0.  0.
        2    1    3    3  502    0  0.27788181756E+03 -0.84856040581E+02 -0.19847343892E+04  0.20058886928E+04  0.25500000920E-02 0.  1.
       -2    1    3    3    0  502 -0.27788181756E+03  0.84856040581E+02  0.12245140116E+04  0.12585123825E+04  0.25500000920E-02 0. -1.
</event>
<event>
 5   0  0.3838525E-06  0.1830335E+04  0.7818609E-02  0.8690332E-01
       -1   -1    0    0    0  501  0.00000000000E+00  0.00000000000E+00  0.94252372116E+03  0.94252372117E+03  0.50400001928E-02 0.  1.
        1   -1    0    0  501    0  0.00000000000E+00  0.00000000000E+00 -0.88860541869E+03  0.88860541871E+03  0.50400001928E-02 0. -1.
    10030    2    1    2    0    0  0.00000000000E+00  0.00000000000E+00  0.53918302466E+02  0.18311291399E+04  0.18303351451E+04 0.  0.
        3    1    3    3  502    0 -0.91359777393E+03 -0.36117287519E+01  0.80440161694E+02  0.91713933888E+03  0.10100000352E+00 0. -1.
       -3    1    3    3    0  502  0.91359777393E+03  0.36117287519E+01 -0.26521859228E+02  0.91398980100E+03  0.10100000352E+00 0.  1.
</event>
<event>
 5   0  0.4139628E-06  0.3034843E+04  0.7818609E-02  0.8233851E-01
       -1   -1    0    0    0  501  0.00000000000E+00  0.00000000000E+00  0.12506722519E+04  0.12506722519E+04  0.50400001928E-02 0. -1.
        1   -1    0    0  501    0  0.00000000000E+00  0.00000000000E+00 -0.18410641641E+04  0.18410641641E+04  0.50400001928E-02 0.  1.
    10030    2    1    2    0    0  0.00000000000E+00  0.00000000000E+00 -0.59039191219E+03  0.30917364160E+04  0.30348429047E+04 0.  0.
        5    1    3    3  502    0 -0.52520136115E+03  0.70012610482E+03  0.96761155273E+03  0.13047249670E+04  0.46999998093E+01 0. -1.
       -5    1    3    3    0  502  0.52520136115E+03 -0.70012610482E+03 -0.15580034649E+04  0.17870114491E+04  0.46999998093E+01 0.  1.
</event>
<event>
 5   0  0.1119100E-05  0.3053606E+04  0.7818609E-02  0.8228587E-01
        2   -1    0    0  501    0  0.00000000000E+00  0.00000000000E+00  0.15931764143E+04  0.15931764143E+04  0.25500000920E-02 0.  1.
       -2   -1    0    0    0  501  0.00000000000E+00  0.00000000000E+00 -0.14631946050E+04  0.14631946050E+04  0.25500000920E-02 0. -1.
    10030    2    1    2    0    0  0.00000000000E+00  0.00000000000E+00  0.12998180937E+03  0.30563710193E+04  0.30536058254E+04 0.  0.
        2    1    3    3  502    0 -0.11952745425E+04 -0.78324290662E+03  0.60304299694E+03  0.15510678705E+04  0.25500000920E-02 0.  1.
       -2    1    3    3    0  502  0.11952745425E+04  0.78324290662E+03 -0.47306118757E+03  0.15053031488E+04  0.25500000920E-02 0. -1.
</event>
<event>
 5   0  0.9797278E-06  0.2975933E+04  0.7818609E-02  0.8250637E-01
       -2   -1    0    0    0  501  0.00000000000E+00  0.00000000000E+00  0.77503954459E+03  0.77503954459E+03  0.25500000920E-02 0.  1.
        2   -1    0    0  501    0  0.00000000000E+00  0.00000000000E+00 -0.28566858839E+04  0.28566858839E+04  0.25500000920E-02 0. -1.
    10030    2    1    2    0    0  0.00000000000E+00  0.00000000000E+00 -0.20816463393E+04  0.36317254285E+04  0.29759331488E+04 0.  0.
        1    1    3    3  502    0 -0.21203417227E+03 -0.13106320454E+04 -0.18606776642E+04  0.22857900644E+04  0.50400001928E-02 0. -1.
       -1    1    3    3    0  502  0.21203417227E+03  0.13106320454E+04 -0.22096867509E+03  0.13459353640E+04  0.50400001928E-02 0.  1.
</event>
<event>
 5   0  0.4250961E-06  0.2941952E+04  0.7818609E-02  0.8260504E-01
       -1   -1    0    0    0  501  0.00000000000E+00  0.00000000000E+00  0.15094742576E+04  0.15094742576E+04  0.50400001928E-02 0. -1.
        1   -1    0    0  501    0  0.00000000000E+00  0.00000000000E+00 -0.14334596579E+04  0.14334596579E+04  0.50400001928E-02 0.  1.
    10030    2    1    2    0    0  0.00000000000E+00  0.00000000000E+00  0.76014599688E+02  0.29429339156E+04  0.29419520411E+04 0.  0.
        1    1    3    3  502    0 -0.83612660665E+03 -0.12073293473E+04  0.12181233239E+03  0.14736316024E+04  0.50400001928E-02 0. -1.
       -1    1    3    3    0  502  0.83612660665E+03  0.12073293473E+04 -0.45797732705E+02  0.14693023132E+04  0.50400001928E-02 0.  1.
</event>
<event>
 5   0  0.3838525E-06  0.2048813E+04  0.7818609E-02  0.8584133E-01
        1   -1    0    0  501    0  0.00000000000E+00  0.00000000000E+00  0.11407240800E+04  0.11407240800E+04  0.50400001928E-02 0.  1.
       -1   -1    0    0    0  501  0.00000000000E+00  0.00000000000E+00 -0.91994994113E+03  0.91994994115E+03  0.50400001928E-02 0. -1.
    10030    2    1    2    0    0  0.00000000000E+00  0.00000000000E+00  0.22077413885E+03  0.20606740211E+04  0.20488133641E+04 0.  0.
        3    1    3    3  502    0 -0.87249021436E+03  0.36306767309E+03 -0.28731536014E+03  0.98772842207E+03  0.10100000352E+00 0. -1.
       -3    1    3    3    0  502  0.87249021436E+03 -0.36306767309E+03  0.50808949899E+03  0.10729455991E+04  0.10100000352E+00 0.  1.
</event>
<event>
 5   0  0.3838525E-06  0.3127863E+04  0.7818609E-02  0.8208133E-01
       -1   -1    0    0    0  501  0.00000000000E+00  0.00000000000E+00  0.91234068286E+03  0.91234068287E+03  0.50400001928E-02 0.  1.
        1   -1    0    0  501    0  0.00000000000E+00  0.00000000000E+00 -0.26808858805E+04  0.26808858805E+04  0.50400001928E-02 0. -1.
    10030    2    1    2    0    0  0.00000000000E+00  0.00000000000E+00 -0.17685451976E+04  0.35932265633E+04  0.31278626919E+04 0.  0.
        3    1    3    3  502    0  0.80003064211E+03 -0.94036930907E+03 -0.19870643111E+04  0.23393948047E+04  0.10100000352E+00 0. -1.
       -3    1    3    3    0  502 -0.80003064211E+03  0.94036930907E+03  0.21851911348E+03  0.12538317586E+04  0.10100000352E+00 0.  1.
</event>
<event>
 5   0  0.3848286E-06  0.2178793E+04  0.7818609E-02  0.8527307E-01
       -1   -1    0    0    0  501  0.00000000000E+00  0.00000000000E+00  0.67610063488E+03  0.67610063490E+03  0.50400001928E-02 0.  1.
        1   -1    0    0  501    0  0.00000000000E+00  0.00000000000E+00 -0.17553374291E+04  0.17553374292E+04  0.50400001928E-02 0. -1.
    10030    2    1    2    0    0  0.00000000000E+00  0.00000000000E+00 -0.10792367943E+04  0.24314380641E+04  0.21787930148E+04 0.  0.
        2    1    3    3  502    0  0.52074090058E+03  0.76921612481E+03 -0.11747537179E+04  0.14976350790E+04  0.25500000920E-02 0. -1.
       -2    1    3    3    0  502 -0.52074090058E+03 -0.76921612481E+03  0.95516923600E+02  0.93380298505E+03  0.25500000920E-02 0.  1.
</event>
<event>
 5   0  0.9797278E-06  0.3117992E+04  0.7818609E-02  0.8210817E-01
        2   -1    0    0  501    0  0.00000000000E+00  0.00000000000E+00  0.14306973198E+04  0.14306973198E+04  0.25500000920E-02 0.  1.
       -2   -1    0    0    0  501  0.00000000000E+00  0.00000000000E+00 -0.16988001344E+04  0.16988001344E+04  0.25500000920E-02 0. -1.
    10030    2    1    2    0    0  0.00000000000E+00  0.00000000000E+00 -0.26810281463E+03  0.31294974542E+04  0.31179921739E+04 0.  0.
        1    1    3    3  502    0  0.12105327418E+04  0.51825489802E+03 -0.97169135335E+03  0.16365090115E+04  0.50400001928E-02 0. -1.
       -1    1    3    3    0  502 -0.12105327418E+04 -0.51825489802E+03  0.70358853872E+03  0.14929884428E+04  0.50400001928E-02 0.  1.
</event>
<event>
 5   0  0.1007567E-05  0.3148686E+04  0.7818609E-02  0.8202502E-01
        2   -1    0    0  501    0  0.00000000000E+00  0.00000000000E+00  0.19222496694E+04  0.19222496694E+04  0.25500000920E-02 0. -1.
       -2   -1    0    0    0  501  0.00000000000E+00  0.00000000000E+00 -0.12894040914E+04  0.12894040914E+04  0.25500000920E-02 0.  1.
    10030    2    1    2    0    0  0.00000000000E+00  0.00000000000E+00  0.63284557806E+03  0.32116537608E+04  0.31486864489E+04 0.  0.
        3    1    3    3  502    0  0.13690904720E+04  0.79554055731E+02 -0.47222695097E+03  0.14504261001E+04  0.10100000352E+00 0.  1.
       -3    1    3    3    0  502 -0.13690904720E+04 -0.79554055731E+02  0.11050725290E+04  0.17612276607E+04  0.10100000352E+00 0. -1.
</event>
<event>
 5   0  0.3838525E-06  0.2979432E+04  0.7818609E-02  0.8249629E-01
        1   -1    0    0  501    0  0.00000000000E+00  0.00000000000E+00  0.24606774080E+04  0.24606774080E+04  0.50400001928E-02 0.  1.
       -1   -1    0    0    0  501  0.00000000000E+00  0.00000000000E+00 -0.90188760601E+03  0.90188760602E+03  0.50400001928E-02 0. -1.
    10030    2    1    2    0    0  0.00000000000E+00  0.00000000000E+00  0.15587898020E+04  0.33625650140E+04  0.29794324672E+04 0.  0.
        3    1    3    3  502    0 -0.13157939175E+04  0.27320076222E+03  0.15049509709E+04  0.20176297294E+04  0.10100000352E+00 0.  1.
       -3    1    3    3    0  502  0.13157939175E+04 -0.27320076222E+03  0.53838831086E+02  0.13449352846E+04  0.10100000352E+00 0. -1.
</event>
<event>
 5   0  0.1108153E-05  0.2999104E+04  0.7818609E-02  0.8243987E-01
       -2   -1    0    0    0  501  0.00000000000E+00  0.00000000000E+00  0.11714185231E+04  0.11714185231E+04  0.25500000920E-02 0.  1.
        2   -1    0    0  501    0  0.00000000000E+00  0.00000000000E+00 -0.19196005032E+04  0.19196005032E+04  0.25500000920E-02 0. -1.
    10030    2    1    2    0    0  0.00000000000E+00  0.00000000000E+00 -0.74818198011E+03  0.30910190264E+04  0.29991035904E+04 0.  0.
        4    1    3    3  502    0  0.32510150117E+03 -0.13886779760E+04 -0.85146720120E+03  0.16610585525E+04  0.12699999809E+01 0. -1.
       -4    1    3    3    0  502 -0.32510150117E+03  0.13886779760E+04  0.10328522109E+03  0.14299604739E+04  0.12699999809E+01 0.  1.
</event>
<event>
 5   0  0.3838525E-06  0.3084242E+04  0.7818609E-02  0.8220076E-01
        1   -1    0    0  501    0  0.00000000000E+00  0.00000000000E+00  0.19568200423E+04  0.19568200423E+04  0.50400001928E-02 0. -1.
       -1   -1    0    0    0  501  0.00000000000E+00  0.00000000000E+00 -0.12153070511E+04  0.12153070511E+04  0.50400001928E-02 0.  1.
    10030    2    1    2    0    0  0.00000000000E+00  0.00000000000E+00  0.74151299114E+03  0.31721270934E+04  0.30842420107E+04 0.  0.
        3    1    3    3  502    0  0.14079063450E+04  0.20427531201E+03 -0.24135653336E+03  0.14429766685E+04  0.10100000352E+00 0.  1.
       -3    1    3    3    0  502 -0.14079063450E+04 -0.20427531201E+03  0.98286952450E+03  0.17291504249E+04  0.10100000352E+00 0. -1.
</event>
<event>
 5   0  0.3838525E-06  0.3038875E+04  0.7818609E-02  0.8232716E-01
        1   -1    0    0  501    0  0.00000000000E+00  0.00000000000E+00  0.18764330727E+04  0.18764330727E+04  0.50400001928E-02 0. -1.
       -1   -1    0    0    0  501  0.00000000000E+00  0.00000000000E+00 -0.12303610038E+04  0.12303610038E+04  0.50400001928E-02 0.  1.
    10030    2    1    2    0    0  0.00000000000E+00  0.00000000000E+00  0.64607206889E+03  0.31067940766E+04  0.30388748437E+04 0.  0.
        3    1    3    3  502    0  0.40933243229E+03  0.14317950719E+04  0.63160952021E+03  0.16175663091E+04  0.10100000352E+00 0. -1.
       -3    1    3    3    0  502 -0.40933243229E+03 -0.14317950719E+04  0.14462548685E+02  0.14892277675E+04  0.10100000352E+00 0.  1.
</event>
<event>
 5   0  0.1001961E-05  0.3077836E+04  0.7818609E-02  0.8221847E-01
       -2   -1    0    0    0  501  0.00000000000E+00  0.00000000000E+00  0.89979425343E+03  0.89979425344E+03  0.25500000920E-02 0. -1.
        2   -1    0    0  501    0  0.00000000000E+00  0.00000000000E+00 -0.26320106071E+04  0.26320106071E+04  0.25500000920E-02 0.  1.
    10030    2    1    2    0    0  0.00000000000E+00  0.00000000000E+00 -0.17322163537E+04  0.35318048606E+04  0.30778356157E+04 0.  0.
        5    1    3    3  502    0  0.48585417386E+03  0.12610637959E+04 -0.21384313719E+02  0.13515974084E+04  0.46999998093E+01 0. -1.
       -5    1    3    3    0  502 -0.48585417386E+03 -0.12610637959E+04 -0.17108320400E+04  0.21802074522E+04  0.46999998093E+01 0.  1.
</event>
<event>
 5   0  0.3807334E-06  0.3162586E+04  0.7818609E-02  0.8198769E-01
        1   -1    0    0  501    0  0.00000000000E+00  0.00000000000E+00  0.12560136101E+04  0.12560136101E+04  0.50400001928E-02 0. -1.
       -1   -1    0    0    0  501  0.00000000000E+00  0.00000000000E+00 -0.19908121271E+04  0.19908121271E+04  0.50400001928E-02 0.  1.
    10030    2    1    2    0    0  0.00000000000E+00  0.00000000000E+00 -0.73479851706E+03  0.32468257372E+04  0.31625857312E+04 0.  0.
        4    1    3    3  502    0  0.11148039723E+04  0.10618334180E+04 -0.73785345776E+03  0.17072514292E+04  0.12699999809E+01 0. -1.
       -4    1    3    3    0  502 -0.11148039723E+04 -0.10618334180E+04  0.30549406992E+01  0.15395743080E+04  0.12699999809E+01 0.  1.
</event>
<event>
 5   0  0.3838525E-06  0.1610173E+04  0.7818609E-02  0.8814322E-01
       -1   -1    0    0    0  501  0.00000000000E+00  0.00000000000E+00  0.63332035668E+03  0.63332035670E+03  0.50400001928E-02 0. -1.
        1   -1    0    0  501    0  0.00000000000E+00  0.00000000000E+00 -0.10234385162E+04  0.10234385162E+04  0.50400001928E-02 0.  1.
    10030    2    1    2    0    0  0.00000000000E+00  0.00000000000E+00 -0.39011815954E+03  0.16567588729E+04  0.16101732157E+04 0.  0.
        3    1    3    3  502    0 -0.12522266114E+03  0.54312318021E+03  0.40269726618E+03  0.68762533558E+03  0.10100000352E+00 0. -1.
       -3    1    3    3    0  502  0.12522266114E+03 -0.54312318021E+03 -0.79281542572E+03  0.96913353735E+03  0.10100000352E+00 0.  1.
</event>
<event>
 5   0  0.1119100E-05  0.3097147E+04  0.7818609E-02  0.8216521E-01
        2   -1    0    0  501    0  0.00000000000E+00  0.00000000000E+00  0.16365085718E+04  0.16365085718E+04  0.25500000920E-02 0. -1.
       -2   -1    0    0    0  501  0.00000000000E+00  0.00000000000E+00 -0.14653634477E+04  0.14653634477E+04  0.25500000920E-02 0.  1.
    10030    2    1    2    0    0  0.00000000000E+00  0.00000000000E+00  0.17114512409E+03  0.31018720195E+04  0.30971469730E+04 0.  0.
        2    1    3    3  502    0 -0.96311370960E+03 -0.10212149111E+04 -0.56934549881E+03  0.15148010461E+04  0.25500000920E-02 0.  1.
       -2    1    3    3    0  502  0.96311370960E+03  0.10212149111E+04  0.74049062290E+03  0.15870709735E+04  0.25500000920E-02 0. -1.
</event>
<event>
 5   0  0.3807334E-06  0.3094482E+04  0.7818609E-02  0.8217254E-01
       -1   -1    0    0    0  501  0.00000000000E+00  0.00000000000E+00  0.14024956425E+04  0.14024956425E+04  0.50400001928E-02 0. -1.
        1   -1    0    0  501    0  0.00000000000E+00  0.00000000000E+00 -0.17069247030E+04  0.17069247030E+04  0.50400001928E-02 0.  1.
    10030    2    1    2    0    0  0.00000000000E+00  0.00000000000E+00 -0.30442906051E+03  0.31094203455E+04  0.30944818358E+04 0.  0.
        4    1    3    3  502    0 -0.33074138164E+03  0.25431255219E+03  0.13449069467E+04  0.14081338871E+04  0.12699999809E+01 0. -1.
       -4    1    3    3    0  502  0.33074138164E+03 -0.25431255219E+03 -0.16493360072E+04  0.17012864584E+04  0.12699999809E+01 0.  1.
</event>
<event>
 5   0  0.9797278E-06  0.2987847E+04  0.7818609E-02  0.8247210E-01
       -2   -1    0    0    0  501  0.00000000000E+00  0.00000000000E+00  0.14136595067E+04  0.14136595067E+04  0.25500000920E-02 0.  1.
        2   -1    0    0  501    0  0.00000000000E+00  0.00000000000E+00 -0.15787451461E+04  0.15787451461E+04  0.25500000920E-02 0. -1.
    10030    2    1    2    0    0  0.00000000000E+00  0.00000000000E+00 -0.16508563941E+03  0.29924046528E+04  0.29878474422E+04 0.  0.
        1    1    3    3  502    0  0.10120365012E+04 -0.51314463510E+03  0.89067631632E+03  0.14425115586E+04  0.50400001928E-02 0.  1.
       -1    1    3    3    0  502 -0.10120365012E+04  0.51314463510E+03 -0.10557619557E+04  0.15498930942E+04  0.50400001928E-02 0. -1.
</event>
<event>
 5   0  0.3848286E-06  0.2881756E+04  0.7818609E-02  0.8278326E-01
       -1   -1    0    0    0  501  0.00000000000E+00  0.00000000000E+00  0.11270985855E+04  0.11270985855E+04  0.50400001928E-02 0.  1.
        1   -1    0    0  501    0  0.00000000000E+00  0.00000000000E+00 -0.18420126821E+04  0.18420126821E+04  0.50400001928E-02 0. -1.
    10030    2    1    2    0    0  0.00000000000E+00  0.00000000000E+00 -0.71491409654E+03  0.29691112676E+04  0.28817563315E+04 0.  0.
        2    1    3    3  502    0 -0.33462672315E+03 -0.88427750108E+03 -0.14777102422E+04  0.17542945314E+04  0.25500000920E-02 0.  1.
       -2    1    3    3    0  502  0.33462672315E+03  0.88427750108E+03  0.76279614569E+03  0.12148167362E+04  0.25500000920E-02 0. -1.
</event>
<event>
 5   0  0.3807334E-06  0.2075407E+04  0.7818609E-02  0.8572155E-01
        1   -1    0    0  501    0  0.00000000000E+00  0.00000000000E+00  0.14159013822E+04  0.14159013822E+04  0.50400001928E-02 0. -1.
       -1   -1    0    0    0  501  0.00000000000E+00  0.00000000000E+00 -0.76052529754E+03  0.76052529755E+03  0.50400001928E-02 0.  1.
    10030    2    1    2    0    0  0.00000000000E+00  0.00000000000E+00  0.65537608468E+03  0.21764266798E+04  0.20754072564E+04 0.  0.
        4    1    3    3  502    0  0.40386279079E+02 -0.10338359303E+04  0.24392904440E+03  0.10629914270E+04  0.12699999809E+01 0.  1.
       -4    1    3    3    0  502 -0.40386279079E+02  0.10338359303E+04  0.41144704028E+03  0.11134352528E+04  0.12699999809E+01 0. -1.
</event>
<event>
 5   0  0.1007567E-05  0.2497550E+04  0.7818609E-02  0.8403859E-01
       -2   -1    0    0    0  501  0.00000000000E+00  0.00000000000E+00  0.87557971350E+03  0.87557971351E+03  0.25500000920E-02 0. -1.
        2   -1    0    0  501    0  0.00000000000E+00  0.00000000000E+00 -0.17810360157E+04  0.17810360157E+04  0.25500000920E-02 0.  1.
    10030    2    1    2    0    0  0.00000000000E+00  0.00000000000E+00 -0.90545630223E+03  0.26566157292E+04  0.24975500030E+04 0.  0.
        3    1    3    3  502    0 -0.28372782324E+02  0.16863119443E+03  0.86306703069E+03  0.87984442044E+03  0.10100000352E+00 0. -1.
       -3    1    3    3    0  502  0.28372782324E+02 -0.16863119443E+03 -0.17685233329E+04  0.17767713088E+04  0.10100000352E+00 0.  1.
</event>
<event>
 5   0  0.3838525E-06  0.2928942E+04  0.7818609E-02  0.8264318E-01
        1   -1    0    0  501    0  0.00000000000E+00  0.00000000000E+00  0.23491485945E+04  0.23491485945E+04  0.50400001928E-02 0. -1.
       -1   -1    0    0    0  501  0.00000000000E+00  0.00000000000E+00 -0.91295830648E+03  0.91295830650E+03  0.50400001928E-02 0.  1.
    10030    2    1    2    0    0  0.00000000000E+00  0.00000000000E+00  0.14361902880E+04  0.32621069010E+04  0.29289415990E+04 0.  0.
        3    1    3    3  502    0  0.20908468630E+03 -0.92358261130E+03 -0.52609475908E+03  0.10832806431E+04  0.10100000352E+00 0.  1.
       -3    1    3    3    0  502 -0.20908468630E+03  0.92358261130E+03  0.19622850471E+04  0.21788262579E+04  0.10100000352E+00 0. -1.
</event>
<event>
 5   0  0.1119100E-05  0.1533792E+04  0.7818609E-02  0.8862287E-01
        2   -1    0    0  501    0  0.00000000000E+00  0.00000000000E+00  0.18373591774E+04  0.18373591774E+04  0.25500000920E-02 0. -1.
       -2   -1    0    0    0  501  0.00000000000E+00  0.00000000000E+00 -0.32009506767E+03  0.32009506768E+03  0.25500000920E-02 0.  1.
    10030    2    1    2    0    0  0.00000000000E+00  0.00000000000E+00  0.15172641098E+04  0.21574542451E+04  0.15337921766E+04 0.  0.
        2    1    3    3  502    0  0.44374865783E+03 -0.46732631855E+03  0.17387474658E+03  0.66748721848E+03  0.25500000920E-02 0.  1.
       -2    1    3    3    0  502 -0.44374865783E+03  0.46732631855E+03  0.13433893632E+04  0.14899670266E+04  0.25500000920E-02 0. -1.
</event>
<event>
 5   0  0.1007567E-05  0.3092972E+04  0.7818609E-02  0.8217669E-01
        2   -1    0    0  501    0  0.00000000000E+00  0.00000000000E+00  0.22897628933E+04  0.22897628933E+04  0.25500000920E-02 0.  1.
       -2   -1    0    0    0  501  0.00000000000E+00  0.00000000000E+00 -0.10444830841E+04  0.10444830841E+04  0.25500000920E-02 0. -1.
    10030    2    1    2    0    0  0.00000000000E+00  0.00000000000E+00  0.12452798092E+04  0.33342459775E+04  0.30929717805E+04 0.  0.
        3    1    3    3  502    0 -0.95273291800E+03 -0.95743643952E+02 -0.68648515683E+03  0.11781887536E+04  0.10100000352E+00 0. -1.
       -3    1    3    3    0  502  0.95273291800E+03  0.95743643952E+02  0.19317649660E+04  0.21560572238E+04  0.10100000352E+00 0.  1.
</event>
<event>
 5   0  0.1119100E-05  0.3145712E+04  0.7818609E-02  0.8203304E-01
       -2   -1    0    0    0  501  0.00000000000E+00  0.00000000000E+00  0.20973102971E+04  0.20973102971E+04  0.25500000920E-02 0.  1.
        2   -1    0    0  501    0  0.00000000000E+00  0.00000000000E+00 -0.11795467254E+04  0.11795467254E+04  0.25500000920E-02 0. -1.
    10030    2    1    2    0    0  0.00000000000E+00  0.00000000000E+00  0.91776357171E+03  0.32768570224E+04  0.31457116797E+04 0.  0.
        2    1    3    3  502    0 -0.14124698541E+04 -0.68520585358E+03  0.35843917624E+03  0.16102971135E+04  0.25500000920E-02 0. -1.
       -2    1    3    3    0  502  0.14124698541E+04  0.68520585358E+03  0.55932439547E+03  0.16665599089E+04  0.25500000920E-02 0.  1.
</event>
<event>
 5   0  0.1108153E-05  0.3033556E+04  0.7818609E-02  0.8234213E-01
        2   -1    0    0  501    0  0.00000000000E+00  0.00000000000E+00  0.15481847215E+04  0.15481847215E+04  0.25500000920E-02 0.  1.
       -2   -1    0    0    0  501  0.00000000000E+00  0.00000000000E+00 -0.14860081040E+04  0.14860081040E+04  0.25500000920E-02 0. -1.
    10030    2    1    2    0    0  0.00000000000E+00  0.00000000000E+00  0.62176617501E+02  0.30341928254E+04  0.30335556975E+04 0.  0.
        4    1    3    3  502    0 -0.80100006491E+03  0.12855922386E+04 -0.48079573187E+02  0.15154741061E+04  0.12699999809E+01 0.  1.
       -4    1    3    3    0  502  0.80100006491E+03 -0.12855922386E+04  0.11025619069E+03  0.15187187193E+04  0.12699999809E+01 0. -1.
</event>
<event>
 5   0  0.4139628E-06  0.2956417E+04  0.7818609E-02  0.8256287E-01
        1   -1    0    0  501    0  0.00000000000E+00  0.00000000000E+00  0.22615449031E+04  0.22615449031E+04  0.50400001928E-02 0. -1.
       -1   -1    0    0    0  501  0.00000000000E+00  0.00000000000E+00 -0.96619777439E+03  0.96619777440E+03  0.50400001928E-02 0.  1.
    10030    2    1    2    0    0  0.00000000000E+00  0.00000000000E+00  0.12953471287E+04  0.32277426775E+04  0.29564165147E+04 0.  0.
        5    1    3    3  502    0  0.89739668609E+03  0.63829748030E+03  0.17242399485E+04  0.20459154370E+04  0.46999998093E+01 0. -1.
       -5    1    3    3    0  502 -0.89739668609E+03 -0.63829748030E+03 -0.42889281974E+03  0.11818272405E+04  0.46999998093E+01 0.  1.
</event>
<event>
 5   0  0.3807334E-06  0.1932033E+04  0.7818609E-02  0.8639074E-01
       -1   -1    0    0    0  501  0.00000000000E+00  0.00000000000E+00  0.73811706747E+03  0.73811706748E+03  0.50400001928E-02 0. -1.
        1   -1    0    0  501    0  0.00000000000E+00  0.00000000000E+00 -0.12642818701E+04  0.12642818701E+04  0.50400001928E-02 0.  1.
    10030    2    1    2    0    0  0.00000000000E+00  0.00000000000E+00 -0.52616480266E+03  0.20023989376E+04  0.19320331534E+04 0.  0.
        4    1    3    3  502    0 -0.32629706116E+03 -0.44669615132E+03 -0.10838720137E+04  0.12168760736E+04  0.12699999809E+01 0.  1.
       -4    1    3    3    0  502  0.32629706116E+03  0.44669615132E+03  0.55770721099E+03  0.78552286397E+03  0.12699999809E+01 0. -1.
</event>
<event>
 5   0  0.1119100E-05  0.2144389E+04  0.7818609E-02  0.8541938E-01
        2   -1    0    0  501    0  0.00000000000E+00  0.00000000000E+00  0.13941120011E+04  0.13941120011E+04  0.25500000920E-02 0.  1.
       -2   -1    0    0    0  501  0.00000000000E+00  0.00000000000E+00 -0.82461200476E+03  0.82461200477E+03  0.25500000920E-02 0. -1.
    10030    2    1    2    0    0  0.00000000000E+00  0.00000000000E+00  0.56949999631E+03  0.22187240058E+04  0.21443894162E+04 0.  0.
        2    1    3    3  502    0  0.64285742845E+03 -0.59660985912E+03  0.92288945309E+03  0.12731590395E+04  0.25500000920E-02 0.  1.
       -2    1    3    3    0  502 -0.64285742845E+03  0.59660985912E+03 -0.35338945679E+03  0.94556496630E+03  0.25500000920E-02 0. -1.
</event>
<event>
 5   0  0.1119100E-05  0.3082704E+04  0.7818609E-02  0.8220501E-01
        2   -1    0    0  501    0  0.00000000000E+00  0.00000000000E+00  0.18984468442E+04  0.18984468442E+04  0.25500000920E-02 0. -1.
       -2   -1    0    0    0  501  0.00000000000E+00  0.00000000000E+00 -0.12514258507E+04  0.12514258507E+04  0.25500000920E-02 0.  1.
    10030    2    1    2    0    0  0.00000000000E+00  0.00000000000E+00  0.64702099355E+03  0.31498726949E+04  0.30827036555E+04 0.  0.
        2    1    3    3  502    0  0.27501319883E+03 -0.14029808757E+04  0.91206261220E+03  0.16958318919E+04  0.25500000920E-02 0.  1.
       -2    1    3    3    0  502 -0.27501319883E+03  0.14029808757E+04 -0.26504161865E+03  0.14540408030E+04  0.25500000920E-02 0. -1.
</event>
<event>
 5   0  0.3493125E-06  0.3111859E+04  0.7818609E-02  0.8212491E-01
       -3   -1    0    0    0  501  0.00000000000E+00  0.00000000000E+00  0.10692389261E+04  0.10692389309E+04  0.10100000352E+00 0. -1.
        3   -1    0    0  501    0  0.00000000000E+00  0.00000000000E+00 -0.22641498814E+04  0.22641498836E+04  0.10100000352E+00 0.  1.
    10030    2    1    2    0    0  0.00000000000E+00  0.00000000000E+00 -0.11949109553E+04  0.33333888145E+04  0.31118593795E+04 0.  0.
        5    1    3    3  502    0 -0.10304149356E+04  0.10971273598E+04 -0.10197970035E+04  0.18180900422E+04  0.46999998093E+01 0. -1.
       -5    1    3    3    0  502  0.10304149356E+04 -0.10971273598E+04 -0.17511395173E+03  0.15152987723E+04  0.46999998093E+01 0.  1.
</event>
<event>
 5   0  0.1007567E-05  0.3027362E+04  0.7818609E-02  0.8235960E-01
        2   -1    0    0  501    0  0.00000000000E+00  0.00000000000E+00  0.16866757886E+04  0.16866757886E+04  0.25500000920E-02 0.  1.
       -2   -1    0    0    0  501  0.00000000000E+00  0.00000000000E+00 -0.13584298413E+04  0.13584298413E+04  0.25500000920E-02 0. -1.
    10030    2    1    2    0    0  0.00000000000E+00  0.00000000000E+00  0.32824594733E+03  0.30451056298E+04  0.30273623660E+04 0.  0.
        3    1    3    3  502    0  0.29581857936E+02  0.24471245052E+02 -0.13579400368E+04  0.13584826395E+04  0.10100000352E+00 0. -1.
       -3    1    3    3    0  502 -0.29581857936E+02 -0.24471245052E+02  0.16861859841E+04  0.16866229903E+04  0.10100000352E+00 0.  1.
</event>
<event>
 5   0  0.3848286E-06  0.3032892E+04  0.7818609E-02  0.8234400E-01
       -1   -1    0    0    0  501  0.00000000000E+00  0.00000000000E+00  0.15793002497E+04  0.15793002497E+04  0.50400001928E-02 0.  1.
        1   -1    0    0  501    0  0.00000000000E+00  0.00000000000E+00 -0.14560931365E+04  0.14560931366E+04  0.50400001928E-02 0. -1.
    10030    2    1    2    0    0  0.00000000000E+00  0.00000000000E+00  0.12320711310E+03  0.30353933862E+04  0.30328918570E+04 0.  0.
        2    1    3    3  502    0 -0.12181328246E+04  0.90026818172E+03 -0.11105361385E+02  0.15147454263E+04  0.25500000920E-02 0. -1.
       -2    1    3    3    0  502  0.12181328246E+04 -0.90026818172E+03  0.13431247449E+03  0.15206479600E+04  0.25500000920E-02 0.  1.
</event>
<event>
 5   0  0.4250961E-06  0.1638213E+04  0.7818609E-02  0.8797410E-01
        1   -1    0    0  501    0  0.00000000000E+00  0.00000000000E+00  0.82948299740E+03  0.82948299741E+03  0.50400001928E-02 0. -1.
       -1   -1    0    0    0  501  0.00000000000E+00  0.00000000000E+00 -0.80885954919E+03  0.80885954921E+03  0.50400001928E-02 0.  1.
    10030    2    1    2    0    0  0.00000000000E+00  0.00000000000E+00  0.20623448208E+02  0.16383425466E+04  0.16382127375E+04 0.  0.
        1    1    3    3  502    0 -0.81833376517E+03  0.35422633774E+02  0.13525877206E+02  0.81921173305E+03  0.50400001928E-02 0. -1.
       -1    1    3    3    0  502  0.81833376517E+03 -0.35422633774E+02  0.70975710020E+01  0.81913081357E+03  0.50400001928E-02 0.  1.
</event>
<event>
 5   0  0.1119100E-05  0.3090033E+04  0.7818609E-02  0.8218479E-01
       -2   -1    0    0    0  501  0.00000000000E+00  0.00000000000E+00  0.19330362088E+04  0.19330362088E+04  0.25500000920E-02 0. -1.
        2   -1    0    0  501    0  0.00000000000E+00  0.00000000000E+00 -0.12348839261E+04  0.12348839261E+04  0.25500000920E-02 0.  1.
    10030    2    1    2    0    0  0.00000000000E+00  0.00000000000E+00  0.69815228270E+03  0.31679201349E+04  0.30900325842E+04 0.  0.
        2    1    3    3  502    0  0.14226495048E+04 -0.23459811068E+03  0.91814165729E+03  0.17093718115E+04  0.25500000920E-02 0. -1.
       -2    1    3    3    0  502 -0.14226495048E+04  0.23459811068E+03 -0.21998937459E+03  0.14585483235E+04  0.25500000920E-02 0.  1.
</event>
<event>
 5   0  0.1001961E-05  0.2456320E+04  0.7818609E-02  0.8418714E-01
        2   -1    0    0  501    0  0.00000000000E+00  0.00000000000E+00  0.85242470283E+03  0.85242470284E+03  0.25500000920E-02 0.  1.
       -2   -1    0    0    0  501  0.00000000000E+00  0.00000000000E+00 -0.17695127575E+04  0.17695127575E+04  0.25500000920E-02 0. -1.
    10030    2    1    2    0    0  0.00000000000E+00  0.00000000000E+00 -0.91708805471E+03  0.26219374604E+04  0.24563195122E+04 0.  0.
        5    1    3    3  502    0 -0.10253763442E+04  0.65088165706E+03 -0.65336220039E+03  0.13791112477E+04  0.46999998093E+01 0. -1.
       -5    1    3    3    0  502  0.10253763442E+04 -0.65088165706E+03 -0.26372585432E+03  0.12428262127E+04  0.46999998093E+01 0.  1.
</event>
<event>
 5   0  0.3493125E-06  0.3066794E+04  0.7818609E-02  0.8224911E-01
       -4   -1    0    0    0  501  0.00000000000E+00  0.00000000000E+00  0.18059936871E+04  0.18059941337E+04  0.12699999809E+01 0. -1.
        4   -1    0    0  501    0  0.00000000000E+00  0.00000000000E+00 -0.13019451100E+04  0.13019457294E+04  0.12699999809E+01 0.  1.
    10030    2    1    2    0    0  0.00000000000E+00  0.00000000000E+00  0.50404857714E+03  0.31079398631E+04  0.30667939651E+04 0.  0.
        5    1    3    3  502    0  0.42624376617E+03  0.14408718097E+04 -0.57837499030E+02  0.15037162587E+04  0.46999998093E+01 0.  1.
       -5    1    3    3    0  502 -0.42624376617E+03 -0.14408718097E+04  0.56188607617E+03  0.16042236044E+04  0.46999998093E+01 0. -1.
</event>
<event>
 5   0  0.4139628E-06  0.3235065E+04  0.7818609E-02  0.8179617E-01
       -1   -1    0    0    0  501  0.00000000000E+00  0.00000000000E+00  0.24156052399E+04  0.24156052399E+04  0.50400001928E-02 0. -1.
        1   -1    0    0  501    0  0.00000000000E+00  0.00000000000E+00 -0.10831288751E+04  0.10831288751E+04  0.50400001928E-02 0.  1.
    10030    2    1    2    0    0  0.00000000000E+00  0.00000000000E+00  0.13324763649E+04  0.34987341150E+04  0.32350652458E+04 0.  0.
        5    1    3    3  502    0 -0.33414853775E+03  0.43414396249E+03 -0.97972811022E+03  0.11225085681E+04  0.46999998093E+01 0.  1.
       -5    1    3    3    0  502  0.33414853775E+03 -0.43414396249E+03  0.23122044751E+04  0.23762255470E+04  0.46999998093E+01 0. -1.
</event>
<event>
 5   0  0.1108153E-05  0.2118461E+04  0.7818609E-02  0.8553155E-01
        2   -1    0    0  501    0  0.00000000000E+00  0.00000000000E+00  0.11249642302E+04  0.11249642302E+04  0.25500000920E-02 0.  1.
       -2   -1    0    0    0  501  0.00000000000E+00  0.00000000000E+00 -0.99733765664E+03  0.99733765664E+03  0.25500000920E-02 0. -1.
    10030    2    1    2    0    0  0.00000000000E+00  0.00000000000E+00  0.12762657358E+03  0.21223018869E+04  0.21184609406E+04 0.  0.
        4    1    3    3  502    0 -0.17488518800E+03 -0.10045012270E+04 -0.22369141605E+03  0.10438615840E+04  0.12699999809E+01 0.  1.
       -4    1    3    3    0  502  0.17488518800E+03  0.10045012270E+04  0.35131798964E+03  0.10784403029E+04  0.12699999809E+01 0. -1.
</event>
<event>
 5   0  0.3838525E-06  0.3084750E+04  0.7818609E-02  0.8219936E-01
       -1   -1    0    0    0  501  0.00000000000E+00  0.00000000000E+00  0.90483466853E+03  0.90483466855E+03  0.50400001928E-02 0.  1.
        1   -1    0    0  501    0  0.00000000000E+00  0.00000000000E+00 -0.26291221020E+04  0.26291221020E+04  0.50400001928E-02 0. -1.
    10030    2    1    2    0    0  0.00000000000E+00  0.00000000000E+00 -0.17242874335E+04  0.35339567705E+04  0.30847501200E+04 0.  0.
        3    1    3    3  502    0  0.24205531044E+03 -0.99445933426E+03 -0.21840247378E+04  0.24119502910E+04  0.10100000352E+00 0. -1.
       -3    1    3    3    0  502 -0.24205531044E+03  0.99445933426E+03  0.45973730438E+03  0.11220064795E+04  0.10100000352E+00 0.  1.
</event>
<event>
 5   0  0.3848286E-06  0.3039524E+04  0.7818609E-02  0.8232534E-01
       -1   -1    0    0    0  501  0.00000000000E+00  0.00000000000E+00  0.14645352901E+04  0.14645352902E+04  0.50400001928E-02 0.  1.
        1   -1    0    0  501    0  0.00000000000E+00  0.00000000000E+00 -0.15770711907E+04  0.15770711907E+04  0.50400001928E-02 0. -1.
    10030    2    1    2    0    0  0.00000000000E+00  0.00000000000E+00 -0.11253590053E+03  0.30416064808E+04  0.30395239192E+04 0.  0.
        2    1    3    3  502    0  0.99293425004E+03 -0.65741959340E+03  0.88860220248E+03  0.14858441442E+04  0.25500000920E-02 0.  1.
       -2    1    3    3    0  502 -0.99293425004E+03  0.65741959340E+03 -0.10011381030E+04  0.15557623366E+04  0.25500000920E-02 0. -1.
</event>
<event>
 5   0  0.1119100E-05  0.3091255E+04  0.7818609E-02  0.8218142E-01
        2   -1    0    0  501    0  0.00000000000E+00  0.00000000000E+00  0.15710578731E+04  0.15710578731E+04  0.25500000920E-02 0.  1.
       -2   -1    0    0    0  501  0.00000000000E+00  0.00000000000E+00 -0.15206088003E+04  0.15206088003E+04  0.25500000920E-02 0. -1.
    10030    2    1    2    0    0  0.00000000000E+00  0.00000000000E+00  0.50449072880E+02  0.30916666734E+04  0.30912550381E+04 0.  0.
        2    1    3    3  502    0  0.10483669826E+04  0.54017566549E+03  0.10244077941E+04  0.15621377687E+04  0.25500000920E-02 0.  1.
       -2    1    3    3    0  502 -0.10483669826E+04 -0.54017566549E+03 -0.97395872125E+03  0.15295289047E+04  0.25500000920E-02 0. -1.
</event>
<event>
 5   0  0.1001961E-05  0.3108189E+04  0.7818609E-02  0.8213494E-01
       -2   -1    0    0    0  501  0.00000000000E+00  0.00000000000E+00  0.97102312123E+03  0.97102312123E+03  0.25500000920E-02 0.  1.
        2   -1    0    0  501    0  0.00000000000E+00  0.00000000000E+00 -0.24872830004E+04  0.24872830004E+04  0.25500000920E-02 0. -1.
    10030    2    1    2    0    0  0.00000000000E+00  0.00000000000E+00 -0.15162598791E+04  0.34583061216E+04  0.31081887345E+04 0.  0.
        5    1    3    3  502    0  0.21491737923E+03 -0.11187216393E+04 -0.19343050149E+04  0.22448353095E+04  0.46999998093E+01 0. -1.
       -5    1    3    3    0  502 -0.21491737923E+03  0.11187216393E+04  0.41804513579E+03  0.12134708121E+04  0.46999998093E+01 0.  1.
</event>
<event>
 5   0  0.3807334E-06  0.3174150E+04  0.7818609E-02  0.8195678E-01
        1   -1    0    0  501    0  0.00000000000E+00  0.00000000000E+00  0.11705313044E+04  0.11705313044E+04  0.50400001928E-02 0.  1.
       -1   -1    0    0    0  501  0.00000000000E+00  0.00000000000E+00 -0.21518492992E+04  0.21518492992E+04  0.50400001928E-02 0. -1.
    10030    2    1    2    0    0  0.00000000000E+00  0.00000000000E+00 -0.98131799479E+03  0.33223806036E+04  0.31741499442E+04 0.  0.
        4    1    3    3  502    0  0.13176094592E+04  0.46094824326E+03  0.29974619933E+03  0.14277315458E+04  0.12699999809E+01 0.  1.
       -4    1    3    3    0  502 -0.13176094592E+04 -0.46094824326E+03 -0.12810641941E+04  0.18946490578E+04  0.12699999809E+01 0. -1.
</event>
<event>
 5   0  0.1001961E-05  0.3120097E+04  0.7818609E-02  0.8210244E-01
        2   -1    0    0  501    0  0.00000000000E+00  0.00000000000E+00  0.16728762040E+04  0.16728762040E+04  0.25500000920E-02 0. -1.
       -2   -1    0    0    0  501  0.00000000000E+00  0.00000000000E+00 -0.14548301047E+04  0.14548301047E+04  0.25500000920E-02 0.  1.
    10030    2    1    2    0    0  0.00000000000E+00  0.00000000000E+00  0.21804609925E+03  0.31277063087E+04  0.31200965774E+04 0.  0.
        5    1    3    3  502    0  0.78776880009E+03  0.11967399533E+04 -0.50970381295E+03  0.15207189961E+04  0.46999998093E+01 0.  1.
       -5    1    3    3    0  502 -0.78776880009E+03 -0.11967399533E+04  0.72774991220E+03  0.16069873126E+04  0.46999998093E+01 0. -1.
</event>
<event>
 5   0  0.3838525E-06  0.1849838E+04  0.7818609E-02  0.8680236E-01
        1   -1    0    0  501    0  0.00000000000E+00  0.00000000000E+00  0.14929775192E+04  0.14929775193E+04  0.50400001928E-02 0.  1.
       -1   -1    0    0    0  501  0.00000000000E+00  0.00000000000E+00 -0.57299918712E+03  0.57299918714E+03  0.50400001928E-02 0. -1.
    10030    2    1    2    0    0  0.00000000000E+00  0.00000000000E+00  0.91997833212E+03  0.20659767064E+04  0.18498377280E+04 0.  0.
        3    1    3    3  502    0  0.52266409900E+03 -0.76306590086E+03  0.46585288575E+03  0.10355994645E+04  0.10100000352E+00 0. -1.
       -3    1    3    3    0  502 -0.52266409900E+03  0.76306590086E+03  0.45412544638E+03  0.10303772419E+04  0.10100000352E+00 0.  1.
</event>
<event>
 5   0  0.1119100E-05  0.1577878E+04  0.7818609E-02  0.8834255E-01
        2   -1    0    0  501    0  0.00000000000E+00  0.00000000000E+00  0.14508867079E+04  0.14508867079E+04  0.25500000920E-02 0.  1.
       -2   -1    0    0    0  501  0.00000000000E+00  0.00000000000E+00 -0.42899617959E+03  0.42899617960E+03  0.25500000920E-02 0. -1.
    10030    2    1    2    0    0  0.00000000000E+00  0.00000000000E+00  0.10218905283E+04  0.18798828875E+04  0.15778781382E+04 0.  0.
        2    1    3    3  502    0 -0.25240448131E+03  0.50352706097E+03 -0.14721774677E+03  0.58216886578E+03  0.25500000920E-02 0. -1.
       -2    1    3    3    0  502  0.25240448131E+03 -0.50352706097E+03  0.11691082751E+04  0.12977140218E+04  0.25500000920E-02 0.  1.
</event>
<event>
 5   0  0.1007567E-05  0.3007448E+04  0.7818609E-02  0.8241607E-01
        2   -1    0    0  501    0  0.00000000000E+00  0.00000000000E+00  0.11007413753E+04  0.11007413753E+04  0.25500000920E-02 0.  1.
       -2   -1    0    0    0  501  0.00000000000E+00  0.00000000000E+00 -0.20542388384E+04  0.20542388384E+04  0.25500000920E-02 0. -1.
    10030    2    1    2    0    0  0.00000000000E+00  0.00000000000E+00 -0.95349746312E+03  0.31549802136E+04  0.30074478776E+04 0.  0.
        3    1    3    3  502    0 -0.45331896060E+02  0.71434951658E+02  0.10982425679E+04  0.11014965643E+04  0.10100000352E+00 0.  1.
       -3    1    3    3    0  502  0.45331896060E+02 -0.71434951658E+02 -0.20517400310E+04  0.20534836493E+04  0.10100000352E+00 0. -1.
</event>
<event>
 5   0  0.9797278E-06  0.3055140E+04  0.7818609E-02  0.8228158E-01
       -2   -1    0    0    0  501  0.00000000000E+00  0.00000000000E+00  0.14246489379E+04  0.14246489379E+04  0.25500000920E-02 0. -1.
        2   -1    0    0  501    0  0.00000000000E+00  0.00000000000E+00 -0.16379264308E+04  0.16379264308E+04  0.25500000920E-02 0.  1.
    10030    2    1    2    0    0  0.00000000000E+00  0.00000000000E+00 -0.21327749282E+03  0.30625753687E+04  0.30551400295E+04 0.  0.
        1    1    3    3  502    0 -0.47930708497E+03 -0.13864905816E+04 -0.53356105532E+03  0.15610185183E+04  0.50400001928E-02 0.  1.
       -1    1    3    3    0  502  0.47930708497E+03  0.13864905816E+04  0.32028356249E+03  0.15015568504E+04  0.50400001928E-02 0. -1.
</event>
<event>
 5   0  0.4250961E-06  0.3105910E+04  0.7818609E-02  0.8214118E-01
       -1   -1    0    0    0  501  0.00000000000E+00  0.00000000000E+00  0.12458828235E+04  0.12458828235E+04  0.50400001928E-02 0. -1.
        1   -1    0    0  501    0  0.00000000000E+00  0.00000000000E+00 -0.19357115521E+04  0.19357115522E+04  0.50400001928E-02 0.  1.
    10030    2    1    2    0    0  0.00000000000E+00  0.00000000000E+00 -0.68982872861E+03  0.31815943757E+04  0.31059103491E+04 0.  0.
        1    1    3    3  502    0 -0.13406530327E+04  0.16401526012E+03 -0.11300227189E+04  0.17610232551E+04  0.50400001928E-02 0.  1.
       -1    1    3    3    0  502  0.13406530327E+04 -0.16401526012E+03  0.44019399032E+03  0.14205711206E+04  0.50400001928E-02 0. -1.
</event>
<event>
 5   0  0.1007567E-05  0.3068987E+04  0.7818609E-02  0.8224301E-01
        2   -1    0    0  501    0  0.00000000000E+00  0.00000000000E+00  0.15667442253E+04  0.15667442253E+04  0.25500000920E-02 0.  1.
       -2   -1    0    0    0  501  0.00000000000E+00  0.00000000000E+00 -0.15029065357E+04  0.15029065357E+04  0.25500000920E-02 0. -1.
    10030    2    1    2    0    0  0.00000000000E+00  0.00000000000E+00  0.63837689563E+02  0.30696507610E+04  0.30689868921E+04 0.  0.
        3    1    3    3  502    0  0.11533114332E+04 -0.96270738070E+03  0.34461622495E+03  0.15413283607E+04  0.10100000352E+00 0.  1.
       -3    1    3    3    0  502 -0.11533114332E+04  0.96270738070E+03 -0.28077853539E+03  0.15283224002E+04  0.10100000352E+00 0. -1.
</event>
<event>
 5   0  0.3807334E-06  0.1585017E+04  0.7818609E-02  0.8829806E-01
        1   -1    0    0  501    0  0.00000000000E+00  0.00000000000E+00  0.10531180962E+04  0.10531180962E+04  0.50400001928E-02 0. -1.
       -1   -1    0    0    0  501  0.00000000000E+00  0.00000000000E+00 -0.59639056539E+03  0.59639056541E+03  0.50400001928E-02 0.  1.
    10030    2    1    2    0    0  0.00000000000E+00  0.00000000000E+00  0.45672753082E+03  0.16495086616E+04  0.15850169675E+04 0.  0.
        4    1    3    3  502    0 -0.18379982073E+03  0.24234319194E+03  0.98995672629E+03  0.10356295330E+04  0.12699999809E+01 0. -1.
       -4    1    3    3    0  502  0.18379982073E+03 -0.24234319194E+03 -0.53322919547E+03  0.61387912864E+03  0.12699999809E+01 0.  1.
</event>
<event>
 5   0  0.1001961E-05  0.3103826E+04  0.7818609E-02  0.8214689E-01
        2   -1    0    0  501    0  0.00000000000E+00  0.00000000000E+00  0.19435477706E+04  0.19435477706E+04  0.25500000920E-02 0.  1.
       -2   -1    0    0    0  501  0.00000000000E+00  0.00000000000E+00 -0.12391947051E+04  0.12391947051E+04  0.25500000920E-02 0. -1.
    10030    2    1    2    0    0  0.00000000000E+00  0.00000000000E+00  0.70435306556E+03  0.31827424757E+04  0.31038260947E+04 0.  0.
        5    1    3    3  502    0 -0.10307747656E+04 -0.11086614238E+04  0.70260397658E+03  0.16689221695E+04  0.46999998093E+01 0. -1.
       -5    1    3    3    0  502  0.10307747656E+04  0.11086614238E+04  0.17490889734E+01  0.15138203062E+04  0.46999998093E+01 0.  1.
</event>
<event>
 5   0  0.3807334E-06  0.3061570E+04  0.7818609E-02  0.8226365E-01
       -1   -1    0    0    0  501  0.00000000000E+00  0.00000000000E+00  0.15281664656E+04  0.15281664656E+04  0.50400001928E-02 0. -1.
        1   -1    0    0  501    0  0.00000000000E+00  0.00000000000E+00 -0.15334075513E+04  0.15334075513E+04  0.50400001928E-02 0.  1.
    10030    2    1    2    0    0  0.00000000000E+00  0.00000000000E+00 -0.52410856942E+01  0.30615740170E+04  0.30615695309E+04 0.  0.
        4    1    3    3  502    0  0.57896810129E+03 -0.13861284950E+04 -0.29714451902E+03  0.15312912019E+04  0.12699999809E+01 0.  1.
       -4    1    3    3    0  502 -0.57896810129E+03  0.13861284950E+04  0.29190343333E+03  0.15302828151E+04  0.12699999809E+01 0. -1.
</event>
<event>
 5   0  0.3838525E-06  0.1735728E+04  0.7818609E-02  0.8741246E-01
       -1   -1    0    0    0  501  0.00000000000E+00  0.00000000000E+00  0.45315396780E+03  0.45315396783E+03  0.50400001928E-02 0. -1.
        1   -1    0    0  501    0  0.00000000000E+00  0.00000000000E+00 -0.16621019931E+04  0.16621019931E+04  0.50400001928E-02 0.  1.
    10030    2    1    2    0    0  0.00000000000E+00  0.00000000000E+00 -0.12089480253E+04  0.21152559609E+04  0.17357282196E+04 0.  0.
        3    1    3    3  502    0 -0.43938002399E+03  0.67026925144E+03 -0.10102562033E+04  0.12895477042E+04  0.10100000352E+00 0.  1.
       -3    1    3    3    0  502  0.43938002399E+03 -0.67026925144E+03 -0.19869182199E+03  0.82570825673E+03  0.10100000352E+00 0. -1.
</event>
<event>
 5   0  0.9797278E-06  0.2055806E+04  0.7818609E-02  0.8580965E-01
        2   -1    0    0  501    0  0.00000000000E+00  0.00000000000E+00  0.87138503108E+03  0.87138503108E+03  0.25500000920E-02 0.  1.
       -2   -1    0    0    0  501  0.00000000000E+00  0.00000000000E+00 -0.12125341697E+04  0.12125341697E+04  0.25500000920E-02 0. -1.
    10030    2    1    2    0    0  0.00000000000E+00  0.00000000000E+00 -0.34114913857E+03  0.20839192007E+04  0.20558055600E+04 0.  0.
        1    1    3    3  502    0  0.64421353398E+03 -0.56844492479E+03  0.40145038669E+03  0.94831594043E+03  0.50400001928E-02 0.  1.
       -1    1    3    3    0  502 -0.64421353398E+03  0.56844492479E+03 -0.74259952526E+03  0.11356032603E+04  0.50400001928E-02 0. -1.
</event>
<event>
 5   0  0.1108153E-05  0.3008780E+04  0.7818609E-02  0.8241228E-01
        2   -1    0    0  501    0  0.00000000000E+00  0.00000000000E+00  0.16634262678E+04  0.16634262678E+04  0.25500000920E-02 0.  1.
       -2   -1    0    0    0  501  0.00000000000E+00  0.00000000000E+00 -0.13605585761E+04  0.13605585761E+04  0.25500000920E-02 0. -1.
    10030    2    1    2    0    0  0.00000000000E+00  0.00000000000E+00  0.30286769167E+03  0.30239848439E+04  0.30087797357E+04 0.  0.
        4    1    3    3  502    0  0.13793097000E+04 -0.21035589530E+03  0.71680878838E+03  0.15686176409E+04  0.12699999809E+01 0.  1.
       -4    1    3    3    0  502 -0.13793097000E+04  0.21035589530E+03 -0.41394109671E+03  0.14553672031E+04  0.12699999809E+01 0. -1.
</event>
<event>
 5   0  0.1007567E-05  0.2971786E+04  0.7818609E-02  0.8251834E-01
        2   -1    0    0  501    0  0.00000000000E+00  0.00000000000E+00  0.18196174610E+04  0.18196174610E+04  0.25500000920E-02 0.  1.
       -2   -1    0    0    0  501  0.00000000000E+00  0.00000000000E+00 -0.12133748299E+04  0.12133748299E+04  0.25500000920E-02 0. -1.
    10030    2    1    2    0    0  0.00000000000E+00  0.00000000000E+00  0.60624263112E+03  0.30329922909E+04  0.29717860133E+04 0.  0.
        3    1    3    3  502    0 -0.74823859967E+03  0.58431837969E+03  0.14697248250E+04  0.17496799828E+04  0.10100000352E+00 0.  1.
       -3    1    3    3    0  502  0.74823859967E+03 -0.58431837969E+03 -0.86348219384E+03  0.12833123081E+04  0.10100000352E+00 0. -1.
</event>
<event>
 5   0  0.3848286E-06  0.2960657E+04  0.7818609E-02  0.8255056E-01
       -1   -1    0    0    0  501  0.00000000000E+00  0.00000000000E+00  0.85237183525E+03  0.85237183526E+03  0.50400001928E-02 0. -1.
        1   -1    0    0  501    0  0.00000000000E+00  0.00000000000E+00 -0.25709109955E+04  0.25709109955E+04  0.50400001928E-02 0.  1.
    10030    2    1    2    0    0  0.00000000000E+00  0.00000000000E+00 -0.17185391602E+04  0.34232828308E+04  0.29606567674E+04 0.  0.
        2    1    3    3  502    0 -0.12034382466E+04  0.80264001199E+03 -0.49568663346E+03  0.15291173405E+04  0.25500000920E-02 0.  1.
       -2    1    3    3    0  502  0.12034382466E+04 -0.80264001199E+03 -0.12228525268E+04  0.18941654903E+04  0.25500000920E-02 0. -1.
</event>
<event>
 5   0  0.3848286E-06  0.3138747E+04  0.7818609E-02  0.8205184E-01
       -1   -1    0    0    0  501  0.00000000000E+00  0.00000000000E+00  0.22967611979E+04  0.22967611979E+04  0.50400001928E-02 0. -1.
        1   -1    0    0  501    0  0.00000000000E+00  0.00000000000E+00 -0.10723502877E+04  0.10723502877E+04  0.50400001928E-02 0.  1.
    10030    2    1    2    0    0  0.00000000000E+00  0.00000000000E+00  0.12244109103E+04  0.33691114856E+04  0.31387465851E+04 0.  0.
        2    1    3    3  502    0 -0.14933158635E+04 -0.45901350786E+03  0.45210464924E+03  0.16263715081E+04  0.25500000920E-02 0.  1.
       -2    1    3    3    0  502  0.14933158635E+04  0.45901350786E+03  0.77230626101E+03  0.17427399775E+04  0.25500000920E-02 0. -1.
</event>
<event>
 5   0  0.1001961E-05  0.2964015E+04  0.7818609E-02  0.8254082E-01
       -2   -1    0    0    0  501  0.00000000000E+00  0.00000000000E+00  0.11534312410E+04  0.11534312410E+04  0.25500000920E-02 0. -1.
        2   -1    0    0  501    0  0.00000000000E+00  0.00000000000E+00 -0.19041842539E+04  0.19041842539E+04  0.25500000920E-02 0.  1.
    10030    2    1    2    0    0  0.00000000000E+00  0.00000000000E+00 -0.75075301291E+03  0.30576154950E+04  0.29640145797E+04 0.  0.
        5    1    3    3  502    0  0.65666360681E+03  0.71500781008E+03  0.77975270595E+03  0.12451825703E+04  0.46999998093E+01 0. -1.
       -5    1    3    3    0  502 -0.65666360681E+03 -0.71500781008E+03 -0.15305057189E+04  0.18124329247E+04  0.46999998093E+01 0.  1.
</event>
<event>
 5   0  0.4250961E-06  0.3270467E+04  0.7818609E-02  0.8170451E-01
       -1   -1    0    0    0  501  0.00000000000E+00  0.00000000000E+00  0.18301807285E+04  0.18301807285E+04  0.50400001928E-02 0.  1.
        1   -1    0    0  501    0  0.00000000000E+00  0.00000000000E+00 -0.14610514441E+04  0.14610514441E+04  0.50400001928E-02 0. -1.
    10030    2    1    2    0    0  0.00000000000E+00  0.00000000000E+00  0.36912928438E+03  0.32912321727E+04  0.32704667535E+04 0.  0.
        1    1    3    3  502    0  0.42490395382E+03  0.14309977810E+04  0.85640379924E+03  0.17209664397E+04  0.50400001928E-02 0.  1.
       -1    1    3    3    0  502 -0.42490395382E+03 -0.14309977810E+04 -0.48727451486E+03  0.15702657330E+04  0.50400001928E-02 0. -1.
</event>
<event>
 5   0  0.1007567E-05  0.3101139E+04  0.7818609E-02  0.8215425E-01
       -2   -1    0    0    0  501  0.00000000000E+00  0.00000000000E+00  0.87433769948E+03  0.87433769948E+03  0.25500000920E-02 0. -1.
        2   -1    0    0  501    0  0.00000000000E+00  0.00000000000E+00 -0.27498144491E+04  0.27498144491E+04  0.25500000920E-02 0.  1.
    10030    2    1    2    0    0  0.00000000000E+00  0.00000000000E+00 -0.18754767496E+04  0.36241521486E+04  0.31011394289E+04 0.  0.
        3    1    3    3  502    0 -0.11202587734E+04 -0.89680599402E+03 -0.25128528557E+03  0.14568407652E+04  0.10100000352E+00 0. -1.
       -3    1    3    3    0  502  0.11202587734E+04  0.89680599402E+03 -0.16241914640E+04  0.21673113833E+04  0.10100000352E+00 0.  1.
</event>
<event>
 5   0  0.3848286E-06  0.2472588E+04  0.7818609E-02  0.8412817E-01
        1   -1    0    0  501    0  0.00000000000E+00  0.00000000000E+00  0.20972502946E+04  0.20972502947E+04  0.50400001928E-02 0.  1.
       -1   -1    0    0    0  501  0.00000000000E+00  0.00000000000E+00 -0.72877444320E+03  0.72877444321E+03  0.50400001928E-02 0. -1.
    10030    2    1    2    0    0  0.00000000000E+00  0.00000000000E+00  0.13684758514E+04  0.28260247379E+04  0.24725876452E+04 0.  0.
        2    1    3    3  502    0  0.31198091847E+03  0.94235783011E+03  0.15264956256E+04  0.18208677240E+04  0.25500000920E-02 0.  1.
       -2    1    3    3    0  502 -0.31198091847E+03 -0.94235783011E+03 -0.15801977413E+03  0.10051570138E+04  0.25500000920E-02 0. -1.
</event>
<event>
 5   0  0.3807334E-06  0.3074126E+04  0.7818609E-02  0.8222875E-01
       -1   -1    0    0    0  501  0.00000000000E+00  0.00000000000E+00  0.13348380557E+04  0.13348380557E+04  0.50400001928E-02 0. -1.
        1   -1    0    0  501    0  0.00000000000E+00  0.00000000000E+00 -0.17699241215E+04  0.17699241215E+04  0.50400001928E-02 0.  1.
    10030    2    1    2    0    0  0.00000000000E+00  0.00000000000E+00 -0.43508606579E+03  0.31047621772E+04  0.30741256142E+04 0.  0.
        4    1    3    3  502    0 -0.89687846106E+03 -0.22779354167E+03 -0.14570801189E+04  0.17260837052E+04  0.12699999809E+01 0.  1.
       -4    1    3    3    0  502  0.89687846106E+03  0.22779354167E+03  0.10219940531E+04  0.13786784720E+04  0.12699999809E+01 0. -1.
</event>
<event>
 5   0  0.3493125E-06  0.2465738E+04  0.7818609E-02  0.8415294E-01
        3   -1    0    0  501    0  0.00000000000E+00  0.00000000000E+00  0.92965558657E+03  0.92965559205E+03  0.10100000352E+00 0. -1.
       -3   -1    0    0    0  501  0.00000000000E+00  0.00000000000E+00 -0.16349780994E+04  0.16349781025E+04  0.10100000352E+00 0.  1.
    10030    2    1    2    0    0  0.00000000000E+00  0.00000000000E+00 -0.70532251286E+03  0.25646336946E+04  0.24657384574E+04 0.  0.
        2    1    3    3  502    0  0.97617103446E+02 -0.11073524701E+04  0.20183221963E+03  0.11298207100E+04  0.25500000920E-02 0. -1.
       -2    1    3    3    0  502 -0.97617103446E+02  0.11073524701E+04 -0.90715473248E+03  0.14348129846E+04  0.25500000920E-02 0.  1.
</event>
<event>
 5   0  0.1108153E-05  0.2778556E+04  0.7818609E-02  0.8309957E-01
       -2   -1    0    0    0  501  0.00000000000E+00  0.00000000000E+00  0.11662789678E+04  0.11662789678E+04  0.25500000920E-02 0.  1.
        2   -1    0    0  501    0  0.00000000000E+00  0.00000000000E+00 -0.16549153589E+04  0.16549153589E+04  0.25500000920E-02 0. -1.
    10030    2    1    2    0    0  0.00000000000E+00  0.00000000000E+00 -0.48863639108E+03  0.28211943267E+04  0.27785557231E+04 0.  0.
        4    1    3    3  502    0 -0.73415584596E+03 -0.25381379510E+03  0.92517532295E+03  0.12080385920E+04  0.12699999809E+01 0.  1.
       -4    1    3    3    0  502  0.73415584596E+03  0.25381379510E+03 -0.14138117140E+04  0.16131557347E+04  0.12699999809E+01 0. -1.
</event>
<event>
 5   0  0.4139628E-06  0.3074634E+04  0.7818609E-02  0.8222734E-01
        1   -1    0    0  501    0  0.00000000000E+00  0.00000000000E+00  0.89069757336E+03  0.89069757337E+03  0.50400001928E-02 0.  1.
       -1   -1    0    0    0  501  0.00000000000E+00  0.00000000000E+00 -0.26533622956E+04  0.26533622956E+04  0.50400001928E-02 0. -1.
    10030    2    1    2    0    0  0.00000000000E+00  0.00000000000E+00 -0.17626647223E+04  0.35440598690E+04  0.30746338696E+04 0.  0.
        5    1    3    3  502    0 -0.64421945730E+03 -0.13421789828E+04 -0.13230621115E+04  0.19917275346E+04  0.46999998093E+01 0. -1.
       -5    1    3    3    0  502  0.64421945730E+03  0.13421789828E+04 -0.43960261079E+03  0.15523323344E+04  0.46999998093E+01 0.  1.
</event>
<event>
 5   0  0.1119100E-05  0.3061008E+04  0.7818609E-02  0.8226521E-01
       -2   -1    0    0    0  501  0.00000000000E+00  0.00000000000E+00  0.16191416834E+04  0.16191416834E+04  0.25500000920E-02 0.  1.
        2   -1    0    0  501    0  0.00000000000E+00  0.00000000000E+00 -0.14467188955E+04  0.14467188955E+04  0.25500000920E-02 0. -1.
    10030    2    1    2    0    0  0.00000000000E+00  0.00000000000E+00  0.17242278787E+03  0.30658605790E+04  0.30610082443E+04 0.  0.
        2    1    3    3  502    0  0.42159716787E+03 -0.74715043529E+03 -0.11832617731E+04  0.14615356200E+04  0.25500000920E-02 0. -1.
       -2    1    3    3    0  502 -0.42159716787E+03  0.74715043529E+03  0.13556845610E+04  0.16043249589E+04  0.25500000920E-02 0.  1.
</event>
<event>
 5   0  0.3848286E-06  0.3133417E+04  0.7818609E-02  0.8206626E-01
        1   -1    0    0  501    0  0.00000000000E+00  0.00000000000E+00  0.19647862441E+04  0.19647862441E+04  0.50400001928E-02 0. -1.
       -1   -1    0    0    0  501  0.00000000000E+00  0.00000000000E+00 -0.12492837427E+04  0.12492837427E+04  0.50400001928E-02 0.  1.
    10030    2    1    2    0    0  0.00000000000E+00  0.00000000000E+00  0.71550250136E+03  0.32140699868E+04  0.31334169927E+04 0.  0.
        2    1    3    3  502    0  0.14361764836E+04  0.61967232960E+03  0.44937468947E+03  0.16274318111E+04  0.25500000920E-02 0.  1.
       -2    1    3    3    0  502 -0.14361764836E+04 -0.61967232960E+03  0.26612781190E+03  0.15866381757E+04  0.25500000920E-02 0. -1.
</event>
<event>
 5   0  0.4250961E-06  0.2342436E+04  0.7818609E-02  0.8461375E-01
       -1   -1    0    0    0  501  0.00000000000E+00  0.00000000000E+00  0.81771112991E+03  0.81771112993E+03  0.50400001928E-02 0.  1.
        1   -1    0    0  501    0  0.00000000000E+00  0.00000000000E+00 -0.16775507853E+04  0.16775507853E+04  0.50400001928E-02 0. -1.
    10030    2    1    2    0    0  0.00000000000E+00  0.00000000000E+00 -0.85983965538E+03  0.24952619152E+04  0.23424362942E+04 0.  0.
        1    1    3    3  502    0  0.25981720080E+03  0.81298871134E+03  0.42446570329E+03  0.95321915417E+03  0.50400001928E-02 0.  1.
       -1    1    3    3    0  502 -0.25981720080E+03 -0.81298871134E+03 -0.12843053587E+04  0.15420427611E+04  0.50400001928E-02 0. -1.
</event>
<event>
 5   0  0.1119100E-05  0.3148833E+04  0.7818609E-02  0.8202462E-01
        2   -1    0    0  501    0  0.00000000000E+00  0.00000000000E+00  0.22350899755E+04  0.22350899755E+04  0.25500000920E-02 0.  1.
       -2   -1    0    0    0  501  0.00000000000E+00  0.00000000000E+00 -0.11090325276E+04  0.11090325276E+04  0.25500000920E-02 0. -1.
    10030    2    1    2    0    0  0.00000000000E+00  0.00000000000E+00  0.11260574479E+04  0.33441225031E+04  0.31488331076E+04 0.  0.
        2    1    3    3  502    0 -0.10674095708E+04 -0.48390950678E+03  0.16795421575E+04  0.20480218410E+04  0.25500000920E-02 0.  1.
       -2    1    3    3    0  502  0.10674095708E+04  0.48390950678E+03 -0.55348470954E+03  0.12961006621E+04  0.25500000920E-02 0. -1.
</event>
<event>
 5   0  0.9797278E-06  0.3188048E+04  0.7818609E-02  0.8191981E-01
       -2   -1    0    0    0  501  0.00000000000E+00  0.00000000000E+00  0.18721107542E+04  0.18721107542E+04  0.25500000920E-02 0. -1.
        2   -1    0    0  501    0  0.00000000000E+00  0.00000000000E+00 -0.13572444975E+04  0.13572444975E+04  0.25500000920E-02 0.  1.
    10030    2    1    2    0    0  0.00000000000E+00  0.00000000000E+00  0.51486625664E+03  0.32293552517E+04  0.31880476909E+04 0.  0.
        1    1    3    3  502    0 -0.10655387791E+04 -0.54833776201E+03 -0.80731181951E+03  0.14449219927E+04  0.50400001928E-02 0.  1.
       -1    1    3    3    0  502  0.10655387791E+04  0.54833776201E+03  0.13221780762E+04  0.17844332590E+04  0.50400001928E-02 0. -1.
</event>
<event>
 5   0  0.3848286E-06  0.2773883E+04  0.7818609E-02  0.8311423E-01
        1   -1    0    0  501    0  0.00000000000E+00  0.00000000000E+00  0.13777860746E+04  0.13777860746E+04  0.50400001928E-02 0.  1.
       -1   -1    0    0    0  501  0.00000000000E+00  0.00000000000E+00 -0.13961580754E+04  0.13961580754E+04  0.50400001928E-02 0. -1.
    10030    2    1    2    0    0  0.00000000000E+00  0.00000000000E+00 -0.18372000817E+02  0.27739441500E+04  0.27738833099E+04 0.  0.
        2    1    3    3  502    0  0.55170908004E+03 -0.19931322759E+03  0.12476225650E+04  0.13786481554E+04  0.25500000920E-02 0.  1.
       -2    1    3    3    0  502 -0.55170908004E+03  0.19931322759E+03 -0.12659945659E+04  0.13952959946E+04  0.25500000920E-02 0. -1.
</event>
<event>
 5   0  0.4250961E-06  0.3221272E+04  0.7818609E-02  0.8183222E-01
       -1   -1    0    0    0  501  0.00000000000E+00  0.00000000000E+00  0.14160684926E+04  0.14160684926E+04  0.50400001928E-02 0. -1.
        1   -1    0    0  501    0  0.00000000000E+00  0.00000000000E+00 -0.18319364922E+04  0.18319364922E+04  0.50400001928E-02 0.  1.
    10030    2    1    2    0    0  0.00000000000E+00  0.00000000000E+00 -0.41586799967E+03  0.32480049848E+04  0.32212715173E+04 0.  0.
        1    1    3    3  502    0  0.59308496966E+03  0.10373708879E+04  0.88096333385E+03  0.14845822766E+04  0.50400001928E-02 0. -1.
       -1    1    3    3    0  502 -0.59308496966E+03 -0.10373708879E+04 -0.12968313335E+04  0.17634227082E+04  0.50400001928E-02 0.  1.
</event>
<event>
 5   0  0.3807334E-06  0.2871571E+04  0.7818609E-02  0.8281386E-01
        1   -1    0    0  501    0  0.00000000000E+00  0.00000000000E+00  0.16535505507E+04  0.16535505507E+04  0.50400001928E-02 0. -1.
       -1   -1    0    0    0  501  0.00000000000E+00  0.00000000000E+00 -0.12466994697E+04  0.12466994697E+04  0.50400001928E-02 0.  1.
    10030    2    1    2    0    0  0.00000000000E+00  0.00000000000E+00  0.40685108105E+03  0.29002500204E+04  0.28715714128E+04 0.  0.
        4    1    3    3  502    0  0.10661241850E+04  0.64562573373E+02  0.11725342612E+04  0.15860729209E+04  0.12699999809E+01 0. -1.
       -4    1    3    3    0  502 -0.10661241850E+04 -0.64562573373E+02 -0.76568318013E+03  0.13141770996E+04  0.12699999809E+01 0.  1.
</event>
<event>
 5   0  0.1108153E-05  0.2954664E+04  0.7818609E-02  0.8256797E-01
        2   -1    0    0  501    0  0.00000000000E+00  0.00000000000E+00  0.11779895566E+04  0.11779895566E+04  0.25500000920E-02 0.  1.
       -2   -1    0    0    0  501  0.00000000000E+00  0.00000000000E+00 -0.18527416016E+04  0.18527416016E+04  0.25500000920E-02 0. -1.
    10030    2    1    2    0    0  0.00000000000E+00  0.00000000000E+00 -0.67475204495E+03  0.30307311582E+04  0.29546642840E+04 0.  0.
        4    1    3    3  502    0  0.53109951762E+03  0.10696133794E+04 -0.12294609044E+04  0.17139764314E+04  0.12699999809E+01 0. -1.
       -4    1    3    3    0  502 -0.53109951762E+03 -0.10696133794E+04  0.55470885940E+03  0.13167547269E+04  0.12699999809E+01 0.  1.
</event>
<event>
 5   0  0.3838525E-06  0.1759847E+04  0.7818609E-02  0.8727948E-01
       -1   -1    0    0    0  501  0.00000000000E+00  0.00000000000E+00  0.81928788173E+03  0.81928788174E+03  0.50400001928E-02 0.  1.
        1   -1    0    0  501    0  0.00000000000E+00  0.00000000000E+00 -0.94504723764E+03  0.94504723766E+03  0.50400001928E-02 0. -1.
    10030    2    1    2    0    0  0.00000000000E+00  0.00000000000E+00 -0.12575935592E+03  0.17643351194E+04  0.17598474360E+04 0.  0.
        3    1    3    3  502    0 -0.27318490301E+03  0.32742206959E+03  0.70877816935E+03  0.82716486050E+03  0.10100000352E+00 0.  1.
       -3    1    3    3    0  502  0.27318490301E+03 -0.32742206959E+03 -0.83453752527E+03  0.93717025890E+03  0.10100000352E+00 0. -1.
</event>
<event>
 5   0  0.4250961E-06  0.2946261E+04  0.7818609E-02  0.8259245E-01
        1   -1    0    0  501    0  0.00000000000E+00  0.00000000000E+00  0.13784580888E+04  0.13784580888E+04  0.50400001928E-02 0.  1.
       -1   -1    0    0    0  501  0.00000000000E+00  0.00000000000E+00 -0.15743054336E+04  0.15743054337E+04  0.50400001928E-02 0. -1.
    10030    2    1    2    0    0  0.00000000000E+00  0.00000000000E+00 -0.19584734482E+03  0.29527635225E+04  0.29462614000E+04 0.  0.
        1    1    3    3  502    0  0.44461029230E+03  0.61887528097E+03 -0.13614316134E+04  0.15601861951E+04  0.50400001928E-02 0. -1.
       -1    1    3    3    0  502 -0.44461029230E+03 -0.61887528097E+03  0.11655842686E+04  0.13925773274E+04  0.50400001928E-02 0.  1.
</event>
<event>
 5   0  0.4250961E-06  0.3190669E+04  0.7818609E-02  0.8191286E-01
       -1   -1    0    0    0  501  0.00000000000E+00  0.00000000000E+00  0.12530107856E+04  0.12530107856E+04  0.50400001928E-02 0.  1.
        1   -1    0    0  501    0  0.00000000000E+00  0.00000000000E+00 -0.20311816538E+04  0.20311816538E+04  0.50400001928E-02 0. -1.
    10030    2    1    2    0    0  0.00000000000E+00  0.00000000000E+00 -0.77817086822E+03  0.32841924395E+04  0.31906692212E+04 0.  0.
        1    1    3    3  502    0  0.58530768664E+02  0.98715354695E+03 -0.16776561861E+04  0.19474157890E+04  0.50400001928E-02 0. -1.
       -1    1    3    3    0  502 -0.58530768664E+02 -0.98715354695E+03  0.89948531792E+03  0.13367766505E+04  0.50400001928E-02 0.  1.
</event>
<event>
 5   0  0.1108153E-05  0.2962726E+04  0.7818609E-02  0.8254456E-01
        2   -1    0    0  501    0  0.00000000000E+00  0.00000000000E+00  0.25819479362E+04  0.25819479363E+04  0.25500000920E-02 0.  1.
       -2   -1    0    0    0  501  0.00000000000E+00  0.00000000000E+00 -0.84991476458E+03  0.84991476458E+03  0.25500000920E-02 0. -1.
    10030    2    1    2    0    0  0.00000000000E+00  0.00000000000E+00  0.17320331717E+04  0.34318627008E+04  0.29627255508E+04 0.  0.
        4    1    3    3  502    0 -0.75808038274E+03  0.11671699285E+04  0.27826269129E+03  0.14192967438E+04  0.12699999809E+01 0. -1.
       -4    1    3    3    0  502  0.75808038274E+03 -0.11671699285E+04  0.14537704804E+04  0.20125659570E+04  0.12699999809E+01 0.  1.
</event>
<event>
 5   0  0.1007567E-05  0.3104871E+04  0.7818609E-02  0.8214402E-01
        2   -1    0    0  501    0  0.00000000000E+00  0.00000000000E+00  0.17835719843E+04  0.17835719843E+04  0.25500000920E-02 0.  1.
       -2   -1    0    0    0  501  0.00000000000E+00  0.00000000000E+00 -0.13512528667E+04  0.13512528667E+04  0.25500000920E-02 0. -1.
    10030    2    1    2    0    0  0.00000000000E+00  0.00000000000E+00  0.43231911763E+03  0.31348248510E+04  0.31048714993E+04 0.  0.
        3    1    3    3  502    0 -0.15363998407E+04  0.20930087210E+03  0.13976307587E+03  0.15568766981E+04  0.10100000352E+00 0.  1.
       -3    1    3    3    0  502  0.15363998407E+04 -0.20930087210E+03  0.29255604176E+03  0.15779481529E+04  0.10100000352E+00 0. -1.
</event>
<event>
 5   0  0.1001961E-05  0.1989121E+04  0.7818609E-02  0.8611724E-01
       -2   -1    0    0    0  501  0.00000000000E+00  0.00000000000E+00  0.56975564288E+03  0.56975564289E+03  0.25500000920E-02 0.  1.
        2   -1    0    0  501    0  0.00000000000E+00  0.00000000000E+00 -0.17360962898E+04  0.17360962898E+04  0.25500000920E-02 0. -1.
    10030    2    1    2    0    0  0.00000000000E+00  0.00000000000E+00 -0.11663406469E+04  0.23058519327E+04  0.19891210699E+04 0.  0.
        5    1    3    3  502    0 -0.79982440223E+03 -0.45801770413E+03 -0.10163403937E+04  0.13720310410E+04  0.46999998093E+01 0. -1.
       -5    1    3    3    0  502  0.79982440223E+03  0.45801770413E+03 -0.15000025320E+03  0.93382089164E+03  0.46999998093E+01 0.  1.
</event>
<event>
 5   0  0.1007567E-05  0.3170946E+04  0.7818609E-02  0.8196533E-01
        2   -1    0    0  501    0  0.00000000000E+00  0.00000000000E+00  0.15407952283E+04  0.15407952283E+04  0.25500000920E-02 0.  1.
       -2   -1    0    0    0  501  0.00000000000E+00  0.00000000000E+00 -0.16314458795E+04  0.16314458795E+04  0.25500000920E-02 0. -1.
    10030    2    1    2    0    0  0.00000000000E+00  0.00000000000E+00 -0.90650651189E+02  0.31722411078E+04  0.31709456169E+04 0.  0.
        3    1    3    3  502    0  0.95890071914E+02  0.11262882444E+04  0.10668860063E+04  0.15543377612E+04  0.10100000352E+00 0.  1.
       -3    1    3    3    0  502 -0.95890071914E+02 -0.11262882444E+04 -0.11575366574E+04  0.16179033466E+04  0.10100000352E+00 0. -1.
</event>
<event>
 5   0  0.4139628E-06  0.3091865E+04  0.7818609E-02  0.8217974E-01
        1   -1    0    0  501    0  0.00000000000E+00  0.00000000000E+00  0.21892516679E+04  0.21892516679E+04  0.50400001928E-02 0. -1.
       -1   -1    0    0    0  501  0.00000000000E+00  0.00000000000E+00 -0.10916550500E+04  0.10916550500E+04  0.50400001928E-02 0.  1.
    10030    2    1    2    0    0  0.00000000000E+00  0.00000000000E+00  0.10975966179E+04  0.32809067178E+04  0.30918652227E+04 0.  0.
        5    1    3    3  502    0 -0.31498767659E+03  0.36979479129E+03 -0.10085584980E+04  0.11194542233E+04  0.46999998093E+01 0.  1.
       -5    1    3    3    0  502  0.31498767659E+03 -0.36979479129E+03  0.21061551159E+04  0.21614524946E+04  0.46999998093E+01 0. -1.
</event>
<event>
 5   0  0.1001961E-05  0.3106646E+04  0.7818609E-02  0.8213916E-01
       -2   -1    0    0    0  501  0.00000000000E+00  0.00000000000E+00  0.11809679946E+04  0.11809679946E+04  0.25500000920E-02 0. -1.
        2   -1    0    0  501    0  0.00000000000E+00  0.00000000000E+00 -0.20430800351E+04  0.20430800351E+04  0.25500000920E-02 0.  1.
    10030    2    1    2    0    0  0.00000000000E+00  0.00000000000E+00 -0.86211204050E+03  0.32240480298E+04  0.31066458646E+04 0.  0.
        5    1    3    3  502    0  0.95956085524E+03  0.26142285071E+02  0.83630248199E+03  0.12731317235E+04  0.46999998093E+01 0. -1.
       -5    1    3    3    0  502 -0.95956085524E+03 -0.26142285071E+02 -0.16984145225E+04  0.19509163063E+04  0.46999998093E+01 0.  1.
</event>
<event>
 5   0  0.1119100E-05  0.3102826E+04  0.7818609E-02  0.8214963E-01
       -2   -1    0    0    0  501  0.00000000000E+00  0.00000000000E+00  0.20234670113E+04  0.20234670113E+04  0.25500000920E-02 0.  1.
        2   -1    0    0  501    0  0.00000000000E+00  0.00000000000E+00 -0.11894846745E+04  0.11894846745E+04  0.25500000920E-02 0. -1.
    10030    2    1    2    0    0  0.00000000000E+00  0.00000000000E+00  0.83398233683E+03  0.32129516858E+04  0.31028264530E+04 0.  0.
        2    1    3    3  502    0 -0.95026827761E+03 -0.11663688795E+04  0.24791398173E+02  0.15046729797E+04  0.25500000920E-02 0. -1.
       -2    1    3    3    0  502  0.95026827761E+03  0.11663688795E+04  0.80919093865E+03  0.17082787061E+04  0.25500000920E-02 0.  1.
</event>
<event>
 5   0  0.1001961E-05  0.2961741E+04  0.7818609E-02  0.8254741E-01
       -2   -1    0    0    0  501  0.00000000000E+00  0.00000000000E+00  0.14476685946E+04  0.14476685946E+04  0.25500000920E-02 0.  1.
        2   -1    0    0  501    0  0.00000000000E+00  0.00000000000E+00 -0.15148339114E+04  0.15148339114E+04  0.25500000920E-02 0. -1.
    10030    2    1    2    0    0  0.00000000000E+00  0.00000000000E+00 -0.67165316887E+02  0.29625025060E+04  0.29617410282E+04 0.  0.
        5    1    3    3  502    0 -0.11006308034E+04  0.59470656029E+03 -0.82618233082E+03  0.14992209283E+04  0.46999998093E+01 0. -1.
       -5    1    3    3    0  502  0.11006308034E+04 -0.59470656029E+03  0.75901701394E+03  0.14632815777E+04  0.46999998093E+01 0.  1.
</event>
<event>
 5   0  0.4250961E-06  0.2433955E+04  0.7818609E-02  0.8426900E-01
        1   -1    0    0  501    0  0.00000000000E+00  0.00000000000E+00  0.82277191297E+03  0.82277191298E+03  0.50400001928E-02 0.  1.
       -1   -1    0    0    0  501  0.00000000000E+00  0.00000000000E+00 -0.18000539904E+04  0.18000539904E+04  0.50400001928E-02 0. -1.
    10030    2    1    2    0    0  0.00000000000E+00  0.00000000000E+00 -0.97728207746E+03  0.26228259034E+04  0.24339546957E+04 0.  0.
        1    1    3    3  502    0  0.55803719590E+02  0.28932198018E+03  0.78375256088E+03  0.83731077865E+03  0.50400001928E-02 0.  1.
       -1    1    3    3    0  502 -0.55803719590E+02 -0.28932198018E+03 -0.17610346383E+04  0.17855151248E+04  0.50400001928E-02 0. -1.
</event>
<event>
 5   0  0.1119100E-05  0.1531220E+04  0.7818609E-02  0.8863953E-01
       -2   -1    0    0    0  501  0.00000000000E+00  0.00000000000E+00  0.15429726769E+04  0.15429726769E+04  0.25500000920E-02 0.  1.
        2   -1    0    0  501    0  0.00000000000E+00  0.00000000000E+00 -0.37988910886E+03  0.37988910886E+03  0.25500000920E-02 0. -1.
    10030    2    1    2    0    0  0.00000000000E+00  0.00000000000E+00  0.11630835681E+04  0.19228617858E+04  0.15312197951E+04 0.  0.
        2    1    3    3  502    0  0.24090527773E+03 -0.39970908380E+03  0.13436985268E+04  0.14224374979E+04  0.25500000920E-02 0. -1.
       -2    1    3    3    0  502 -0.24090527773E+03  0.39970908380E+03 -0.18061495879E+03  0.50042428783E+03  0.25500000920E-02 0.  1.
</event>
<event>
 5   0  0.4139628E-06  0.3076452E+04  0.7818609E-02  0.8222230E-01
       -1   -1    0    0    0  501  0.00000000000E+00  0.00000000000E+00  0.13840756478E+04  0.13840756478E+04  0.50400001928E-02 0.  1.
        1   -1    0    0  501    0  0.00000000000E+00  0.00000000000E+00 -0.17095450889E+04  0.17095450889E+04  0.50400001928E-02 0. -1.
    10030    2    1    2    0    0  0.00000000000E+00  0.00000000000E+00 -0.32546944103E+03  0.30936207367E+04  0.30764523246E+04 0.  0.
        5    1    3    3  502    0  0.13741636674E+04  0.48084174436E+03 -0.66207719280E+03  0.15993445117E+04  0.46999998093E+01 0. -1.
       -5    1    3    3    0  502 -0.13741636674E+04 -0.48084174436E+03  0.33660775178E+03  0.14942762250E+04  0.46999998093E+01 0.  1.
</event>
<event>
 5   0  0.3838525E-06  0.3102819E+04  0.7818609E-02  0.8214965E-01
        1   -1    0    0  501    0  0.00000000000E+00  0.00000000000E+00  0.25001127908E+04  0.25001127908E+04  0.50400001928E-02 0.  1.
       -1   -1    0    0    0  501  0.00000000000E+00  0.00000000000E+00 -0.96270506817E+03  0.96270506819E+03  0.50400001928E-02 0. -1.
    10030    2    1    2    0    0  0.00000000000E+00  0.00000000000E+00  0.15374077226E+04  0.34628178590E+04  0.31028188827E+04 0.  0.
        3    1    3    3  502    0 -0.14789250630E+04 -0.41718075312E+03  0.10070528754E+04  0.18372301508E+04  0.10100000352E+00 0.  1.
       -3    1    3    3    0  502  0.14789250630E+04  0.41718075312E+03  0.53035484719E+03  0.16255877082E+04  0.10100000352E+00 0. -1.
</event>
<event>
 5   0  0.1108153E-05  0.3063838E+04  0.7818609E-02  0.8225733E-01
       -2   -1    0    0    0  501  0.00000000000E+00  0.00000000000E+00  0.22370001641E+04  0.22370001641E+04  0.25500000920E-02 0. -1.
        2   -1    0    0  501    0  0.00000000000E+00  0.00000000000E+00 -0.10490723738E+04  0.10490723738E+04  0.25500000920E-02 0.  1.
    10030    2    1    2    0    0  0.00000000000E+00  0.00000000000E+00  0.11879277903E+04  0.32860725379E+04  0.30638375102E+04 0.  0.
        4    1    3    3  502    0  0.14343145547E+04  0.96053941600E+02  0.26139124642E+02  0.14377654427E+04  0.12699999809E+01 0.  1.
       -4    1    3    3    0  502 -0.14343145547E+04 -0.96053941600E+02  0.11617886656E+04  0.18483070951E+04  0.12699999809E+01 0. -1.
</event>
<event>
 5   0  0.3838525E-06  0.2989476E+04  0.7818609E-02  0.8246742E-01
        1   -1    0    0  501    0  0.00000000000E+00  0.00000000000E+00  0.15253550352E+04  0.15253550352E+04  0.50400001928E-02 0.  1.
       -1   -1    0    0    0  501  0.00000000000E+00  0.00000000000E+00 -0.14647358243E+04  0.14647358243E+04  0.50400001928E-02 0. -1.
    10030    2    1    2    0    0  0.00000000000E+00  0.00000000000E+00  0.60619210937E+02  0.29900908595E+04  0.29894763185E+04 0.  0.
        3    1    3    3  502    0 -0.13102356904E+04  0.70565577404E+03 -0.10962812093E+03  0.14922084208E+04  0.10100000352E+00 0. -1.
       -3    1    3    3    0  502  0.13102356904E+04 -0.70565577404E+03  0.17024733187E+03  0.14978824387E+04  0.10100000352E+00 0.  1.
</event>
<event>
 5   0  0.3807334E-06  0.2999081E+04  0.7818609E-02  0.8243993E-01
       -1   -1    0    0    0  501  0.00000000000E+00  0.00000000000E+00  0.19526574138E+04  0.19526574138E+04  0.50400001928E-02 0. -1.
        1   -1    0    0  501    0  0.00000000000E+00  0.00000000000E+00 -0.11515699225E+04  0.11515699225E+04  0.50400001928E-02 0.  1.
    10030    2    1    2    0    0  0.00000000000E+00  0.00000000000E+00  0.80108749130E+03  0.31042273362E+04  0.29990808903E+04 0.  0.
        4    1    3    3  502    0  0.68177923244E+03  0.10365576977E+03  0.17787878274E+04  0.19077880354E+04  0.12699999809E+01 0. -1.
       -4    1    3    3    0  502 -0.68177923244E+03 -0.10365576977E+03 -0.97770033610E+03  0.11964393008E+04  0.12699999809E+01 0.  1.
</event>
<event>
 5   0  0.3838525E-06  0.3140985E+04  0.7818609E-02  0.8204579E-01
       -1   -1    0    0    0  501  0.00000000000E+00  0.00000000000E+00  0.28580929332E+04  0.28580929333E+04  0.50400001928E-02 0.  1.
        1   -1    0    0  501    0  0.00000000000E+00  0.00000000000E+00 -0.86296927110E+03  0.86296927111E+03  0.50400001928E-02 0. -1.
    10030    2    1    2    0    0  0.00000000000E+00  0.00000000000E+00  0.19951236621E+04  0.37210622044E+04  0.31409847980E+04 0.  0.
        3    1    3    3  502    0 -0.11003946497E+03  0.14638446912E+04  0.33636979717E+03  0.15060194602E+04  0.10100000352E+00 0. -1.
       -3    1    3    3    0  502  0.11003946497E+03 -0.14638446912E+04  0.16587538650E+04  0.22150427442E+04  0.10100000352E+00 0.  1.
</event>
<event>
 5   0  0.1001961E-05  0.3021489E+04  0.7818609E-02  0.8237621E-01
        2   -1    0    0  501    0  0.00000000000E+00  0.00000000000E+00  0.22002849861E+04  0.22002849861E+04  0.25500000920E-02 0. -1.
       -2   -1    0    0    0  501  0.00000000000E+00  0.00000000000E+00 -0.10372969030E+04  0.10372969030E+04  0.25500000920E-02 0.  1.
    10030    2    1    2    0    0  0.00000000000E+00  0.00000000000E+00  0.11629880831E+04  0.32375818892E+04  0.30214889058E+04 0.  0.
        5    1    3    3  502    0  0.13925662894E+03  0.64909310697E+03  0.20356094558E+04  0.21411310602E+04  0.46999998093E+01 0. -1.
       -5    1    3    3    0  502 -0.13925662894E+03 -0.64909310697E+03 -0.87262137274E+03  0.10964508290E+04  0.46999998093E+01 0.  1.
</event>
<event>
 5   0  0.3807334E-06  0.1574199E+04  0.7818609E-02  0.8836557E-01
       -1   -1    0    0    0  501  0.00000000000E+00  0.00000000000E+00  0.41646181698E+03  0.41646181701E+03  0.50400001928E-02 0. -1.
        1   -1    0    0  501    0  0.00000000000E+00  0.00000000000E+00 -0.14875922105E+04  0.14875922105E+04  0.50400001928E-02 0.  1.
    10030    2    1    2    0    0  0.00000000000E+00  0.00000000000E+00 -0.10711303935E+04  0.19040540275E+04  0.15741986595E+04 0.  0.
        4    1    3    3  502    0  0.92176675919E+02  0.64012532947E+03 -0.10781976476E+04  0.12572862670E+04  0.12699999809E+01 0.  1.
       -4    1    3    3    0  502 -0.92176675919E+02 -0.64012532947E+03  0.70672541186E+01  0.64676776047E+03  0.12699999809E+01 0. -1.
</event>
<event>
 5   0  0.4139628E-06  0.3201569E+04  0.7818609E-02  0.8188403E-01
       -1   -1    0    0    0  501  0.00000000000E+00  0.00000000000E+00  0.94466018458E+03  0.94466018459E+03  0.50400001928E-02 0.  1.
        1   -1    0    0  501    0  0.00000000000E+00  0.00000000000E+00 -0.27126278512E+04  0.27126278512E+04  0.50400001928E-02 0. -1.
    10030    2    1    2    0    0  0.00000000000E+00  0.00000000000E+00 -0.17679676666E+04  0.36572880358E+04  0.32015693193E+04 0.  0.
        5    1    3    3  502    0 -0.19576802402E+03 -0.15887612409E+04 -0.88235353013E+03  0.18278559139E+04  0.46999998093E+01 0. -1.
       -5    1    3    3    0  502  0.19576802402E+03  0.15887612409E+04 -0.88561413648E+03  0.18294321219E+04  0.46999998093E+01 0.  1.
</event>
<event>
 5   0  0.1001961E-05  0.2878096E+04  0.7818609E-02  0.8279425E-01
       -2   -1    0    0    0  501  0.00000000000E+00  0.00000000000E+00  0.11838184523E+04  0.11838184523E+04  0.25500000920E-02 0. -1.
        2   -1    0    0  501    0  0.00000000000E+00  0.00000000000E+00 -0.17493041464E+04  0.17493041464E+04  0.25500000920E-02 0.  1.
    10030    2    1    2    0    0  0.00000000000E+00  0.00000000000E+00 -0.56548569409E+03  0.29331225987E+04  0.28780955698E+04 0.  0.
        5    1    3    3  502    0  0.81022397536E+03  0.55015391937E+03  0.79178983850E+03  0.12593988501E+04  0.46999998093E+01 0. -1.
       -5    1    3    3    0  502 -0.81022397536E+03 -0.55015391937E+03 -0.13572755326E+04  0.16737237486E+04  0.46999998093E+01 0.  1.
</event>
<event>
 5   0  0.4139628E-06  0.1944989E+04  0.7818609E-02  0.8632781E-01
       -1   -1    0    0    0  501  0.00000000000E+00  0.00000000000E+00  0.13444777403E+04  0.13444777403E+04  0.50400001928E-02 0. -1.
        1   -1    0    0  501    0  0.00000000000E+00  0.00000000000E+00 -0.70342959249E+03  0.70342959251E+03  0.50400001928E-02 0.  1.
    10030    2    1    2    0    0  0.00000000000E+00  0.00000000000E+00  0.64104814781E+03  0.20479073328E+04  0.19449888730E+04 0.  0.
        5    1    3    3  502    0  0.23835945417E+03 -0.39837584973E+03 -0.57921279945E+03  0.74231267272E+03  0.46999998093E+01 0.  1.
       -5    1    3    3    0  502 -0.23835945417E+03  0.39837584973E+03  0.12202609473E+04  0.13055946601E+04  0.46999998093E+01 0. -1.
</event>
<event>
 5   0  0.1108153E-05  0.3428593E+04  0.7818609E-02  0.8130924E-01
        2   -1    0    0  501    0  0.00000000000E+00  0.00000000000E+00  0.32067141696E+04  0.32067141696E+04  0.25500000920E-02 0.  1.
       -2   -1    0    0    0  501  0.00000000000E+00  0.00000000000E+00 -0.91645595425E+03  0.91645595425E+03  0.25500000920E-02 0. -1.
    10030    2    1    2    0    0  0.00000000000E+00  0.00000000000E+00  0.22902582154E+04  0.41231701239E+04  0.34285928859E+04 0.  0.
        4    1    3    3  502    0 -0.93728924596E+03 -0.14291515004E+04  0.13056888565E+04  0.21507696633E+04  0.12699999809E+01 0. -1.
       -4    1    3    3    0  502  0.93728924596E+03  0.14291515004E+04  0.98456935882E+03  0.19724004606E+04  0.12699999809E+01 0.  1.
</event>
<event>
 5   0  0.3807334E-06  0.3110344E+04  0.7818609E-02  0.8212905E-01
        1   -1    0    0  501    0  0.00000000000E+00  0.00000000000E+00  0.16991455679E+04  0.16991455679E+04  0.50400001928E-02 0. -1.
       -1   -1    0    0    0  501  0.00000000000E+00  0.00000000000E+00 -0.14233977212E+04  0.14233977212E+04  0.50400001928E-02 0.  1.
    10030    2    1    2    0    0  0.00000000000E+00  0.00000000000E+00  0.27574784674E+03  0.31225432892E+04  0.31103439870E+04 0.  0.
        4    1    3    3  502    0 -0.70098343204E+03 -0.21544610270E+03  0.15146621451E+04  0.16828540703E+04  0.12699999809E+01 0.  1.
       -4    1    3    3    0  502  0.70098343204E+03  0.21544610270E+03 -0.12389142984E+04  0.14396892188E+04  0.12699999809E+01 0. -1.
</event>
<event>
 5   0  0.3848286E-06  0.3143718E+04  0.7818609E-02  0.8203841E-01
       -1   -1    0    0    0  501  0.00000000000E+00  0.00000000000E+00  0.13417356829E+04  0.13417356829E+04  0.50400001928E-02 0. -1.
        1   -1    0    0  501    0  0.00000000000E+00  0.00000000000E+00 -0.18414509250E+04  0.18414509250E+04  0.50400001928E-02 0.  1.
    10030    2    1    2    0    0  0.00000000000E+00  0.00000000000E+00 -0.49971524218E+03  0.31831866079E+04  0.31437178082E+04 0.  0.
        2    1    3    3  502    0 -0.35708093625E+03 -0.10653377694E+04  0.86316493276E+03  0.14168645169E+04  0.25500000920E-02 0. -1.
       -2    1    3    3    0  502  0.35708093625E+03  0.10653377694E+04 -0.13628801749E+04  0.17663220910E+04  0.25500000920E-02 0.  1.
</event>
<event>
 5   0  0.3838525E-06  0.3149412E+04  0.7818609E-02  0.8202307E-01
        1   -1    0    0  501    0  0.00000000000E+00  0.00000000000E+00  0.17935949664E+04  0.17935949664E+04  0.50400001928E-02 0.  1.
       -1   -1    0    0    0  501  0.00000000000E+00  0.00000000000E+00 -0.13825298831E+04  0.13825298832E+04  0.50400001928E-02 0. -1.
    10030    2    1    2    0    0  0.00000000000E+00  0.00000000000E+00  0.41106508322E+03  0.31761248495E+04  0.31494117795E+04 0.  0.
        3    1    3    3  502    0  0.11397100736E+04 -0.84039806210E+03  0.90020800397E+03  0.16779697301E+04  0.10100000352E+00 0.  1.
       -3    1    3    3    0  502 -0.11397100736E+04  0.84039806210E+03 -0.48914292075E+03  0.14981551194E+04  0.10100000352E+00 0. -1.
</event>
<event>
 5   0  0.1007567E-05  0.2729512E+04  0.7818609E-02  0.8325492E-01
        2   -1    0    0  501    0  0.00000000000E+00  0.00000000000E+00  0.16221679131E+04  0.16221679131E+04  0.25500000920E-02 0. -1.
       -2   -1    0    0    0  501  0.00000000000E+00  0.00000000000E+00 -0.11481910382E+04  0.11481910382E+04  0.25500000920E-02 0.  1.
    10030    2    1    2    0    0  0.00000000000E+00  0.00000000000E+00  0.47397687491E+03  0.27703589514E+04  0.27295117954E+04 0.  0.
        3    1    3    3  502    0  0.78577243316E+03 -0.10204262587E+04  0.69524326428E+03  0.14635816591E+04  0.10100000352E+00 0. -1.
       -3    1    3    3    0  502 -0.78577243316E+03  0.10204262587E+04 -0.22126638937E+03  0.13067772922E+04  0.10100000352E+00 0.  1.
</event>
<event>
 5   0  0.3848286E-06  0.3064041E+04  0.7818609E-02  0.8225676E-01
        1   -1    0    0  501    0  0.00000000000E+00  0.00000000000E+00  0.10672140016E+04  0.10672140016E+04  0.50400001928E-02 0. -1.
       -1   -1    0    0    0  501  0.00000000000E+00  0.00000000000E+00 -0.21992649655E+04  0.21992649655E+04  0.50400001928E-02 0.  1.
    10030    2    1    2    0    0  0.00000000000E+00  0.00000000000E+00 -0.11320509639E+04  0.32664789671E+04  0.30640407075E+04 0.  0.
        2    1    3    3  502    0  0.77361674719E+03 -0.13223403350E+04 -0.56131407375E+03  0.16316066690E+04  0.25500000920E-02 0. -1.
       -2    1    3    3    0  502 -0.77361674719E+03  0.13223403350E+04 -0.57073689013E+03  0.16348722980E+04  0.25500000920E-02 0.  1.
</event>
<event>
 5   0  0.3848286E-06  0.3084073E+04  0.7818609E-02  0.8220122E-01
        1   -1    0    0  501    0  0.00000000000E+00  0.00000000000E+00  0.11525746690E+04  0.11525746691E+04  0.50400001928E-02 0. -1.
       -1   -1    0    0    0  501  0.00000000000E+00  0.00000000000E+00 -0.20631003815E+04  0.20631003815E+04  0.50400001928E-02 0.  1.
    10030    2    1    2    0    0  0.00000000000E+00  0.00000000000E+00 -0.91052571247E+03  0.32156750506E+04  0.30840734359E+04 0.  0.
        2    1    3    3  502    0 -0.11119561578E+03 -0.15072877429E+04 -0.13627283443E+03  0.15175147743E+04  0.25500000920E-02 0. -1.
       -2    1    3    3    0  502  0.11119561578E+03  0.15072877429E+04 -0.77425287804E+03  0.16981602763E+04  0.25500000920E-02 0.  1.
</event>
<event>
 5   0  0.1001961E-05  0.3088993E+04  0.7818609E-02  0.8218765E-01
       -2   -1    0    0    0  501  0.00000000000E+00  0.00000000000E+00  0.12951346029E+04  0.12951346029E+04  0.25500000920E-02 0. -1.
        2   -1    0    0  501    0  0.00000000000E+00  0.00000000000E+00 -0.18418702161E+04  0.18418702161E+04  0.25500000920E-02 0.  1.
    10030    2    1    2    0    0  0.00000000000E+00  0.00000000000E+00 -0.54673561319E+03  0.31370048189E+04  0.30889932669E+04 0.  0.
        5    1    3    3  502    0  0.58242430808E+03 -0.95190502692E+03 -0.13577214328E+04  0.17574899243E+04  0.46999998093E+01 0.  1.
       -5    1    3    3    0  502 -0.58242430808E+03  0.95190502692E+03  0.81098581960E+03  0.13795148946E+04  0.46999998093E+01 0. -1.
</event>
<event>
 5   0  0.1108153E-05  0.1596458E+04  0.7818609E-02  0.8822727E-01
        2   -1    0    0  501    0  0.00000000000E+00  0.00000000000E+00  0.10359890551E+04  0.10359890551E+04  0.25500000920E-02 0. -1.
       -2   -1    0    0    0  501  0.00000000000E+00  0.00000000000E+00 -0.61503488280E+03  0.61503488280E+03  0.25500000920E-02 0.  1.
    10030    2    1    2    0    0  0.00000000000E+00  0.00000000000E+00  0.42095417235E+03  0.16510239379E+04  0.15964578380E+04 0.  0.
        4    1    3    3  502    0 -0.20774956794E+03  0.39677580607E+03 -0.47284629093E+03  0.65128807068E+03  0.12699999809E+01 0.  1.
       -4    1    3    3    0  502  0.20774956794E+03 -0.39677580607E+03  0.89380046328E+03  0.99973586727E+03  0.12699999809E+01 0. -1.
</event>
<event>
 5   0  0.3848286E-06  0.2656646E+04  0.7818609E-02  0.8349210E-01
       -1   -1    0    0    0  501  0.00000000000E+00  0.00000000000E+00  0.93704548943E+03  0.93704548945E+03  0.50400001928E-02 0. -1.
        1   -1    0    0  501    0  0.00000000000E+00  0.00000000000E+00 -0.18829846921E+04  0.18829846921E+04  0.50400001928E-02 0.  1.
    10030    2    1    2    0    0  0.00000000000E+00  0.00000000000E+00 -0.94593920271E+03  0.28200301816E+04  0.26566462410E+04 0.  0.
        2    1    3    3  502    0  0.81973267984E+03  0.97683792627E+03 -0.78256666065E+02  0.12776142244E+04  0.25500000920E-02 0. -1.
       -2    1    3    3    0  502 -0.81973267984E+03 -0.97683792627E+03 -0.86768253665E+03  0.15424159572E+04  0.25500000920E-02 0.  1.
</event>
<event>
 5   0  0.4250961E-06  0.2788820E+04  0.7818609E-02  0.8306748E-01
       -1   -1    0    0    0  501  0.00000000000E+00  0.00000000000E+00  0.12699980374E+04  0.12699980374E+04  0.50400001928E-02 0.  1.
        1   -1    0    0  501    0  0.00000000000E+00  0.00000000000E+00 -0.15310091208E+04  0.15310091208E+04  0.50400001928E-02 0. -1.
    10030    2    1    2    0    0  0.00000000000E+00  0.00000000000E+00 -0.26101108343E+03  0.28010071582E+04  0.27888195199E+04 0.  0.
        1    1    3    3  502    0  0.45897954948E+03 -0.89434088658E+03  0.84008753928E+03  0.13100591292E+04  0.50400001928E-02 0.  1.
       -1    1    3    3    0  502 -0.45897954948E+03  0.89434088658E+03 -0.11010986227E+04  0.14909480290E+04  0.50400001928E-02 0. -1.
</event>
<event>
 5   0  0.3838525E-06  0.1792407E+04  0.7818609E-02  0.8710348E-01
       -1   -1    0    0    0  501  0.00000000000E+00  0.00000000000E+00  0.43065038867E+03  0.43065038870E+03  0.50400001928E-02 0. -1.
        1   -1    0    0  501    0  0.00000000000E+00  0.00000000000E+00 -0.18650419790E+04  0.18650419790E+04  0.50400001928E-02 0.  1.
    10030    2    1    2    0    0  0.00000000000E+00  0.00000000000E+00 -0.14343915904E+04  0.22956923677E+04  0.17924073791E+04 0.  0.
        3    1    3    3  502    0 -0.10132673325E+03  0.81036460528E+03 -0.11899140947E+04  0.14432094316E+04  0.10100000352E+00 0.  1.
       -3    1    3    3    0  502  0.10132673325E+03 -0.81036460528E+03 -0.24447749564E+03  0.85248293616E+03  0.10100000352E+00 0. -1.
</event>
<event>
 5   0  0.1119100E-05  0.3083400E+04  0.7818609E-02  0.8220308E-01
        2   -1    0    0  501    0  0.00000000000E+00  0.00000000000E+00  0.15102141265E+04  0.15102141265E+04  0.25500000920E-02 0. -1.
       -2   -1    0    0    0  501  0.00000000000E+00  0.00000000000E+00 -0.15738420981E+04  0.15738420981E+04  0.25500000920E-02 0.  1.
    10030    2    1    2    0    0  0.00000000000E+00  0.00000000000E+00 -0.63627971626E+02  0.30840562246E+04  0.30833997921E+04 0.  0.
        2    1    3    3  502    0 -0.84239004842E+03 -0.20315542247E+03  0.12435831393E+04  0.15157150602E+04  0.25500000920E-02 0. -1.
       -2    1    3    3    0  502  0.84239004842E+03  0.20315542247E+03 -0.13072111110E+04  0.15683411644E+04  0.25500000920E-02 0.  1.
</event>
<event>
 5   0  0.4250961E-06  0.3060933E+04  0.7818609E-02  0.8226542E-01
        1   -1    0    0  501    0  0.00000000000E+00  0.00000000000E+00  0.13097161529E+04  0.13097161529E+04  0.50400001928E-02 0. -1.
       -1   -1    0    0    0  501  0.00000000000E+00  0.00000000000E+00 -0.17884241494E+04  0.17884241494E+04  0.50400001928E-02 0.  1.
    10030    2    1    2    0    0  0.00000000000E+00  0.00000000000E+00 -0.47870799648E+03  0.30981403024E+04  0.30609331890E+04 0.  0.
        1    1    3    3  502    0 -0.84376104760E+03 -0.78802348497E+03 -0.12562626747E+04  0.17061974171E+04  0.50400001928E-02 0.  1.
       -1    1    3    3    0  502  0.84376104760E+03  0.78802348497E+03  0.77755467817E+03  0.13919428853E+04  0.50400001928E-02 0. -1.
</event>
<event>
 5   0  0.1001961E-05  0.3203935E+04  0.7818609E-02  0.8187779E-01
       -2   -1    0    0    0  501  0.00000000000E+00  0.00000000000E+00  0.11381441510E+04  0.11381441510E+04  0.25500000920E-02 0.  1.
        2   -1    0    0  501    0  0.00000000000E+00  0.00000000000E+00 -0.22548115527E+04  0.22548115527E+04  0.25500000920E-02 0. -1.
    10030    2    1    2    0    0  0.00000000000E+00  0.00000000000E+00 -0.11166674017E+04  0.33929557037E+04  0.32039354428E+04 0.  0.
        5    1    3    3  502    0 -0.13398397951E+04  0.85724969651E+03 -0.35676029945E+03  0.16301373317E+04  0.46999998093E+01 0.  1.
       -5    1    3    3    0  502  0.13398397951E+04 -0.85724969651E+03 -0.75990710229E+03  0.17628183721E+04  0.46999998093E+01 0. -1.
</event>
<event>
 5   0  0.3838525E-06  0.3126007E+04  0.7818609E-02  0.8208637E-01
        1   -1    0    0  501    0  0.00000000000E+00  0.00000000000E+00  0.16261650242E+04  0.16261650242E+04  0.50400001928E-02 0. -1.
       -1   -1    0    0    0  501  0.00000000000E+00  0.00000000000E+00 -0.15022949969E+04  0.15022949969E+04  0.50400001928E-02 0.  1.
    10030    2    1    2    0    0  0.00000000000E+00  0.00000000000E+00  0.12387002728E+03  0.31284600211E+04  0.31260067691E+04 0.  0.
        3    1    3    3  502    0  0.63520688504E+03 -0.13205873048E+04 -0.48212841033E+03  0.15426880536E+04  0.10100000352E+00 0.  1.
       -3    1    3    3    0  502 -0.63520688504E+03  0.13205873048E+04  0.60599843761E+03  0.15857719675E+04  0.10100000352E+00 0. -1.
</event>
<event>
 5   0  0.1119100E-05  0.2972408E+04  0.7818609E-02  0.8251654E-01
       -2   -1    0    0    0  501  0.00000000000E+00  0.00000000000E+00  0.19267467905E+04  0.19267467905E+04  0.25500000920E-02 0. -1.
        2   -1    0    0  501    0  0.00000000000E+00  0.00000000000E+00 -0.11463897493E+04  0.11463897493E+04  0.25500000920E-02 0.  1.
    10030    2    1    2    0    0  0.00000000000E+00  0.00000000000E+00  0.78035704124E+03  0.30731365398E+04  0.29724082963E+04 0.  0.
        2    1    3    3  502    0  0.29551700012E+02  0.64569866143E+03 -0.99345639444E+03  0.11852238911E+04  0.25500000920E-02 0.  1.
       -2    1    3    3    0  502 -0.29551700012E+02 -0.64569866143E+03  0.17738134357E+04  0.18879126487E+04  0.25500000920E-02 0. -1.
</event>
<event>
 5   0  0.3493125E-06  0.2937594E+04  0.7818609E-02  0.8261779E-01
       -3   -1    0    0    0  501  0.00000000000E+00  0.00000000000E+00  0.16641799741E+04  0.16641799772E+04  0.10100000352E+00 0.  1.
        3   -1    0    0  501    0  0.00000000000E+00  0.00000000000E+00 -0.12963530132E+04  0.12963530172E+04  0.10100000352E+00 0. -1.
    10030    2    1    2    0    0  0.00000000000E+00  0.00000000000E+00  0.36782696089E+03  0.29605329944E+04  0.29375940730E+04 0.  0.
        3    1    3    3  502    0  0.27787227337E+03 -0.15131000147E+03  0.16294277972E+04  0.16598622453E+04  0.10100000352E+00 0.  1.
       -3    1    3    3    0  502 -0.27787227337E+03  0.15131000147E+03 -0.12616008364E+04  0.13006707490E+04  0.10100000352E+00 0. -1.
</event>
<event>
 5   0  0.1001961E-05  0.3087809E+04  0.7818609E-02  0.8219091E-01
       -2   -1    0    0    0  501  0.00000000000E+00  0.00000000000E+00  0.15019743302E+04  0.15019743302E+04  0.25500000920E-02 0.  1.
        2   -1    0    0  501    0  0.00000000000E+00  0.00000000000E+00 -0.15870056278E+04  0.15870056278E+04  0.25500000920E-02 0. -1.
    10030    2    1    2    0    0  0.00000000000E+00  0.00000000000E+00 -0.85031297636E+02  0.30889799580E+04  0.30878093949E+04 0.  0.
        5    1    3    3  502    0 -0.35844781604E+03 -0.19962452875E+03 -0.15314631785E+04  0.15854766938E+04  0.46999998093E+01 0. -1.
       -5    1    3    3    0  502  0.35844781604E+03  0.19962452875E+03  0.14464318809E+04  0.15035032642E+04  0.46999998093E+01 0.  1.
</event>
<event>
 5   0  0.4250961E-06  0.2973568E+04  0.7818609E-02  0.8251319E-01
        1   -1    0    0  501    0  0.00000000000E+00  0.00000000000E+00  0.25797330445E+04  0.25797330445E+04  0.50400001928E-02 0. -1.
       -1   -1    0    0    0  501  0.00000000000E+00  0.00000000000E+00 -0.85688202251E+03  0.85688202253E+03  0.50400001928E-02 0.  1.
    10030    2    1    2    0    0  0.00000000000E+00  0.00000000000E+00  0.17228510220E+04  0.34366150670E+04  0.29735681386E+04 0.  0.
        1    1    3    3  502    0  0.12908234435E+04  0.42500715793E+03  0.16446671284E+03  0.13689066974E+04  0.50400001928E-02 0.  1.
       -1    1    3    3    0  502 -0.12908234435E+04 -0.42500715793E+03  0.15583843091E+04  0.20677083696E+04  0.50400001928E-02 0. -1.
</event>
<event>
 5   0  0.3848286E-06  0.3086066E+04  0.7818609E-02  0.8219572E-01
        1   -1    0    0  501    0  0.00000000000E+00  0.00000000000E+00  0.73483821676E+03  0.73483821678E+03  0.50400001928E-02 0. -1.
       -1   -1    0    0    0  501  0.00000000000E+00  0.00000000000E+00 -0.32401026646E+04  0.32401026646E+04  0.50400001928E-02 0.  1.
    10030    2    1    2    0    0  0.00000000000E+00  0.00000000000E+00 -0.25052644478E+04  0.39749408814E+04  0.30860662755E+04 0.  0.
        2    1    3    3  502    0  0.54665143717E+03 -0.41843966810E+03 -0.30313390962E+04  0.31085263817E+04  0.25500000920E-02 0.  1.
       -2    1    3    3    0  502 -0.54665143717E+03  0.41843966810E+03  0.52607464836E+03  0.86641449968E+03  0.25500000920E-02 0. -1.
</event>
<event>
 5   0  0.1007567E-05  0.3010552E+04  0.7818609E-02  0.8240724E-01
        2   -1    0    0  501    0  0.00000000000E+00  0.00000000000E+00  0.20781057843E+04  0.20781057843E+04  0.25500000920E-02 0. -1.
       -2   -1    0    0    0  501  0.00000000000E+00  0.00000000000E+00 -0.10903464277E+04  0.10903464277E+04  0.25500000920E-02 0.  1.
    10030    2    1    2    0    0  0.00000000000E+00  0.00000000000E+00  0.98775935659E+03  0.31684522120E+04  0.30105515895E+04 0.  0.
        3    1    3    3  502    0 -0.11474874782E+04  0.77899332231E+03 -0.12186787791E+03  0.13922678976E+04  0.10100000352E+00 0.  1.
       -3    1    3    3    0  502  0.11474874782E+04 -0.77899332231E+03  0.11096272345E+04  0.17761843144E+04  0.10100000352E+00 0. -1.
</event>
<event>
 5   0  0.4139628E-06  0.2846331E+04  0.7818609E-02  0.8289027E-01
       -1   -1    0    0    0  501  0.00000000000E+00  0.00000000000E+00  0.81514548603E+03  0.81514548604E+03  0.50400001928E-02 0. -1.
        1   -1    0    0  501    0  0.00000000000E+00  0.00000000000E+00 -0.24847097880E+04  0.24847097880E+04  0.50400001928E-02 0.  1.
    10030    2    1    2    0    0  0.00000000000E+00  0.00000000000E+00 -0.16695643020E+04  0.32998552741E+04  0.28463309490E+04 0.  0.
        5    1    3    3  502    0 -0.84895035198E+03  0.57605460540E+03 -0.19782560339E+04  0.22284691234E+04  0.46999998093E+01 0.  1.
       -5    1    3    3    0  502  0.84895035198E+03 -0.57605460540E+03  0.30869173186E+03  0.10713861507E+04  0.46999998093E+01 0. -1.
</event>
<event>
 5   0  0.9797278E-06  0.2933434E+04  0.7818609E-02  0.8262999E-01
       -2   -1    0    0    0  501  0.00000000000E+00  0.00000000000E+00  0.17275755953E+04  0.17275755954E+04  0.25500000920E-02 0.  1.
        2   -1    0    0  501    0  0.00000000000E+00  0.00000000000E+00 -0.12452471912E+04  0.12452471912E+04  0.25500000920E-02 0. -1.
    10030    2    1    2    0    0  0.00000000000E+00  0.00000000000E+00  0.48232840419E+03  0.29728227865E+04  0.29334339315E+04 0.  0.
        1    1    3    3  502    0 -0.21281156928E+03  0.75618138319E+03 -0.10140793011E+04  0.12827532410E+04  0.50400001928E-02 0. -1.
       -1    1    3    3    0  502  0.21281156928E+03 -0.75618138319E+03  0.14964077053E+04  0.16900695455E+04  0.50400001928E-02 0.  1.
</event>
<event>
 5   0  0.4250961E-06  0.3101219E+04  0.7818609E-02  0.8215403E-01
       -1   -1    0    0    0  501  0.00000000000E+00  0.00000000000E+00  0.17008536076E+04  0.17008536076E+04  0.50400001928E-02 0. -1.
        1   -1    0    0  501    0  0.00000000000E+00  0.00000000000E+00 -0.14136372113E+04  0.14136372113E+04  0.50400001928E-02 0.  1.
    10030    2    1    2    0    0  0.00000000000E+00  0.00000000000E+00  0.28721639636E+03  0.31144908189E+04  0.31012190833E+04 0.  0.
        1    1    3    3  502    0  0.69830408676E+03  0.58277712247E+03 -0.11176054263E+04  0.14409370774E+04  0.50400001928E-02 0.  1.
       -1    1    3    3    0  502 -0.69830408676E+03 -0.58277712247E+03  0.14048218227E+04  0.16735537415E+04  0.50400001928E-02 0. -1.
</event>
<event>
 5   0  0.1119100E-05  0.2112245E+04  0.7818609E-02  0.8555868E-01
        2   -1    0    0  501    0  0.00000000000E+00  0.00000000000E+00  0.16247931283E+04  0.16247931283E+04  0.25500000920E-02 0. -1.
       -2   -1    0    0    0  501  0.00000000000E+00  0.00000000000E+00 -0.68648421715E+03  0.68648421716E+03  0.25500000920E-02 0.  1.
    10030    2    1    2    0    0  0.00000000000E+00  0.00000000000E+00  0.93830891119E+03  0.23112773455E+04  0.21122450982E+04 0.  0.
        2    1    3    3  502    0  0.59480083253E+03 -0.72511086378E+03  0.10005269009E+04  0.13713598633E+04  0.25500000920E-02 0. -1.
       -2    1    3    3    0  502 -0.59480083253E+03  0.72511086378E+03 -0.62217989712E+02  0.93991748223E+03  0.25500000920E-02 0.  1.
</event>
<event>
 5   0  0.3838525E-06  0.3155746E+04  0.7818609E-02  0.8200603E-01
       -1   -1    0    0    0  501  0.00000000000E+00  0.00000000000E+00  0.16166734314E+04  0.16166734314E+04  0.50400001928E-02 0. -1.
        1   -1    0    0  501    0  0.00000000000E+00  0.00000000000E+00 -0.15400042085E+04  0.15400042085E+04  0.50400001928E-02 0.  1.
    10030    2    1    2    0    0  0.00000000000E+00  0.00000000000E+00  0.76669222972E+02  0.31566776399E+04  0.31557464335E+04 0.  0.
        3    1    3    3  502    0  0.39553664377E+03 -0.82482195628E+03  0.13243668865E+04  0.16095739052E+04  0.10100000352E+00 0. -1.
       -3    1    3    3    0  502 -0.39553664377E+03  0.82482195628E+03 -0.12476976635E+04  0.15471037347E+04  0.10100000352E+00 0.  1.
</event>
<event>
 5   0  0.1108153E-05  0.3075580E+04  0.7818609E-02  0.8222472E-01
       -2   -1    0    0    0  501  0.00000000000E+00  0.00000000000E+00  0.10629321919E+04  0.10629321919E+04  0.25500000920E-02 0. -1.
        2   -1    0    0  501    0  0.00000000000E+00  0.00000000000E+00 -0.22247870587E+04  0.22247870587E+04  0.25500000920E-02 0.  1.
    10030    2    1    2    0    0  0.00000000000E+00  0.00000000000E+00 -0.11618548667E+04  0.32877192506E+04  0.30755798054E+04 0.  0.
        4    1    3    3  502    0 -0.71683159021E+03  0.51135448586E+03 -0.19286274707E+04  0.21201265228E+04  0.12699999809E+01 0.  1.
       -4    1    3    3    0  502  0.71683159021E+03 -0.51135448586E+03  0.76677260398E+03  0.11675927278E+04  0.12699999809E+01 0. -1.
</event>
<event>
 5   0  0.9797278E-06  0.3064405E+04  0.7818609E-02  0.8225575E-01
       -2   -1    0    0    0  501  0.00000000000E+00  0.00000000000E+00  0.15690152109E+04  0.15690152109E+04  0.25500000920E-02 0.  1.
        2   -1    0    0  501    0  0.00000000000E+00  0.00000000000E+00 -0.14962536130E+04  0.14962536130E+04  0.25500000920E-02 0. -1.
    10030    2    1    2    0    0  0.00000000000E+00  0.00000000000E+00  0.72761597916E+02  0.30652688239E+04  0.30644051156E+04 0.  0.
        1    1    3    3  502    0  0.54502462382E+03  0.10312494409E+04 -0.95743706583E+03  0.15090437320E+04  0.50400001928E-02 0. -1.
       -1    1    3    3    0  502 -0.54502462382E+03 -0.10312494409E+04  0.10301986637E+04  0.15562250919E+04  0.50400001928E-02 0.  1.
</event>
<event>
 5   0  0.3838525E-06  0.3081528E+04  0.7818609E-02  0.8220826E-01
       -1   -1    0    0    0  501  0.00000000000E+00  0.00000000000E+00  0.23202191816E+04  0.23202191816E+04  0.50400001928E-02 0. -1.
        1   -1    0    0  501    0  0.00000000000E+00  0.00000000000E+00 -0.10231593260E+04  0.10231593260E+04  0.50400001928E-02 0.  1.
    10030    2    1    2    0    0  0.00000000000E+00  0.00000000000E+00  0.12970598556E+04  0.33433785076E+04  0.30815281236E+04 0.  0.
        3    1    3    3  502    0  0.18147671877E+03  0.24805745261E+03  0.22866209354E+04  0.23071847805E+04  0.10100000352E+00 0. -1.
       -3    1    3    3    0  502 -0.18147671877E+03 -0.24805745261E+03 -0.98956107977E+03  0.10361937271E+04  0.10100000352E+00 0.  1.
</event>
<event>
 5   0  0.4139628E-06  0.3107966E+04  0.7818609E-02  0.8213555E-01
       -1   -1    0    0    0  501  0.00000000000E+00  0.00000000000E+00  0.14010186325E+04  0.14010186325E+04  0.50400001928E-02 0. -1.
        1   -1    0    0  501    0  0.00000000000E+00  0.00000000000E+00 -0.17236486542E+04  0.17236486542E+04  0.50400001928E-02 0.  1.
    10030    2    1    2    0    0  0.00000000000E+00  0.00000000000E+00 -0.32263002169E+03  0.31246672868E+04  0.31079664609E+04 0.  0.
        5    1    3    3  502    0 -0.71312231043E+03  0.45500654634E+02  0.12260378573E+04  0.14190858525E+04  0.46999998093E+01 0. -1.
       -5    1    3    3    0  502  0.71312231043E+03 -0.45500654634E+02 -0.15486678790E+04  0.17055814342E+04  0.46999998093E+01 0.  1.
</event>
<event>
 5   0  0.3838525E-06  0.3159946E+04  0.7818609E-02  0.8199476E-01
        1   -1    0    0  501    0  0.00000000000E+00  0.00000000000E+00  0.16236387713E+04  0.16236387713E+04  0.50400001928E-02 0. -1.
       -1   -1    0    0    0  501  0.00000000000E+00  0.00000000000E+00 -0.15374813155E+04  0.15374813155E+04  0.50400001928E-02 0.  1.
    10030    2    1    2    0    0  0.00000000000E+00  0.00000000000E+00  0.86157455842E+02  0.31611200868E+04  0.31599457426E+04 0.  0.
        3    1    3    3  502    0  0.79648314994E+03 -0.11614390868E+04 -0.67341932669E+03  0.15610316333E+04  0.10100000352E+00 0.  1.
       -3    1    3    3    0  502 -0.79648314994E+03  0.11614390868E+04  0.75957678253E+03  0.16000884535E+04  0.10100000352E+00 0. -1.
</event>
<event>
 5   0  0.4139628E-06  0.3149387E+04  0.7818609E-02  0.8202313E-01
        1   -1    0    0  501    0  0.00000000000E+00  0.00000000000E+00  0.18215472591E+04  0.18215472591E+04  0.50400001928E-02 0. -1.
       -1   -1    0    0    0  501  0.00000000000E+00  0.00000000000E+00 -0.13612931431E+04  0.13612931431E+04  0.50400001928E-02 0.  1.
    10030    2    1    2    0    0  0.00000000000E+00  0.00000000000E+00  0.46025411594E+03  0.31828404022E+04  0.31493871110E+04 0.  0.
        5    1    3    3  502    0  0.91218126863E+03 -0.51083988116E+03 -0.95992319126E+03  0.14193331794E+04  0.46999998093E+01 0.  1.
       -5    1    3    3    0  502 -0.91218126863E+03  0.51083988116E+03  0.14201773072E+04  0.17635072228E+04  0.46999998093E+01 0. -1.
</event>
<event>
 5   0  0.1119100E-05  0.3049037E+04  0.7818609E-02  0.8229865E-01
       -2   -1    0    0    0  501  0.00000000000E+00  0.00000000000E+00  0.91359546577E+03  0.91359546577E+03  0.25500000920E-02 0. -1.
        2   -1    0    0  501    0  0.00000000000E+00  0.00000000000E+00 -0.25439662178E+04  0.25439662178E+04  0.25500000920E-02 0.  1.
    10030    2    1    2    0    0  0.00000000000E+00  0.00000000000E+00 -0.16303707520E+04  0.34575616836E+04  0.30490365702E+04 0.  0.
        2    1    3    3  502    0  0.85534995131E+03 -0.61813683951E+03  0.43242452622E+03  0.11404857134E+04  0.25500000920E-02 0. -1.
       -2    1    3    3    0  502 -0.85534995131E+03  0.61813683951E+03 -0.20627952783E+04  0.23170759702E+04  0.25500000920E-02 0.  1.
</event>
<event>
 5   0  0.3838525E-06  0.2158360E+04  0.7818609E-02  0.8535962E-01
        1   -1    0    0  501    0  0.00000000000E+00  0.00000000000E+00  0.10054072029E+04  0.10054072029E+04  0.50400001928E-02 0. -1.
       -1   -1    0    0    0  501  0.00000000000E+00  0.00000000000E+00 -0.11583661558E+04  0.11583661558E+04  0.50400001928E-02 0.  1.
    10030    2    1    2    0    0  0.00000000000E+00  0.00000000000E+00 -0.15295895286E+03  0.21637733587E+04  0.21583601892E+04 0.  0.
        3    1    3    3  502    0  0.11132854240E+03  0.25595364557E+02 -0.11522880435E+04  0.11579364889E+04  0.10100000352E+00 0.  1.
       -3    1    3    3    0  502 -0.11132854240E+03 -0.25595364557E+02  0.99932909061E+03  0.10058368698E+04  0.10100000352E+00 0. -1.
</event>
<event>
 5   0  0.9797278E-06  0.1528334E+04  0.7818609E-02  0.8865827E-01
        2   -1    0    0  501    0  0.00000000000E+00  0.00000000000E+00  0.27762301861E+03  0.27762301863E+03  0.25500000920E-02 0. -1.
       -2   -1    0    0    0  501  0.00000000000E+00  0.00000000000E+00 -0.21033949337E+04  0.21033949337E+04  0.25500000920E-02 0.  1.
    10030    2    1    2    0    0  0.00000000000E+00  0.00000000000E+00 -0.18257719150E+04  0.23810179523E+04  0.15283335380E+04 0.  0.
        1    1    3    3  502    0  0.74350956656E+03 -0.14849015547E+03 -0.76431050991E+03  0.10765808643E+04  0.50400001928E-02 0.  1.
       -1    1    3    3    0  502 -0.74350956656E+03  0.14849015547E+03 -0.10614614051E+04  0.13044370880E+04  0.50400001928E-02 0. -1.
</event>
<event>
 5   0  0.1108153E-05  0.3268524E+04  0.7818609E-02  0.8170951E-01
        2   -1    0    0  501    0  0.00000000000E+00  0.00000000000E+00  0.14025092967E+04  0.14025092967E+04  0.25500000920E-02 0. -1.
       -2   -1    0    0    0  501  0.00000000000E+00  0.00000000000E+00 -0.19043094860E+04  0.19043094860E+04  0.25500000920E-02 0.  1.
    10030    2    1    2    0    0  0.00000000000E+00  0.00000000000E+00 -0.50180018928E+03  0.33068187826E+04  0.32685236776E+04 0.  0.
        4    1    3    3  502    0 -0.12051315129E+04  0.82079375671E+03 -0.99763022284E+03  0.17667235293E+04  0.12699999809E+01 0.  1.
       -4    1    3    3    0  502  0.12051315129E+04 -0.82079375671E+03  0.49583003356E+03  0.15400952534E+04  0.12699999809E+01 0. -1.
</event>
<event>
 5   0  0.3838525E-06  0.2898447E+04  0.7818609E-02  0.8273340E-01
       -1   -1    0    0    0  501  0.00000000000E+00  0.00000000000E+00  0.13085579630E+04  0.13085579630E+04  0.50400001928E-02 0. -1.
        1   -1    0    0  501    0  0.00000000000E+00  0.00000000000E+00 -0.16050101755E+04  0.16050101756E+04  0.50400001928E-02 0.  1.
    10030    2    1    2    0    0  0.00000000000E+00  0.00000000000E+00 -0.29645221256E+03  0.29135681385E+04  0.28984470641E+04 0.  0.
        3    1    3    3  502    0  0.13851130268E+04 -0.21082482498E+03 -0.52065001081E+03  0.14946777739E+04  0.10100000352E+00 0.  1.
       -3    1    3    3    0  502 -0.13851130268E+04  0.21082482498E+03  0.22419779825E+03  0.14188903646E+04  0.10100000352E+00 0. -1.
</event>
<event>
 5   0  0.1007567E-05  0.2591725E+04  0.7818609E-02  0.8371018E-01
       -2   -1    0    0    0  501  0.00000000000E+00  0.00000000000E+00  0.12796337364E+04  0.12796337364E+04  0.25500000920E-02 0.  1.
        2   -1    0    0  501    0  0.00000000000E+00  0.00000000000E+00 -0.13122968926E+04  0.13122968926E+04  0.25500000920E-02 0. -1.
    10030    2    1    2    0    0  0.00000000000E+00  0.00000000000E+00 -0.32663156236E+02  0.25919306291E+04  0.25917248126E+04 0.  0.
        3    1    3    3  502    0  0.79287512481E+03 -0.10148726995E+04  0.12735239700E+03  0.12941546287E+04  0.10100000352E+00 0.  1.
       -3    1    3    3    0  502 -0.79287512481E+03  0.10148726995E+04 -0.16001555324E+03  0.12977760004E+04  0.10100000352E+00 0. -1.
</event>
<event>
 5   0  0.1007567E-05  0.3076974E+04  0.7818609E-02  0.8222086E-01
        2   -1    0    0  501    0  0.00000000000E+00  0.00000000000E+00  0.24011526663E+04  0.24011526663E+04  0.25500000920E-02 0. -1.
       -2   -1    0    0    0  501  0.00000000000E+00  0.00000000000E+00 -0.98575239822E+03  0.98575239823E+03  0.25500000920E-02 0.  1.
    10030    2    1    2    0    0  0.00000000000E+00  0.00000000000E+00  0.14154002681E+04  0.33869050645E+04  0.30769738376E+04 0.  0.
        3    1    3    3  502    0  0.72946076165E+03 -0.74887107180E+03  0.19501175509E+04  0.22126634081E+04  0.10100000352E+00 0. -1.
       -3    1    3    3    0  502 -0.72946076165E+03  0.74887107180E+03 -0.53471728282E+03  0.11742416564E+04  0.10100000352E+00 0.  1.
</event>
<event>
 5   0  0.3848286E-06  0.3142487E+04  0.7818609E-02  0.8204173E-01
        1   -1    0    0  501    0  0.00000000000E+00  0.00000000000E+00  0.23884143167E+04  0.23884143167E+04  0.50400001928E-02 0. -1.
       -1   -1    0    0    0  501  0.00000000000E+00  0.00000000000E+00 -0.10336592687E+04  0.10336592687E+04  0.50400001928E-02 0.  1.
    10030    2    1    2    0    0  0.00000000000E+00  0.00000000000E+00  0.13547550479E+04  0.34220735854E+04  0.31424872926E+04 0.  0.
        2    1    3    3  502    0  0.29198897809E+03 -0.10740466354E+04 -0.53033502159E+03  0.12329188836E+04  0.25500000920E-02 0.  1.
       -2    1    3    3    0  502 -0.29198897809E+03  0.10740466354E+04  0.18850900695E+04  0.21891547018E+04  0.25500000920E-02 0. -1.
</event>
<event>
 5   0  0.4139628E-06  0.3030650E+04  0.7818609E-02  0.8235032E-01
        1   -1    0    0  501    0  0.00000000000E+00  0.00000000000E+00  0.13205730948E+04  0.13205730948E+04  0.50400001928E-02 0. -1.
       -1   -1    0    0    0  501  0.00000000000E+00  0.00000000000E+00 -0.17387983448E+04  0.17387983449E+04  0.50400001928E-02 0.  1.
    10030    2    1    2    0    0  0.00000000000E+00  0.00000000000E+00 -0.41822525007E+03  0.30593714396E+04  0.30306503008E+04 0.  0.
        5    1    3    3  502    0 -0.10681633536E+04  0.84993084867E+03  0.45502253837E+03  0.14388964514E+04  0.46999998093E+01 0. -1.
       -5    1    3    3    0  502  0.10681633536E+04 -0.84993084867E+03 -0.87324778844E+03  0.16204749882E+04  0.46999998093E+01 0.  1.
</event>
<event>
 5   0  0.4250961E-06  0.3045500E+04  0.7818609E-02  0.8230856E-01
        1   -1    0    0  501    0  0.00000000000E+00  0.00000000000E+00  0.13835845371E+04  0.13835845371E+04  0.50400001928E-02 0.  1.
       -1   -1    0    0    0  501  0.00000000000E+00  0.00000000000E+00 -0.16759130819E+04  0.16759130819E+04  0.50400001928E-02 0. -1.
    10030    2    1    2    0    0  0.00000000000E+00  0.00000000000E+00 -0.29232854479E+03  0.30594976191E+04  0.30454999102E+04 0.  0.
        1    1    3    3  502    0 -0.39709063444E+03 -0.10455842199E+04 -0.11842772969E+04  0.16289383196E+04  0.50400001928E-02 0. -1.
       -1    1    3    3    0  502  0.39709063444E+03  0.10455842199E+04  0.89194875213E+03  0.14305592995E+04  0.50400001928E-02 0.  1.
</event>
<event>
 5   0  0.1001961E-05  0.3095898E+04  0.7818609E-02  0.8216865E-01
        2   -1    0    0  501    0  0.00000000000E+00  0.00000000000E+00  0.22130862610E+04  0.22130862610E+04  0.25500000920E-02 0.  1.
       -2   -1    0    0    0  501  0.00000000000E+00  0.00000000000E+00 -0.10827170811E+04  0.10827170811E+04  0.25500000920E-02 0. -1.
    10030    2    1    2    0    0  0.00000000000E+00  0.00000000000E+00  0.11303691799E+04  0.32958033421E+04  0.30958981228E+04 0.  0.
        5    1    3    3  502    0  0.10807794140E+04  0.25169636436E+03 -0.58370849846E+03  0.12538631914E+04  0.46999998093E+01 0. -1.
       -5    1    3    3    0  502 -0.10807794140E+04 -0.25169636436E+03  0.17140776783E+04  0.20419401507E+04  0.46999998093E+01 0.  1.
</event>
<event>
 5   0  0.1007567E-05  0.3158890E+04  0.7818609E-02  0.8199759E-01
       -2   -1    0    0    0  501  0.00000000000E+00  0.00000000000E+00  0.10117693479E+04  0.10117693479E+04  0.25500000920E-02 0. -1.
        2   -1    0    0  501    0  0.00000000000E+00  0.00000000000E+00 -0.24656284013E+04  0.24656284013E+04  0.25500000920E-02 0.  1.
    10030    2    1    2    0    0  0.00000000000E+00  0.00000000000E+00 -0.14538590534E+04  0.34773977493E+04  0.31588904634E+04 0.  0.
        3    1    3    3  502    0 -0.59870568451E+03  0.94096835128E+03 -0.19580762016E+04  0.22534268029E+04  0.10100000352E+00 0.  1.
       -3    1    3    3    0  502  0.59870568451E+03 -0.94096835128E+03  0.50421714819E+03  0.12239709463E+04  0.10100000352E+00 0. -1.
</event>
<event>
 5   0  0.1108153E-05  0.3115145E+04  0.7818609E-02  0.8211594E-01
        2   -1    0    0  501    0  0.00000000000E+00  0.00000000000E+00  0.18318876228E+04  0.18318876228E+04  0.25500000920E-02 0. -1.
       -2   -1    0    0    0  501  0.00000000000E+00  0.00000000000E+00 -0.13243342879E+04  0.13243342879E+04  0.25500000920E-02 0.  1.
    10030    2    1    2    0    0  0.00000000000E+00  0.00000000000E+00  0.50755333486E+03  0.31562219107E+04  0.31151446775E+04 0.  0.
        4    1    3    3  502    0 -0.12134905160E+04  0.32266265407E+03 -0.67998297110E+03  0.14279526864E+04  0.12699999809E+01 0.  1.
       -4    1    3    3    0  502  0.12134905160E+04 -0.32266265407E+03  0.11875363060E+04  0.17282692243E+04  0.12699999809E+01 0. -1.
</event>
<event>
 5   0  0.1007567E-05  0.3187820E+04  0.7818609E-02  0.8192041E-01
       -2   -1    0    0    0  501  0.00000000000E+00  0.00000000000E+00  0.95830823060E+03  0.95830823060E+03  0.25500000920E-02 0. -1.
        2   -1    0    0  501    0  0.00000000000E+00  0.00000000000E+00 -0.26510775868E+04  0.26510775868E+04  0.25500000920E-02 0.  1.
    10030    2    1    2    0    0  0.00000000000E+00  0.00000000000E+00 -0.16927693562E+04  0.36093858174E+04  0.31878202405E+04 0.  0.
        3    1    3    3  502    0 -0.92806229784E+03  0.84120397059E+03  0.26967902284E+03  0.12812691108E+04  0.10100000352E+00 0.  1.
       -3    1    3    3    0  502  0.92806229784E+03 -0.84120397059E+03 -0.19624483791E+04  0.23281167066E+04  0.10100000352E+00 0. -1.
</event>
<event>
 5   0  0.4139628E-06  0.2975373E+04  0.7818609E-02  0.8250798E-01
       -1   -1    0    0    0  501  0.00000000000E+00  0.00000000000E+00  0.10932990943E+04  0.10932990943E+04  0.50400001928E-02 0. -1.
        1   -1    0    0  501    0  0.00000000000E+00  0.00000000000E+00 -0.20243419173E+04  0.20243419173E+04  0.50400001928E-02 0.  1.
    10030    2    1    2    0    0  0.00000000000E+00  0.00000000000E+00 -0.93104282303E+03  0.31176410116E+04  0.29753730420E+04 0.  0.
        5    1    3    3  502    0 -0.14844279391E+03 -0.11775850548E+03 -0.20116389208E+04  0.20205483331E+04  0.46999998093E+01 0.  1.
       -5    1    3    3    0  502  0.14844279391E+03  0.11775850548E+03  0.10805960978E+04  0.10970926785E+04  0.46999998093E+01 0. -1.
</event>
<event>
 5   0  0.3807334E-06  0.3080149E+04  0.7818609E-02  0.8221207E-01
       -1   -1    0    0    0  501  0.00000000000E+00  0.00000000000E+00  0.12964200426E+04  0.12964200426E+04  0.50400001928E-02 0. -1.
        1   -1    0    0  501    0  0.00000000000E+00  0.00000000000E+00 -0.18295220592E+04  0.18295220592E+04  0.50400001928E-02 0.  1.
    10030    2    1    2    0    0  0.00000000000E+00  0.00000000000E+00 -0.53310201659E+03  0.31259421018E+04  0.30801487406E+04 0.  0.
        4    1    3    3  502    0 -0.67097607013E+03 -0.23058362823E+03 -0.16537857374E+04  0.17995517704E+04  0.12699999809E+01 0.  1.
       -4    1    3    3    0  502  0.67097607013E+03  0.23058362823E+03  0.11206837208E+04  0.13263903314E+04  0.12699999809E+01 0. -1.
</event>
<event>
 5   0  0.4139628E-06  0.3023993E+04  0.7818609E-02  0.8236912E-01
       -1   -1    0    0    0  501  0.00000000000E+00  0.00000000000E+00  0.17284165251E+04  0.17284165251E+04  0.50400001928E-02 0.  1.
        1   -1    0    0  501    0  0.00000000000E+00  0.00000000000E+00 -0.13226754886E+04  0.13226754887E+04  0.50400001928E-02 0. -1.
    10030    2    1    2    0    0  0.00000000000E+00  0.00000000000E+00  0.40574103643E+03  0.30510920137E+04  0.30239934999E+04 0.  0.
        5    1    3    3  502    0 -0.66147585639E+03  0.93828489131E+03  0.11956510020E+04  0.16575681749E+04  0.46999998093E+01 0.  1.
       -5    1    3    3    0  502  0.66147585639E+03 -0.93828489131E+03 -0.78990996554E+03  0.13935238389E+04  0.46999998093E+01 0. -1.
</event>
<event>
 5   0  0.3807334E-06  0.2182560E+04  0.7818609E-02  0.8525722E-01
       -1   -1    0    0    0  501  0.00000000000E+00  0.00000000000E+00  0.12774519846E+04  0.12774519846E+04  0.50400001928E-02 0.  1.
        1   -1    0    0  501    0  0.00000000000E+00  0.00000000000E+00 -0.93224016569E+03  0.93224016570E+03  0.50400001928E-02 0. -1.
    10030    2    1    2    0    0  0.00000000000E+00  0.00000000000E+00  0.34521181893E+03  0.22096921503E+04  0.21825600105E+04 0.  0.
        4    1    3    3  502    0  0.76024818846E+03  0.17238855552E+03  0.94577163308E+03  0.12256348220E+04  0.12699999809E+01 0.  1.
       -4    1    3    3    0  502 -0.76024818846E+03 -0.17238855552E+03 -0.60055981415E+03  0.98405732831E+03  0.12699999809E+01 0. -1.
</event>
<event>
 5   0  0.1007567E-05  0.3156642E+04  0.7818609E-02  0.8200363E-01
       -2   -1    0    0    0  501  0.00000000000E+00  0.00000000000E+00  0.11683120313E+04  0.11683120313E+04  0.25500000920E-02 0.  1.
        2   -1    0    0  501    0  0.00000000000E+00  0.00000000000E+00 -0.21322185939E+04  0.21322185939E+04  0.25500000920E-02 0. -1.
    10030    2    1    2    0    0  0.00000000000E+00  0.00000000000E+00 -0.96390656262E+03  0.33005306253E+04  0.31566416564E+04 0.  0.
        3    1    3    3  502    0  0.16485856405E+03  0.12824162743E+04 -0.14283801442E+04  0.19266654336E+04  0.10100000352E+00 0. -1.
       -3    1    3    3    0  502 -0.16485856405E+03 -0.12824162743E+04  0.46447358158E+03  0.13738651916E+04  0.10100000352E+00 0.  1.
</event>
<event>
 5   0  0.3838525E-06  0.3206335E+04  0.7818609E-02  0.8187146E-01
       -1   -1    0    0    0  501  0.00000000000E+00  0.00000000000E+00  0.94755514934E+03  0.94755514936E+03  0.50400001928E-02 0.  1.
        1   -1    0    0  501    0  0.00000000000E+00  0.00000000000E+00 -0.27123970145E+04  0.27123970145E+04  0.50400001928E-02 0. -1.
    10030    2    1    2    0    0  0.00000000000E+00  0.00000000000E+00 -0.17648418652E+04  0.36599521639E+04  0.32063348286E+04 0.  0.
        3    1    3    3  502    0 -0.26175230991E+03 -0.30748714427E+03 -0.26533945089E+04  0.26839457979E+04  0.10100000352E+00 0. -1.
       -3    1    3    3    0  502  0.26175230991E+03  0.30748714427E+03  0.88855264374E+03  0.97600636603E+03  0.10100000352E+00 0.  1.
</event>
<event>
 5   0  0.1001961E-05  0.2800448E+04  0.7818609E-02  0.8303129E-01
       -2   -1    0    0    0  501  0.00000000000E+00  0.00000000000E+00  0.13406258315E+04  0.13406258315E+04  0.25500000920E-02 0. -1.
        2   -1    0    0  501    0  0.00000000000E+00  0.00000000000E+00 -0.14624717254E+04  0.14624717254E+04  0.25500000920E-02 0.  1.
    10030    2    1    2    0    0  0.00000000000E+00  0.00000000000E+00 -0.12184589389E+03  0.28030975569E+04  0.28004480877E+04 0.  0.
        5    1    3    3  502    0 -0.35893453240E+03  0.88236792284E+03  0.96630239895E+03  0.13568970359E+04  0.46999998093E+01 0. -1.
       -5    1    3    3    0  502  0.35893453240E+03 -0.88236792284E+03 -0.10881482928E+04  0.14462005210E+04  0.46999998093E+01 0.  1.
</event>
<event>
 5   0  0.1007567E-05  0.3144404E+04  0.7818609E-02  0.8203656E-01
       -2   -1    0    0    0  501  0.00000000000E+00  0.00000000000E+00  0.97636379913E+03  0.97636379913E+03  0.25500000920E-02 0.  1.
        2   -1    0    0  501    0  0.00000000000E+00  0.00000000000E+00 -0.25316585216E+04  0.25316585216E+04  0.25500000920E-02 0. -1.
    10030    2    1    2    0    0  0.00000000000E+00  0.00000000000E+00 -0.15552947224E+04  0.35080223207E+04  0.31444043838E+04 0.  0.
        3    1    3    3  502    0  0.61878150152E+03  0.24169170503E+03 -0.23673905780E+04  0.24588297188E+04  0.10100000352E+00 0. -1.
       -3    1    3    3    0  502 -0.61878150152E+03 -0.24169170503E+03  0.81209585562E+03  0.10491926019E+04  0.10100000352E+00 0.  1.
</event>
<event>
 5   0  0.3838525E-06  0.3056724E+04  0.7818609E-02  0.8227716E-01
       -1   -1    0    0    0  501  0.00000000000E+00  0.00000000000E+00  0.99769845818E+03  0.99769845819E+03  0.50400001928E-02 0.  1.
        1   -1    0    0  501    0  0.00000000000E+00  0.00000000000E+00 -0.23412786718E+04  0.23412786718E+04  0.50400001928E-02 0. -1.
    10030    2    1    2    0    0  0.00000000000E+00  0.00000000000E+00 -0.13435802136E+04  0.33389771300E+04  0.30567238155E+04 0.  0.
        3    1    3    3  502    0  0.25809563330E+03  0.93101967780E+03 -0.19654063050E+04  0.21900303538E+04  0.10100000352E+00 0. -1.
       -3    1    3    3    0  502 -0.25809563330E+03 -0.93101967780E+03  0.62182609143E+03  0.11489467762E+04  0.10100000352E+00 0.  1.
</event>
<event>
 5   0  0.1108153E-05  0.3064889E+04  0.7818609E-02  0.8225440E-01
        2   -1    0    0  501    0  0.00000000000E+00  0.00000000000E+00  0.87667132742E+03  0.87667132742E+03  0.25500000920E-02 0. -1.
       -2   -1    0    0    0  501  0.00000000000E+00  0.00000000000E+00 -0.26787535005E+04  0.26787535005E+04  0.25500000920E-02 0.  1.
    10030    2    1    2    0    0  0.00000000000E+00  0.00000000000E+00 -0.18020821731E+04  0.35554248279E+04  0.30648891576E+04 0.  0.
        4    1    3    3  502    0 -0.13396311511E+04 -0.47693612931E+03 -0.15636978681E+04  0.21135828178E+04  0.12699999809E+01 0.  1.
       -4    1    3    3    0  502  0.13396311511E+04  0.47693612931E+03 -0.23838430501E+03  0.14418420101E+04  0.12699999809E+01 0. -1.
</event>
<event>
 5   0  0.1001961E-05  0.2548474E+04  0.7818609E-02  0.8385917E-01
       -2   -1    0    0    0  501  0.00000000000E+00  0.00000000000E+00  0.12232228843E+04  0.12232228843E+04  0.25500000920E-02 0. -1.
        2   -1    0    0  501    0  0.00000000000E+00  0.00000000000E+00 -0.13273786188E+04  0.13273786188E+04  0.25500000920E-02 0.  1.
    10030    2    1    2    0    0  0.00000000000E+00  0.00000000000E+00 -0.10415573448E+03  0.25506015031E+04  0.25484739769E+04 0.  0.
        5    1    3    3  502    0  0.10919120749E+03 -0.13169065864E+03  0.12116688826E+04  0.12236947007E+04  0.46999998093E+01 0. -1.
       -5    1    3    3    0  502 -0.10919120749E+03  0.13169065864E+03 -0.13158246171E+04  0.13269068024E+04  0.46999998093E+01 0.  1.
</event>
<event>
 5   0  0.3848286E-06  0.2963054E+04  0.7818609E-02  0.8254360E-01
        1   -1    0    0  501    0  0.00000000000E+00  0.00000000000E+00  0.11623569515E+04  0.11623569515E+04  0.50400001928E-02 0.  1.
       -1   -1    0    0    0  501  0.00000000000E+00  0.00000000000E+00 -0.18883378097E+04  0.18883378097E+04  0.50400001928E-02 0. -1.
    10030    2    1    2    0    0  0.00000000000E+00  0.00000000000E+00 -0.72598085819E+03  0.30506947612E+04  0.29630542215E+04 0.  0.
        2    1    3    3  502    0 -0.11047637964E+04 -0.23741728439E+03  0.62350012740E+03  0.12905899510E+04  0.25500000920E-02 0.  1.
       -2    1    3    3    0  502  0.11047637964E+04  0.23741728439E+03 -0.13494809856E+04  0.17601048103E+04  0.25500000920E-02 0. -1.
</event>
<event>
 5   0  0.3807334E-06  0.1847081E+04  0.7818609E-02  0.8681656E-01
       -1   -1    0    0    0  501  0.00000000000E+00  0.00000000000E+00  0.71286219734E+03  0.71286219736E+03  0.50400001928E-02 0. -1.
        1   -1    0    0  501    0  0.00000000000E+00  0.00000000000E+00 -0.11964817544E+04  0.11964817544E+04  0.50400001928E-02 0.  1.
    10030    2    1    2    0    0  0.00000000000E+00  0.00000000000E+00 -0.48361955701E+03  0.19093439517E+04  0.18470805207E+04 0.  0.
        4    1    3    3  502    0 -0.23474454445E+03  0.21019881082E+03  0.65557622493E+03  0.72737221614E+03  0.12699999809E+01 0. -1.
       -4    1    3    3    0  502  0.23474454445E+03 -0.21019881082E+03 -0.11391957819E+04  0.11819717356E+04  0.12699999809E+01 0.  1.
</event>
<event>
 5   0  0.3838525E-06  0.3031181E+04  0.7818609E-02  0.8234883E-01
       -1   -1    0    0    0  501  0.00000000000E+00  0.00000000000E+00  0.13659409272E+04  0.13659409272E+04  0.50400001928E-02 0. -1.
        1   -1    0    0  501    0  0.00000000000E+00  0.00000000000E+00 -0.16816353107E+04  0.16816353107E+04  0.50400001928E-02 0.  1.
    10030    2    1    2    0    0  0.00000000000E+00  0.00000000000E+00 -0.31569438351E+03  0.30475762378E+04  0.30311809550E+04 0.  0.
        3    1    3    3  502    0 -0.26167681897E+03 -0.25984954969E+03 -0.16358385717E+04  0.16768912872E+04  0.10100000352E+00 0.  1.
       -3    1    3    3    0  502  0.26167681897E+03  0.25984954969E+03  0.13201441882E+04  0.13706849507E+04  0.10100000352E+00 0. -1.
</event>
<event>
 5   0  0.4139628E-06  0.3000191E+04  0.7818609E-02  0.8243676E-01
        1   -1    0    0  501    0  0.00000000000E+00  0.00000000000E+00  0.16316828616E+04  0.16316828616E+04  0.50400001928E-02 0. -1.
       -1   -1    0    0    0  501  0.00000000000E+00  0.00000000000E+00 -0.13791199998E+04  0.13791199998E+04  0.50400001928E-02 0.  1.
    10030    2    1    2    0    0  0.00000000000E+00  0.00000000000E+00  0.25256286176E+03  0.30108028614E+04  0.30001909724E+04 0.  0.
        5    1    3    3  502    0  0.14709553636E+04 -0.27860895749E+03  0.31439239899E+02  0.14974455411E+04  0.46999998093E+01 0. -1.
       -5    1    3    3    0  502 -0.14709553636E+04  0.27860895749E+03  0.22112362186E+03  0.15133573203E+04  0.46999998093E+01 0.  1.
</event>
<event>
 5   0  0.1007567E-05  0.3074202E+04  0.7818609E-02  0.8222854E-01
       -2   -1    0    0    0  501  0.00000000000E+00  0.00000000000E+00  0.72817835725E+03  0.72817835726E+03  0.25500000920E-02 0.  1.
        2   -1    0    0  501    0  0.00000000000E+00  0.00000000000E+00 -0.32446441654E+04  0.32446441654E+04  0.25500000920E-02 0. -1.
    10030    2    1    2    0    0  0.00000000000E+00  0.00000000000E+00 -0.25164658082E+04  0.39728225227E+04  0.30742021132E+04 0.  0.
        3    1    3    3  502    0 -0.88063222904E+02  0.21112423937E+03  0.70605768927E+03  0.74219003392E+03  0.10100000352E+00 0.  1.
       -3    1    3    3    0  502  0.88063222904E+02 -0.21112423937E+03 -0.32225234975E+04  0.32306324888E+04  0.10100000352E+00 0. -1.
</event>
<event>
 5   0  0.4250961E-06  0.2486554E+04  0.7818609E-02  0.8407791E-01
        1   -1    0    0  501    0  0.00000000000E+00  0.00000000000E+00  0.10298413090E+04  0.10298413090E+04  0.50400001928E-02 0.  1.
       -1   -1    0    0    0  501  0.00000000000E+00  0.00000000000E+00 -0.15009473954E+04  0.15009473954E+04  0.50400001928E-02 0. -1.
    10030    2    1    2    0    0  0.00000000000E+00  0.00000000000E+00 -0.47110608644E+03  0.25307887044E+04  0.24865539451E+04 0.  0.
        1    1    3    3  502    0 -0.76474365918E+03  0.30278898133E+03  0.71335418792E+03  0.10887553577E+04  0.50400001928E-02 0.  1.
       -1    1    3    3    0  502  0.76474365918E+03 -0.30278898133E+03 -0.11844602744E+04  0.14420333467E+04  0.50400001928E-02 0. -1.
</event>
<event>
 5   0  0.9797278E-06  0.3114818E+04  0.7818609E-02  0.8211683E-01
       -2   -1    0    0    0  501  0.00000000000E+00  0.00000000000E+00  0.11139311523E+04  0.11139311523E+04  0.25500000920E-02 0. -1.
        2   -1    0    0  501    0  0.00000000000E+00  0.00000000000E+00 -0.21774438323E+04  0.21774438323E+04  0.25500000920E-02 0.  1.
    10030    2    1    2    0    0  0.00000000000E+00  0.00000000000E+00 -0.10635126800E+04  0.32913749846E+04  0.31148178227E+04 0.  0.
        1    1    3    3  502    0 -0.24712266423E+03  0.51891659148E+03  0.99776388850E+03  0.11514672454E+04  0.50400001928E-02 0. -1.
       -1    1    3    3    0  502  0.24712266423E+03 -0.51891659148E+03 -0.20612765685E+04  0.21399077391E+04  0.50400001928E-02 0.  1.
</event>
<event>
 5   0  0.3838525E-06  0.3268458E+04  0.7818609E-02  0.8170968E-01
        1   -1    0    0  501    0  0.00000000000E+00  0.00000000000E+00  0.22854120530E+04  0.22854120530E+04  0.50400001928E-02 0. -1.
       -1   -1    0    0    0  501  0.00000000000E+00  0.00000000000E+00 -0.11685879267E+04  0.11685879267E+04  0.50400001928E-02 0.  1.
    10030    2    1    2    0    0  0.00000000000E+00  0.00000000000E+00  0.11168241263E+04  0.34539999797E+04  0.32684583110E+04 0.  0.
        3    1    3    3  502    0 -0.40510786229E+03  0.76580602823E+03  0.20227628073E+04  0.22004864548E+04  0.10100000352E+00 0. -1.
       -3    1    3    3    0  502  0.40510786229E+03 -0.76580602823E+03 -0.90593868103E+03  0.12535135248E+04  0.10100000352E+00 0.  1.
</event>
<event>
 5   0  0.3848286E-06  0.2890116E+04  0.7818609E-02  0.8275824E-01
       -1   -1    0    0    0  501  0.00000000000E+00  0.00000000000E+00  0.14824149096E+04  0.14824149097E+04  0.50400001928E-02 0. -1.
        1   -1    0    0  501    0  0.00000000000E+00  0.00000000000E+00 -0.14086428246E+04  0.14086428246E+04  0.50400001928E-02 0.  1.
    10030    2    1    2    0    0  0.00000000000E+00  0.00000000000E+00  0.73772085097E+02  0.28910577342E+04  0.28901163475E+04 0.  0.
        2    1    3    3  502    0 -0.37601272868E+03 -0.43047931853E+03 -0.12907595528E+04  0.14116508913E+04  0.25500000920E-02 0.  1.
       -2    1    3    3    0  502  0.37601272868E+03  0.43047931853E+03  0.13645316379E+04  0.14794068429E+04  0.25500000920E-02 0. -1.
</event>
<event>
 5   0  0.4139628E-06  0.2965849E+04  0.7818609E-02  0.8253551E-01
        1   -1    0    0  501    0  0.00000000000E+00  0.00000000000E+00  0.17009839731E+04  0.17009839731E+04  0.50400001928E-02 0.  1.
       -1   -1    0    0    0  501  0.00000000000E+00  0.00000000000E+00 -0.12928192217E+04  0.12928192217E+04  0.50400001928E-02 0. -1.
    10030    2    1    2    0    0  0.00000000000E+00  0.00000000000E+00  0.40816475136E+03  0.29938031948E+04  0.29658488001E+04 0.  0.
        5    1    3    3  502    0  0.45363598343E+03 -0.18009752757E+03 -0.12094095172E+04  0.13041910118E+04  0.46999998093E+01 0. -1.
       -5    1    3    3    0  502 -0.45363598343E+03  0.18009752757E+03  0.16175742685E+04  0.16896121831E+04  0.46999998093E+01 0.  1.
</event>
<event>
 5   0  0.1001961E-05  0.3078652E+04  0.7818609E-02  0.8221621E-01
        2   -1    0    0  501    0  0.00000000000E+00  0.00000000000E+00  0.25354396351E+04  0.25354396351E+04  0.25500000920E-02 0. -1.
       -2   -1    0    0    0  501  0.00000000000E+00  0.00000000000E+00 -0.93456162423E+03  0.93456162424E+03  0.25500000920E-02 0.  1.
    10030    2    1    2    0    0  0.00000000000E+00  0.00000000000E+00  0.16008780109E+04  0.34700012593E+04  0.30786520320E+04 0.  0.
        5    1    3    3  502    0 -0.10171043609E+04  0.26968518383E+03 -0.46588648563E+03  0.11507839445E+04  0.46999998093E+01 0.  1.
       -5    1    3    3    0  502  0.10171043609E+04 -0.26968518383E+03  0.20667644965E+04  0.23192173148E+04  0.46999998093E+01 0. -1.
</event>
<event>
 5   0  0.1001961E-05  0.2967621E+04  0.7818609E-02  0.8253038E-01
       -2   -1    0    0    0  501  0.00000000000E+00  0.00000000000E+00  0.23778429380E+04  0.23778429380E+04  0.25500000920E-02 0.  1.
        2   -1    0    0  501    0  0.00000000000E+00  0.00000000000E+00 -0.92592077353E+03  0.92592077354E+03  0.25500000920E-02 0. -1.
    10030    2    1    2    0    0  0.00000000000E+00  0.00000000000E+00  0.14519221645E+04  0.33037637116E+04  0.29676213859E+04 0.  0.
        5    1    3    3  502    0 -0.34209382819E+03 -0.14168164005E+04  0.41648969166E+03  0.15158768595E+04  0.46999998093E+01 0. -1.
       -5    1    3    3    0  502  0.34209382819E+03  0.14168164005E+04  0.10354324728E+04  0.17878868520E+04  0.46999998093E+01 0.  1.
</event>
<event>
 5   0  0.1001961E-05  0.3104462E+04  0.7818609E-02  0.8214514E-01
       -2   -1    0    0    0  501  0.00000000000E+00  0.00000000000E+00  0.15647688514E+04  0.15647688514E+04  0.25500000920E-02 0.  1.
        2   -1    0    0  501    0  0.00000000000E+00  0.00000000000E+00 -0.15397939716E+04  0.15397939716E+04  0.25500000920E-02 0. -1.
    10030    2    1    2    0    0  0.00000000000E+00  0.00000000000E+00  0.24974879792E+02  0.31045628230E+04  0.31044623652E+04 0.  0.
        5    1    3    3  502    0 -0.33792516215E+03 -0.15138537648E+04 -0.46275994165E+02  0.15518086848E+04  0.46999998093E+01 0.  1.
       -5    1    3    3    0  502  0.33792516215E+03  0.15138537648E+04  0.71250873958E+02  0.15527541382E+04  0.46999998093E+01 0. -1.
</event>
<event>
 5   0  0.3807334E-06  0.3088374E+04  0.7818609E-02  0.8218936E-01
        1   -1    0    0  501    0  0.00000000000E+00  0.00000000000E+00  0.12774246890E+04  0.12774246890E+04  0.50400001928E-02 0. -1.
       -1   -1    0    0    0  501  0.00000000000E+00  0.00000000000E+00 -0.18666571729E+04  0.18666571729E+04  0.50400001928E-02 0.  1.
    10030    2    1    2    0    0  0.00000000000E+00  0.00000000000E+00 -0.58923248393E+03  0.31440818619E+04  0.30883743028E+04 0.  0.
        4    1    3    3  502    0  0.34421310203E+03 -0.40821666056E+03 -0.17696785221E+04  0.18484824008E+04  0.12699999809E+01 0.  1.
       -4    1    3    3    0  502 -0.34421310203E+03  0.40821666056E+03  0.11804460382E+04  0.12955994611E+04  0.12699999809E+01 0. -1.
</event>
<event>
 5   0  0.1119100E-05  0.2648144E+04  0.7818609E-02  0.8352029E-01
       -2   -1    0    0    0  501  0.00000000000E+00  0.00000000000E+00  0.30763162492E+04  0.30763162492E+04  0.25500000920E-02 0. -1.
        2   -1    0    0  501    0  0.00000000000E+00  0.00000000000E+00 -0.56989148897E+03  0.56989148898E+03  0.25500000920E-02 0.  1.
    10030    2    1    2    0    0  0.00000000000E+00  0.00000000000E+00  0.25064247602E+04  0.36462077382E+04  0.26481438388E+04 0.  0.
        2    1    3    3  502    0 -0.31840013054E+03  0.79529590731E+03  0.26433224621E+04  0.27786737595E+04  0.25500000920E-02 0. -1.
       -2    1    3    3    0  502  0.31840013054E+03 -0.79529590731E+03 -0.13689770187E+03  0.86753397864E+03  0.25500000920E-02 0.  1.
</event>
<event>
 5   0  0.1007567E-05  0.3112438E+04  0.7818609E-02  0.8212333E-01
       -2   -1    0    0    0  501  0.00000000000E+00  0.00000000000E+00  0.23634335406E+04  0.23634335406E+04  0.25500000920E-02 0.  1.
        2   -1    0    0  501    0  0.00000000000E+00  0.00000000000E+00 -0.10247029362E+04  0.10247029362E+04  0.25500000920E-02 0. -1.
    10030    2    1    2    0    0  0.00000000000E+00  0.00000000000E+00  0.13387306044E+04  0.33881364768E+04  0.31124378153E+04 0.  0.
        3    1    3    3  502    0  0.11554017646E+04 -0.29528925419E+03 -0.41903379319E+03  0.12640167370E+04  0.10100000352E+00 0. -1.
       -3    1    3    3    0  502 -0.11554017646E+04  0.29528925419E+03  0.17577643976E+04  0.21241197398E+04  0.10100000352E+00 0.  1.
</event>
<event>
 5   0  0.4250961E-06  0.3102047E+04  0.7818609E-02  0.8215176E-01
        1   -1    0    0  501    0  0.00000000000E+00  0.00000000000E+00  0.15618232099E+04  0.15618232099E+04  0.50400001928E-02 0.  1.
       -1   -1    0    0    0  501  0.00000000000E+00  0.00000000000E+00 -0.15402985048E+04  0.15402985048E+04  0.50400001928E-02 0. -1.
    10030    2    1    2    0    0  0.00000000000E+00  0.00000000000E+00  0.21524705088E+02  0.31021217147E+04  0.31020470370E+04 0.  0.
        1    1    3    3  502    0 -0.23015871566E+03  0.87063397304E+03 -0.12520813381E+04  0.15422983585E+04  0.50400001928E-02 0. -1.
       -1    1    3    3    0  502  0.23015871566E+03 -0.87063397304E+03  0.12736060432E+04  0.15598233562E+04  0.50400001928E-02 0.  1.
</event>
<event>
 5   0  0.1007567E-05  0.3128562E+04  0.7818609E-02  0.8207943E-01
        2   -1    0    0  501    0  0.00000000000E+00  0.00000000000E+00  0.19268078599E+04  0.19268078599E+04  0.25500000920E-02 0.  1.
       -2   -1    0    0    0  501  0.00000000000E+00  0.00000000000E+00 -0.12699635804E+04  0.12699635804E+04  0.25500000920E-02 0. -1.
    10030    2    1    2    0    0  0.00000000000E+00  0.00000000000E+00  0.65684427948E+03  0.31967714403E+04  0.31285624868E+04 0.  0.
        3    1    3    3  502    0  0.46116304295E+03  0.97075828161E+03  0.14898352284E+04  0.18370225941E+04  0.10100000352E+00 0.  1.
       -3    1    3    3    0  502 -0.46116304295E+03 -0.97075828161E+03 -0.83299094888E+03  0.13597488462E+04  0.10100000352E+00 0. -1.
</event>
<event>
 5   0  0.3807334E-06  0.3086879E+04  0.7818609E-02  0.8219348E-01
       -1   -1    0    0    0  501  0.00000000000E+00  0.00000000000E+00  0.22742640479E+04  0.22742640479E+04  0.50400001928E-02 0.  1.
        1   -1    0    0  501    0  0.00000000000E+00  0.00000000000E+00 -0.10474618222E+04  0.10474618222E+04  0.50400001928E-02 0. -1.
    10030    2    1    2    0    0  0.00000000000E+00  0.00000000000E+00  0.12268022258E+04  0.33217258701E+04  0.30868785294E+04 0.  0.
        4    1    3    3  502    0 -0.19441595231E+02  0.15406454732E+04  0.51574017176E+03  0.16247941369E+04  0.12699999809E+01 0. -1.
       -4    1    3    3    0  502  0.19441595231E+02 -0.15406454732E+04  0.71106205403E+03  0.16969317332E+04  0.12699999809E+01 0.  1.
</event>
<event>
 5   0  0.1001961E-05  0.2042617E+04  0.7818609E-02  0.8586951E-01
       -2   -1    0    0    0  501  0.00000000000E+00  0.00000000000E+00  0.80428854954E+03  0.80428854954E+03  0.25500000920E-02 0. -1.
        2   -1    0    0  501    0  0.00000000000E+00  0.00000000000E+00 -0.12968871644E+04  0.12968871644E+04  0.25500000920E-02 0.  1.
    10030    2    1    2    0    0  0.00000000000E+00  0.00000000000E+00 -0.49259861483E+03  0.21011757139E+04  0.20426174349E+04 0.  0.
        5    1    3    3  502    0  0.66754165127E+03 -0.45698964365E+03 -0.88754672220E+03  0.12009215897E+04  0.46999998093E+01 0.  1.
       -5    1    3    3    0  502 -0.66754165127E+03  0.45698964365E+03  0.39494810737E+03  0.90025412418E+03  0.46999998093E+01 0. -1.
</event>
<event>
 5   0  0.3838525E-06  0.3124014E+04  0.7818609E-02  0.8209178E-01
       -1   -1    0    0    0  501  0.00000000000E+00  0.00000000000E+00  0.14872216319E+04  0.14872216319E+04  0.50400001928E-02 0. -1.
        1   -1    0    0  501    0  0.00000000000E+00  0.00000000000E+00 -0.16405526926E+04  0.16405526926E+04  0.50400001928E-02 0.  1.
    10030    2    1    2    0    0  0.00000000000E+00  0.00000000000E+00 -0.15333106071E+03  0.31277743245E+04  0.31240137341E+04 0.  0.
        3    1    3    3  502    0 -0.49569377760E+03  0.35860817400E+03  0.13622678209E+04  0.14933471699E+04  0.10100000352E+00 0. -1.
       -3    1    3    3    0  502  0.49569377760E+03 -0.35860817400E+03 -0.15155988816E+04  0.16344271546E+04  0.10100000352E+00 0.  1.
</event>
<event>
 5   0  0.1119100E-05  0.3078766E+04  0.7818609E-02  0.8221590E-01
       -2   -1    0    0    0  501  0.00000000000E+00  0.00000000000E+00  0.18644438832E+04  0.18644438832E+04  0.25500000920E-02 0. -1.
        2   -1    0    0  501    0  0.00000000000E+00  0.00000000000E+00 -0.12709956726E+04  0.12709956726E+04  0.25500000920E-02 0.  1.
    10030    2    1    2    0    0  0.00000000000E+00  0.00000000000E+00  0.59344821060E+03  0.31354395557E+04  0.30787660562E+04 0.  0.
        2    1    3    3  502    0 -0.12073815381E+04  0.61197840941E+03 -0.44985454521E+03  0.14264139876E+04  0.25500000920E-02 0.  1.
       -2    1    3    3    0  502  0.12073815381E+04 -0.61197840941E+03  0.10433027558E+04  0.17090255681E+04  0.25500000920E-02 0. -1.
</event>
<event>
 5   0  0.4139628E-06  0.3064893E+04  0.7818609E-02  0.8225439E-01
       -1   -1    0    0    0  501  0.00000000000E+00  0.00000000000E+00  0.21060953978E+04  0.21060953978E+04  0.50400001928E-02 0.  1.
        1   -1    0    0  501    0  0.00000000000E+00  0.00000000000E+00 -0.11150456024E+04  0.11150456024E+04  0.50400001928E-02 0. -1.
    10030    2    1    2    0    0  0.00000000000E+00  0.00000000000E+00  0.99104979537E+03  0.32211410003E+04  0.30648930889E+04 0.  0.
        5    1    3    3  502    0  0.87322442261E+03 -0.62387396807E+02 -0.82635432512E+03  0.12038673682E+04  0.46999998093E+01 0. -1.
       -5    1    3    3    0  502 -0.87322442261E+03  0.62387396807E+02  0.18174041205E+04  0.20172736321E+04  0.46999998093E+01 0.  1.
</event>
<event>
 5   0  0.3848286E-06  0.2969563E+04  0.7818609E-02  0.8252476E-01
       -1   -1    0    0    0  501  0.00000000000E+00  0.00000000000E+00  0.33367798201E+04  0.33367798201E+04  0.50400001928E-02 0. -1.
        1   -1    0    0  501    0  0.00000000000E+00  0.00000000000E+00 -0.66068981041E+03  0.66068981043E+03  0.50400001928E-02 0.  1.
    10030    2    1    2    0    0  0.00000000000E+00  0.00000000000E+00  0.26760900097E+04  0.39974696305E+04  0.29695632182E+04 0.  0.
        2    1    3    3  502    0 -0.12179457725E+04 -0.61880338221E+03  0.21209739456E+04  0.25228634542E+04  0.25500000920E-02 0. -1.
       -2    1    3    3    0  502  0.12179457725E+04  0.61880338221E+03  0.55511606409E+03  0.14746061763E+04  0.25500000920E-02 0.  1.
</event>
<event>
 5   0  0.4139628E-06  0.3080314E+04  0.7818609E-02  0.8221161E-01
       -1   -1    0    0    0  501  0.00000000000E+00  0.00000000000E+00  0.11573026796E+04  0.11573026796E+04  0.50400001928E-02 0. -1.
        1   -1    0    0  501    0  0.00000000000E+00  0.00000000000E+00 -0.20496658991E+04  0.20496658992E+04  0.50400001928E-02 0.  1.
    10030    2    1    2    0    0  0.00000000000E+00  0.00000000000E+00 -0.89236321955E+03  0.32069685788E+04  0.30803141641E+04 0.  0.
        5    1    3    3  502    0 -0.24680862385E+03 -0.58607369137E+03  0.10142299399E+04  0.11971137496E+04  0.46999998093E+01 0. -1.
       -5    1    3    3    0  502  0.24680862385E+03  0.58607369137E+03 -0.19065931595E+04  0.20098548291E+04  0.46999998093E+01 0.  1.
</event>
<event>
 5   0  0.1001961E-05  0.3074893E+04  0.7818609E-02  0.8222662E-01
       -2   -1    0    0    0  501  0.00000000000E+00  0.00000000000E+00  0.80910374109E+03  0.80910374110E+03  0.25500000920E-02 0.  1.
        2   -1    0    0  501    0  0.00000000000E+00  0.00000000000E+00 -0.29214328414E+04  0.29214328414E+04  0.25500000920E-02 0. -1.
    10030    2    1    2    0    0  0.00000000000E+00  0.00000000000E+00 -0.21123291003E+04  0.37305365825E+04  0.30748933258E+04 0.  0.
        5    1    3    3  502    0  0.14989053185E+04  0.34112690906E+03 -0.10867471842E+04  0.18825849926E+04  0.46999998093E+01 0.  1.
       -5    1    3    3    0  502 -0.14989053185E+04 -0.34112690906E+03 -0.10255819161E+04  0.18479515899E+04  0.46999998093E+01 0. -1.
</event>
<event>
 5   0  0.4139628E-06  0.3142624E+04  0.7818609E-02  0.8204136E-01
       -1   -1    0    0    0  501  0.00000000000E+00  0.00000000000E+00  0.14488818700E+04  0.14488818700E+04  0.50400001928E-02 0. -1.
        1   -1    0    0  501    0  0.00000000000E+00  0.00000000000E+00 -0.17040878078E+04  0.17040878078E+04  0.50400001928E-02 0.  1.
    10030    2    1    2    0    0  0.00000000000E+00  0.00000000000E+00 -0.25520593781E+03  0.31529696778E+04  0.31426243362E+04 0.  0.
        5    1    3    3  502    0  0.15221365935E+04 -0.31341264900E+03  0.10526569867E+03  0.15576361113E+04  0.46999998093E+01 0. -1.
       -5    1    3    3    0  502 -0.15221365935E+04  0.31341264900E+03 -0.36047163648E+03  0.15953335666E+04  0.46999998093E+01 0.  1.
</event>
<event>
 5   0  0.9797278E-06  0.3093744E+04  0.7818609E-02  0.8217457E-01
       -2   -1    0    0    0  501  0.00000000000E+00  0.00000000000E+00  0.10035469926E+04  0.10035469926E+04  0.25500000920E-02 0. -1.
        2   -1    0    0  501    0  0.00000000000E+00  0.00000000000E+00 -0.23843557622E+04  0.23843557622E+04  0.25500000920E-02 0.  1.
    10030    2    1    2    0    0  0.00000000000E+00  0.00000000000E+00 -0.13808087696E+04  0.33879027549E+04  0.30937440454E+04 0.  0.
        1    1    3    3  502    0 -0.14367478210E+04 -0.39737650883E+03 -0.11427946705E+04  0.18783322523E+04  0.50400001928E-02 0. -1.
       -1    1    3    3    0  502  0.14367478210E+04  0.39737650883E+03 -0.23801409907E+03  0.15095705026E+04  0.50400001928E-02 0.  1.
</event>
<event>
 5   0  0.1001961E-05  0.2639447E+04  0.7818609E-02  0.8354924E-01
       -2   -1    0    0    0  501  0.00000000000E+00  0.00000000000E+00  0.31166252827E+04  0.31166252827E+04  0.25500000920E-02 0.  1.
        2   -1    0    0  501    0  0.00000000000E+00  0.00000000000E+00 -0.55883215518E+03  0.55883215518E+03  0.25500000920E-02 0. -1.
    10030    2    1    2    0    0  0.00000000000E+00  0.00000000000E+00  0.25577931276E+04  0.36754574379E+04  0.26394472328E+04 0.  0.
        5    1    3    3  502    0 -0.42078196643E+03 -0.12477344946E+04  0.11563121380E+04  0.17524208064E+04  0.46999998093E+01 0.  1.
       -5    1    3    3    0  502  0.42078196643E+03  0.12477344946E+04  0.14014809895E+04  0.19230366315E+04  0.46999998093E+01 0. -1.
</event>
<event>
 5   0  0.1001961E-05  0.2806430E+04  0.7818609E-02  0.8301275E-01
       -2   -1    0    0    0  501  0.00000000000E+00  0.00000000000E+00  0.17116203547E+04  0.17116203547E+04  0.25500000920E-02 0.  1.
        2   -1    0    0  501    0  0.00000000000E+00  0.00000000000E+00 -0.11503791042E+04  0.11503791042E+04  0.25500000920E-02 0. -1.
    10030    2    1    2    0    0  0.00000000000E+00  0.00000000000E+00  0.56124125055E+03  0.28619994589E+04  0.28064299673E+04 0.  0.
        5    1    3    3  502    0  0.76006575236E+03 -0.13760885268E+03 -0.91405065456E+03  0.11967233738E+04  0.46999998093E+01 0. -1.
       -5    1    3    3    0  502 -0.76006575236E+03  0.13760885268E+03  0.14752919051E+04  0.16652760851E+04  0.46999998093E+01 0.  1.
</event>
<event>
 5   0  0.4139628E-06  0.1641236E+04  0.7818609E-02  0.8795608E-01
        1   -1    0    0  501    0  0.00000000000E+00  0.00000000000E+00  0.87289180884E+03  0.87289180885E+03  0.50400001928E-02 0. -1.
       -1   -1    0    0    0  501  0.00000000000E+00  0.00000000000E+00 -0.77147494751E+03  0.77147494752E+03  0.50400001928E-02 0.  1.
    10030    2    1    2    0    0  0.00000000000E+00  0.00000000000E+00  0.10141686133E+03  0.16443667564E+04  0.16412363175E+04 0.  0.
        5    1    3    3  502    0  0.18746199048E+03  0.52069580530E+03 -0.55635645540E+03  0.78474245138E+03  0.46999998093E+01 0.  1.
       -5    1    3    3    0  502 -0.18746199048E+03 -0.52069580530E+03  0.65777331673E+03  0.85962430500E+03  0.46999998093E+01 0. -1.
</event>
<event>
 5   0  0.4139628E-06  0.2933035E+04  0.7818609E-02  0.8263116E-01
        1   -1    0    0  501    0  0.00000000000E+00  0.00000000000E+00  0.19045570227E+04  0.19045570227E+04  0.50400001928E-02 0. -1.
       -1   -1    0    0    0  501  0.00000000000E+00  0.00000000000E+00 -0.11292249689E+04  0.11292249689E+04  0.50400001928E-02 0.  1.
    10030    2    1    2    0    0  0.00000000000E+00  0.00000000000E+00  0.77533205382E+03  0.30337819916E+04  0.29330348411E+04 0.  0.
        5    1    3    3  502    0  0.43595987745E+03  0.11835088761E+03 -0.10554579572E+04  0.11480773218E+04  0.46999998093E+01 0.  1.
       -5    1    3    3    0  502 -0.43595987745E+03 -0.11835088761E+03  0.18307900110E+04  0.18857046698E+04  0.46999998093E+01 0. -1.
</event>
<event>
 5   0  0.1001961E-05  0.2481588E+04  0.7818609E-02  0.8409575E-01
        2   -1    0    0  501    0  0.00000000000E+00  0.00000000000E+00  0.14586190615E+04  0.14586190615E+04  0.25500000920E-02 0.  1.
       -2   -1    0    0    0  501  0.00000000000E+00  0.00000000000E+00 -0.10554978073E+04  0.10554978073E+04  0.25500000920E-02 0. -1.
    10030    2    1    2    0    0  0.00000000000E+00  0.00000000000E+00  0.40312125420E+03  0.25141168689E+04  0.24815875735E+04 0.  0.
        5    1    3    3  502    0  0.25811134601E+03  0.10795563581E+04  0.76334147521E+03  0.13471361086E+04  0.46999998093E+01 0.  1.
       -5    1    3    3    0  502 -0.25811134601E+03 -0.10795563581E+04 -0.36022022101E+03  0.11669807603E+04  0.46999998093E+01 0. -1.
</event>
<event>
 5   0  0.3807334E-06  0.1615589E+04  0.7818609E-02  0.8811028E-01
        1   -1    0    0  501    0  0.00000000000E+00  0.00000000000E+00  0.50517764288E+03  0.50517764291E+03  0.50400001928E-02 0. -1.
       -1   -1    0    0    0  501  0.00000000000E+00  0.00000000000E+00 -0.12916881944E+04  0.12916881944E+04  0.50400001928E-02 0.  1.
    10030    2    1    2    0    0  0.00000000000E+00  0.00000000000E+00 -0.78651055154E+03  0.17968658373E+04  0.16155890535E+04 0.  0.
        4    1    3    3  502    0  0.36899640396E+03  0.59904935141E+03 -0.83466454921E+03  0.10916432541E+04  0.12699999809E+01 0.  1.
       -4    1    3    3    0  502 -0.36899640396E+03 -0.59904935141E+03  0.48153997669E+02  0.70522258327E+03  0.12699999809E+01 0. -1.
</event>
<event>
 5   0  0.9797278E-06  0.1660077E+04  0.7818609E-02  0.8784467E-01
       -2   -1    0    0    0  501  0.00000000000E+00  0.00000000000E+00  0.75809634360E+03  0.75809634360E+03  0.25500000920E-02 0.  1.
        2   -1    0    0  501    0  0.00000000000E+00  0.00000000000E+00 -0.90880767031E+03  0.90880767031E+03  0.25500000920E-02 0. -1.
    10030    2    1    2    0    0  0.00000000000E+00  0.00000000000E+00 -0.15071132671E+03  0.16669040139E+04  0.16600768318E+04 0.  0.
        1    1    3    3  502    0 -0.53683599952E+03 -0.58688251672E+03 -0.31369187259E+03  0.85500091799E+03  0.50400001928E-02 0. -1.
       -1    1    3    3    0  502  0.53683599952E+03  0.58688251672E+03  0.16298054589E+03  0.81190309592E+03  0.50400001928E-02 0.  1.
</event>
<event>
 5   0  0.4139628E-06  0.2194339E+04  0.7818609E-02  0.8520788E-01
        1   -1    0    0  501    0  0.00000000000E+00  0.00000000000E+00  0.13866988634E+04  0.13866988634E+04  0.50400001928E-02 0.  1.
       -1   -1    0    0    0  501  0.00000000000E+00  0.00000000000E+00 -0.86809116570E+03  0.86809116571E+03  0.50400001928E-02 0. -1.
    10030    2    1    2    0    0  0.00000000000E+00  0.00000000000E+00  0.51860769769E+03  0.22547900291E+04  0.21943391104E+04 0.  0.
        5    1    3    3  502    0 -0.27922761488E+03 -0.50155432873E+03 -0.70145909095E+03  0.90641698564E+03  0.46999998093E+01 0. -1.
       -5    1    3    3    0  502  0.27922761488E+03  0.50155432873E+03  0.12200667886E+04  0.13483730435E+04  0.46999998093E+01 0.  1.
</event>
<event>
 5   0  0.4250961E-06  0.2825040E+04  0.7818609E-02  0.8295536E-01
        1   -1    0    0  501    0  0.00000000000E+00  0.00000000000E+00  0.19305956781E+04  0.19305956781E+04  0.50400001928E-02 0. -1.
       -1   -1    0    0    0  501  0.00000000000E+00  0.00000000000E+00 -0.10334699592E+04  0.10334699592E+04  0.50400001928E-02 0.  1.
    10030    2    1    2    0    0  0.00000000000E+00  0.00000000000E+00  0.89712571888E+03  0.29640656373E+04  0.28250399195E+04 0.  0.
        1    1    3    3  502    0 -0.52978483917E+03  0.76245427386E+03 -0.66834488946E+03  0.11439813752E+04  0.50400001928E-02 0.  1.
       -1    1    3    3    0  502  0.52978483917E+03 -0.76245427386E+03  0.15654706083E+04  0.18200842621E+04  0.50400001928E-02 0. -1.
</event>
<event>
 5   0  0.4250961E-06  0.2861610E+04  0.7818609E-02  0.8284392E-01
       -1   -1    0    0    0  501  0.00000000000E+00  0.00000000000E+00  0.10297214513E+04  0.10297214513E+04  0.50400001928E-02 0.  1.
        1   -1    0    0  501    0  0.00000000000E+00  0.00000000000E+00 -0.19881129064E+04  0.19881129064E+04  0.50400001928E-02 0. -1.
    10030    2    1    2    0    0  0.00000000000E+00  0.00000000000E+00 -0.95839145504E+03  0.30178343577E+04  0.28616096920E+04 0.  0.
        1    1    3    3  502    0 -0.11731493261E+04  0.36160114596E+03  0.29588928167E+03  0.12627688613E+04  0.50400001928E-02 0.  1.
       -1    1    3    3    0  502  0.11731493261E+04 -0.36160114596E+03 -0.12542807367E+04  0.17550654964E+04  0.50400001928E-02 0. -1.
</event>
<event>
 5   0  0.3807334E-06  0.1784093E+04  0.7818609E-02  0.8714805E-01
        1   -1    0    0  501    0  0.00000000000E+00  0.00000000000E+00  0.11352124974E+04  0.11352124974E+04  0.50400001928E-02 0.  1.
       -1   -1    0    0    0  501  0.00000000000E+00  0.00000000000E+00 -0.70096752411E+03  0.70096752413E+03  0.50400001928E-02 0. -1.
    10030    2    1    2    0    0  0.00000000000E+00  0.00000000000E+00  0.43424497331E+03  0.18361800216E+04  0.17840931519E+04 0.  0.
        4    1    3    3  502    0  0.38010077418E+03  0.25450371811E+03 -0.57106680941E+03  0.73168822239E+03  0.12699999809E+01 0. -1.
       -4    1    3    3    0  502 -0.38010077418E+03 -0.25450371811E+03  0.10053117827E+04  0.11044917992E+04  0.12699999809E+01 0.  1.
</event>
<event>
 5   0  0.1108153E-05  0.3107784E+04  0.7818609E-02  0.8213605E-01
       -2   -1    0    0    0  501  0.00000000000E+00  0.00000000000E+00  0.11834186619E+04  0.11834186619E+04  0.25500000920E-02 0. -1.
        2   -1    0    0  501    0  0.00000000000E+00  0.00000000000E+00 -0.20403429211E+04  0.20403429211E+04  0.25500000920E-02 0.  1.
    10030    2    1    2    0    0  0.00000000000E+00  0.00000000000E+00 -0.85692425927E+03  0.32237615830E+04  0.31077837051E+04 0.  0.
        4    1    3    3  502    0  0.37933610031E+03 -0.85516161552E+03  0.85855756523E+03  0.12697716217E+04  0.12699999809E+01 0. -1.
       -4    1    3    3    0  502 -0.37933610031E+03  0.85516161552E+03 -0.17154818245E+04  0.19539899613E+04  0.12699999809E+01 0.  1.
</event>
<event>
 5   0  0.1007567E-05  0.3102696E+04  0.7818609E-02  0.8214998E-01
       -2   -1    0    0    0  501  0.00000000000E+00  0.00000000000E+00  0.96089087263E+03  0.96089087264E+03  0.25500000920E-02 0. -1.
        2   -1    0    0  501    0  0.00000000000E+00  0.00000000000E+00 -0.25046352246E+04  0.25046352246E+04  0.25500000920E-02 0.  1.
    10030    2    1    2    0    0  0.00000000000E+00  0.00000000000E+00 -0.15437443520E+04  0.34655260973E+04  0.31026963284E+04 0.  0.
        3    1    3    3  502    0 -0.91293494831E+03 -0.71746457611E+03  0.37726083975E+03  0.12208732077E+04  0.10100000352E+00 0. -1.
       -3    1    3    3    0  502  0.91293494831E+03  0.71746457611E+03 -0.19210051917E+04  0.22446528896E+04  0.10100000352E+00 0.  1.
</event>
<event>
 5   0  0.3807334E-06  0.3084198E+04  0.7818609E-02  0.8220088E-01
       -1   -1    0    0    0  501  0.00000000000E+00  0.00000000000E+00  0.16753134153E+04  0.16753134153E+04  0.50400001928E-02 0.  1.
        1   -1    0    0  501    0  0.00000000000E+00  0.00000000000E+00 -0.14194771032E+04  0.14194771032E+04  0.50400001928E-02 0. -1.
    10030    2    1    2    0    0  0.00000000000E+00  0.00000000000E+00  0.25583631212E+03  0.30947905185E+04  0.30841978106E+04 0.  0.
        4    1    3    3  502    0  0.79990346777E+03  0.48704215626E+03 -0.11014475286E+04  0.14457675784E+04  0.12699999809E+01 0. -1.
       -4    1    3    3    0  502 -0.79990346777E+03 -0.48704215626E+03  0.13572838407E+04  0.16490229401E+04  0.12699999809E+01 0.  1.
</event>
<event>
 5   0  0.1001961E-05  0.1663512E+04  0.7818609E-02  0.8782453E-01
       -2   -1    0    0    0  501  0.00000000000E+00  0.00000000000E+00  0.82018578725E+03  0.82018578726E+03  0.25500000920E-02 0.  1.
        2   -1    0    0  501    0  0.00000000000E+00  0.00000000000E+00 -0.84348988573E+03  0.84348988574E+03  0.25500000920E-02 0. -1.
    10030    2    1    2    0    0  0.00000000000E+00  0.00000000000E+00 -0.23304098479E+02  0.16636756730E+04  0.16635124478E+04 0.  0.
        5    1    3    3  502    0 -0.65480409041E+03 -0.38804084769E+03  0.32371983179E+03  0.82714008232E+03  0.46999998093E+01 0.  1.
       -5    1    3    3    0  502  0.65480409041E+03  0.38804084769E+03 -0.34702393027E+03  0.83653559067E+03  0.46999998093E+01 0. -1.
</event>
<event>
 5   0  0.1007567E-05  0.1760716E+04  0.7818609E-02  0.8727474E-01
       -2   -1    0    0    0  501  0.00000000000E+00  0.00000000000E+00  0.41788149847E+03  0.41788149848E+03  0.25500000920E-02 0.  1.
        2   -1    0    0  501    0  0.00000000000E+00  0.00000000000E+00 -0.18546654282E+04  0.18546654282E+04  0.25500000920E-02 0. -1.
    10030    2    1    2    0    0  0.00000000000E+00  0.00000000000E+00 -0.14367839298E+04  0.22725469267E+04  0.17607161819E+04 0.  0.
        3    1    3    3  502    0  0.11726253036E+03  0.27100353561E+03  0.35205770449E+03  0.45949761135E+03  0.10100000352E+00 0.  1.
       -3    1    3    3    0  502 -0.11726253036E+03 -0.27100353561E+03 -0.17888416342E+04  0.18130493154E+04  0.10100000352E+00 0. -1.
</event>
<event>
 5   0  0.1108153E-05  0.2143797E+04  0.7818609E-02  0.8542192E-01
       -2   -1    0    0    0  501  0.00000000000E+00  0.00000000000E+00  0.11784490369E+04  0.11784490369E+04  0.25500000920E-02 0.  1.
        2   -1    0    0  501    0  0.00000000000E+00  0.00000000000E+00 -0.97498176265E+03  0.97498176265E+03  0.25500000920E-02 0. -1.
    10030    2    1    2    0    0  0.00000000000E+00  0.00000000000E+00  0.20346727425E+03  0.21534307996E+04  0.21437969299E+04 0.  0.
        4    1    3    3  502    0 -0.79521330879E+03 -0.40361257854E+03 -0.49566358783E+03  0.10202702217E+04  0.12699999809E+01 0. -1.
       -4    1    3    3    0  502  0.79521330879E+03  0.40361257854E+03  0.69913086209E+03  0.11331605779E+04  0.12699999809E+01 0.  1.
</event>
<event>
 5   0  0.1119100E-05  0.2796511E+04  0.7818609E-02  0.8304352E-01
        2   -1    0    0  501    0  0.00000000000E+00  0.00000000000E+00  0.19614419310E+04  0.19614419310E+04  0.25500000920E-02 0.  1.
       -2   -1    0    0    0  501  0.00000000000E+00  0.00000000000E+00 -0.99677627508E+03  0.99677627508E+03  0.25500000920E-02 0. -1.
    10030    2    1    2    0    0  0.00000000000E+00  0.00000000000E+00  0.96466565591E+03  0.29582182061E+04  0.27965112421E+04 0.  0.
        2    1    3    3  502    0 -0.12205104372E+04  0.67900386032E+03  0.41195122008E+03  0.14561578820E+04  0.25500000920E-02 0. -1.
       -2    1    3    3    0  502  0.12205104372E+04 -0.67900386032E+03  0.55271443583E+03  0.15020603241E+04  0.25500000920E-02 0.  1.
</event>
<event>
 5   0  0.1119100E-05  0.3129339E+04  0.7818609E-02  0.8207732E-01
        2   -1    0    0  501    0  0.00000000000E+00  0.00000000000E+00  0.16805566313E+04  0.16805566313E+04  0.25500000920E-02 0. -1.
       -2   -1    0    0    0  501  0.00000000000E+00  0.00000000000E+00 -0.14567737549E+04  0.14567737549E+04  0.25500000920E-02 0.  1.
    10030    2    1    2    0    0  0.00000000000E+00  0.00000000000E+00  0.22378287641E+03  0.31373303863E+04  0.31293390958E+04 0.  0.
        2    1    3    3  502    0  0.19061878683E+03  0.94296878530E+03 -0.11252228782E+04  0.14804229725E+04  0.25500000920E-02 0.  1.
       -2    1    3    3    0  502 -0.19061878683E+03 -0.94296878530E+03  0.13490057546E+04  0.16569074138E+04  0.25500000920E-02 0. -1.
</event>
<event>
 5   0  0.1119100E-05  0.3102743E+04  0.7818609E-02  0.8214985E-01
       -2   -1    0    0    0  501  0.00000000000E+00  0.00000000000E+00  0.10099682320E+04  0.10099682320E+04  0.25500000920E-02 0. -1.
        2   -1    0    0  501    0  0.00000000000E+00  0.00000000000E+00 -0.23829996703E+04  0.23829996703E+04  0.25500000920E-02 0.  1.
    10030    2    1    2    0    0  0.00000000000E+00  0.00000000000E+00 -0.13730314383E+04  0.33929679023E+04  0.31027432791E+04 0.  0.
        2    1    3    3  502    0 -0.89407340656E+03 -0.12508957615E+04 -0.46068885052E+03  0.16050986510E+04  0.25500000920E-02 0.  1.
       -2    1    3    3    0  502  0.89407340656E+03  0.12508957615E+04 -0.91234258779E+03  0.17878692513E+04  0.25500000920E-02 0. -1.
</event>
<event>
 5   0  0.1007567E-05  0.3152884E+04  0.7818609E-02  0.8201372E-01
       -2   -1    0    0    0  501  0.00000000000E+00  0.00000000000E+00  0.11154190493E+04  0.11154190493E+04  0.25500000920E-02 0.  1.
        2   -1    0    0  501    0  0.00000000000E+00  0.00000000000E+00 -0.22280142623E+04  0.22280142623E+04  0.25500000920E-02 0. -1.
    10030    2    1    2    0    0  0.00000000000E+00  0.00000000000E+00 -0.11125952130E+04  0.33434333116E+04  0.31528841085E+04 0.  0.
        3    1    3    3  502    0  0.12772839362E+04  0.92392311132E+03 -0.54673186045E+03  0.16685334599E+04  0.10100000352E+00 0.  1.
       -3    1    3    3    0  502 -0.12772839362E+04 -0.92392311132E+03 -0.56586335254E+03  0.16748998517E+04  0.10100000352E+00 0. -1.
</event>
<event>
 5   0  0.1108153E-05  0.3063390E+04  0.7818609E-02  0.8225858E-01
       -2   -1    0    0    0  501  0.00000000000E+00  0.00000000000E+00  0.11607217958E+04  0.11607217958E+04  0.25500000920E-02 0.  1.
        2   -1    0    0  501    0  0.00000000000E+00  0.00000000000E+00 -0.20212327035E+04  0.20212327036E+04  0.25500000920E-02 0. -1.
    10030    2    1    2    0    0  0.00000000000E+00  0.00000000000E+00 -0.86051090776E+03  0.31819544993E+04  0.30633895302E+04 0.  0.
        4    1    3    3  502    0  0.79039842730E+03 -0.11282518942E+04 -0.11258034056E+04  0.17790775507E+04  0.12699999809E+01 0. -1.
       -4    1    3    3    0  502 -0.79039842730E+03  0.11282518942E+04  0.26529249781E+03  0.14028769486E+04  0.12699999809E+01 0.  1.
</event>
<event>
 5   0  0.9797278E-06  0.3143732E+04  0.7818609E-02  0.8203837E-01
       -2   -1    0    0    0  501  0.00000000000E+00  0.00000000000E+00  0.13901464649E+04  0.13901464649E+04  0.25500000920E-02 0.  1.
        2   -1    0    0  501    0  0.00000000000E+00  0.00000000000E+00 -0.17773399693E+04  0.17773399693E+04  0.25500000920E-02 0. -1.
    10030    2    1    2    0    0  0.00000000000E+00  0.00000000000E+00 -0.38719350447E+03  0.31674864342E+04  0.31437320975E+04 0.  0.
        1    1    3    3  502    0  0.58450431738E+03 -0.89829226440E+03  0.96495632786E+03  0.14421217022E+04  0.50400001928E-02 0.  1.
       -1    1    3    3    0  502 -0.58450431738E+03  0.89829226440E+03 -0.13521498323E+04  0.17253647320E+04  0.50400001928E-02 0. -1.
</event>
<event>
 5   0  0.4250961E-06  0.2882871E+04  0.7818609E-02  0.8277992E-01
        1   -1    0    0  501    0  0.00000000000E+00  0.00000000000E+00  0.14159298327E+04  0.14159298327E+04  0.50400001928E-02 0. -1.
       -1   -1    0    0    0  501  0.00000000000E+00  0.00000000000E+00 -0.14674003111E+04  0.14674003111E+04  0.50400001928E-02 0.  1.
    10030    2    1    2    0    0  0.00000000000E+00  0.00000000000E+00 -0.51470478360E+02  0.28833301438E+04  0.28828707061E+04 0.  0.
        1    1    3    3  502    0 -0.86369352023E+03 -0.48962292377E+03  0.10194378913E+04  0.14230076313E+04  0.50400001928E-02 0. -1.
       -1    1    3    3    0  502  0.86369352023E+03  0.48962292377E+03 -0.10709083697E+04  0.14603225125E+04  0.50400001928E-02 0.  1.
</event>
<event>
 5   0  0.3838525E-06  0.3095830E+04  0.7818609E-02  0.8216883E-01
       -1   -1    0    0    0  501  0.00000000000E+00  0.00000000000E+00  0.23787640068E+04  0.23787640069E+04  0.50400001928E-02 0.  1.
        1   -1    0    0  501    0  0.00000000000E+00  0.00000000000E+00 -0.10072629225E+04  0.10072629225E+04  0.50400001928E-02 0. -1.
    10030    2    1    2    0    0  0.00000000000E+00  0.00000000000E+00  0.13715010843E+04  0.33860269294E+04  0.30958299601E+04 0.  0.
        3    1    3    3  502    0 -0.36809888573E+03 -0.72201228769E+03 -0.75667480793E+03  0.11087629631E+04  0.10100000352E+00 0. -1.
       -3    1    3    3    0  502  0.36809888573E+03  0.72201228769E+03  0.21281758923E+04  0.22772639662E+04  0.10100000352E+00 0.  1.
</event>
<event>
 5   0  0.4250961E-06  0.3105976E+04  0.7818609E-02  0.8214100E-01
       -1   -1    0    0    0  501  0.00000000000E+00  0.00000000000E+00  0.15037368785E+04  0.15037368785E+04  0.50400001928E-02 0. -1.
        1   -1    0    0  501    0  0.00000000000E+00  0.00000000000E+00 -0.16038522041E+04  0.16038522041E+04  0.50400001928E-02 0.  1.
    10030    2    1    2    0    0  0.00000000000E+00  0.00000000000E+00 -0.10011532558E+03  0.31075890826E+04  0.31059759864E+04 0.  0.
        1    1    3    3  502    0 -0.99737009499E+03  0.84675928600E+03  0.78705082399E+03  0.15268259214E+04  0.50400001928E-02 0. -1.
       -1    1    3    3    0  502  0.99737009499E+03 -0.84675928600E+03 -0.88716614957E+03  0.15807631612E+04  0.50400001928E-02 0.  1.
</event>
<event>
 5   0  0.1108153E-05  0.3022041E+04  0.7818609E-02  0.8237465E-01
        2   -1    0    0  501    0  0.00000000000E+00  0.00000000000E+00  0.20090652725E+04  0.20090652725E+04  0.25500000920E-02 0. -1.
       -2   -1    0    0    0  501  0.00000000000E+00  0.00000000000E+00 -0.11364406427E+04  0.11364406427E+04  0.25500000920E-02 0.  1.
    10030    2    1    2    0    0  0.00000000000E+00  0.00000000000E+00  0.87262462986E+03  0.31455059152E+04  0.30220413164E+04 0.  0.
        4    1    3    3  502    0 -0.13042494339E+04  0.67960925831E+03  0.75379551020E+02  0.14726231763E+04  0.12699999809E+01 0.  1.
       -4    1    3    3    0  502  0.13042494339E+04 -0.67960925831E+03  0.79724507884E+03  0.16728827390E+04  0.12699999809E+01 0. -1.
</event>
<event>
 5   0  0.1119100E-05  0.2215765E+04  0.7818609E-02  0.8511895E-01
        2   -1    0    0  501    0  0.00000000000E+00  0.00000000000E+00  0.22150892683E+04  0.22150892683E+04  0.25500000920E-02 0.  1.
       -2   -1    0    0    0  501  0.00000000000E+00  0.00000000000E+00 -0.55411029224E+03  0.55411029224E+03  0.25500000920E-02 0. -1.
    10030    2    1    2    0    0  0.00000000000E+00  0.00000000000E+00  0.16609789760E+04  0.27691995605E+04  0.22157651155E+04 0.  0.
        2    1    3    3  502    0  0.15247956220E+03  0.85204806974E+02 -0.53679333410E+03  0.56449708552E+03  0.25500000920E-02 0. -1.
       -2    1    3    3    0  502 -0.15247956220E+03 -0.85204806974E+02  0.21977723101E+04  0.22047024750E+04  0.25500000920E-02 0.  1.
</event>
<event>
 5   0  0.1119100E-05  0.2114687E+04  0.7818609E-02  0.8554801E-01
        2   -1    0    0  501    0  0.00000000000E+00  0.00000000000E+00  0.94311567464E+03  0.94311567464E+03  0.25500000920E-02 0.  1.
       -2   -1    0    0    0  501  0.00000000000E+00  0.00000000000E+00 -0.11854068712E+04  0.11854068712E+04  0.25500000920E-02 0. -1.
    10030    2    1    2    0    0  0.00000000000E+00  0.00000000000E+00 -0.24229119657E+03  0.21285225458E+04  0.21146874956E+04 0.  0.
        2    1    3    3  502    0  0.40531073464E+03 -0.15123204053E+03 -0.10922518470E+04  0.11748029702E+04  0.25500000920E-02 0. -1.
       -2    1    3    3    0  502 -0.40531073464E+03  0.15123204053E+03  0.84996065038E+03  0.95371957561E+03  0.25500000920E-02 0.  1.
</event>
<event>
 5   0  0.9797278E-06  0.3118282E+04  0.7818609E-02  0.8210738E-01
       -2   -1    0    0    0  501  0.00000000000E+00  0.00000000000E+00  0.14740064798E+04  0.14740064798E+04  0.25500000920E-02 0. -1.
        2   -1    0    0  501    0  0.00000000000E+00  0.00000000000E+00 -0.16491926472E+04  0.16491926472E+04  0.25500000920E-02 0.  1.
    10030    2    1    2    0    0  0.00000000000E+00  0.00000000000E+00 -0.17518616743E+03  0.31231991270E+04  0.31182819939E+04 0.  0.
        1    1    3    3  502    0  0.22780467329E+03 -0.73309416820E+03 -0.14467881144E+04  0.16378393928E+04  0.50400001928E-02 0.  1.
       -1    1    3    3    0  502 -0.22780467329E+03  0.73309416820E+03  0.12716019469E+04  0.14853597342E+04  0.50400001928E-02 0. -1.
</event>
<event>
 5   0  0.1001961E-05  0.2086234E+04  0.7818609E-02  0.8567332E-01
        2   -1    0    0  501    0  0.00000000000E+00  0.00000000000E+00  0.16561557678E+04  0.16561557678E+04  0.25500000920E-02 0.  1.
       -2   -1    0    0    0  501  0.00000000000E+00  0.00000000000E+00 -0.65699907376E+03  0.65699907377E+03  0.25500000920E-02 0. -1.
    10030    2    1    2    0    0  0.00000000000E+00  0.00000000000E+00  0.99915669405E+03  0.23131548416E+04  0.20862337410E+04 0.  0.
        5    1    3    3  502    0 -0.38549876150E+03 -0.14704187907E+03 -0.56266802285E+03  0.69774494140E+03  0.46999998093E+01 0. -1.
       -5    1    3    3    0  502  0.38549876150E+03  0.14704187907E+03  0.15618247169E+04  0.16154099002E+04  0.46999998093E+01 0.  1.
</event>
<event>
 5   0  0.3848286E-06  0.2093713E+04  0.7818609E-02  0.8564018E-01
        1   -1    0    0  501    0  0.00000000000E+00  0.00000000000E+00  0.11568540634E+04  0.11568540634E+04  0.50400001928E-02 0.  1.
       -1   -1    0    0    0  501  0.00000000000E+00  0.00000000000E+00 -0.94731811808E+03  0.94731811809E+03  0.50400001928E-02 0. -1.
    10030    2    1    2    0    0  0.00000000000E+00  0.00000000000E+00  0.20953594535E+03  0.21041721815E+04  0.20937132700E+04 0.  0.
        2    1    3    3  502    0  0.42131051777E+03 -0.37415837557E+03 -0.78191581254E+03  0.96378907459E+03  0.25500000920E-02 0. -1.
       -2    1    3    3    0  502 -0.42131051777E+03  0.37415837557E+03  0.99145175789E+03  0.11403831069E+04  0.25500000920E-02 0.  1.
</event>
<event>
 5   0  0.3838525E-06  0.3146844E+04  0.7818609E-02  0.8202998E-01
       -1   -1    0    0    0  501  0.00000000000E+00  0.00000000000E+00  0.14049197974E+04  0.14049197974E+04  0.50400001928E-02 0.  1.
        1   -1    0    0  501    0  0.00000000000E+00  0.00000000000E+00 -0.17621341792E+04  0.17621341792E+04  0.50400001928E-02 0. -1.
    10030    2    1    2    0    0  0.00000000000E+00  0.00000000000E+00 -0.35721438176E+03  0.31670539766E+04  0.31468442567E+04 0.  0.
        3    1    3    3  502    0  0.13455930957E+04  0.12075751549E+03 -0.99029405784E+03  0.16750777558E+04  0.10100000352E+00 0. -1.
       -3    1    3    3    0  502 -0.13455930957E+04 -0.12075751549E+03  0.63307967608E+03  0.14919762208E+04  0.10100000352E+00 0.  1.
</event>
<event>
 5   0  0.4250961E-06  0.1755256E+04  0.7818609E-02  0.8730463E-01
       -1   -1    0    0    0  501  0.00000000000E+00  0.00000000000E+00  0.71135799776E+03  0.71135799778E+03  0.50400001928E-02 0.  1.
        1   -1    0    0  501    0  0.00000000000E+00  0.00000000000E+00 -0.10827608106E+04  0.10827608106E+04  0.50400001928E-02 0. -1.
    10030    2    1    2    0    0  0.00000000000E+00  0.00000000000E+00 -0.37140281285E+03  0.17941188084E+04  0.17552556080E+04 0.  0.
        1    1    3    3  502    0 -0.58837894750E+02 -0.67230416586E+03  0.38776961806E+03  0.77834443918E+03  0.50400001928E-02 0.  1.
       -1    1    3    3    0  502  0.58837894750E+02  0.67230416586E+03 -0.75917243091E+03  0.10157743692E+04  0.50400001928E-02 0. -1.
</event>
<event>
 5   0  0.3848286E-06  0.2993131E+04  0.7818609E-02  0.8245695E-01
       -1   -1    0    0    0  501  0.00000000000E+00  0.00000000000E+00  0.13262162749E+04  0.13262162749E+04  0.50400001928E-02 0. -1.
        1   -1    0    0  501    0  0.00000000000E+00  0.00000000000E+00 -0.16887951497E+04  0.16887951497E+04  0.50400001928E-02 0.  1.
    10030    2    1    2    0    0  0.00000000000E+00  0.00000000000E+00 -0.36257887479E+03  0.30150114245E+04  0.29931305434E+04 0.  0.
        2    1    3    3  502    0 -0.78260730170E+03 -0.29095312242E+03  0.10697964061E+04  0.13570527841E+04  0.25500000920E-02 0. -1.
       -2    1    3    3    0  502  0.78260730170E+03  0.29095312242E+03 -0.14323752809E+04  0.16579586405E+04  0.25500000920E-02 0.  1.
</event>
<event>
 5   0  0.1007567E-05  0.3117653E+04  0.7818609E-02  0.8210910E-01
        2   -1    0    0  501    0  0.00000000000E+00  0.00000000000E+00  0.20068420108E+04  0.20068420108E+04  0.25500000920E-02 0.  1.
       -2   -1    0    0    0  501  0.00000000000E+00  0.00000000000E+00 -0.12108275843E+04  0.12108275843E+04  0.25500000920E-02 0. -1.
    10030    2    1    2    0    0  0.00000000000E+00  0.00000000000E+00  0.79601442644E+03  0.32176695951E+04  0.31176527479E+04 0.  0.
        3    1    3    3  502    0 -0.11620150585E+04 -0.96367360876E+03  0.79905240297E+03  0.17080487620E+04  0.10100000352E+00 0.  1.
       -3    1    3    3    0  502  0.11620150585E+04  0.96367360876E+03 -0.30379765349E+01  0.15096208332E+04  0.10100000352E+00 0. -1.
</event>
<event>
 5   0  0.3848286E-06  0.3172205E+04  0.7818609E-02  0.8196197E-01
        1   -1    0    0  501    0  0.00000000000E+00  0.00000000000E+00  0.19382136381E+04  0.19382136381E+04  0.50400001928E-02 0. -1.
       -1   -1    0    0    0  501  0.00000000000E+00  0.00000000000E+00 -0.12979588105E+04  0.12979588105E+04  0.50400001928E-02 0.  1.
    10030    2    1    2    0    0  0.00000000000E+00  0.00000000000E+00  0.64025482757E+03  0.32361724486E+04  0.31722052066E+04 0.  0.
        2    1    3    3  502    0 -0.82021891108E+03 -0.11824333609E+04 -0.36026503644E+03  0.14834751806E+04  0.25500000920E-02 0. -1.
       -2    1    3    3    0  502  0.82021891108E+03  0.11824333609E+04  0.10005198640E+04  0.17526972680E+04  0.25500000920E-02 0.  1.
</event>
<event>
 5   0  0.1001961E-05  0.3163944E+04  0.7818609E-02  0.8198405E-01
        2   -1    0    0  501    0  0.00000000000E+00  0.00000000000E+00  0.16118796828E+04  0.16118796828E+04  0.25500000920E-02 0.  1.
       -2   -1    0    0    0  501  0.00000000000E+00  0.00000000000E+00 -0.15526195057E+04  0.15526195057E+04  0.25500000920E-02 0. -1.
    10030    2    1    2    0    0  0.00000000000E+00  0.00000000000E+00  0.59260177163E+02  0.31644991885E+04  0.31639442703E+04 0.  0.
        5    1    3    3  502    0  0.19998541691E+03 -0.14275082422E+03  0.15926715266E+04  0.16115199802E+04  0.46999998093E+01 0.  1.
       -5    1    3    3    0  502 -0.19998541691E+03  0.14275082422E+03 -0.15334113495E+04  0.15529792083E+04  0.46999998093E+01 0. -1.
</event>
<event>
 5   0  0.9797278E-06  0.3442899E+04  0.7818609E-02  0.8127457E-01
        2   -1    0    0  501    0  0.00000000000E+00  0.00000000000E+00  0.24451300543E+04  0.24451300543E+04  0.25500000920E-02 0. -1.
       -2   -1    0    0    0  501  0.00000000000E+00  0.00000000000E+00 -0.12119551824E+04  0.12119551824E+04  0.25500000920E-02 0.  1.
    10030    2    1    2    0    0  0.00000000000E+00  0.00000000000E+00  0.12331748719E+04  0.36570852368E+04  0.34428988025E+04 0.  0.
        1    1    3    3  502    0  0.61894168796E+03  0.65145744662E+03  0.21762310645E+04  0.23544568937E+04  0.50400001928E-02 0. -1.
       -1    1    3    3    0  502 -0.61894168796E+03 -0.65145744662E+03 -0.94305619260E+03  0.13026283431E+04  0.50400001928E-02 0.  1.
</event>
<event>
 5   0  0.4139628E-06  0.3123034E+04  0.7818609E-02  0.8209445E-01
       -1   -1    0    0    0  501  0.00000000000E+00  0.00000000000E+00  0.12888277419E+04  0.12888277419E+04  0.50400001928E-02 0.  1.
        1   -1    0    0  501    0  0.00000000000E+00  0.00000000000E+00 -0.18919012544E+04  0.18919012544E+04  0.50400001928E-02 0. -1.
    10030    2    1    2    0    0  0.00000000000E+00  0.00000000000E+00 -0.60307351254E+03  0.31807289963E+04  0.31230336672E+04 0.  0.
        5    1    3    3  502    0  0.12331512569E+04 -0.41458679047E+03  0.57799600407E+03  0.14236030696E+04  0.46999998093E+01 0.  1.
       -5    1    3    3    0  502 -0.12331512569E+04  0.41458679047E+03 -0.11810695166E+04  0.17571259267E+04  0.46999998093E+01 0. -1.
</event>
<event>
 5   0  0.3838525E-06  0.3094296E+04  0.7818609E-02  0.8217305E-01
        1   -1    0    0  501    0  0.00000000000E+00  0.00000000000E+00  0.19000156480E+04  0.19000156480E+04  0.50400001928E-02 0.  1.
       -1   -1    0    0    0  501  0.00000000000E+00  0.00000000000E+00 -0.12598143753E+04  0.12598143753E+04  0.50400001928E-02 0. -1.
    10030    2    1    2    0    0  0.00000000000E+00  0.00000000000E+00  0.64020127270E+03  0.31598300232E+04  0.30942960599E+04 0.  0.
        3    1    3    3  502    0 -0.28507755018E+03 -0.97092373596E+03  0.15152312263E+04  0.18220559240E+04  0.10100000352E+00 0.  1.
       -3    1    3    3    0  502  0.28507755018E+03  0.97092373596E+03 -0.87502995363E+03  0.13377740993E+04  0.10100000352E+00 0. -1.
</event>
<event>
 5   0  0.3807334E-06  0.3078562E+04  0.7818609E-02  0.8221646E-01
       -1   -1    0    0    0  501  0.00000000000E+00  0.00000000000E+00  0.14537308825E+04  0.14537308825E+04  0.50400001928E-02 0. -1.
        1   -1    0    0  501    0  0.00000000000E+00  0.00000000000E+00 -0.16298655359E+04  0.16298655359E+04  0.50400001928E-02 0.  1.
    10030    2    1    2    0    0  0.00000000000E+00  0.00000000000E+00 -0.17613465340E+03  0.30835964184E+04  0.30785619135E+04 0.  0.
        4    1    3    3  502    0 -0.26382169244E+03  0.87194422255E+02 -0.16045377774E+04  0.16284188174E+04  0.12699999809E+01 0.  1.
       -4    1    3    3    0  502  0.26382169244E+03 -0.87194422255E+02  0.14284031240E+04  0.14551776010E+04  0.12699999809E+01 0. -1.
</event>
<event>
 5   0  0.4139628E-06  0.3143082E+04  0.7818609E-02  0.8204013E-01
        1   -1    0    0  501    0  0.00000000000E+00  0.00000000000E+00  0.10788789898E+04  0.10788789898E+04  0.50400001928E-02 0. -1.
       -1   -1    0    0    0  501  0.00000000000E+00  0.00000000000E+00 -0.22891738057E+04  0.22891738057E+04  0.50400001928E-02 0.  1.
    10030    2    1    2    0    0  0.00000000000E+00  0.00000000000E+00 -0.12102948159E+04  0.33680527956E+04  0.31430822599E+04 0.  0.
        5    1    3    3  502    0  0.93354209488E+03 -0.35418023169E+03 -0.19055904584E+04  0.21513348332E+04  0.46999998093E+01 0.  1.
       -5    1    3    3    0  502 -0.93354209488E+03  0.35418023169E+03  0.69529564252E+03  0.12167179624E+04  0.46999998093E+01 0. -1.
</event>
<event>
 5   0  0.1119100E-05  0.3002693E+04  0.7818609E-02  0.8242962E-01
        2   -1    0    0  501    0  0.00000000000E+00  0.00000000000E+00  0.24150521009E+04  0.24150521009E+04  0.25500000920E-02 0.  1.
       -2   -1    0    0    0  501  0.00000000000E+00  0.00000000000E+00 -0.93333002800E+03  0.93333002800E+03  0.25500000920E-02 0. -1.
    10030    2    1    2    0    0  0.00000000000E+00  0.00000000000E+00  0.14817220729E+04  0.33483821289E+04  0.30026925550E+04 0.  0.
        2    1    3    3  502    0  0.56364252871E+03 -0.71282467495E+03  0.20735322914E+04  0.22639231614E+04  0.25500000920E-02 0.  1.
       -2    1    3    3    0  502 -0.56364252871E+03  0.71282467495E+03 -0.59181021850E+03  0.10844589675E+04  0.25500000920E-02 0. -1.
</event>
<event>
 5   0  0.3848286E-06  0.3591243E+04  0.7818609E-02  0.8092500E-01
       -1   -1    0    0    0  501  0.00000000000E+00  0.00000000000E+00  0.17866317869E+04  0.17866317869E+04  0.50400001928E-02 0. -1.
        1   -1    0    0  501    0  0.00000000000E+00  0.00000000000E+00 -0.18046568630E+04  0.18046568630E+04  0.50400001928E-02 0.  1.
    10030    2    1    2    0    0  0.00000000000E+00  0.00000000000E+00 -0.18025076157E+02  0.35912886499E+04  0.35912434147E+04 0.  0.
        2    1    3    3  502    0  0.53913636150E+03 -0.58189051654E+03 -0.16199309407E+04  0.18037297031E+04  0.25500000920E-02 0.  1.
       -2    1    3    3    0  502 -0.53913636150E+03  0.58189051654E+03  0.16019058645E+04  0.17875589468E+04  0.25500000920E-02 0. -1.
</event>
<event>
 5   0  0.1001961E-05  0.1996695E+04  0.7818609E-02  0.8608167E-01
       -2   -1    0    0    0  501  0.00000000000E+00  0.00000000000E+00  0.11022955573E+04  0.11022955573E+04  0.25500000920E-02 0.  1.
        2   -1    0    0  501    0  0.00000000000E+00  0.00000000000E+00 -0.90420208121E+03  0.90420208121E+03  0.25500000920E-02 0. -1.
    10030    2    1    2    0    0  0.00000000000E+00  0.00000000000E+00  0.19809347605E+03  0.20064976385E+04  0.19966952066E+04 0.  0.
        5    1    3    3  502    0  0.95702370549E+03 -0.13155765779E+03 -0.15413070284E+03  0.97825362445E+03  0.46999998093E+01 0. -1.
       -5    1    3    3    0  502 -0.95702370549E+03  0.13155765779E+03  0.35222417889E+03  0.10282440140E+04  0.46999998093E+01 0.  1.
</event>
<event>
 5   0  0.4250961E-06  0.3017993E+04  0.7818609E-02  0.8238611E-01
        1   -1    0    0  501    0  0.00000000000E+00  0.00000000000E+00  0.23928206817E+04  0.23928206817E+04  0.50400001928E-02 0. -1.
       -1   -1    0    0    0  501  0.00000000000E+00  0.00000000000E+00 -0.95162620439E+03  0.95162620440E+03  0.50400001928E-02 0.  1.
    10030    2    1    2    0    0  0.00000000000E+00  0.00000000000E+00  0.14411944773E+04  0.33444468861E+04  0.30179932824E+04 0.  0.
        1    1    3    3  502    0  0.14425037923E+04  0.14745075713E+03  0.11835307453E+04  0.18717115007E+04  0.50400001928E-02 0. -1.
       -1    1    3    3    0  502 -0.14425037923E+04 -0.14745075713E+03  0.25766373204E+03  0.14727353854E+04  0.50400001928E-02 0.  1.
</event>
<event>
 5   0  0.1007567E-05  0.2978839E+04  0.7818609E-02  0.8249800E-01
        2   -1    0    0  501    0  0.00000000000E+00  0.00000000000E+00  0.16611209957E+04  0.16611209957E+04  0.25500000920E-02 0. -1.
       -2   -1    0    0    0  501  0.00000000000E+00  0.00000000000E+00 -0.13354656004E+04  0.13354656004E+04  0.25500000920E-02 0.  1.
    10030    2    1    2    0    0  0.00000000000E+00  0.00000000000E+00  0.32565539527E+03  0.29965865961E+04  0.29788386649E+04 0.  0.
        3    1    3    3  502    0  0.86161859009E+03  0.20374609615E+03 -0.10420021479E+04  0.13673578730E+04  0.10100000352E+00 0.  1.
       -3    1    3    3    0  502 -0.86161859009E+03 -0.20374609615E+03  0.13676575432E+04  0.16292287231E+04  0.10100000352E+00 0. -1.
</event>
<event>
 5   0  0.1001961E-05  0.3067246E+04  0.7818609E-02  0.8224785E-01
        2   -1    0    0  501    0  0.00000000000E+00  0.00000000000E+00  0.19565971392E+04  0.19565971392E+04  0.25500000920E-02 0. -1.
       -2   -1    0    0    0  501  0.00000000000E+00  0.00000000000E+00 -0.12020866378E+04  0.12020866378E+04  0.25500000920E-02 0.  1.
    10030    2    1    2    0    0  0.00000000000E+00  0.00000000000E+00  0.75451050132E+03  0.31586837770E+04  0.30672458504E+04 0.  0.
        5    1    3    3  502    0  0.12216067197E+04  0.90232847933E+03  0.15769159542E+03  0.15268950166E+04  0.46999998093E+01 0. -1.
       -5    1    3    3    0  502 -0.12216067197E+04 -0.90232847933E+03  0.59681890590E+03  0.16317887605E+04  0.46999998093E+01 0.  1.
</event>
<event>
 5   0  0.1001961E-05  0.3051951E+04  0.7818609E-02  0.8229049E-01
       -2   -1    0    0    0  501  0.00000000000E+00  0.00000000000E+00  0.23142117229E+04  0.23142117229E+04  0.25500000920E-02 0. -1.
        2   -1    0    0  501    0  0.00000000000E+00  0.00000000000E+00 -0.10062182079E+04  0.10062182079E+04  0.25500000920E-02 0.  1.
    10030    2    1    2    0    0  0.00000000000E+00  0.00000000000E+00  0.13079935150E+04  0.33204299308E+04  0.30519514888E+04 0.  0.
        5    1    3    3  502    0  0.74510225037E+03  0.23088741217E+03  0.20808940831E+04  0.22223025526E+04  0.46999998093E+01 0. -1.
       -5    1    3    3    0  502 -0.74510225037E+03 -0.23088741217E+03 -0.77290056802E+03  0.10981273782E+04  0.46999998093E+01 0.  1.
</event>
<event>
 5   0  0.1007567E-05  0.1547277E+04  0.7818609E-02  0.8853609E-01
        2   -1    0    0  501    0  0.00000000000E+00  0.00000000000E+00  0.12673624860E+04  0.12673624860E+04  0.25500000920E-02 0.  1.
       -2   -1    0    0    0  501  0.00000000000E+00  0.00000000000E+00 -0.47225367816E+03  0.47225367816E+03  0.25500000920E-02 0. -1.
    10030    2    1    2    0    0  0.00000000000E+00  0.00000000000E+00  0.79510880784E+03  0.17396161642E+04  0.15472770865E+04 0.  0.
        3    1    3    3  502    0  0.59791530822E+03  0.15858614409E+01  0.94950993802E+03  0.11220848290E+04  0.10100000352E+00 0.  1.
       -3    1    3    3    0  502 -0.59791530822E+03 -0.15858614409E+01 -0.15440113018E+03  0.61753133521E+03  0.10100000352E+00 0. -1.
</event>
<event>
 5   0  0.4250961E-06  0.1932636E+04  0.7818609E-02  0.8638780E-01
       -1   -1    0    0    0  501  0.00000000000E+00  0.00000000000E+00  0.48692824896E+03  0.48692824898E+03  0.50400001928E-02 0. -1.
        1   -1    0    0  501    0  0.00000000000E+00  0.00000000000E+00 -0.19176766127E+04  0.19176766127E+04  0.50400001928E-02 0.  1.
    10030    2    1    2    0    0  0.00000000000E+00  0.00000000000E+00 -0.14307483637E+04  0.24046048617E+04  0.19326364533E+04 0.  0.
        1    1    3    3  502    0 -0.26821563072E+03  0.48289011359E+03 -0.17018750485E+04  0.17892739218E+04  0.50400001928E-02 0.  1.
       -1    1    3    3    0  502  0.26821563072E+03 -0.48289011359E+03  0.27112668479E+03  0.61533093990E+03  0.50400001928E-02 0. -1.
</event>
<event>
 5   0  0.3848286E-06  0.2982158E+04  0.7818609E-02  0.8248844E-01
       -1   -1    0    0    0  501  0.00000000000E+00  0.00000000000E+00  0.88857876176E+03  0.88857876177E+03  0.50400001928E-02 0. -1.
        1   -1    0    0  501    0  0.00000000000E+00  0.00000000000E+00 -0.25021036630E+04  0.25021036630E+04  0.50400001928E-02 0.  1.
    10030    2    1    2    0    0  0.00000000000E+00  0.00000000000E+00 -0.16135249013E+04  0.33906824248E+04  0.29821577253E+04 0.  0.
        2    1    3    3  502    0 -0.42825509569E+03  0.14047104746E+04 -0.51311469634E+03  0.15556029815E+04  0.25500000920E-02 0. -1.
       -2    1    3    3    0  502  0.42825509569E+03 -0.14047104746E+04 -0.11004102049E+04  0.18350794433E+04  0.25500000920E-02 0.  1.
</event>
<event>
 5   0  0.4139628E-06  0.3058513E+04  0.7818609E-02  0.8227217E-01
       -1   -1    0    0    0  501  0.00000000000E+00  0.00000000000E+00  0.77528790902E+03  0.77528790904E+03  0.50400001928E-02 0. -1.
        1   -1    0    0  501    0  0.00000000000E+00  0.00000000000E+00 -0.30164614588E+04  0.30164614588E+04  0.50400001928E-02 0.  1.
    10030    2    1    2    0    0  0.00000000000E+00  0.00000000000E+00 -0.22411735498E+04  0.37917493678E+04  0.30585134278E+04 0.  0.
        5    1    3    3  502    0 -0.13889717977E+04  0.33857765053E+02 -0.32849826566E+03  0.14276982187E+04  0.46999998093E+01 0. -1.
       -5    1    3    3    0  502  0.13889717977E+04 -0.33857765053E+02 -0.19126752841E+04  0.23640511491E+04  0.46999998093E+01 0.  1.
</event>
<event>
 5   0  0.1119100E-05  0.2745450E+04  0.7818609E-02  0.8320407E-01
       -2   -1    0    0    0  501  0.00000000000E+00  0.00000000000E+00  0.12881799169E+04  0.12881799169E+04  0.25500000920E-02 0. -1.
        2   -1    0    0  501    0  0.00000000000E+00  0.00000000000E+00 -0.14628184396E+04  0.14628184396E+04  0.25500000920E-02 0.  1.
    10030    2    1    2    0    0  0.00000000000E+00  0.00000000000E+00 -0.17463852276E+03  0.27509983565E+04  0.27454495705E+04 0.  0.
        2    1    3    3  502    0  0.90425094295E+03  0.10184700395E+04 -0.25919537133E+03  0.13864101953E+04  0.25500000920E-02 0. -1.
       -2    1    3    3    0  502 -0.90425094295E+03 -0.10184700395E+04  0.84556848571E+02  0.13645881612E+04  0.25500000920E-02 0.  1.
</event>
<event>
 5   0  0.3838525E-06  0.3124775E+04  0.7818609E-02  0.8208971E-01
        1   -1    0    0  501    0  0.00000000000E+00  0.00000000000E+00  0.16226836776E+04  0.16226836776E+04  0.50400001928E-02 0. -1.
       -1   -1    0    0    0  501  0.00000000000E+00  0.00000000000E+00 -0.15043314365E+04  0.15043314365E+04  0.50400001928E-02 0.  1.
    10030    2    1    2    0    0  0.00000000000E+00  0.00000000000E+00  0.11835224108E+03  0.31270151141E+04  0.31247745952E+04 0.  0.
        3    1    3    3  502    0  0.11275335392E+04 -0.53545790519E+03  0.99953441651E+03  0.15990985305E+04  0.10100000352E+00 0. -1.
       -3    1    3    3    0  502 -0.11275335392E+04  0.53545790519E+03 -0.88118217543E+03  0.15279165837E+04  0.10100000352E+00 0.  1.
</event>
<event>
 5   0  0.3807334E-06  0.3195272E+04  0.7818609E-02  0.8190067E-01
        1   -1    0    0  501    0  0.00000000000E+00  0.00000000000E+00  0.26332458630E+04  0.26332458630E+04  0.50400001928E-02 0.  1.
       -1   -1    0    0    0  501  0.00000000000E+00  0.00000000000E+00 -0.96931377718E+03  0.96931377719E+03  0.50400001928E-02 0. -1.
    10030    2    1    2    0    0  0.00000000000E+00  0.00000000000E+00  0.16639320858E+04  0.36025596402E+04  0.31952724415E+04 0.  0.
        4    1    3    3  502    0 -0.60342574788E+02  0.14373685876E+04  0.48584181049E+02  0.14394553548E+04  0.12699999809E+01 0. -1.
       -4    1    3    3    0  502  0.60342574788E+02 -0.14373685876E+04  0.16153479048E+04  0.21631042854E+04  0.12699999809E+01 0.  1.
</event>
<event>
 5   0  0.1108153E-05  0.3115127E+04  0.7818609E-02  0.8211599E-01
        2   -1    0    0  501    0  0.00000000000E+00  0.00000000000E+00  0.19264708416E+04  0.19264708416E+04  0.25500000920E-02 0. -1.
       -2   -1    0    0    0  501  0.00000000000E+00  0.00000000000E+00 -0.12592998392E+04  0.12592998392E+04  0.25500000920E-02 0.  1.
    10030    2    1    2    0    0  0.00000000000E+00  0.00000000000E+00  0.66717100234E+03  0.31857706808E+04  0.31151272340E+04 0.  0.
        4    1    3    3  502    0  0.72124324365E+03  0.22052307672E+02 -0.10780521026E+04  0.12972571332E+04  0.12699999809E+01 0.  1.
       -4    1    3    3    0  502 -0.72124324365E+03 -0.22052307672E+02  0.17452231049E+04  0.18885135476E+04  0.12699999809E+01 0. -1.
</event>
<event>
 5   0  0.3807334E-06  0.2102002E+04  0.7818609E-02  0.8560362E-01
        1   -1    0    0  501    0  0.00000000000E+00  0.00000000000E+00  0.11603947278E+04  0.11603947278E+04  0.50400001928E-02 0.  1.
       -1   -1    0    0    0  501  0.00000000000E+00  0.00000000000E+00 -0.95192040007E+03  0.95192040009E+03  0.50400001928E-02 0. -1.
    10030    2    1    2    0    0  0.00000000000E+00  0.00000000000E+00  0.20847432771E+03  0.21123151279E+04  0.21020022964E+04 0.  0.
        4    1    3    3  502    0 -0.36499162973E+03 -0.33363486249E+03  0.10361871301E+04  0.11481360950E+04  0.12699999809E+01 0.  1.
       -4    1    3    3    0  502  0.36499162973E+03  0.33363486249E+03 -0.82771280239E+03  0.96417903285E+03  0.12699999809E+01 0. -1.
</event>
<event>
 5   0  0.3807334E-06  0.1717810E+04  0.7818609E-02  0.8751271E-01
       -1   -1    0    0    0  501  0.00000000000E+00  0.00000000000E+00  0.10635682681E+04  0.10635682681E+04  0.50400001928E-02 0.  1.
        1   -1    0    0  501    0  0.00000000000E+00  0.00000000000E+00 -0.69362564084E+03  0.69362564086E+03  0.50400001928E-02 0. -1.
    10030    2    1    2    0    0  0.00000000000E+00  0.00000000000E+00  0.36994262721E+03  0.17571939089E+04  0.17178104919E+04 0.  0.
        4    1    3    3  502    0 -0.35990557898E+03  0.68938181939E+03 -0.18799348914E+03  0.80007654855E+03  0.12699999809E+01 0. -1.
       -4    1    3    3    0  502  0.35990557898E+03 -0.68938181939E+03  0.55793611636E+03  0.95711736037E+03  0.12699999809E+01 0.  1.
</event>
<event>
 5   0  0.4250961E-06  0.3065849E+04  0.7818609E-02  0.8225173E-01
        1   -1    0    0  501    0  0.00000000000E+00  0.00000000000E+00  0.15760257439E+04  0.15760257439E+04  0.50400001928E-02 0. -1.
       -1   -1    0    0    0  501  0.00000000000E+00  0.00000000000E+00 -0.14910021704E+04  0.14910021704E+04  0.50400001928E-02 0.  1.
    10030    2    1    2    0    0  0.00000000000E+00  0.00000000000E+00  0.85023573441E+02  0.30670279143E+04  0.30658491840E+04 0.  0.
        1    1    3    3  502    0 -0.14325706687E+04  0.30926205907E+02  0.58737029922E+03  0.15486184228E+04  0.50400001928E-02 0. -1.
       -1    1    3    3    0  502  0.14325706687E+04 -0.30926205907E+02 -0.50234672578E+03  0.15184094915E+04  0.50400001928E-02 0.  1.
</event>
<event>
 5   0  0.9797278E-06  0.3106626E+04  0.7818609E-02  0.8213922E-01
       -2   -1    0    0    0  501  0.00000000000E+00  0.00000000000E+00  0.15479491822E+04  0.15479491822E+04  0.25500000920E-02 0. -1.
        2   -1    0    0  501    0  0.00000000000E+00  0.00000000000E+00 -0.15586951474E+04  0.15586951474E+04  0.25500000920E-02 0.  1.
    10030    2    1    2    0    0  0.00000000000E+00  0.00000000000E+00 -0.10745965199E+02  0.31066443297E+04  0.31066257443E+04 0.  0.
        1    1    3    3  502    0  0.92606623269E+03 -0.91617806338E+03  0.84068170368E+03  0.15503956392E+04  0.50400001928E-02 0. -1.
       -1    1    3    3    0  502 -0.92606623269E+03  0.91617806338E+03 -0.85142766888E+03  0.15562486904E+04  0.50400001928E-02 0.  1.
</event>
<event>
 5   0  0.3838525E-06  0.3208928E+04  0.7818609E-02  0.8186463E-01
       -1   -1    0    0    0  501  0.00000000000E+00  0.00000000000E+00  0.14770222366E+04  0.14770222366E+04  0.50400001928E-02 0. -1.
        1   -1    0    0  501    0  0.00000000000E+00  0.00000000000E+00 -0.17429015536E+04  0.17429015536E+04  0.50400001928E-02 0.  1.
    10030    2    1    2    0    0  0.00000000000E+00  0.00000000000E+00 -0.26587931699E+03  0.32199237902E+04  0.32089277654E+04 0.  0.
        3    1    3    3  502    0 -0.12637432371E+04 -0.92073224421E+03 -0.49404713058E+03  0.16397796841E+04  0.10100000352E+00 0.  1.
       -3    1    3    3    0  502  0.12637432371E+04  0.92073224421E+03  0.22816781359E+03  0.15801441062E+04  0.10100000352E+00 0. -1.
</event>
<event>
 5   0  0.1119100E-05  0.2456445E+04  0.7818609E-02  0.8418669E-01
       -2   -1    0    0    0  501  0.00000000000E+00  0.00000000000E+00  0.91203734197E+03  0.91203734197E+03  0.25500000920E-02 0.  1.
        2   -1    0    0  501    0  0.00000000000E+00  0.00000000000E+00 -0.16540230303E+04  0.16540230303E+04  0.25500000920E-02 0. -1.
    10030    2    1    2    0    0  0.00000000000E+00  0.00000000000E+00 -0.74198568835E+03  0.25660603723E+04  0.24564452106E+04 0.  0.
        2    1    3    3  502    0  0.93521603910E+03 -0.60335792878E+03  0.17166964286E+03  0.11261173546E+04  0.25500000920E-02 0.  1.
       -2    1    3    3    0  502 -0.93521603910E+03  0.60335792878E+03 -0.91365533120E+03  0.14399430177E+04  0.25500000920E-02 0. -1.
</event>
<event>
 5   0  0.1007567E-05  0.2234534E+04  0.7818609E-02  0.8504190E-01
        2   -1    0    0  501    0  0.00000000000E+00  0.00000000000E+00  0.19726683557E+04  0.19726683557E+04  0.25500000920E-02 0. -1.
       -2   -1    0    0    0  501  0.00000000000E+00  0.00000000000E+00 -0.63279029530E+03  0.63279029530E+03  0.25500000920E-02 0.  1.
    10030    2    1    2    0    0  0.00000000000E+00  0.00000000000E+00  0.13398780604E+04  0.26054586510E+04  0.22345338586E+04 0.  0.
        3    1    3    3  502    0 -0.17459200280E+03  0.11301573538E+03  0.19498986169E+04  0.19609588344E+04  0.10100000352E+00 0. -1.
       -3    1    3    3    0  502  0.17459200280E+03 -0.11301573538E+03 -0.61002055656E+03  0.64449981653E+03  0.10100000352E+00 0.  1.
</event>
<event>
 5   0  0.3493125E-06  0.2968247E+04  0.7818609E-02  0.8252857E-01
       -3   -1    0    0    0  501  0.00000000000E+00  0.00000000000E+00  0.14242821207E+04  0.14242821243E+04  0.10100000352E+00 0. -1.
        3   -1    0    0  501    0  0.00000000000E+00  0.00000000000E+00 -0.15464792680E+04  0.15464792713E+04  0.10100000352E+00 0.  1.
    10030    2    1    2    0    0  0.00000000000E+00  0.00000000000E+00 -0.12219714733E+03  0.29707613956E+04  0.29682471472E+04 0.  0.
        5    1    3    3  502    0  0.38311171701E+03  0.69810041044E+03 -0.13145498914E+04  0.15369392563E+04  0.46999998093E+01 0.  1.
       -5    1    3    3    0  502 -0.38311171701E+03 -0.69810041044E+03  0.11923527440E+04  0.14338221392E+04  0.46999998093E+01 0. -1.
</event>
<event>
 5   0  0.4139628E-06  0.2674865E+04  0.7818609E-02  0.8343207E-01
        1   -1    0    0  501    0  0.00000000000E+00  0.00000000000E+00  0.17256102253E+04  0.17256102253E+04  0.50400001928E-02 0. -1.
       -1   -1    0    0    0  501  0.00000000000E+00  0.00000000000E+00 -0.10365756989E+04  0.10365756989E+04  0.50400001928E-02 0.  1.
    10030    2    1    2    0    0  0.00000000000E+00  0.00000000000E+00  0.68903452647E+03  0.27621859242E+04  0.26748649501E+04 0.  0.
        5    1    3    3  502    0 -0.83073331575E+02 -0.72849078994E+03  0.14995589849E+04  0.16692211503E+04  0.46999998093E+01 0. -1.
       -5    1    3    3    0  502  0.83073331575E+02  0.72849078994E+03 -0.81052445840E+03  0.10929647740E+04  0.46999998093E+01 0.  1.
</event>
<event>
 5   0  0.1108153E-05  0.2997019E+04  0.7818609E-02  0.8244583E-01
       -2   -1    0    0    0  501  0.00000000000E+00  0.00000000000E+00  0.90055173371E+03  0.90055173371E+03  0.25500000920E-02 0.  1.
        2   -1    0    0  501    0  0.00000000000E+00  0.00000000000E+00 -0.24935058583E+04  0.24935058583E+04  0.25500000920E-02 0. -1.
    10030    2    1    2    0    0  0.00000000000E+00  0.00000000000E+00 -0.15929541246E+04  0.33940575920E+04  0.29970192016E+04 0.  0.
        4    1    3    3  502    0  0.39933928863E+03  0.13351955384E+03  0.83217797241E+03  0.93264201566E+03  0.12699999809E+01 0.  1.
       -4    1    3    3    0  502 -0.39933928863E+03 -0.13351955384E+03 -0.24251320970E+04  0.24614155764E+04  0.12699999809E+01 0. -1.
</event>
<event>
 5   0  0.1108153E-05  0.1595782E+04  0.7818609E-02  0.8823143E-01
        2   -1    0    0  501    0  0.00000000000E+00  0.00000000000E+00  0.11853911029E+04  0.11853911029E+04  0.25500000920E-02 0. -1.
       -2   -1    0    0    0  501  0.00000000000E+00  0.00000000000E+00 -0.53706357029E+03  0.53706357029E+03  0.25500000920E-02 0.  1.
    10030    2    1    2    0    0  0.00000000000E+00  0.00000000000E+00  0.64832753261E+03  0.17224546732E+04  0.15957824136E+04 0.  0.
        4    1    3    3  502    0 -0.48129301226E+03 -0.24770991570E+03 -0.30856398440E+03  0.62307022988E+03  0.12699999809E+01 0.  1.
       -4    1    3    3    0  502  0.48129301226E+03  0.24770991570E+03  0.95689151701E+03  0.10993844433E+04  0.12699999809E+01 0. -1.
</event>
<event>
 5   0  0.1119100E-05  0.3100388E+04  0.7818609E-02  0.8215631E-01
        2   -1    0    0  501    0  0.00000000000E+00  0.00000000000E+00  0.19856663568E+04  0.19856663568E+04  0.25500000920E-02 0. -1.
       -2   -1    0    0    0  501  0.00000000000E+00  0.00000000000E+00 -0.12102240291E+04  0.12102240291E+04  0.25500000920E-02 0.  1.
    10030    2    1    2    0    0  0.00000000000E+00  0.00000000000E+00  0.77544232772E+03  0.31958903860E+04  0.31003878073E+04 0.  0.
        2    1    3    3  502    0  0.13020583220E+04 -0.67548100914E+02 -0.47666914252E+03  0.13882118322E+04  0.25500000920E-02 0.  1.
       -2    1    3    3    0  502 -0.13020583220E+04  0.67548100914E+02  0.12521114702E+04  0.18076785537E+04  0.25500000920E-02 0. -1.
</event>
<event>
 5   0  0.4139628E-06  0.3200389E+04  0.7818609E-02  0.8188714E-01
        1   -1    0    0  501    0  0.00000000000E+00  0.00000000000E+00  0.19511589438E+04  0.19511589438E+04  0.50400001928E-02 0.  1.
       -1   -1    0    0    0  501  0.00000000000E+00  0.00000000000E+00 -0.13123598075E+04  0.13123598075E+04  0.50400001928E-02 0. -1.
    10030    2    1    2    0    0  0.00000000000E+00  0.00000000000E+00  0.63879913626E+03  0.32635187513E+04  0.32003890862E+04 0.  0.
        5    1    3    3  502    0  0.15756747031E+04 -0.23259884029E+03  0.47654155356E+03  0.16625182504E+04  0.46999998093E+01 0. -1.
       -5    1    3    3    0  502 -0.15756747031E+04  0.23259884029E+03  0.16225758270E+03  0.16010005009E+04  0.46999998093E+01 0.  1.
</event>
<event>
 5   0  0.1007567E-05  0.3088501E+04  0.7818609E-02  0.8218901E-01
       -2   -1    0    0    0  501  0.00000000000E+00  0.00000000000E+00  0.11336305797E+04  0.11336305797E+04  0.25500000920E-02 0. -1.
        2   -1    0    0  501    0  0.00000000000E+00  0.00000000000E+00 -0.21036036382E+04  0.21036036382E+04  0.25500000920E-02 0.  1.
    10030    2    1    2    0    0  0.00000000000E+00  0.00000000000E+00 -0.96997305846E+03  0.32372342179E+04  0.30885008738E+04 0.  0.
        3    1    3    3  502    0 -0.83938908073E+03 -0.68110401107E+03  0.67095197811E+03  0.12722630506E+04  0.10100000352E+00 0. -1.
       -3    1    3    3    0  502  0.83938908073E+03  0.68110401107E+03 -0.16409250366E+04  0.19649711674E+04  0.10100000352E+00 0.  1.
</event>
<event>
 5   0  0.3493125E-06  0.3161659E+04  0.7818609E-02  0.8199017E-01
       -3   -1    0    0    0  501  0.00000000000E+00  0.00000000000E+00  0.11213135040E+04  0.11213135086E+04  0.10100000352E+00 0. -1.
        3   -1    0    0  501    0  0.00000000000E+00  0.00000000000E+00 -0.22286563099E+04  0.22286563122E+04  0.10100000352E+00 0.  1.
    10030    2    1    2    0    0  0.00000000000E+00  0.00000000000E+00 -0.11073428059E+04  0.33499698208E+04  0.31616593286E+04 0.  0.
        4    1    3    3  502    0 -0.59303392558E+03 -0.48677923010E+03 -0.20181580829E+04  0.21590754772E+04  0.12699999809E+01 0.  1.
       -4    1    3    3    0  502  0.59303392558E+03  0.48677923010E+03  0.91081527701E+03  0.11908943435E+04  0.12699999809E+01 0. -1.
</event>
<event>
 5   0  0.3838525E-06  0.3109387E+04  0.7818609E-02  0.8213167E-01
       -1   -1    0    0    0  501  0.00000000000E+00  0.00000000000E+00  0.12840574218E+04  0.12840574218E+04  0.50400001928E-02 0. -1.
        1   -1    0    0  501    0  0.00000000000E+00  0.00000000000E+00 -0.18823701820E+04  0.18823701820E+04  0.50400001928E-02 0.  1.
    10030    2    1    2    0    0  0.00000000000E+00  0.00000000000E+00 -0.59831276018E+03  0.31664276038E+04  0.31093866937E+04 0.  0.
        3    1    3    3  502    0 -0.78779074304E+03 -0.11953873558E+04  0.31818752765E+03  0.14665634995E+04  0.10100000352E+00 0. -1.
       -3    1    3    3    0  502  0.78779074304E+03  0.11953873558E+04 -0.91650028783E+03  0.16998641042E+04  0.10100000352E+00 0.  1.
</event>
<event>
 5   0  0.3493125E-06  0.2971848E+04  0.7818609E-02  0.8251816E-01
       -3   -1    0    0    0  501  0.00000000000E+00  0.00000000000E+00  0.11571641758E+04  0.11571641802E+04  0.10100000352E+00 0.  1.
        3   -1    0    0  501    0  0.00000000000E+00  0.00000000000E+00 -0.19080869858E+04  0.19080869884E+04  0.10100000352E+00 0. -1.
    10030    2    1    2    0    0  0.00000000000E+00  0.00000000000E+00 -0.75092280997E+03  0.30652511686E+04  0.29718478528E+04 0.  0.
        1    1    3    3  502    0 -0.50677756202E+03 -0.19084165545E+03  0.10517647601E+04  0.11829848458E+04  0.50400001928E-02 0.  1.
       -1    1    3    3    0  502  0.50677756202E+03  0.19084165545E+03 -0.18026875701E+04  0.18822663228E+04  0.50400001928E-02 0. -1.
</event>
<event>
 5   0  0.1108153E-05  0.2940506E+04  0.7818609E-02  0.8260927E-01
       -2   -1    0    0    0  501  0.00000000000E+00  0.00000000000E+00  0.11461096214E+04  0.11461096214E+04  0.25500000920E-02 0.  1.
        2   -1    0    0  501    0  0.00000000000E+00  0.00000000000E+00 -0.18860712345E+04  0.18860712345E+04  0.25500000920E-02 0. -1.
    10030    2    1    2    0    0  0.00000000000E+00  0.00000000000E+00 -0.73996161310E+03  0.30321808558E+04  0.29405063430E+04 0.  0.
        4    1    3    3  502    0  0.29942283606E+03 -0.98844535996E+03 -0.14490095224E+04  0.17794123955E+04  0.12699999809E+01 0. -1.
       -4    1    3    3    0  502 -0.29942283606E+03  0.98844535996E+03  0.70904790935E+03  0.12527684603E+04  0.12699999809E+01 0.  1.
</event>
<event>
 5   0  0.3807334E-06  0.3193295E+04  0.7818609E-02  0.8190590E-01
        1   -1    0    0  501    0  0.00000000000E+00  0.00000000000E+00  0.16932703857E+04  0.16932703857E+04  0.50400001928E-02 0.  1.
       -1   -1    0    0    0  501  0.00000000000E+00  0.00000000000E+00 -0.15055385287E+04  0.15055385287E+04  0.50400001928E-02 0. -1.
    10030    2    1    2    0    0  0.00000000000E+00  0.00000000000E+00  0.18773185699E+03  0.31988089144E+04  0.31932953545E+04 0.  0.
        4    1    3    3  502    0 -0.18289613950E+03  0.59257293249E+03 -0.13799624509E+04  0.15129083438E+04  0.12699999809E+01 0. -1.
       -4    1    3    3    0  502  0.18289613950E+03 -0.59257293249E+03  0.15676943079E+04  0.16859005706E+04  0.12699999809E+01 0.  1.
</event>
<event>
 5   0  0.3838525E-06  0.2833849E+04  0.7818609E-02  0.8292836E-01
       -1   -1    0    0    0  501  0.00000000000E+00  0.00000000000E+00  0.10522947730E+04  0.10522947730E+04  0.50400001928E-02 0. -1.
        1   -1    0    0  501    0  0.00000000000E+00  0.00000000000E+00 -0.19079020014E+04  0.19079020015E+04  0.50400001928E-02 0.  1.
    10030    2    1    2    0    0  0.00000000000E+00  0.00000000000E+00 -0.85560722842E+03  0.29601967745E+04  0.28338491869E+04 0.  0.
        3    1    3    3  502    0  0.11126888298E+04  0.56543697629E+03 -0.11284391100E+04  0.16826081663E+04  0.10100000352E+00 0.  1.
       -3    1    3    3    0  502 -0.11126888298E+04 -0.56543697629E+03  0.27283188155E+03  0.12775886082E+04  0.10100000352E+00 0. -1.
</event>
<event>
 5   0  0.1119100E-05  0.3137955E+04  0.7818609E-02  0.8205398E-01
       -2   -1    0    0    0  501  0.00000000000E+00  0.00000000000E+00  0.11808619779E+04  0.11808619779E+04  0.25500000920E-02 0. -1.
        2   -1    0    0  501    0  0.00000000000E+00  0.00000000000E+00 -0.20846552251E+04  0.20846552251E+04  0.25500000920E-02 0.  1.
    10030    2    1    2    0    0  0.00000000000E+00  0.00000000000E+00 -0.90379324716E+03  0.32655172030E+04  0.31379548068E+04 0.  0.
        2    1    3    3  502    0  0.58572331894E+03  0.88238482201E+03 -0.16565446458E+04  0.19661675778E+04  0.25500000920E-02 0.  1.
       -2    1    3    3    0  502 -0.58572331894E+03 -0.88238482201E+03  0.75275139860E+03  0.12993496252E+04  0.25500000920E-02 0. -1.
</event>
<event>
 5   0  0.3838525E-06  0.3113344E+04  0.7818609E-02  0.8212085E-01
       -1   -1    0    0    0  501  0.00000000000E+00  0.00000000000E+00  0.20765849728E+04  0.20765849729E+04  0.50400001928E-02 0.  1.
        1   -1    0    0  501    0  0.00000000000E+00  0.00000000000E+00 -0.11669293034E+04  0.11669293034E+04  0.50400001928E-02 0. -1.
    10030    2    1    2    0    0  0.00000000000E+00  0.00000000000E+00  0.90965566947E+03  0.32435142762E+04  0.31133440901E+04 0.  0.
        3    1    3    3  502    0  0.15764225962E+03  0.12246958684E+04  0.14423502393E+04  0.18987114776E+04  0.10100000352E+00 0.  1.
       -3    1    3    3    0  502 -0.15764225962E+03 -0.12246958684E+04 -0.53269456987E+03  0.13448027986E+04  0.10100000352E+00 0. -1.
</event>
<event>
 5   0  0.9797278E-06  0.3067138E+04  0.7818609E-02  0.8224815E-01
        2   -1    0    0  501    0  0.00000000000E+00  0.00000000000E+00  0.25606998184E+04  0.25606998184E+04  0.25500000920E-02 0.  1.
       -2   -1    0    0    0  501  0.00000000000E+00  0.00000000000E+00 -0.91843428023E+03  0.91843428023E+03  0.25500000920E-02 0. -1.
    10030    2    1    2    0    0  0.00000000000E+00  0.00000000000E+00  0.16422655382E+04  0.34791340987E+04  0.30671384022E+04 0.  0.
        1    1    3    3  502    0  0.25751863660E+02 -0.13645109049E+04  0.16145782945E+04  0.21140993915E+04  0.50400001928E-02 0.  1.
       -1    1    3    3    0  502 -0.25751863660E+02  0.13645109049E+04  0.27687243715E+02  0.13650347071E+04  0.50400001928E-02 0. -1.
</event>
<event>
 5   0  0.9797278E-06  0.3076075E+04  0.7818609E-02  0.8222335E-01
       -2   -1    0    0    0  501  0.00000000000E+00  0.00000000000E+00  0.12824688423E+04  0.12824688423E+04  0.25500000920E-02 0.  1.
        2   -1    0    0  501    0  0.00000000000E+00  0.00000000000E+00 -0.18445354995E+04  0.18445354995E+04  0.25500000920E-02 0. -1.
    10030    2    1    2    0    0  0.00000000000E+00  0.00000000000E+00 -0.56206665725E+03  0.31270043419E+04  0.30760749709E+04 0.  0.
        1    1    3    3  502    0 -0.48584463142E+03 -0.23319863180E+03  0.11833490869E+04  0.13002852261E+04  0.50400001928E-02 0.  1.
       -1    1    3    3    0  502  0.48584463142E+03  0.23319863180E+03 -0.17454157442E+04  0.18267191157E+04  0.50400001928E-02 0. -1.
</event>
<event>
 5   0  0.1007567E-05  0.3058323E+04  0.7818609E-02  0.8227270E-01
       -2   -1    0    0    0  501  0.00000000000E+00  0.00000000000E+00  0.10895995156E+04  0.10895995156E+04  0.25500000920E-02 0.  1.
        2   -1    0    0  501    0  0.00000000000E+00  0.00000000000E+00 -0.21460492567E+04  0.21460492567E+04  0.25500000920E-02 0. -1.
    10030    2    1    2    0    0  0.00000000000E+00  0.00000000000E+00 -0.10564497410E+04  0.32356487723E+04  0.30583225667E+04 0.  0.
        3    1    3    3  502    0  0.27459501249E+03 -0.21581610620E+03  0.10468375365E+04  0.11035614395E+04  0.10100000352E+00 0.  1.
       -3    1    3    3    0  502 -0.27459501249E+03  0.21581610620E+03 -0.21032872776E+04  0.21320873328E+04  0.10100000352E+00 0. -1.
</event>
<event>
 5   0  0.1007567E-05  0.3198604E+04  0.7818609E-02  0.8189186E-01
        2   -1    0    0  501    0  0.00000000000E+00  0.00000000000E+00  0.21267721153E+04  0.21267721153E+04  0.25500000920E-02 0.  1.
       -2   -1    0    0    0  501  0.00000000000E+00  0.00000000000E+00 -0.12026520684E+04  0.12026520684E+04  0.25500000920E-02 0. -1.
    10030    2    1    2    0    0  0.00000000000E+00  0.00000000000E+00  0.92412004687E+03  0.33294241836E+04  0.31986039976E+04 0.  0.
        3    1    3    3  502    0  0.12033963981E+04  0.10447195565E+03 -0.62899375940E+03  0.13618775423E+04  0.10100000352E+00 0. -1.
       -3    1    3    3    0  502 -0.12033963981E+04 -0.10447195565E+03  0.15531138063E+04  0.19675466414E+04  0.10100000352E+00 0.  1.
</event>
<event>
 5   0  0.1001961E-05  0.1821016E+04  0.7818609E-02  0.8695203E-01
        2   -1    0    0  501    0  0.00000000000E+00  0.00000000000E+00  0.83030964388E+03  0.83030964389E+03  0.25500000920E-02 0.  1.
       -2   -1    0    0    0  501  0.00000000000E+00  0.00000000000E+00 -0.99845244948E+03  0.99845244948E+03  0.25500000920E-02 0. -1.
    10030    2    1    2    0    0  0.00000000000E+00  0.00000000000E+00 -0.16814280560E+03  0.18287620934E+04  0.18210158679E+04 0.  0.
        5    1    3    3  502    0 -0.16117019465E+03 -0.23378337815E+03  0.78469351977E+03  0.83450375045E+03  0.46999998093E+01 0.  1.
       -5    1    3    3    0  502  0.16117019465E+03  0.23378337815E+03 -0.95283632537E+03  0.99425834293E+03  0.46999998093E+01 0. -1.
</event>
<event>
 5   0  0.3838525E-06  0.3057918E+04  0.7818609E-02  0.8227383E-01
       -1   -1    0    0    0  501  0.00000000000E+00  0.00000000000E+00  0.16531612470E+04  0.16531612470E+04  0.50400001928E-02 0. -1.
        1   -1    0    0  501    0  0.00000000000E+00  0.00000000000E+00 -0.14140878890E+04  0.14140878890E+04  0.50400001928E-02 0.  1.
    10030    2    1    2    0    0  0.00000000000E+00  0.00000000000E+00  0.23907335799E+03  0.30672491361E+04  0.30579177870E+04 0.  0.
        3    1    3    3  502    0 -0.90060937297E+03 -0.12334001807E+04  0.46224387661E+02  0.15279103222E+04  0.10100000352E+00 0.  1.
       -3    1    3    3    0  502  0.90060937297E+03  0.12334001807E+04  0.19284897033E+03  0.15393388139E+04  0.10100000352E+00 0. -1.
</event>
<event>
 5   0  0.3807334E-06  0.2978901E+04  0.7818609E-02  0.8249782E-01
        1   -1    0    0  501    0  0.00000000000E+00  0.00000000000E+00  0.13600707346E+04  0.13600707346E+04  0.50400001928E-02 0.  1.
       -1   -1    0    0    0  501  0.00000000000E+00  0.00000000000E+00 -0.16311379216E+04  0.16311379216E+04  0.50400001928E-02 0. -1.
    10030    2    1    2    0    0  0.00000000000E+00  0.00000000000E+00 -0.27106718706E+03  0.29912086562E+04  0.29789011070E+04 0.  0.
        4    1    3    3  502    0  0.35522609247E+01 -0.67600512727E+03 -0.14682192680E+04  0.16163740231E+04  0.12699999809E+01 0. -1.
       -4    1    3    3    0  502 -0.35522609247E+01  0.67600512727E+03  0.11971520809E+04  0.13748346331E+04  0.12699999809E+01 0.  1.
</event>
<event>
 5   0  0.1108153E-05  0.3083162E+04  0.7818609E-02  0.8220374E-01
        2   -1    0    0  501    0  0.00000000000E+00  0.00000000000E+00  0.22276723824E+04  0.22276723824E+04  0.25500000920E-02 0.  1.
       -2   -1    0    0    0  501  0.00000000000E+00  0.00000000000E+00 -0.10667962073E+04  0.10667962073E+04  0.25500000920E-02 0. -1.
    10030    2    1    2    0    0  0.00000000000E+00  0.00000000000E+00  0.11608761751E+04  0.32944685898E+04  0.30831623044E+04 0.  0.
        4    1    3    3  502    0  0.96900656598E+03 -0.11877573293E+04  0.40574105879E+03  0.15856760760E+04  0.12699999809E+01 0. -1.
       -4    1    3    3    0  502 -0.96900656598E+03  0.11877573293E+04  0.75513511632E+03  0.17087925138E+04  0.12699999809E+01 0.  1.
</event>
<event>
 5   0  0.3838525E-06  0.3104652E+04  0.7818609E-02  0.8214462E-01
       -1   -1    0    0    0  501  0.00000000000E+00  0.00000000000E+00  0.34684316989E+04  0.34684316989E+04  0.50400001928E-02 0.  1.
        1   -1    0    0  501    0  0.00000000000E+00  0.00000000000E+00 -0.69475673219E+03  0.69475673221E+03  0.50400001928E-02 0. -1.
    10030    2    1    2    0    0  0.00000000000E+00  0.00000000000E+00  0.27736749667E+04  0.41631884311E+04  0.31046521692E+04 0.  0.
        3    1    3    3  502    0 -0.10142972029E+04 -0.82053295254E+03  0.25880849164E+03  0.13300582647E+04  0.10100000352E+00 0. -1.
       -3    1    3    3    0  502  0.10142972029E+04  0.82053295254E+03  0.25148664751E+04  0.28331301664E+04  0.10100000352E+00 0.  1.
</event>
<event>
 5   0  0.3848286E-06  0.3130813E+04  0.7818609E-02  0.8207332E-01
       -1   -1    0    0    0  501  0.00000000000E+00  0.00000000000E+00  0.19659861443E+04  0.19659861443E+04  0.50400001928E-02 0.  1.
        1   -1    0    0  501    0  0.00000000000E+00  0.00000000000E+00 -0.12464466545E+04  0.12464466545E+04  0.50400001928E-02 0. -1.
    10030    2    1    2    0    0  0.00000000000E+00  0.00000000000E+00  0.71953948988E+03  0.32124327988E+04  0.31308125797E+04 0.  0.
        2    1    3    3  502    0 -0.10148937765E+04 -0.49286140826E+03  0.14732212059E+04  0.18556137709E+04  0.25500000920E-02 0.  1.
       -2    1    3    3    0  502  0.10148937765E+04  0.49286140826E+03 -0.75368171600E+03  0.13568190279E+04  0.25500000920E-02 0. -1.
</event>
<event>
 5   0  0.3838525E-06  0.2767853E+04  0.7818609E-02  0.8313319E-01
        1   -1    0    0  501    0  0.00000000000E+00  0.00000000000E+00  0.14393450214E+04  0.14393450214E+04  0.50400001928E-02 0. -1.
       -1   -1    0    0    0  501  0.00000000000E+00  0.00000000000E+00 -0.13306415541E+04  0.13306415541E+04  0.50400001928E-02 0.  1.
    10030    2    1    2    0    0  0.00000000000E+00  0.00000000000E+00  0.10870346729E+03  0.27699865756E+04  0.27678528113E+04 0.  0.
        3    1    3    3  502    0  0.13147021452E+04 -0.15396403155E+03 -0.34982299178E+03  0.13691321300E+04  0.10100000352E+00 0.  1.
       -3    1    3    3    0  502 -0.13147021452E+04  0.15396403155E+03  0.45852645908E+03  0.14008544455E+04  0.10100000352E+00 0. -1.
</event>
<event>
 5   0  0.3838525E-06  0.2403831E+04  0.7818609E-02  0.8438071E-01
        1   -1    0    0  501    0  0.00000000000E+00  0.00000000000E+00  0.23630165962E+04  0.23630165962E+04  0.50400001928E-02 0. -1.
       -1   -1    0    0    0  501  0.00000000000E+00  0.00000000000E+00 -0.61133742756E+03  0.61133742758E+03  0.50400001928E-02 0.  1.
    10030    2    1    2    0    0  0.00000000000E+00  0.00000000000E+00  0.17516791686E+04  0.29743540238E+04  0.24038306822E+04 0.  0.
        3    1    3    3  502    0  0.42151966749E+03  0.12409822023E+03 -0.50838929006E+03  0.67196642684E+03  0.10100000352E+00 0.  1.
       -3    1    3    3    0  502 -0.42151966749E+03 -0.12409822023E+03  0.22600684587E+04  0.23023875969E+04  0.10100000352E+00 0. -1.
</event>
<event>
 5   0  0.4139628E-06  0.3079355E+04  0.7818609E-02  0.8221427E-01
        1   -1    0    0  501    0  0.00000000000E+00  0.00000000000E+00  0.14312495249E+04  0.14312495249E+04  0.50400001928E-02 0. -1.
       -1   -1    0    0    0  501  0.00000000000E+00  0.00000000000E+00 -0.16563198233E+04  0.16563198233E+04  0.50400001928E-02 0.  1.
    10030    2    1    2    0    0  0.00000000000E+00  0.00000000000E+00 -0.22507029838E+03  0.30875693482E+04  0.30793551014E+04 0.  0.
        5    1    3    3  502    0 -0.71353651548E+03  0.62853320454E+03 -0.13267139852E+04  0.16322929996E+04  0.46999998093E+01 0.  1.
       -5    1    3    3    0  502  0.71353651548E+03 -0.62853320454E+03  0.11016436868E+04  0.14552763486E+04  0.46999998093E+01 0. -1.
</event>
<event>
 5   0  0.3848286E-06  0.3121365E+04  0.7818609E-02  0.8209899E-01
       -1   -1    0    0    0  501  0.00000000000E+00  0.00000000000E+00  0.18380890851E+04  0.18380890851E+04  0.50400001928E-02 0. -1.
        1   -1    0    0  501    0  0.00000000000E+00  0.00000000000E+00 -0.13251421661E+04  0.13251421661E+04  0.50400001928E-02 0.  1.
    10030    2    1    2    0    0  0.00000000000E+00  0.00000000000E+00  0.51294691896E+03  0.31632312512E+04  0.31213646706E+04 0.  0.
        2    1    3    3  502    0 -0.41619055960E+03 -0.92076295672E+03  0.14618429567E+04  0.17770773294E+04  0.25500000920E-02 0. -1.
       -2    1    3    3    0  502  0.41619055960E+03  0.92076295672E+03 -0.94889603778E+03  0.13861539218E+04  0.25500000920E-02 0.  1.
</event>
<event>
 5   0  0.3848286E-06  0.2615055E+04  0.7818609E-02  0.8363105E-01
        1   -1    0    0  501    0  0.00000000000E+00  0.00000000000E+00  0.15231011561E+04  0.15231011561E+04  0.50400001928E-02 0.  1.
       -1   -1    0    0    0  501  0.00000000000E+00  0.00000000000E+00 -0.11224651487E+04  0.11224651487E+04  0.50400001928E-02 0. -1.
    10030    2    1    2    0    0  0.00000000000E+00  0.00000000000E+00  0.40063600739E+03  0.26455663048E+04  0.26150548489E+04 0.  0.
        2    1    3    3  502    0  0.32576945967E+03 -0.12250551884E+04 -0.12395580869E+03  0.12736761747E+04  0.25500000920E-02 0. -1.
       -2    1    3    3    0  502 -0.32576945967E+03  0.12250551884E+04  0.52459181608E+03  0.13718901301E+04  0.25500000920E-02 0.  1.
</event>
<event>
 5   0  0.1001961E-05  0.2301693E+04  0.7818609E-02  0.8477254E-01
        2   -1    0    0  501    0  0.00000000000E+00  0.00000000000E+00  0.13472212729E+04  0.13472212729E+04  0.25500000920E-02 0.  1.
       -2   -1    0    0    0  501  0.00000000000E+00  0.00000000000E+00 -0.98309621526E+03  0.98309621527E+03  0.25500000920E-02 0. -1.
    10030    2    1    2    0    0  0.00000000000E+00  0.00000000000E+00  0.36412505764E+03  0.23303174882E+04  0.23016934066E+04 0.  0.
        5    1    3    3  502    0 -0.89149946122E+01 -0.28191769284E+02 -0.98270187796E+03  0.98315783266E+03  0.46999998093E+01 0. -1.
       -5    1    3    3    0  502  0.89149946122E+01  0.28191769284E+02  0.13468269356E+04  0.13471596555E+04  0.46999998093E+01 0.  1.
</event>
<event>
 5   0  0.3838525E-06  0.1714421E+04  0.7818609E-02  0.8753182E-01
       -1   -1    0    0    0  501  0.00000000000E+00  0.00000000000E+00  0.41212559196E+03  0.41212559200E+03  0.50400001928E-02 0.  1.
        1   -1    0    0  501    0  0.00000000000E+00  0.00000000000E+00 -0.17829751108E+04  0.17829751108E+04  0.50400001928E-02 0. -1.
    10030    2    1    2    0    0  0.00000000000E+00  0.00000000000E+00 -0.13708495189E+04  0.21951007028E+04  0.17144208037E+04 0.  0.
        3    1    3    3  502    0 -0.81616331059E+03  0.21569576609E+02 -0.35099969462E+03  0.88870050748E+03  0.10100000352E+00 0.  1.
       -3    1    3    3    0  502  0.81616331059E+03 -0.21569576609E+02 -0.10198498242E+04  0.13064001953E+04  0.10100000352E+00 0. -1.
</event>
<event>
 5   0  0.1001961E-05  0.2112872E+04  0.7818609E-02  0.8555594E-01
       -2   -1    0    0    0  501  0.00000000000E+00  0.00000000000E+00  0.15523078362E+04  0.15523078362E+04  0.25500000920E-02 0.  1.
        2   -1    0    0  501    0  0.00000000000E+00  0.00000000000E+00 -0.71896609211E+03  0.71896609212E+03  0.25500000920E-02 0. -1.
    10030    2    1    2    0    0  0.00000000000E+00  0.00000000000E+00  0.83334174410E+03  0.22712739283E+04  0.21128716939E+04 0.  0.
        5    1    3    3  502    0 -0.24883523511E+03  0.27546385466E+03 -0.64653668757E+03  0.74554080226E+03  0.46999998093E+01 0. -1.
       -5    1    3    3    0  502  0.24883523511E+03 -0.27546385466E+03  0.14798784317E+04  0.15257331261E+04  0.46999998093E+01 0.  1.
</event>
<event>
 5   0  0.3838525E-06  0.3260216E+04  0.7818609E-02  0.8173093E-01
        1   -1    0    0  501    0  0.00000000000E+00  0.00000000000E+00  0.19704966083E+04  0.19704966083E+04  0.50400001928E-02 0. -1.
       -1   -1    0    0    0  501  0.00000000000E+00  0.00000000000E+00 -0.13485191496E+04  0.13485191496E+04  0.50400001928E-02 0.  1.
    10030    2    1    2    0    0  0.00000000000E+00  0.00000000000E+00  0.62197745876E+03  0.33190157579E+04  0.32602161956E+04 0.  0.
        3    1    3    3  502    0  0.59789258886E+03 -0.33065182778E+03 -0.11957196771E+04  0.13771534901E+04  0.10100000352E+00 0.  1.
       -3    1    3    3    0  502 -0.59789258886E+03  0.33065182778E+03  0.18176971359E+04  0.19418622677E+04  0.10100000352E+00 0. -1.
</event>
<event>
 5   0  0.1108153E-05  0.3078595E+04  0.7818609E-02  0.8221637E-01
        2   -1    0    0  501    0  0.00000000000E+00  0.00000000000E+00  0.76883554946E+03  0.76883554947E+03  0.25500000920E-02 0.  1.
       -2   -1    0    0    0  501  0.00000000000E+00  0.00000000000E+00 -0.30818505032E+04  0.30818505032E+04  0.25500000920E-02 0. -1.
    10030    2    1    2    0    0  0.00000000000E+00  0.00000000000E+00 -0.23130149537E+04  0.38506860526E+04  0.30785946307E+04 0.  0.
        4    1    3    3  502    0  0.94283465376E+03 -0.12116699642E+04 -0.10174873927E+04  0.18418369889E+04  0.12699999809E+01 0. -1.
       -4    1    3    3    0  502 -0.94283465376E+03  0.12116699642E+04 -0.12955275610E+04  0.20088490637E+04  0.12699999809E+01 0.  1.
</event>
<event>
 5   0  0.3807334E-06  0.3128339E+04  0.7818609E-02  0.8208003E-01
       -1   -1    0    0    0  501  0.00000000000E+00  0.00000000000E+00  0.12297131727E+04  0.12297131727E+04  0.50400001928E-02 0. -1.
        1   -1    0    0  501    0  0.00000000000E+00  0.00000000000E+00 -0.19895904423E+04  0.19895904424E+04  0.50400001928E-02 0.  1.
    10030    2    1    2    0    0  0.00000000000E+00  0.00000000000E+00 -0.75987726965E+03  0.32193036151E+04  0.31283385848E+04 0.  0.
        4    1    3    3  502    0  0.27957975100E+03  0.34613371242E+03  0.11632150260E+04  0.12454092474E+04  0.12699999809E+01 0. -1.
       -4    1    3    3    0  502 -0.27957975100E+03 -0.34613371242E+03 -0.19230922956E+04  0.19738943676E+04  0.12699999809E+01 0.  1.
</event>
<event>
 5   0  0.1108153E-05  0.3332003E+04  0.7818609E-02  0.8154800E-01
        2   -1    0    0  501    0  0.00000000000E+00  0.00000000000E+00  0.23164324306E+04  0.23164324306E+04  0.25500000920E-02 0. -1.
       -2   -1    0    0    0  501  0.00000000000E+00  0.00000000000E+00 -0.11982052453E+04  0.11982052453E+04  0.25500000920E-02 0.  1.
    10030    2    1    2    0    0  0.00000000000E+00  0.00000000000E+00  0.11182271853E+04  0.35146376758E+04  0.33320032945E+04 0.  0.
        4    1    3    3  502    0 -0.52084182211E+03  0.10834536297E+04  0.17757707048E+04  0.21444139480E+04  0.12699999809E+01 0. -1.
       -4    1    3    3    0  502  0.52084182211E+03 -0.10834536297E+04 -0.65754351953E+03  0.13702237278E+04  0.12699999809E+01 0.  1.
</event>
<event>
 5   0  0.1119100E-05  0.2875719E+04  0.7818609E-02  0.8280139E-01
       -2   -1    0    0    0  501  0.00000000000E+00  0.00000000000E+00  0.12588126347E+04  0.12588126347E+04  0.25500000920E-02 0.  1.
        2   -1    0    0  501    0  0.00000000000E+00  0.00000000000E+00 -0.16423727369E+04  0.16423727369E+04  0.25500000920E-02 0. -1.
    10030    2    1    2    0    0  0.00000000000E+00  0.00000000000E+00 -0.38356010213E+03  0.29011853716E+04  0.28757187290E+04 0.  0.
        2    1    3    3  502    0 -0.92188105497E+03  0.69939771357E+03  0.66925200699E+03  0.13367573041E+04  0.25500000920E-02 0.  1.
       -2    1    3    3    0  502  0.92188105497E+03 -0.69939771357E+03 -0.10528121091E+04  0.15644280675E+04  0.25500000920E-02 0. -1.
</event>
<event>
 5   0  0.4250961E-06  0.2778622E+04  0.7818609E-02  0.8309936E-01
        1   -1    0    0  501    0  0.00000000000E+00  0.00000000000E+00  0.85580677581E+03  0.85580677583E+03  0.50400001928E-02 0. -1.
       -1   -1    0    0    0  501  0.00000000000E+00  0.00000000000E+00 -0.22553987292E+04  0.22553987292E+04  0.50400001928E-02 0.  1.
    10030    2    1    2    0    0  0.00000000000E+00  0.00000000000E+00 -0.13995919534E+04  0.31112055050E+04  0.27786223310E+04 0.  0.
        1    1    3    3  502    0 -0.12815903008E+04  0.53560529054E+03 -0.73222436260E+03  0.15701908303E+04  0.50400001928E-02 0.  1.
       -1    1    3    3    0  502  0.12815903008E+04 -0.53560529054E+03 -0.66736759078E+03  0.15410146747E+04  0.50400001928E-02 0. -1.
</event>
<event>
 5   0  0.3493125E-06  0.1829826E+04  0.7818609E-02  0.8690597E-01
       -3   -1    0    0    0  501  0.00000000000E+00  0.00000000000E+00  0.47348242300E+03  0.47348243378E+03  0.10100000352E+00 0. -1.
        3   -1    0    0  501    0  0.00000000000E+00  0.00000000000E+00 -0.17678927652E+04  0.17678927681E+04  0.10100000352E+00 0.  1.
    10030    2    1    2    0    0  0.00000000000E+00  0.00000000000E+00 -0.12944103422E+04  0.22413752019E+04  0.18298264020E+04 0.  0.
        1    1    3    3  502    0  0.55259269266E+03  0.36598996003E+03  0.12532346727E+03  0.67454674137E+03  0.50400001928E-02 0. -1.
       -1    1    3    3    0  502 -0.55259269266E+03 -0.36598996003E+03 -0.14197338095E+04  0.15668284605E+04  0.50400001928E-02 0.  1.
</event>
<event>
 5   0  0.4250961E-06  0.3152588E+04  0.7818609E-02  0.8201452E-01
       -1   -1    0    0    0  501  0.00000000000E+00  0.00000000000E+00  0.15615950125E+04  0.15615950125E+04  0.50400001928E-02 0. -1.
        1   -1    0    0  501    0  0.00000000000E+00  0.00000000000E+00 -0.15911314645E+04  0.15911314646E+04  0.50400001928E-02 0.  1.
    10030    2    1    2    0    0  0.00000000000E+00  0.00000000000E+00 -0.29536452031E+02  0.31527264771E+04  0.31525881173E+04 0.  0.
        1    1    3    3  502    0  0.65989686088E+03 -0.79204703275E+03  0.11777188392E+04  0.15651913728E+04  0.50400001928E-02 0. -1.
       -1    1    3    3    0  502 -0.65989686088E+03  0.79204703275E+03 -0.12072552913E+04  0.15875351043E+04  0.50400001928E-02 0.  1.
</event>
<event>
 5   0  0.1001961E-05  0.3048927E+04  0.7818609E-02  0.8229896E-01
       -2   -1    0    0    0  501  0.00000000000E+00  0.00000000000E+00  0.14849191319E+04  0.14849191319E+04  0.25500000920E-02 0. -1.
        2   -1    0    0  501    0  0.00000000000E+00  0.00000000000E+00 -0.15650609767E+04  0.15650609767E+04  0.25500000920E-02 0.  1.
    10030    2    1    2    0    0  0.00000000000E+00  0.00000000000E+00 -0.80141844872E+02  0.30499801086E+04  0.30489270158E+04 0.  0.
        5    1    3    3  502    0 -0.11631352759E+03 -0.39044100880E+02 -0.15601067383E+04  0.15649307982E+04  0.46999998093E+01 0.  1.
       -5    1    3    3    0  502  0.11631352759E+03  0.39044100880E+02  0.14799648934E+04  0.14850493103E+04  0.46999998093E+01 0. -1.
</event>
<event>
 5   0  0.1007567E-05  0.2825478E+04  0.7818609E-02  0.8295402E-01
        2   -1    0    0  501    0  0.00000000000E+00  0.00000000000E+00  0.18273071616E+04  0.18273071616E+04  0.25500000920E-02 0.  1.
       -2   -1    0    0    0  501  0.00000000000E+00  0.00000000000E+00 -0.10922257385E+04  0.10922257385E+04  0.25500000920E-02 0. -1.
    10030    2    1    2    0    0  0.00000000000E+00  0.00000000000E+00  0.73508142318E+03  0.29195329001E+04  0.28254783057E+04 0.  0.
        3    1    3    3  502    0 -0.62733562824E+03 -0.12658051906E+04  0.37206042609E+03  0.14609044260E+04  0.10100000352E+00 0.  1.
       -3    1    3    3    0  502  0.62733562824E+03  0.12658051906E+04  0.36302099709E+03  0.14586284741E+04  0.10100000352E+00 0. -1.
</event>
<event>
 5   0  0.1001961E-05  0.3064998E+04  0.7818609E-02  0.8225410E-01
        2   -1    0    0  501    0  0.00000000000E+00  0.00000000000E+00  0.18539937457E+04  0.18539937457E+04  0.25500000920E-02 0.  1.
       -2   -1    0    0    0  501  0.00000000000E+00  0.00000000000E+00 -0.12667535339E+04  0.12667535339E+04  0.25500000920E-02 0. -1.
    10030    2    1    2    0    0  0.00000000000E+00  0.00000000000E+00  0.58724021184E+03  0.31207472796E+04  0.30649979636E+04 0.  0.
        5    1    3    3  502    0  0.98028920402E+03  0.33847988426E+03  0.14424132676E+04  0.17765454343E+04  0.46999998093E+01 0.  1.
       -5    1    3    3    0  502 -0.98028920402E+03 -0.33847988426E+03 -0.85517305580E+03  0.13442018453E+04  0.46999998093E+01 0. -1.
</event>
<event>
 5   0  0.3848286E-06  0.3102178E+04  0.7818609E-02  0.8215140E-01
        1   -1    0    0  501    0  0.00000000000E+00  0.00000000000E+00  0.25746434385E+04  0.25746434386E+04  0.50400001928E-02 0.  1.
       -1   -1    0    0    0  501  0.00000000000E+00  0.00000000000E+00 -0.93445078022E+03  0.93445078023E+03  0.50400001928E-02 0. -1.
    10030    2    1    2    0    0  0.00000000000E+00  0.00000000000E+00  0.16401926583E+04  0.35090942188E+04  0.31021783121E+04 0.  0.
        2    1    3    3  502    0  0.74753214170E+03  0.44223223521E+03 -0.63358119571E+03  0.10750808269E+04  0.25500000920E-02 0. -1.
       -2    1    3    3    0  502 -0.74753214170E+03 -0.44223223521E+03  0.22737738540E+04  0.24340133919E+04  0.25500000920E-02 0.  1.
</event>
<event>
 5   0  0.1108153E-05  0.3001582E+04  0.7818609E-02  0.8243279E-01
        2   -1    0    0  501    0  0.00000000000E+00  0.00000000000E+00  0.96538989815E+03  0.96538989815E+03  0.25500000920E-02 0.  1.
       -2   -1    0    0    0  501  0.00000000000E+00  0.00000000000E+00 -0.23331232229E+04  0.23331232229E+04  0.25500000920E-02 0. -1.
    10030    2    1    2    0    0  0.00000000000E+00  0.00000000000E+00 -0.13677333247E+04  0.32985131210E+04  0.30015819766E+04 0.  0.
        4    1    3    3  502    0  0.14496912769E+04 -0.38813653890E+03 -0.67196949440E+03  0.16443233823E+04  0.12699999809E+01 0. -1.
       -4    1    3    3    0  502 -0.14496912769E+04  0.38813653890E+03 -0.69576383035E+03  0.16541897388E+04  0.12699999809E+01 0.  1.
</event>
<event>
 5   0  0.4250961E-06  0.3069826E+04  0.7818609E-02  0.8224068E-01
       -1   -1    0    0    0  501  0.00000000000E+00  0.00000000000E+00  0.13606017093E+04  0.13606017093E+04  0.50400001928E-02 0. -1.
        1   -1    0    0  501    0  0.00000000000E+00  0.00000000000E+00 -0.17315563057E+04  0.17315563057E+04  0.50400001928E-02 0.  1.
    10030    2    1    2    0    0  0.00000000000E+00  0.00000000000E+00 -0.37095459642E+03  0.30921580150E+04  0.30698263594E+04 0.  0.
        1    1    3    3  502    0 -0.19078882421E+03 -0.57556200033E+03  0.12348464466E+04  0.13756880964E+04  0.50400001928E-02 0. -1.
       -1    1    3    3    0  502  0.19078882421E+03  0.57556200033E+03 -0.16058010431E+04  0.17164699186E+04  0.50400001928E-02 0.  1.
</event>
<event>
 5   0  0.1007567E-05  0.3449534E+04  0.7818609E-02  0.8125855E-01
       -2   -1    0    0    0  501  0.00000000000E+00  0.00000000000E+00  0.11040822919E+04  0.11040822919E+04  0.25500000920E-02 0.  1.
        2   -1    0    0  501    0  0.00000000000E+00  0.00000000000E+00 -0.26943832288E+04  0.26943832288E+04  0.25500000920E-02 0. -1.
    10030    2    1    2    0    0  0.00000000000E+00  0.00000000000E+00 -0.15903009369E+04  0.37984655207E+04  0.34495337717E+04 0.  0.
        3    1    3    3  502    0 -0.47367600954E+03  0.10154040527E+04 -0.22390502909E+04  0.25037493021E+04  0.10100000352E+00 0. -1.
       -3    1    3    3    0  502  0.47367600954E+03 -0.10154040527E+04  0.64874935402E+03  0.12947162186E+04  0.10100000352E+00 0.  1.
</event>
<event>
 5   0  0.4250961E-06  0.3099988E+04  0.7818609E-02  0.8215741E-01
       -1   -1    0    0    0  501  0.00000000000E+00  0.00000000000E+00  0.17631177045E+04  0.17631177045E+04  0.50400001928E-02 0. -1.
        1   -1    0    0  501    0  0.00000000000E+00  0.00000000000E+00 -0.13626321196E+04  0.13626321196E+04  0.50400001928E-02 0.  1.
    10030    2    1    2    0    0  0.00000000000E+00  0.00000000000E+00  0.40048558491E+03  0.31257498241E+04  0.30999876224E+04 0.  0.
        1    1    3    3  502    0 -0.15083233937E+04 -0.21974915902E+03  0.48391989003E+03  0.15992209393E+04  0.50400001928E-02 0. -1.
       -1    1    3    3    0  502  0.15083233937E+04  0.21974915902E+03 -0.83434305120E+02  0.15265288848E+04  0.50400001928E-02 0.  1.
</event>
<event>
 5   0  0.1001961E-05  0.3084813E+04  0.7818609E-02  0.8219918E-01
       -2   -1    0    0    0  501  0.00000000000E+00  0.00000000000E+00  0.10309552408E+04  0.10309552408E+04  0.25500000920E-02 0. -1.
        2   -1    0    0  501    0  0.00000000000E+00  0.00000000000E+00 -0.23075863444E+04  0.23075863444E+04  0.25500000920E-02 0.  1.
    10030    2    1    2    0    0  0.00000000000E+00  0.00000000000E+00 -0.12766311037E+04  0.33385415852E+04  0.30848132750E+04 0.  0.
        5    1    3    3  502    0 -0.13707217752E+04  0.17630379137E+03  0.10287607427E+03  0.13858451532E+04  0.46999998093E+01 0. -1.
       -5    1    3    3    0  502  0.13707217752E+04 -0.17630379137E+03 -0.13795071779E+04  0.19526964321E+04  0.46999998093E+01 0.  1.
</event>
<event>
 5   0  0.3493125E-06  0.2989217E+04  0.7818609E-02  0.8246817E-01
        3   -1    0    0  501    0  0.00000000000E+00  0.00000000000E+00  0.17454595445E+04  0.17454595474E+04  0.10100000352E+00 0. -1.
       -3   -1    0    0    0  501  0.00000000000E+00  0.00000000000E+00 -0.12798088806E+04  0.12798088846E+04  0.10100000352E+00 0.  1.
    10030    2    1    2    0    0  0.00000000000E+00  0.00000000000E+00  0.46565066385E+03  0.30252684320E+04  0.29892170455E+04 0.  0.
        5    1    3    3  502    0 -0.13592837628E+04 -0.34086013586E+03  0.75870209067E+03  0.15935774008E+04  0.46999998093E+01 0.  1.
       -5    1    3    3    0  502  0.13592837628E+04  0.34086013586E+03 -0.29305142683E+03  0.14316910312E+04  0.46999998093E+01 0. -1.
</event>
<event>
 5   0  0.3807334E-06  0.3362737E+04  0.7818609E-02  0.8147113E-01
       -1   -1    0    0    0  501  0.00000000000E+00  0.00000000000E+00  0.12505128823E+04  0.12505128823E+04  0.50400001928E-02 0.  1.
        1   -1    0    0  501    0  0.00000000000E+00  0.00000000000E+00 -0.22606731304E+04  0.22606731304E+04  0.50400001928E-02 0. -1.
    10030    2    1    2    0    0  0.00000000000E+00  0.00000000000E+00 -0.10101602482E+04  0.35111860127E+04  0.33627374992E+04 0.  0.
        4    1    3    3  502    0  0.51691510254E+03  0.11205763531E+04 -0.16974676648E+04  0.20986401960E+04  0.12699999809E+01 0. -1.
       -4    1    3    3    0  502 -0.51691510254E+03 -0.11205763531E+04  0.68730741662E+03  0.14125458167E+04  0.12699999809E+01 0.  1.
</event>
<event>
 5   0  0.1119100E-05  0.2865760E+04  0.7818609E-02  0.8283138E-01
       -2   -1    0    0    0  501  0.00000000000E+00  0.00000000000E+00  0.18133724488E+04  0.18133724488E+04  0.25500000920E-02 0.  1.
        2   -1    0    0  501    0  0.00000000000E+00  0.00000000000E+00 -0.11322246685E+04  0.11322246685E+04  0.25500000920E-02 0. -1.
    10030    2    1    2    0    0  0.00000000000E+00  0.00000000000E+00  0.68114778030E+03  0.29455971173E+04  0.28657599478E+04 0.  0.
        2    1    3    3  502    0  0.66157949704E+02 -0.14108852885E+04  0.58847943195E+03  0.15301249012E+04  0.25500000920E-02 0.  1.
       -2    1    3    3    0  502 -0.66157949704E+02  0.14108852885E+04  0.92668348350E+02  0.14154722160E+04  0.25500000920E-02 0. -1.
</event>
<event>
 5   0  0.1007567E-05  0.3178427E+04  0.7818609E-02  0.8194538E-01
       -2   -1    0    0    0  501  0.00000000000E+00  0.00000000000E+00  0.16267569431E+04  0.16267569431E+04  0.25500000920E-02 0. -1.
        2   -1    0    0  501    0  0.00000000000E+00  0.00000000000E+00 -0.15525367438E+04  0.15525367438E+04  0.25500000920E-02 0.  1.
    10030    2    1    2    0    0  0.00000000000E+00  0.00000000000E+00  0.74220199273E+02  0.31792936868E+04  0.31784272383E+04 0.  0.
        3    1    3    3  502    0 -0.11268903460E+04 -0.94689611607E+03  0.63652783702E+03  0.16036401729E+04  0.10100000352E+00 0. -1.
       -3    1    3    3    0  502  0.11268903460E+04  0.94689611607E+03 -0.56230763775E+03  0.15756535140E+04  0.10100000352E+00 0.  1.
</event>
<event>
 5   0  0.4139628E-06  0.3009468E+04  0.7818609E-02  0.8241032E-01
       -1   -1    0    0    0  501  0.00000000000E+00  0.00000000000E+00  0.20366125936E+04  0.20366125936E+04  0.50400001928E-02 0. -1.
        1   -1    0    0  501    0  0.00000000000E+00  0.00000000000E+00 -0.11117601170E+04  0.11117601170E+04  0.50400001928E-02 0.  1.
    10030    2    1    2    0    0  0.00000000000E+00  0.00000000000E+00  0.92485247661E+03  0.31483727106E+04  0.30094681625E+04 0.  0.
        5    1    3    3  502    0 -0.14762816169E+04  0.21840635984E+02  0.15864783610E+03  0.14849497136E+04  0.46999998093E+01 0.  1.
       -5    1    3    3    0  502  0.14762816169E+04 -0.21840635984E+02  0.76620464051E+03  0.16634229970E+04  0.46999998093E+01 0. -1.
</event>
<event>
 5   0  0.1001961E-05  0.3466054E+04  0.7818609E-02  0.8121882E-01
        2   -1    0    0  501    0  0.00000000000E+00  0.00000000000E+00  0.20436452038E+04  0.20436452038E+04  0.25500000920E-02 0.  1.
       -2   -1    0    0    0  501  0.00000000000E+00  0.00000000000E+00 -0.14696207067E+04  0.14696207067E+04  0.25500000920E-02 0. -1.
    10030    2    1    2    0    0  0.00000000000E+00  0.00000000000E+00  0.57402449710E+03  0.35132659105E+04  0.34660544189E+04 0.  0.
        5    1    3    3  502    0  0.77721207845E+03  0.15179794634E+04  0.59949858645E+03  0.18076893847E+04  0.46999998093E+01 0. -1.
       -5    1    3    3    0  502 -0.77721207845E+03 -0.15179794634E+04 -0.25474089345E+02  0.17055765259E+04  0.46999998093E+01 0.  1.
</event>
<event>
 5   0  0.9797278E-06  0.3191201E+04  0.7818609E-02  0.8191145E-01
        2   -1    0    0  501    0  0.00000000000E+00  0.00000000000E+00  0.10957201848E+04  0.10957201848E+04  0.25500000920E-02 0.  1.
       -2   -1    0    0    0  501  0.00000000000E+00  0.00000000000E+00 -0.23235314102E+04  0.23235314102E+04  0.25500000920E-02 0. -1.
    10030    2    1    2    0    0  0.00000000000E+00  0.00000000000E+00 -0.12278112254E+04  0.34192515950E+04  0.31912005679E+04 0.  0.
        1    1    3    3  502    0 -0.99865952442E+03  0.66178761007E+02  0.71757340569E+03  0.12315080457E+04  0.50400001928E-02 0.  1.
       -1    1    3    3    0  502  0.99865952442E+03 -0.66178761007E+02 -0.19453846311E+04  0.21877435492E+04  0.50400001928E-02 0. -1.
</event>
<event>
 5   0  0.1119100E-05  0.2892802E+04  0.7818609E-02  0.8275022E-01
       -2   -1    0    0    0  501  0.00000000000E+00  0.00000000000E+00  0.11192250716E+04  0.11192250716E+04  0.25500000920E-02 0. -1.
        2   -1    0    0  501    0  0.00000000000E+00  0.00000000000E+00 -0.18692181044E+04  0.18692181044E+04  0.25500000920E-02 0.  1.
    10030    2    1    2    0    0  0.00000000000E+00  0.00000000000E+00 -0.74999303274E+03  0.29884431760E+04  0.28928019405E+04 0.  0.
        2    1    3    3  502    0  0.11335141252E+04  0.63818394401E+03 -0.10283154064E+04  0.16581814115E+04  0.25500000920E-02 0.  1.
       -2    1    3    3    0  502 -0.11335141252E+04 -0.63818394401E+03  0.27832237368E+03  0.13302617645E+04  0.25500000920E-02 0. -1.
</event>
<event>
 5   0  0.3848286E-06  0.3146582E+04  0.7818609E-02  0.8203069E-01
        1   -1    0    0  501    0  0.00000000000E+00  0.00000000000E+00  0.20967261344E+04  0.20967261344E+04  0.50400001928E-02 0.  1.
       -1   -1    0    0    0  501  0.00000000000E+00  0.00000000000E+00 -0.11805282949E+04  0.11805282949E+04  0.50400001928E-02 0. -1.
    10030    2    1    2    0    0  0.00000000000E+00  0.00000000000E+00  0.91619783952E+03  0.32772544293E+04  0.31465819730E+04 0.  0.
        2    1    3    3  502    0 -0.10221341660E+04 -0.10795054982E+04  0.99441439271E+03  0.17885609742E+04  0.25500000920E-02 0.  1.
       -2    1    3    3    0  502  0.10221341660E+04  0.10795054982E+04 -0.78216553182E+02  0.14886934551E+04  0.25500000920E-02 0. -1.
</event>
<event>
 5   0  0.1108153E-05  0.1970802E+04  0.7818609E-02  0.8620395E-01
       -2   -1    0    0    0  501  0.00000000000E+00  0.00000000000E+00  0.89573715360E+03  0.89573715360E+03  0.25500000920E-02 0.  1.
        2   -1    0    0  501    0  0.00000000000E+00  0.00000000000E+00 -0.10840404606E+04  0.10840404606E+04  0.25500000920E-02 0. -1.
    10030    2    1    2    0    0  0.00000000000E+00  0.00000000000E+00 -0.18830330696E+03  0.19797776142E+04  0.19708021885E+04 0.  0.
        4    1    3    3  502    0  0.65992124431E+03 -0.34875898092E+03 -0.74042035946E+03  0.10513575971E+04  0.12699999809E+01 0. -1.
       -4    1    3    3    0  502 -0.65992124431E+03  0.34875898092E+03  0.55211705250E+03  0.92842001703E+03  0.12699999809E+01 0.  1.
</event>
<event>
 5   0  0.1001961E-05  0.3190338E+04  0.7818609E-02  0.8191374E-01
        2   -1    0    0  501    0  0.00000000000E+00  0.00000000000E+00  0.24707860046E+04  0.24707860046E+04  0.25500000920E-02 0.  1.
       -2   -1    0    0    0  501  0.00000000000E+00  0.00000000000E+00 -0.10298601035E+04  0.10298601035E+04  0.25500000920E-02 0. -1.
    10030    2    1    2    0    0  0.00000000000E+00  0.00000000000E+00  0.14409259011E+04  0.35006461080E+04  0.31903378694E+04 0.  0.
        5    1    3    3  502    0  0.39098337200E+03 -0.13764331522E+04 -0.53171616674E+02  0.14318818144E+04  0.46999998093E+01 0. -1.
       -5    1    3    3    0  502 -0.39098337200E+03  0.13764331522E+04  0.14940975178E+04  0.20687642936E+04  0.46999998093E+01 0.  1.
</event>
<event>
 5   0  0.1108153E-05  0.2500317E+04  0.7818609E-02  0.8402873E-01
        2   -1    0    0  501    0  0.00000000000E+00  0.00000000000E+00  0.18792122339E+04  0.18792122339E+04  0.25500000920E-02 0.  1.
       -2   -1    0    0    0  501  0.00000000000E+00  0.00000000000E+00 -0.83167641746E+03  0.83167641747E+03  0.25500000920E-02 0. -1.
    10030    2    1    2    0    0  0.00000000000E+00  0.00000000000E+00  0.10475358164E+04  0.27108886513E+04  0.25003171785E+04 0.  0.
        4    1    3    3  502    0 -0.38069784950E+03 -0.15617231720E+03  0.18036843844E+04  0.18500269232E+04  0.12699999809E+01 0.  1.
       -4    1    3    3    0  502  0.38069784950E+03  0.15617231720E+03 -0.75614856795E+03  0.86086172814E+03  0.12699999809E+01 0. -1.
</event>
<event>
 5   0  0.1119100E-05  0.3025192E+04  0.7818609E-02  0.8236573E-01
        2   -1    0    0  501    0  0.00000000000E+00  0.00000000000E+00  0.30490168676E+04  0.30490168676E+04  0.25500000920E-02 0.  1.
       -2   -1    0    0    0  501  0.00000000000E+00  0.00000000000E+00 -0.75038849435E+03  0.75038849435E+03  0.25500000920E-02 0. -1.
    10030    2    1    2    0    0  0.00000000000E+00  0.00000000000E+00  0.22986283732E+04  0.37994053619E+04  0.30251923420E+04 0.  0.
        2    1    3    3  502    0  0.30421705762E+03 -0.90714541839E+03  0.26206664295E+04  0.27898661908E+04  0.25500000920E-02 0.  1.
       -2    1    3    3    0  502 -0.30421705762E+03  0.90714541839E+03 -0.32203805625E+03  0.10095391711E+04  0.25500000920E-02 0. -1.
</event>
<event>
 5   0  0.1001961E-05  0.3032783E+04  0.7818609E-02  0.8234431E-01
       -2   -1    0    0    0  501  0.00000000000E+00  0.00000000000E+00  0.16400064979E+04  0.16400064979E+04  0.25500000920E-02 0. -1.
        2   -1    0    0  501    0  0.00000000000E+00  0.00000000000E+00 -0.14020935918E+04  0.14020935918E+04  0.25500000920E-02 0.  1.
    10030    2    1    2    0    0  0.00000000000E+00  0.00000000000E+00  0.23791290608E+03  0.30421000897E+04  0.30327826175E+04 0.  0.
        5    1    3    3  502    0  0.50897989998E+02 -0.68167668336E+03  0.14766831308E+04  0.16272335004E+04  0.46999998093E+01 0. -1.
       -5    1    3    3    0  502 -0.50897989998E+02  0.68167668336E+03 -0.12387702247E+04  0.14148665893E+04  0.46999998093E+01 0.  1.
</event>
<event>
 5   0  0.4250961E-06  0.2265873E+04  0.7818609E-02  0.8491500E-01
        1   -1    0    0  501    0  0.00000000000E+00  0.00000000000E+00  0.19446686814E+04  0.19446686814E+04  0.50400001928E-02 0. -1.
       -1   -1    0    0    0  501  0.00000000000E+00  0.00000000000E+00 -0.66003251333E+03  0.66003251335E+03  0.50400001928E-02 0.  1.
    10030    2    1    2    0    0  0.00000000000E+00  0.00000000000E+00  0.12846361681E+04  0.26047011948E+04  0.22658725096E+04 0.  0.
        1    1    3    3  502    0  0.84694615748E+03 -0.57129448499E+03  0.79339681354E+02  0.10246901811E+04  0.50400001928E-02 0.  1.
       -1    1    3    3    0  502 -0.84694615748E+03  0.57129448499E+03  0.12052964868E+04  0.15800110137E+04  0.50400001928E-02 0. -1.
</event>
<event>
 5   0  0.1007567E-05  0.3096111E+04  0.7818609E-02  0.8216806E-01
        2   -1    0    0  501    0  0.00000000000E+00  0.00000000000E+00  0.13611683663E+04  0.13611683663E+04  0.25500000920E-02 0. -1.
       -2   -1    0    0    0  501  0.00000000000E+00  0.00000000000E+00 -0.17606024640E+04  0.17606024640E+04  0.25500000920E-02 0.  1.
    10030    2    1    2    0    0  0.00000000000E+00  0.00000000000E+00 -0.39943409778E+03  0.31217708303E+04  0.30961113543E+04 0.  0.
        3    1    3    3  502    0 -0.89995013014E+03 -0.88009651567E+03 -0.11082934647E+04  0.16771387920E+04  0.10100000352E+00 0.  1.
       -3    1    3    3    0  502  0.89995013014E+03  0.88009651567E+03  0.70885936694E+03  0.14446320383E+04  0.10100000352E+00 0. -1.
</event>
<event>
 5   0  0.4250961E-06  0.1636674E+04  0.7818609E-02  0.8798329E-01
       -1   -1    0    0    0  501  0.00000000000E+00  0.00000000000E+00  0.14587691501E+04  0.14587691501E+04  0.50400001928E-02 0.  1.
        1   -1    0    0  501    0  0.00000000000E+00  0.00000000000E+00 -0.45906861483E+03  0.45906861486E+03  0.50400001928E-02 0. -1.
    10030    2    1    2    0    0  0.00000000000E+00  0.00000000000E+00  0.99970053529E+03  0.19178377650E+04  0.16366736182E+04 0.  0.
        1    1    3    3  502    0 -0.63520376323E+03  0.18976469925E+03 -0.62341148576E+02  0.66586851610E+03  0.50400001928E-02 0. -1.
       -1    1    3    3    0  502  0.63520376323E+03 -0.18976469925E+03  0.10620416839E+04  0.12519692489E+04  0.50400001928E-02 0.  1.
</event>
<event>
 5   0  0.1119100E-05  0.3048142E+04  0.7818609E-02  0.8230116E-01
        2   -1    0    0  501    0  0.00000000000E+00  0.00000000000E+00  0.17064872259E+04  0.17064872259E+04  0.25500000920E-02 0. -1.
       -2   -1    0    0    0  501  0.00000000000E+00  0.00000000000E+00 -0.13611539656E+04  0.13611539656E+04  0.25500000920E-02 0.  1.
    10030    2    1    2    0    0  0.00000000000E+00  0.00000000000E+00  0.34533326029E+03  0.30676411915E+04  0.30481416337E+04 0.  0.
        2    1    3    3  502    0  0.90583893092E+02 -0.78186923574E+03 -0.11407749858E+04  0.13859626661E+04  0.25500000920E-02 0.  1.
       -2    1    3    3    0  502 -0.90583893092E+02  0.78186923574E+03  0.14861082461E+04  0.16816785254E+04  0.25500000920E-02 0. -1.
</event>
<event>
 5   0  0.1001961E-05  0.2003706E+04  0.7818609E-02  0.8604890E-01
        2   -1    0    0  501    0  0.00000000000E+00  0.00000000000E+00  0.96699436473E+03  0.96699436474E+03  0.25500000920E-02 0.  1.
       -2   -1    0    0    0  501  0.00000000000E+00  0.00000000000E+00 -0.10379677801E+04  0.10379677801E+04  0.25500000920E-02 0. -1.
    10030    2    1    2    0    0  0.00000000000E+00  0.00000000000E+00 -0.70973415378E+02  0.20049621449E+04  0.20037055614E+04 0.  0.
        5    1    3    3  502    0 -0.41435556553E+03  0.68550275895E+03 -0.63759685094E+03  0.10237950974E+04  0.46999998093E+01 0. -1.
       -5    1    3    3    0  502  0.41435556553E+03 -0.68550275895E+03  0.56662343556E+03  0.98116704742E+03  0.46999998093E+01 0.  1.
</event>
<event>
 5   0  0.4250961E-06  0.2975227E+04  0.7818609E-02  0.8250840E-01
        1   -1    0    0  501    0  0.00000000000E+00  0.00000000000E+00  0.20807435526E+04  0.20807435526E+04  0.50400001928E-02 0.  1.
       -1   -1    0    0    0  501  0.00000000000E+00  0.00000000000E+00 -0.10635593325E+04  0.10635593326E+04  0.50400001928E-02 0. -1.
    10030    2    1    2    0    0  0.00000000000E+00  0.00000000000E+00  0.10171842201E+04  0.31443028852E+04  0.29752272008E+04 0.  0.
        1    1    3    3  502    0  0.66641518659E+03 -0.98074623256E+03 -0.44080276962E+03  0.12650215237E+04  0.50400001928E-02 0. -1.
       -1    1    3    3    0  502 -0.66641518659E+03  0.98074623256E+03  0.14579869897E+04  0.18792813615E+04  0.50400001928E-02 0.  1.
</event>
<event>
 5   0  0.3807334E-06  0.3173717E+04  0.7818609E-02  0.8195793E-01
       -1   -1    0    0    0  501  0.00000000000E+00  0.00000000000E+00  0.12951719185E+04  0.12951719185E+04  0.50400001928E-02 0.  1.
        1   -1    0    0  501    0  0.00000000000E+00  0.00000000000E+00 -0.19442360331E+04  0.19442360331E+04  0.50400001928E-02 0. -1.
    10030    2    1    2    0    0  0.00000000000E+00  0.00000000000E+00 -0.64906411462E+03  0.32394079516E+04  0.31737170088E+04 0.  0.
        4    1    3    3  502    0  0.10026443532E+04 -0.10294993081E+03 -0.15755535760E+04  0.18703649566E+04  0.12699999809E+01 0. -1.
       -4    1    3    3    0  502 -0.10026443532E+04  0.10294993081E+03  0.92648946137E+03  0.13690429950E+04  0.12699999809E+01 0.  1.
</event>
<event>
 5   0  0.3838525E-06  0.2928921E+04  0.7818609E-02  0.8264324E-01
        1   -1    0    0  501    0  0.00000000000E+00  0.00000000000E+00  0.13497309887E+04  0.13497309888E+04  0.50400001928E-02 0.  1.
       -1   -1    0    0    0  501  0.00000000000E+00  0.00000000000E+00 -0.15889422965E+04  0.15889422966E+04  0.50400001928E-02 0. -1.
    10030    2    1    2    0    0  0.00000000000E+00  0.00000000000E+00 -0.23921130780E+03  0.29386732853E+04  0.29289210689E+04 0.  0.
        3    1    3    3  502    0 -0.32545970270E+03  0.11101851725E+04  0.78127569472E+03  0.13960038885E+04  0.10100000352E+00 0.  1.
       -3    1    3    3    0  502  0.32545970270E+03 -0.11101851725E+04 -0.10204870025E+04  0.15426693968E+04  0.10100000352E+00 0. -1.
</event>
<event>
 5   0  0.3493125E-06  0.2907847E+04  0.7818609E-02  0.8270547E-01
       -3   -1    0    0    0  501  0.00000000000E+00  0.00000000000E+00  0.15663848957E+04  0.15663848989E+04  0.10100000352E+00 0.  1.
        3   -1    0    0  501    0  0.00000000000E+00  0.00000000000E+00 -0.13495365460E+04  0.13495365498E+04  0.10100000352E+00 0. -1.
    10030    2    1    2    0    0  0.00000000000E+00  0.00000000000E+00  0.21684834970E+03  0.29159214487E+04  0.29078470882E+04 0.  0.
        5    1    3    3  502    0 -0.86317926897E+03 -0.11656000789E+04  0.72997813135E+01  0.14504404059E+04  0.46999998093E+01 0. -1.
       -5    1    3    3    0  502  0.86317926897E+03  0.11656000789E+04  0.20954856839E+03  0.14654810428E+04  0.46999998093E+01 0.  1.
</event>
<event>
 5   0  0.3493125E-06  0.3064423E+04  0.7818609E-02  0.8225570E-01
        3   -1    0    0  501    0  0.00000000000E+00  0.00000000000E+00  0.93641758081E+03  0.93641758626E+03  0.10100000352E+00 0.  1.
       -3   -1    0    0    0  501  0.00000000000E+00  0.00000000000E+00 -0.25070774928E+04  0.25070774948E+04  0.10100000352E+00 0. -1.
    10030    2    1    2    0    0  0.00000000000E+00  0.00000000000E+00 -0.15706599120E+04  0.34434950811E+04  0.30644225907E+04 0.  0.
        4    1    3    3  502    0  0.83000199980E+03  0.76706957862E+03  0.37723689266E+03  0.11914731823E+04  0.12699999809E+01 0.  1.
       -4    1    3    3    0  502 -0.83000199980E+03 -0.76706957862E+03 -0.19478968046E+04  0.22520218987E+04  0.12699999809E+01 0. -1.
</event>
<event>
 5   0  0.3838525E-06  0.1788577E+04  0.7818609E-02  0.8712398E-01
       -1   -1    0    0    0  501  0.00000000000E+00  0.00000000000E+00  0.49564120722E+03  0.49564120725E+03  0.50400001928E-02 0. -1.
        1   -1    0    0  501    0  0.00000000000E+00  0.00000000000E+00 -0.16135697347E+04  0.16135697347E+04  0.50400001928E-02 0.  1.
    10030    2    1    2    0    0  0.00000000000E+00  0.00000000000E+00 -0.11179285275E+04  0.21092109420E+04  0.17885766981E+04 0.  0.
        3    1    3    3  502    0  0.30617976556E+03  0.54440947760E+03  0.19578917118E+03  0.65456942939E+03  0.10100000352E+00 0. -1.
       -3    1    3    3    0  502 -0.30617976556E+03 -0.54440947760E+03 -0.13137176987E+04  0.14546415126E+04  0.10100000352E+00 0.  1.
</event>
<event>
 5   0  0.1001961E-05  0.3115687E+04  0.7818609E-02  0.8211446E-01
       -2   -1    0    0    0  501  0.00000000000E+00  0.00000000000E+00  0.18623077281E+04  0.18623077281E+04  0.25500000920E-02 0. -1.
        2   -1    0    0  501    0  0.00000000000E+00  0.00000000000E+00 -0.13031550032E+04  0.13031550032E+04  0.25500000920E-02 0.  1.
    10030    2    1    2    0    0  0.00000000000E+00  0.00000000000E+00  0.55915272485E+03  0.31654627313E+04  0.31156865268E+04 0.  0.
        5    1    3    3  502    0  0.11663625682E+04 -0.10324998899E+04  0.29979097362E+03  0.15863021090E+04  0.46999998093E+01 0. -1.
       -5    1    3    3    0  502 -0.11663625682E+04  0.10324998899E+04  0.25936175124E+03  0.15791606223E+04  0.46999998093E+01 0.  1.
</event>
<event>
 5   0  0.3493125E-06  0.3083988E+04  0.7818609E-02  0.8220146E-01
        3   -1    0    0  501    0  0.00000000000E+00  0.00000000000E+00  0.15297015813E+04  0.15297015846E+04  0.10100000352E+00 0. -1.
       -3   -1    0    0    0  501  0.00000000000E+00  0.00000000000E+00 -0.15543852481E+04  0.15543852514E+04  0.10100000352E+00 0.  1.
    10030    2    1    2    0    0  0.00000000000E+00  0.00000000000E+00 -0.24683666836E+02  0.30840868361E+04  0.30839880559E+04 0.  0.
        4    1    3    3  502    0 -0.84428282030E+03  0.91632239631E+03 -0.92082222575E+03  0.15493144932E+04  0.12699999809E+01 0.  1.
       -4    1    3    3    0  502  0.84428282030E+03 -0.91632239631E+03  0.89613855892E+03  0.15347723428E+04  0.12699999809E+01 0. -1.
</event>
<event>
 5   0  0.1001961E-05  0.2912002E+04  0.7818609E-02  0.8269315E-01
        2   -1    0    0  501    0  0.00000000000E+00  0.00000000000E+00  0.21994898528E+04  0.21994898528E+04  0.25500000920E-02 0. -1.
       -2   -1    0    0    0  501  0.00000000000E+00  0.00000000000E+00 -0.96383209615E+03  0.96383209616E+03  0.25500000920E-02 0.  1.
    10030    2    1    2    0    0  0.00000000000E+00  0.00000000000E+00  0.12356577566E+04  0.31633219489E+04  0.29120020022E+04 0.  0.
        5    1    3    3  502    0  0.30646669256E+03  0.82535349101E+03 -0.64190385112E+03  0.10895838026E+04  0.46999998093E+01 0.  1.
       -5    1    3    3    0  502 -0.30646669256E+03 -0.82535349101E+03  0.18775616077E+04  0.20737381463E+04  0.46999998093E+01 0. -1.
</event>
<event>
 5   0  0.3807334E-06  0.3091632E+04  0.7818609E-02  0.8218038E-01
        1   -1    0    0  501    0  0.00000000000E+00  0.00000000000E+00  0.13000583402E+04  0.13000583402E+04  0.50400001928E-02 0.  1.
       -1   -1    0    0    0  501  0.00000000000E+00  0.00000000000E+00 -0.18380309573E+04  0.18380309573E+04  0.50400001928E-02 0. -1.
    10030    2    1    2    0    0  0.00000000000E+00  0.00000000000E+00 -0.53797261706E+03  0.31380892975E+04  0.30916322392E+04 0.  0.
        4    1    3    3  502    0 -0.68968376592E+03 -0.13784414505E+04 -0.38814427637E+03  0.15894722777E+04  0.12699999809E+01 0.  1.
       -4    1    3    3    0  502  0.68968376592E+03  0.13784414505E+04 -0.14982834069E+03  0.15486170198E+04  0.12699999809E+01 0. -1.
</event>
<event>
 5   0  0.4139628E-06  0.3127113E+04  0.7818609E-02  0.8208336E-01
       -1   -1    0    0    0  501  0.00000000000E+00  0.00000000000E+00  0.13247033474E+04  0.13247033474E+04  0.50400001928E-02 0. -1.
        1   -1    0    0  501    0  0.00000000000E+00  0.00000000000E+00 -0.18454765111E+04  0.18454765111E+04  0.50400001928E-02 0.  1.
    10030    2    1    2    0    0  0.00000000000E+00  0.00000000000E+00 -0.52077316367E+03  0.31701798585E+04  0.31271129892E+04 0.  0.
        5    1    3    3  502    0  0.51065717351E+03  0.13209056516E+03 -0.17525503270E+04  0.18302113006E+04  0.46999998093E+01 0.  1.
       -5    1    3    3    0  502 -0.51065717351E+03 -0.13209056516E+03  0.12317771633E+04  0.13399685579E+04  0.46999998093E+01 0. -1.
</event>
<event>
 5   0  0.1007567E-05  0.2051527E+04  0.7818609E-02  0.8582902E-01
       -2   -1    0    0    0  501  0.00000000000E+00  0.00000000000E+00  0.11525119844E+04  0.11525119844E+04  0.25500000920E-02 0.  1.
        2   -1    0    0  501    0  0.00000000000E+00  0.00000000000E+00 -0.91295457878E+03  0.91295457878E+03  0.25500000920E-02 0. -1.
    10030    2    1    2    0    0  0.00000000000E+00  0.00000000000E+00  0.23955740558E+03  0.20654665631E+04  0.20515273269E+04 0.  0.
        3    1    3    3  502    0  0.26830177277E+03  0.32461625106E+03 -0.82189963477E+03  0.92351533369E+03  0.10100000352E+00 0. -1.
       -3    1    3    3    0  502 -0.26830177277E+03 -0.32461625106E+03  0.10614570404E+04  0.11419512294E+04  0.10100000352E+00 0.  1.
</event>
<event>
 5   0  0.1001961E-05  0.2794387E+04  0.7818609E-02  0.8305013E-01
       -2   -1    0    0    0  501  0.00000000000E+00  0.00000000000E+00  0.11366264802E+04  0.11366264802E+04  0.25500000920E-02 0. -1.
        2   -1    0    0  501    0  0.00000000000E+00  0.00000000000E+00 -0.17174944723E+04  0.17174944723E+04  0.25500000920E-02 0.  1.
    10030    2    1    2    0    0  0.00000000000E+00  0.00000000000E+00 -0.58086799212E+03  0.28541209525E+04  0.27943870146E+04 0.  0.
        5    1    3    3  502    0  0.37774099554E+03  0.29718710030E+03  0.10495243275E+04  0.11543534278E+04  0.46999998093E+01 0. -1.
       -5    1    3    3    0  502 -0.37774099554E+03 -0.29718710030E+03 -0.16303923196E+04  0.16997675247E+04  0.46999998093E+01 0.  1.
</event>
<event>
 5   0  0.3493125E-06  0.2787090E+04  0.7818609E-02  0.8307288E-01
        3   -1    0    0  501    0  0.00000000000E+00  0.00000000000E+00  0.10629509112E+04  0.10629509160E+04  0.10100000352E+00 0.  1.
       -3   -1    0    0    0  501  0.00000000000E+00  0.00000000000E+00 -0.18269586414E+04  0.18269586442E+04  0.10100000352E+00 0. -1.
    10030    2    1    2    0    0  0.00000000000E+00  0.00000000000E+00 -0.76400773024E+03  0.28899095602E+04  0.27870897823E+04 0.  0.
        1    1    3    3  502    0  0.34168604440E+03 -0.88698978287E+03  0.67464251869E+03  0.11656083201E+04  0.50400001928E-02 0.  1.
       -1    1    3    3    0  502 -0.34168604440E+03  0.88698978287E+03 -0.14386502489E+04  0.17243012401E+04  0.50400001928E-02 0. -1.
</event>
<event>
 5   0  0.1108153E-05  0.3104295E+04  0.7818609E-02  0.8214560E-01
        2   -1    0    0  501    0  0.00000000000E+00  0.00000000000E+00  0.71248453303E+03  0.71248453303E+03  0.25500000920E-02 0. -1.
       -2   -1    0    0    0  501  0.00000000000E+00  0.00000000000E+00 -0.33813526316E+04  0.33813526316E+04  0.25500000920E-02 0.  1.
    10030    2    1    2    0    0  0.00000000000E+00  0.00000000000E+00 -0.26688680986E+04  0.40938371646E+04  0.31042947352E+04 0.  0.
        4    1    3    3  502    0  0.13901562462E+04 -0.53683122773E+02 -0.42674043375E+03  0.14551719064E+04  0.12699999809E+01 0. -1.
       -4    1    3    3    0  502 -0.13901562462E+04  0.53683122773E+02 -0.22421276648E+04  0.26386652582E+04  0.12699999809E+01 0.  1.
</event>
<event>
 5   0  0.4250961E-06  0.3032623E+04  0.7818609E-02  0.8234476E-01
        1   -1    0    0  501    0  0.00000000000E+00  0.00000000000E+00  0.16558262585E+04  0.16558262585E+04  0.50400001928E-02 0.  1.
       -1   -1    0    0    0  501  0.00000000000E+00  0.00000000000E+00 -0.13885514598E+04  0.13885514599E+04  0.50400001928E-02 0. -1.
    10030    2    1    2    0    0  0.00000000000E+00  0.00000000000E+00  0.26727479863E+03  0.30443777183E+04  0.30326226066E+04 0.  0.
        1    1    3    3  502    0 -0.49539560664E+03 -0.76078219875E+03 -0.10855633914E+04  0.14151516660E+04  0.50400001928E-02 0. -1.
       -1    1    3    3    0  502  0.49539560664E+03  0.76078219875E+03  0.13528381901E+04  0.16292260523E+04  0.50400001928E-02 0.  1.
</event>
<event>
 5   0  0.3848286E-06  0.2574990E+04  0.7818609E-02  0.8376746E-01
        1   -1    0    0  501    0  0.00000000000E+00  0.00000000000E+00  0.11249930451E+04  0.11249930451E+04  0.50400001928E-02 0.  1.
       -1   -1    0    0    0  501  0.00000000000E+00  0.00000000000E+00 -0.14734700043E+04  0.14734700043E+04  0.50400001928E-02 0. -1.
    10030    2    1    2    0    0  0.00000000000E+00  0.00000000000E+00 -0.34847695919E+03  0.25984630494E+04  0.25749901025E+04 0.  0.
        2    1    3    3  502    0  0.34780765802E+03  0.23315602624E+03  0.10543621572E+04  0.11344652741E+04  0.25500000920E-02 0.  1.
       -2    1    3    3    0  502 -0.34780765802E+03 -0.23315602624E+03 -0.14028391164E+04  0.14639977753E+04  0.25500000920E-02 0. -1.
</event>
<event>
 5   0  0.3807334E-06  0.1672553E+04  0.7818609E-02  0.8777175E-01
        1   -1    0    0  501    0  0.00000000000E+00  0.00000000000E+00  0.11165220409E+04  0.11165220409E+04  0.50400001928E-02 0.  1.
       -1   -1    0    0    0  501  0.00000000000E+00  0.00000000000E+00 -0.62637240660E+03  0.62637240662E+03  0.50400001928E-02 0. -1.
    10030    2    1    2    0    0  0.00000000000E+00  0.00000000000E+00  0.49014963432E+03  0.17428944475E+04  0.16725532551E+04 0.  0.
        4    1    3    3  502    0 -0.72851813053E+03  0.19457355832E+02 -0.18234574625E+03  0.75124485974E+03  0.12699999809E+01 0. -1.
       -4    1    3    3    0  502  0.72851813053E+03 -0.19457355832E+02  0.67249538057E+03  0.99164958781E+03  0.12699999809E+01 0.  1.
</event>
<event>
 5   0  0.3807334E-06  0.1863638E+04  0.7818609E-02  0.8673171E-01
       -1   -1    0    0    0  501  0.00000000000E+00  0.00000000000E+00  0.12924940103E+04  0.12924940103E+04  0.50400001928E-02 0. -1.
        1   -1    0    0  501    0  0.00000000000E+00  0.00000000000E+00 -0.67179134928E+03  0.67179134930E+03  0.50400001928E-02 0.  1.
    10030    2    1    2    0    0  0.00000000000E+00  0.00000000000E+00  0.62070266098E+03  0.19642853596E+04  0.18636376205E+04 0.  0.
        4    1    3    3  502    0 -0.76622919690E+03  0.37279408193E+03 -0.87111090854E+02  0.85654688416E+03  0.12699999809E+01 0.  1.
       -4    1    3    3    0  502  0.76622919690E+03 -0.37279408193E+03  0.70781375183E+03  0.11077384754E+04  0.12699999809E+01 0. -1.
</event>
<event>
 5   0  0.4250961E-06  0.1705825E+04  0.7818609E-02  0.8758049E-01
        1   -1    0    0  501    0  0.00000000000E+00  0.00000000000E+00  0.10684731919E+04  0.10684731919E+04  0.50400001928E-02 0. -1.
       -1   -1    0    0    0  501  0.00000000000E+00  0.00000000000E+00 -0.68084036281E+03  0.68084036283E+03  0.50400001928E-02 0.  1.
    10030    2    1    2    0    0  0.00000000000E+00  0.00000000000E+00  0.38763282909E+03  0.17493135547E+04  0.17058249332E+04 0.  0.
        1    1    3    3  502    0  0.78801961724E+03 -0.22331522298E+03 -0.50188866742E+02  0.82058730695E+03  0.50400001928E-02 0.  1.
       -1    1    3    3    0  502 -0.78801961724E+03  0.22331522298E+03  0.43782169583E+03  0.92872624779E+03  0.50400001928E-02 0. -1.
</event>
<event>
 5   0  0.4139628E-06  0.1607555E+04  0.7818609E-02  0.8815920E-01
        1   -1    0    0  501    0  0.00000000000E+00  0.00000000000E+00  0.16989478597E+04  0.16989478597E+04  0.50400001928E-02 0.  1.
       -1   -1    0    0    0  501  0.00000000000E+00  0.00000000000E+00 -0.38026951036E+03  0.38026951039E+03  0.50400001928E-02 0. -1.
    10030    2    1    2    0    0  0.00000000000E+00  0.00000000000E+00  0.13186783493E+04  0.20792173701E+04  0.16075547528E+04 0.  0.
        5    1    3    3  502    0 -0.73429242184E+03  0.27843134166E+03  0.88083474128E+03  0.11800852953E+04  0.46999998093E+01 0. -1.
       -5    1    3    3    0  502  0.73429242184E+03 -0.27843134166E+03  0.43784360806E+03  0.89913207478E+03  0.46999998093E+01 0.  1.
</event>
<event>
 5   0  0.1108153E-05  0.3086478E+04  0.7818609E-02  0.8219459E-01
       -2   -1    0    0    0  501  0.00000000000E+00  0.00000000000E+00  0.16525920355E+04  0.16525920355E+04  0.25500000920E-02 0.  1.
        2   -1    0    0  501    0  0.00000000000E+00  0.00000000000E+00 -0.14411216607E+04  0.14411216607E+04  0.25500000920E-02 0. -1.
    10030    2    1    2    0    0  0.00000000000E+00  0.00000000000E+00  0.21147037478E+03  0.30937136962E+04  0.30864777198E+04 0.  0.
        4    1    3    3  502    0 -0.12416888270E+04  0.79559027565E+03 -0.35011617021E+03  0.15156971912E+04  0.12699999809E+01 0. -1.
       -4    1    3    3    0  502  0.12416888270E+04 -0.79559027565E+03  0.56158654500E+03  0.15780165050E+04  0.12699999809E+01 0.  1.
</event>
<event>
 5   0  0.4139628E-06  0.2911229E+04  0.7818609E-02  0.8269544E-01
        1   -1    0    0  501    0  0.00000000000E+00  0.00000000000E+00  0.15454565065E+04  0.15454565065E+04  0.50400001928E-02 0.  1.
       -1   -1    0    0    0  501  0.00000000000E+00  0.00000000000E+00 -0.13709956603E+04  0.13709956603E+04  0.50400001928E-02 0. -1.
    10030    2    1    2    0    0  0.00000000000E+00  0.00000000000E+00  0.17446084614E+03  0.29164521668E+04  0.29112294060E+04 0.  0.
        5    1    3    3  502    0 -0.41474961858E+03  0.12011797035E+04 -0.62393194877E+03  0.14156846728E+04  0.46999998093E+01 0. -1.
       -5    1    3    3    0  502  0.41474961858E+03 -0.12011797035E+04  0.79839279491E+03  0.15007674940E+04  0.46999998093E+01 0.  1.
</event>
<event>
 5   0  0.1108153E-05  0.2996601E+04  0.7818609E-02  0.8244702E-01
       -2   -1    0    0    0  501  0.00000000000E+00  0.00000000000E+00  0.87081775893E+03  0.87081775893E+03  0.25500000920E-02 0.  1.
        2   -1    0    0  501    0  0.00000000000E+00  0.00000000000E+00 -0.25779270111E+04  0.25779270111E+04  0.25500000920E-02 0. -1.
    10030    2    1    2    0    0  0.00000000000E+00  0.00000000000E+00 -0.17071092522E+04  0.34487447700E+04  0.29966011563E+04 0.  0.
        4    1    3    3  502    0  0.14935173776E+04  0.60835396337E+02 -0.73501952874E+03  0.16656981789E+04  0.12699999809E+01 0. -1.
       -4    1    3    3    0  502 -0.14935173776E+04 -0.60835396337E+02 -0.97208972343E+03  0.17830465911E+04  0.12699999809E+01 0.  1.
</event>
<event>
 5   0  0.4250961E-06  0.2740124E+04  0.7818609E-02  0.8322102E-01
        1   -1    0    0  501    0  0.00000000000E+00  0.00000000000E+00  0.29639160036E+04  0.29639160036E+04  0.50400001928E-02 0. -1.
       -1   -1    0    0    0  501  0.00000000000E+00  0.00000000000E+00 -0.63330719033E+03  0.63330719035E+03  0.50400001928E-02 0.  1.
    10030    2    1    2    0    0  0.00000000000E+00  0.00000000000E+00  0.23306088133E+04  0.35972231939E+04  0.27401235860E+04 0.  0.
        1    1    3    3  502    0 -0.27020003865E+03 -0.61491805023E+03 -0.40233946956E+03  0.78294911596E+03  0.50400001928E-02 0.  1.
       -1    1    3    3    0  502  0.27020003865E+03  0.61491805023E+03  0.27329482828E+04  0.28142740780E+04  0.50400001928E-02 0. -1.
</event>
<event>
 5   0  0.9797278E-06  0.2136001E+04  0.7818609E-02  0.8545548E-01
       -2   -1    0    0    0  501  0.00000000000E+00  0.00000000000E+00  0.63453327325E+03  0.63453327326E+03  0.25500000920E-02 0. -1.
        2   -1    0    0  501    0  0.00000000000E+00  0.00000000000E+00 -0.17975811713E+04  0.17975811713E+04  0.25500000920E-02 0.  1.
    10030    2    1    2    0    0  0.00000000000E+00  0.00000000000E+00 -0.11630478980E+04  0.24321144445E+04  0.21360009968E+04 0.  0.
        1    1    3    3  502    0 -0.10399299149E+03 -0.42062906551E+03 -0.16930049714E+04  0.17475723694E+04  0.50400001928E-02 0.  1.
       -1    1    3    3    0  502  0.10399299149E+03  0.42062906551E+03  0.52995707336E+03  0.68454207516E+03  0.50400001928E-02 0. -1.
</event>
<event>
 5   0  0.3838525E-06  0.3156431E+04  0.7818609E-02  0.8200419E-01
       -1   -1    0    0    0  501  0.00000000000E+00  0.00000000000E+00  0.14830057253E+04  0.14830057253E+04  0.50400001928E-02 0.  1.
        1   -1    0    0  501    0  0.00000000000E+00  0.00000000000E+00 -0.16795378866E+04  0.16795378866E+04  0.50400001928E-02 0. -1.
    10030    2    1    2    0    0  0.00000000000E+00  0.00000000000E+00 -0.19653216128E+03  0.31625436119E+04  0.31564310869E+04 0.  0.
        3    1    3    3  502    0  0.11103381900E+04 -0.71854545588E+03  0.76456697893E+03  0.15276521672E+04  0.10100000352E+00 0.  1.
       -3    1    3    3    0  502 -0.11103381900E+04  0.71854545588E+03 -0.96109914020E+03  0.16348914447E+04  0.10100000352E+00 0. -1.
</event>
<event>
 5   0  0.1119100E-05  0.3033661E+04  0.7818609E-02  0.8234184E-01
        2   -1    0    0  501    0  0.00000000000E+00  0.00000000000E+00  0.20565726641E+04  0.20565726641E+04  0.25500000920E-02 0. -1.
       -2   -1    0    0    0  501  0.00000000000E+00  0.00000000000E+00 -0.11187422528E+04  0.11187422528E+04  0.25500000920E-02 0.  1.
    10030    2    1    2    0    0  0.00000000000E+00  0.00000000000E+00  0.93783041131E+03  0.31753149169E+04  0.30336609799E+04 0.  0.
        2    1    3    3  502    0 -0.50856672585E+03 -0.10340918100E+04 -0.56343970414E+03  0.12827510617E+04  0.25500000920E-02 0.  1.
       -2    1    3    3    0  502  0.50856672585E+03  0.10340918100E+04  0.15012701155E+04  0.18925638551E+04  0.25500000920E-02 0. -1.
</event>
<event>
 5   0  0.4250961E-06  0.3008575E+04  0.7818609E-02  0.8241286E-01
       -1   -1    0    0    0  501  0.00000000000E+00  0.00000000000E+00  0.92355964144E+03  0.92355964145E+03  0.50400001928E-02 0.  1.
        1   -1    0    0  501    0  0.00000000000E+00  0.00000000000E+00 -0.24501730660E+04  0.24501730660E+04  0.50400001928E-02 0. -1.
    10030    2    1    2    0    0  0.00000000000E+00  0.00000000000E+00 -0.15266134245E+04  0.33737327074E+04  0.30085750503E+04 0.  0.
        1    1    3    3  502    0 -0.92538739088E+03 -0.36994488398E+03 -0.20268698486E+04  0.22586284386E+04  0.50400001928E-02 0. -1.
       -1    1    3    3    0  502  0.92538739088E+03  0.36994488398E+03  0.50025642413E+03  0.11151042688E+04  0.50400001928E-02 0.  1.
</event>
<event>
 5   0  0.3838525E-06  0.3061752E+04  0.7818609E-02  0.8226314E-01
        1   -1    0    0  501    0  0.00000000000E+00  0.00000000000E+00  0.24753628946E+04  0.24753628946E+04  0.50400001928E-02 0. -1.
       -1   -1    0    0    0  501  0.00000000000E+00  0.00000000000E+00 -0.94676243872E+03  0.94676243873E+03  0.50400001928E-02 0.  1.
    10030    2    1    2    0    0  0.00000000000E+00  0.00000000000E+00  0.15286004558E+04  0.34221253333E+04  0.30617515319E+04 0.  0.
        3    1    3    3  502    0  0.83193208946E+03 -0.12635638268E+04  0.50247143268E+03  0.15941085587E+04  0.10100000352E+00 0. -1.
       -3    1    3    3    0  502 -0.83193208946E+03  0.12635638268E+04  0.10261290232E+04  0.18280167746E+04  0.10100000352E+00 0.  1.
</event>
<event>
 5   0  0.4250961E-06  0.2344028E+04  0.7818609E-02  0.8460761E-01
       -1   -1    0    0    0  501  0.00000000000E+00  0.00000000000E+00  0.64875557983E+03  0.64875557985E+03  0.50400001928E-02 0. -1.
        1   -1    0    0  501    0  0.00000000000E+00  0.00000000000E+00 -0.21173108659E+04  0.21173108659E+04  0.50400001928E-02 0.  1.
    10030    2    1    2    0    0  0.00000000000E+00  0.00000000000E+00 -0.14685552861E+04  0.27660664458E+04  0.23440283604E+04 0.  0.
        1    1    3    3  502    0  0.20133046972E+03 -0.10062017574E+04 -0.14024822713E+04  0.17377952860E+04  0.50400001928E-02 0.  1.
       -1    1    3    3    0  502 -0.20133046972E+03  0.10062017574E+04 -0.66073014756E+02  0.10282711598E+04  0.50400001928E-02 0. -1.
</event>
<event>
 5   0  0.1001961E-05  0.3088397E+04  0.7818609E-02  0.8218929E-01
        2   -1    0    0  501    0  0.00000000000E+00  0.00000000000E+00  0.18653269681E+04  0.18653269681E+04  0.25500000920E-02 0.  1.
       -2   -1    0    0    0  501  0.00000000000E+00  0.00000000000E+00 -0.12783547292E+04  0.12783547292E+04  0.25500000920E-02 0. -1.
    10030    2    1    2    0    0  0.00000000000E+00  0.00000000000E+00  0.58697223891E+03  0.31436816973E+04  0.30883973522E+04 0.  0.
        5    1    3    3  502    0 -0.88227677609E+02 -0.25244016349E+03  0.18415712380E+04  0.18608914192E+04  0.46999998093E+01 0.  1.
       -5    1    3    3    0  502  0.88227677609E+02  0.25244016349E+03 -0.12545989991E+04  0.12827902782E+04  0.46999998093E+01 0. -1.
</event>
<event>
 5   0  0.1007567E-05  0.3170020E+04  0.7818609E-02  0.8196780E-01
       -2   -1    0    0    0  501  0.00000000000E+00  0.00000000000E+00  0.13820245892E+04  0.13820245892E+04  0.25500000920E-02 0. -1.
        2   -1    0    0  501    0  0.00000000000E+00  0.00000000000E+00 -0.18178088535E+04  0.18178088535E+04  0.25500000920E-02 0.  1.
    10030    2    1    2    0    0  0.00000000000E+00  0.00000000000E+00 -0.43578426429E+03  0.31998334427E+04  0.31700198952E+04 0.  0.
        3    1    3    3  502    0 -0.25830623122E+03 -0.31264941547E+03  0.13287666951E+04  0.13892777643E+04  0.10100000352E+00 0. -1.
       -3    1    3    3    0  502  0.25830623122E+03  0.31264941547E+03 -0.17645509594E+04  0.18105556784E+04  0.10100000352E+00 0.  1.
</event>
<event>
 5   0  0.9797278E-06  0.3148094E+04  0.7818609E-02  0.8202661E-01
        2   -1    0    0  501    0  0.00000000000E+00  0.00000000000E+00  0.16204383002E+04  0.16204383002E+04  0.25500000920E-02 0. -1.
       -2   -1    0    0    0  501  0.00000000000E+00  0.00000000000E+00 -0.15289841589E+04  0.15289841589E+04  0.25500000920E-02 0.  1.
    10030    2    1    2    0    0  0.00000000000E+00  0.00000000000E+00  0.91454141284E+02  0.31494224590E+04  0.31480943387E+04 0.  0.
        1    1    3    3  502    0 -0.99247236576E+02 -0.11811833952E+04  0.10818185034E+04  0.16047976512E+04  0.50400001928E-02 0. -1.
       -1    1    3    3    0  502  0.99247236576E+02  0.11811833952E+04 -0.99036436209E+03  0.15446248078E+04  0.50400001928E-02 0.  1.
</event>
<event>
 5   0  0.3848286E-06  0.1774915E+04  0.7818609E-02  0.8719754E-01
        1   -1    0    0  501    0  0.00000000000E+00  0.00000000000E+00  0.16146837662E+04  0.16146837662E+04  0.50400001928E-02 0.  1.
       -1   -1    0    0    0  501  0.00000000000E+00  0.00000000000E+00 -0.48776147049E+03  0.48776147051E+03  0.50400001928E-02 0. -1.
    10030    2    1    2    0    0  0.00000000000E+00  0.00000000000E+00  0.11269222957E+04  0.21024452367E+04  0.17749146776E+04 0.  0.
        2    1    3    3  502    0 -0.65176378140E+03 -0.42445413734E+03  0.10696646786E+04  0.13225505155E+04  0.25500000920E-02 0.  1.
       -2    1    3    3    0  502  0.65176378140E+03  0.42445413734E+03  0.57257617122E+02  0.77989472121E+03  0.25500000920E-02 0. -1.
</event>
<event>
 5   0  0.4250961E-06  0.3082023E+04  0.7818609E-02  0.8220689E-01
        1   -1    0    0  501    0  0.00000000000E+00  0.00000000000E+00  0.13608712002E+04  0.13608712002E+04  0.50400001928E-02 0.  1.
       -1   -1    0    0    0  501  0.00000000000E+00  0.00000000000E+00 -0.17449970447E+04  0.17449970447E+04  0.50400001928E-02 0. -1.
    10030    2    1    2    0    0  0.00000000000E+00  0.00000000000E+00 -0.38412584450E+03  0.31058682449E+04  0.30820228569E+04 0.  0.
        1    1    3    3  502    0 -0.10131951850E+04 -0.11584481480E+04 -0.11303663079E+03  0.15431603528E+04  0.50400001928E-02 0.  1.
       -1    1    3    3    0  502  0.10131951850E+04  0.11584481480E+04 -0.27108921370E+03  0.15627078922E+04  0.50400001928E-02 0. -1.
</event>
<event>
 5   0  0.1001961E-05  0.3092483E+04  0.7818609E-02  0.8217804E-01
       -2   -1    0    0    0  501  0.00000000000E+00  0.00000000000E+00  0.81152217597E+03  0.81152217597E+03  0.25500000920E-02 0.  1.
        2   -1    0    0  501    0  0.00000000000E+00  0.00000000000E+00 -0.29461464788E+04  0.29461464788E+04  0.25500000920E-02 0. -1.
    10030    2    1    2    0    0  0.00000000000E+00  0.00000000000E+00 -0.21346243029E+04  0.37576686548E+04  0.30924832748E+04 0.  0.
        5    1    3    3  502    0 -0.84079234851E+03 -0.90435619761E+03  0.63479013056E+02  0.12364641445E+04  0.46999998093E+01 0.  1.
       -5    1    3    3    0  502  0.84079234851E+03  0.90435619761E+03 -0.21981033159E+04  0.25212045103E+04  0.46999998093E+01 0. -1.
</event>
<event>
 5   0  0.3838525E-06  0.2773569E+04  0.7818609E-02  0.8311522E-01
       -1   -1    0    0    0  501  0.00000000000E+00  0.00000000000E+00  0.13401261777E+04  0.13401261777E+04  0.50400001928E-02 0. -1.
        1   -1    0    0  501    0  0.00000000000E+00  0.00000000000E+00 -0.14350669249E+04  0.14350669249E+04  0.50400001928E-02 0.  1.
    10030    2    1    2    0    0  0.00000000000E+00  0.00000000000E+00 -0.94940747219E+02  0.27751931027E+04  0.27735686419E+04 0.  0.
        3    1    3    3  502    0 -0.83118226531E+03 -0.47538940437E+03 -0.10512087977E+04  0.14219349460E+04  0.10100000352E+00 0.  1.
       -3    1    3    3    0  502  0.83118226531E+03  0.47538940437E+03  0.95626805053E+03  0.13532581567E+04  0.10100000352E+00 0. -1.
</event>
<event>
 5   0  0.3807334E-06  0.2997344E+04  0.7818609E-02  0.8244490E-01
       -1   -1    0    0    0  501  0.00000000000E+00  0.00000000000E+00  0.21591764137E+04  0.21591764137E+04  0.50400001928E-02 0. -1.
        1   -1    0    0  501    0  0.00000000000E+00  0.00000000000E+00 -0.10402199303E+04  0.10402199303E+04  0.50400001928E-02 0.  1.
    10030    2    1    2    0    0  0.00000000000E+00  0.00000000000E+00  0.11189564834E+04  0.31993963441E+04  0.29973443837E+04 0.  0.
        4    1    3    3  502    0  0.70409928082E+03 -0.10013236880E+04 -0.36345326793E+03  0.12769122195E+04  0.12699999809E+01 0.  1.
       -4    1    3    3    0  502 -0.70409928082E+03  0.10013236880E+04  0.14824097513E+04  0.19224841246E+04  0.12699999809E+01 0. -1.
</event>
<event>
 5   0  0.1001961E-05  0.3086686E+04  0.7818609E-02  0.8219401E-01
       -2   -1    0    0    0  501  0.00000000000E+00  0.00000000000E+00  0.12226308372E+04  0.12226308372E+04  0.25500000920E-02 0.  1.
        2   -1    0    0  501    0  0.00000000000E+00  0.00000000000E+00 -0.19481817160E+04  0.19481817160E+04  0.25500000920E-02 0. -1.
    10030    2    1    2    0    0  0.00000000000E+00  0.00000000000E+00 -0.72555087875E+03  0.31708125532E+04  0.30866856287E+04 0.  0.
        5    1    3    3  502    0 -0.12728995759E+04  0.75337436650E+03 -0.81527934450E+03  0.16889490123E+04  0.46999998093E+01 0. -1.
       -5    1    3    3    0  502  0.12728995759E+04 -0.75337436650E+03  0.89728465754E+02  0.14818635410E+04  0.46999998093E+01 0.  1.
</event>
<event>
 5   0  0.4139628E-06  0.2805842E+04  0.7818609E-02  0.8301457E-01
       -1   -1    0    0    0  501  0.00000000000E+00  0.00000000000E+00  0.21391487428E+04  0.21391487428E+04  0.50400001928E-02 0.  1.
        1   -1    0    0  501    0  0.00000000000E+00  0.00000000000E+00 -0.92007959497E+03  0.92007959498E+03  0.50400001928E-02 0. -1.
    10030    2    1    2    0    0  0.00000000000E+00  0.00000000000E+00  0.12190691479E+04  0.30592283378E+04  0.28058418408E+04 0.  0.
        5    1    3    3  502    0  0.11443208549E+04 -0.81147091695E+03  0.59374390281E+03  0.15233217586E+04  0.46999998093E+01 0.  1.
       -5    1    3    3    0  502 -0.11443208549E+04  0.81147091695E+03  0.62532524504E+03  0.15359065792E+04  0.46999998093E+01 0. -1.
</event>
<event>
 5   0  0.1001961E-05  0.3108211E+04  0.7818609E-02  0.8213488E-01
        2   -1    0    0  501    0  0.00000000000E+00  0.00000000000E+00  0.20948314017E+04  0.20948314017E+04  0.25500000920E-02 0. -1.
       -2   -1    0    0    0  501  0.00000000000E+00  0.00000000000E+00 -0.11529534724E+04  0.11529534724E+04  0.25500000920E-02 0.  1.
    10030    2    1    2    0    0  0.00000000000E+00  0.00000000000E+00  0.94187792931E+03  0.32477848741E+04  0.31082105068E+04 0.  0.
        5    1    3    3  502    0 -0.59368333330E+03 -0.12121800419E+04 -0.33396401838E+03  0.13904655371E+04  0.46999998093E+01 0.  1.
       -5    1    3    3    0  502  0.59368333330E+03  0.12121800419E+04  0.12758419477E+04  0.18573193370E+04  0.46999998093E+01 0. -1.
</event>
<event>
 5   0  0.1108153E-05  0.2987146E+04  0.7818609E-02  0.8247411E-01
        2   -1    0    0  501    0  0.00000000000E+00  0.00000000000E+00  0.18138001254E+04  0.18138001254E+04  0.25500000920E-02 0.  1.
       -2   -1    0    0    0  501  0.00000000000E+00  0.00000000000E+00 -0.12298816973E+04  0.12298816973E+04  0.25500000920E-02 0. -1.
    10030    2    1    2    0    0  0.00000000000E+00  0.00000000000E+00  0.58391842814E+03  0.30436818227E+04  0.29871455115E+04 0.  0.
        4    1    3    3  502    0  0.57023644214E+03  0.12535081554E+04  0.88109410209E+03  0.16348641305E+04  0.12699999809E+01 0.  1.
       -4    1    3    3    0  502 -0.57023644214E+03 -0.12535081554E+04 -0.29717567395E+03  0.14088176922E+04  0.12699999809E+01 0. -1.
</event>
<event>
 5   0  0.9797278E-06  0.3062869E+04  0.7818609E-02  0.8226003E-01
       -2   -1    0    0    0  501  0.00000000000E+00  0.00000000000E+00  0.15402356105E+04  0.15402356105E+04  0.25500000920E-02 0.  1.
        2   -1    0    0  501    0  0.00000000000E+00  0.00000000000E+00 -0.15226840832E+04  0.15226840832E+04  0.25500000920E-02 0. -1.
    10030    2    1    2    0    0  0.00000000000E+00  0.00000000000E+00  0.17551527280E+02  0.30629196937E+04  0.30628694053E+04 0.  0.
        1    1    3    3  502    0  0.84026890571E+03  0.96274762529E+03  0.85280231339E+03  0.15362963938E+04  0.50400001928E-02 0.  1.
       -1    1    3    3    0  502 -0.84026890571E+03 -0.96274762529E+03 -0.83525078611E+03  0.15266232998E+04  0.50400001928E-02 0. -1.
</event>
<event>
 5   0  0.9797278E-06  0.3058225E+04  0.7818609E-02  0.8227297E-01
        2   -1    0    0  501    0  0.00000000000E+00  0.00000000000E+00  0.14113464977E+04  0.14113464977E+04  0.25500000920E-02 0.  1.
       -2   -1    0    0    0  501  0.00000000000E+00  0.00000000000E+00 -0.16567051072E+04  0.16567051072E+04  0.25500000920E-02 0. -1.
    10030    2    1    2    0    0  0.00000000000E+00  0.00000000000E+00 -0.24535860949E+03  0.30680516049E+04  0.30582249432E+04 0.  0.
        1    1    3    3  502    0  0.87005995947E+03  0.45766945609E+03 -0.12976468115E+04  0.16279904519E+04  0.50400001928E-02 0. -1.
       -1    1    3    3    0  502 -0.87005995947E+03 -0.45766945609E+03  0.10522882020E+04  0.14400611529E+04  0.50400001928E-02 0.  1.
</event>
<event>
 5   0  0.3848286E-06  0.3095595E+04  0.7818609E-02  0.8216948E-01
       -1   -1    0    0    0  501  0.00000000000E+00  0.00000000000E+00  0.10720224305E+04  0.10720224305E+04  0.50400001928E-02 0. -1.
        1   -1    0    0  501    0  0.00000000000E+00  0.00000000000E+00 -0.22347265121E+04  0.22347265121E+04  0.50400001928E-02 0.  1.
    10030    2    1    2    0    0  0.00000000000E+00  0.00000000000E+00 -0.11627040816E+04  0.33067489426E+04  0.30955949005E+04 0.  0.
        2    1    3    3  502    0  0.67648652841E+03 -0.82139065326E+03  0.61930982358E+03  0.12312031863E+04  0.25500000920E-02 0. -1.
       -2    1    3    3    0  502 -0.67648652841E+03  0.82139065326E+03 -0.17820139051E+04  0.20755457563E+04  0.25500000920E-02 0.  1.
</event>
<event>
 5   0  0.9797278E-06  0.3087649E+04  0.7818609E-02  0.8219136E-01
       -2   -1    0    0    0  501  0.00000000000E+00  0.00000000000E+00  0.13170524130E+04  0.13170524130E+04  0.25500000920E-02 0. -1.
        2   -1    0    0  501    0  0.00000000000E+00  0.00000000000E+00 -0.18096422465E+04  0.18096422465E+04  0.25500000920E-02 0.  1.
    10030    2    1    2    0    0  0.00000000000E+00  0.00000000000E+00 -0.49258983344E+03  0.31266946595E+04  0.30876487413E+04 0.  0.
        1    1    3    3  502    0  0.47923452837E+03 -0.14646268284E+04 -0.15240671205E+03  0.15485558710E+04  0.50400001928E-02 0. -1.
       -1    1    3    3    0  502 -0.47923452837E+03  0.14646268284E+04 -0.34018312139E+03  0.15781387885E+04  0.50400001928E-02 0.  1.
</event>
<event>
 5   0  0.4139628E-06  0.2997711E+04  0.7818609E-02  0.8244385E-01
        1   -1    0    0  501    0  0.00000000000E+00  0.00000000000E+00  0.16820744401E+04  0.16820744401E+04  0.50400001928E-02 0. -1.
       -1   -1    0    0    0  501  0.00000000000E+00  0.00000000000E+00 -0.13355935156E+04  0.13355935156E+04  0.50400001928E-02 0.  1.
    10030    2    1    2    0    0  0.00000000000E+00  0.00000000000E+00  0.34648092448E+03  0.30176679556E+04  0.29977109366E+04 0.  0.
        5    1    3    3  502    0 -0.31814985175E+03  0.14433664604E+04 -0.77454744816E+02  0.14800497947E+04  0.46999998093E+01 0.  1.
       -5    1    3    3    0  502  0.31814985175E+03 -0.14433664604E+04  0.42393566929E+03  0.15376181610E+04  0.46999998093E+01 0. -1.
</event>
<event>
 5   0  0.3838525E-06  0.2799302E+04  0.7818609E-02  0.8303485E-01
       -1   -1    0    0    0  501  0.00000000000E+00  0.00000000000E+00  0.65701408551E+03  0.65701408552E+03  0.50400001928E-02 0.  1.
        1   -1    0    0  501    0  0.00000000000E+00  0.00000000000E+00 -0.29817064870E+04  0.29817064870E+04  0.50400001928E-02 0. -1.
    10030    2    1    2    0    0  0.00000000000E+00  0.00000000000E+00 -0.23246924015E+04  0.36387205725E+04  0.27993021708E+04 0.  0.
        3    1    3    3  502    0  0.10597627771E+03  0.11740800170E+04 -0.21431458652E+04  0.24459699645E+04  0.10100000352E+00 0. -1.
       -3    1    3    3    0  502 -0.10597627771E+03 -0.11740800170E+04 -0.18154653631E+03  0.11927506080E+04  0.10100000352E+00 0.  1.
</event>
<event>
 5   0  0.1108153E-05  0.3058288E+04  0.7818609E-02  0.8227279E-01
        2   -1    0    0  501    0  0.00000000000E+00  0.00000000000E+00  0.16656509662E+04  0.16656509662E+04  0.25500000920E-02 0. -1.
       -2   -1    0    0    0  501  0.00000000000E+00  0.00000000000E+00 -0.14038244747E+04  0.14038244747E+04  0.25500000920E-02 0.  1.
    10030    2    1    2    0    0  0.00000000000E+00  0.00000000000E+00  0.26182649146E+03  0.30694754409E+04  0.30582881438E+04 0.  0.
        4    1    3    3  502    0 -0.98049875659E+03  0.26188038419E+03  0.12789158947E+04  0.16326624348E+04  0.12699999809E+01 0.  1.
       -4    1    3    3    0  502  0.98049875659E+03 -0.26188038419E+03 -0.10170894033E+04  0.14368130061E+04  0.12699999809E+01 0. -1.
</event>
<event>
 5   0  0.3807334E-06  0.3063688E+04  0.7818609E-02  0.8225775E-01
       -1   -1    0    0    0  501  0.00000000000E+00  0.00000000000E+00  0.15840005887E+04  0.15840005887E+04  0.50400001928E-02 0. -1.
        1   -1    0    0  501    0  0.00000000000E+00  0.00000000000E+00 -0.14814050727E+04  0.14814050727E+04  0.50400001928E-02 0.  1.
    10030    2    1    2    0    0  0.00000000000E+00  0.00000000000E+00  0.10259551605E+03  0.30654056615E+04  0.30636883049E+04 0.  0.
        4    1    3    3  502    0  0.33771689848E+03 -0.53532844724E+03 -0.13444449940E+04  0.14859889652E+04  0.12699999809E+01 0.  1.
       -4    1    3    3    0  502 -0.33771689848E+03  0.53532844724E+03  0.14470405100E+04  0.15794166963E+04  0.12699999809E+01 0. -1.
</event>
<event>
 5   0  0.1007567E-05  0.1832781E+04  0.7818609E-02  0.8689059E-01
       -2   -1    0    0    0  501  0.00000000000E+00  0.00000000000E+00  0.82776245270E+03  0.82776245271E+03  0.25500000920E-02 0.  1.
        2   -1    0    0  501    0  0.00000000000E+00  0.00000000000E+00 -0.10145074353E+04  0.10145074353E+04  0.25500000920E-02 0. -1.
    10030    2    1    2    0    0  0.00000000000E+00  0.00000000000E+00 -0.18674498257E+03  0.18422698880E+04  0.18327805792E+04 0.  0.
        3    1    3    3  502    0  0.71521510165E+03 -0.16890378882E+03  0.45691977774E+03  0.86535358380E+03  0.10100000352E+00 0.  1.
       -3    1    3    3    0  502 -0.71521510165E+03  0.16890378882E+03 -0.64366476031E+03  0.97691630418E+03  0.10100000352E+00 0. -1.
</event>
<event>
 5   0  0.1007567E-05  0.1617194E+04  0.7818609E-02  0.8810054E-01
        2   -1    0    0  501    0  0.00000000000E+00  0.00000000000E+00  0.15043796757E+04  0.15043796757E+04  0.25500000920E-02 0. -1.
       -2   -1    0    0    0  501  0.00000000000E+00  0.00000000000E+00 -0.43461708505E+03  0.43461708506E+03  0.25500000920E-02 0.  1.
    10030    2    1    2    0    0  0.00000000000E+00  0.00000000000E+00  0.10697625906E+04  0.19389967607E+04  0.16171940013E+04 0.  0.
        3    1    3    3  502    0  0.62422979868E+03  0.19951919452E+03 -0.33037287329E+02  0.65617240349E+03  0.10100000352E+00 0.  1.
       -3    1    3    3    0  502 -0.62422979868E+03 -0.19951919452E+03  0.11027998779E+04  0.12828243572E+04  0.10100000352E+00 0. -1.
</event>
<event>
 5   0  0.1007567E-05  0.2504932E+04  0.7818609E-02  0.8401231E-01
       -2   -1    0    0    0  501  0.00000000000E+00  0.00000000000E+00  0.84470646515E+03  0.84470646516E+03  0.25500000920E-02 0.  1.
        2   -1    0    0  501    0  0.00000000000E+00  0.00000000000E+00 -0.18570606763E+04  0.18570606763E+04  0.25500000920E-02 0. -1.
    10030    2    1    2    0    0  0.00000000000E+00  0.00000000000E+00 -0.10123542111E+04  0.27017671414E+04  0.25049320625E+04 0.  0.
        3    1    3    3  502    0  0.39558571074E+03  0.14427542187E+03 -0.17784284605E+04  0.18275971250E+04  0.10100000352E+00 0. -1.
       -3    1    3    3    0  502 -0.39558571074E+03 -0.14427542187E+03  0.76607424939E+03  0.87417001645E+03  0.10100000352E+00 0.  1.
</event>
<event>
 5   0  0.3848286E-06  0.2983700E+04  0.7818609E-02  0.8248401E-01
       -1   -1    0    0    0  501  0.00000000000E+00  0.00000000000E+00  0.19238523220E+04  0.19238523221E+04  0.50400001928E-02 0.  1.
        1   -1    0    0  501    0  0.00000000000E+00  0.00000000000E+00 -0.11568540588E+04  0.11568540588E+04  0.50400001928E-02 0. -1.
    10030    2    1    2    0    0  0.00000000000E+00  0.00000000000E+00  0.76699826329E+03  0.30807063808E+04  0.29836999630E+04 0.  0.
        2    1    3    3  502    0  0.85325843317E+03 -0.50791998129E+03 -0.76606469311E+03  0.12541482270E+04  0.25500000920E-02 0. -1.
       -2    1    3    3    0  502 -0.85325843317E+03  0.50791998129E+03  0.15330629564E+04  0.18265581539E+04  0.25500000920E-02 0.  1.
</event>
<event>
 5   0  0.1001961E-05  0.3098926E+04  0.7818609E-02  0.8216033E-01
       -2   -1    0    0    0  501  0.00000000000E+00  0.00000000000E+00  0.13790693278E+04  0.13790693278E+04  0.25500000920E-02 0. -1.
        2   -1    0    0  501    0  0.00000000000E+00  0.00000000000E+00 -0.17409097828E+04  0.17409097828E+04  0.25500000920E-02 0.  1.
    10030    2    1    2    0    0  0.00000000000E+00  0.00000000000E+00 -0.36184045496E+03  0.31199791106E+04  0.30989258035E+04 0.  0.
        5    1    3    3  502    0  0.82171433851E+03  0.47258540375E+02  0.11407685092E+04  0.14067063323E+04  0.46999998093E+01 0. -1.
       -5    1    3    3    0  502 -0.82171433851E+03 -0.47258540375E+02 -0.15026089641E+04  0.17132727783E+04  0.46999998093E+01 0.  1.
</event>
<event>
 5   0  0.1001961E-05  0.3060092E+04  0.7818609E-02  0.8226776E-01
       -2   -1    0    0    0  501  0.00000000000E+00  0.00000000000E+00  0.15895170218E+04  0.15895170218E+04  0.25500000920E-02 0.  1.
        2   -1    0    0  501    0  0.00000000000E+00  0.00000000000E+00 -0.14727998783E+04  0.14727998783E+04  0.25500000920E-02 0. -1.
    10030    2    1    2    0    0  0.00000000000E+00  0.00000000000E+00  0.11671714353E+03  0.30623169001E+04  0.30600918132E+04 0.  0.
        5    1    3    3  502    0  0.80876388295E+03 -0.30722401180E+03  0.13212321108E+04  0.15792916110E+04  0.46999998093E+01 0.  1.
       -5    1    3    3    0  502 -0.80876388295E+03  0.30722401180E+03 -0.12045149673E+04  0.14830252891E+04  0.46999998093E+01 0. -1.
</event>
<event>
 5   0  0.9797278E-06  0.3062181E+04  0.7818609E-02  0.8226194E-01
       -2   -1    0    0    0  501  0.00000000000E+00  0.00000000000E+00  0.14609376446E+04  0.14609376446E+04  0.25500000920E-02 0. -1.
        2   -1    0    0  501    0  0.00000000000E+00  0.00000000000E+00 -0.16046117870E+04  0.16046117870E+04  0.25500000920E-02 0.  1.
    10030    2    1    2    0    0  0.00000000000E+00  0.00000000000E+00 -0.14367414244E+03  0.30655494316E+04  0.30621807684E+04 0.  0.
        1    1    3    3  502    0 -0.12782484296E+04  0.18393011085E+03  0.75155690573E+03  0.14941844317E+04  0.50400001928E-02 0. -1.
       -1    1    3    3    0  502  0.12782484296E+04 -0.18393011085E+03 -0.89523104816E+03  0.15713649999E+04  0.50400001928E-02 0.  1.
</event>
<event>
 5   0  0.1108153E-05  0.2792779E+04  0.7818609E-02  0.8305514E-01
       -2   -1    0    0    0  501  0.00000000000E+00  0.00000000000E+00  0.87969923587E+03  0.87969923587E+03  0.25500000920E-02 0.  1.
        2   -1    0    0  501    0  0.00000000000E+00  0.00000000000E+00 -0.22165577230E+04  0.22165577230E+04  0.25500000920E-02 0. -1.
    10030    2    1    2    0    0  0.00000000000E+00  0.00000000000E+00 -0.13368584871E+04  0.30962569588E+04  0.27927793577E+04 0.  0.
        4    1    3    3  502    0 -0.10557213031E+04  0.84906720109E+03 -0.10434792536E+04  0.17100623227E+04  0.12699999809E+01 0. -1.
       -4    1    3    3    0  502  0.10557213031E+04 -0.84906720109E+03 -0.29337923346E+03  0.13861946362E+04  0.12699999809E+01 0.  1.
</event>
<event>
 5   0  0.3848286E-06  0.3037951E+04  0.7818609E-02  0.8232976E-01
       -1   -1    0    0    0  501  0.00000000000E+00  0.00000000000E+00  0.13463593346E+04  0.13463593346E+04  0.50400001928E-02 0.  1.
        1   -1    0    0  501    0  0.00000000000E+00  0.00000000000E+00 -0.17137230290E+04  0.17137230290E+04  0.50400001928E-02 0. -1.
    10030    2    1    2    0    0  0.00000000000E+00  0.00000000000E+00 -0.36736369433E+03  0.30600823636E+04  0.30379512814E+04 0.  0.
        2    1    3    3  502    0 -0.21448701092E+03  0.14957678078E+04 -0.27760837019E+02  0.15113228234E+04  0.25500000920E-02 0. -1.
       -2    1    3    3    0  502  0.21448701092E+03 -0.14957678078E+04 -0.33960285731E+03  0.15487595402E+04  0.25500000920E-02 0.  1.
</event>
<event>
 5   0  0.1007567E-05  0.2305301E+04  0.7818609E-02  0.8475834E-01
        2   -1    0    0  501    0  0.00000000000E+00  0.00000000000E+00  0.18677954212E+04  0.18677954212E+04  0.25500000920E-02 0.  1.
       -2   -1    0    0    0  501  0.00000000000E+00  0.00000000000E+00 -0.71132178189E+03  0.71132178189E+03  0.25500000920E-02 0. -1.
    10030    2    1    2    0    0  0.00000000000E+00  0.00000000000E+00  0.11564736393E+04  0.25791172030E+04  0.23053013401E+04 0.  0.
        3    1    3    3  502    0 -0.10151917333E+03 -0.68881825465E+03 -0.44947189588E+03  0.82873501548E+03  0.10100000352E+00 0. -1.
       -3    1    3    3    0  502  0.10151917333E+03  0.68881825465E+03  0.16059455351E+04  0.17503821876E+04  0.10100000352E+00 0.  1.
</event>
<event>
 5   0  0.3807334E-06  0.3021509E+04  0.7818609E-02  0.8237616E-01
       -1   -1    0    0    0  501  0.00000000000E+00  0.00000000000E+00  0.12739383693E+04  0.12739383693E+04  0.50400001928E-02 0. -1.
        1   -1    0    0  501    0  0.00000000000E+00  0.00000000000E+00 -0.17915924838E+04  0.17915924839E+04  0.50400001928E-02 0.  1.
    10030    2    1    2    0    0  0.00000000000E+00  0.00000000000E+00 -0.51765411452E+03  0.30655308532E+04  0.30215085023E+04 0.  0.
        4    1    3    3  502    0  0.30169757820E+03 -0.58086508325E+03  0.11226097102E+04  0.12994921500E+04  0.12699999809E+01 0. -1.
       -4    1    3    3    0  502 -0.30169757820E+03  0.58086508325E+03 -0.16402638247E+04  0.17660387032E+04  0.12699999809E+01 0.  1.
</event>
<event>
 5   0  0.9797278E-06  0.2980859E+04  0.7818609E-02  0.8249218E-01
       -2   -1    0    0    0  501  0.00000000000E+00  0.00000000000E+00  0.13313399360E+04  0.13313399360E+04  0.25500000920E-02 0. -1.
        2   -1    0    0  501    0  0.00000000000E+00  0.00000000000E+00 -0.16685292826E+04  0.16685292826E+04  0.25500000920E-02 0.  1.
    10030    2    1    2    0    0  0.00000000000E+00  0.00000000000E+00 -0.33718934661E+03  0.29998692185E+04  0.29808587140E+04 0.  0.
        1    1    3    3  502    0  0.15774336410E+03 -0.10276243821E+04 -0.12433402986E+04  0.16207374672E+04  0.50400001928E-02 0.  1.
       -1    1    3    3    0  502 -0.15774336410E+03  0.10276243821E+04  0.90615095199E+03  0.13791317513E+04  0.50400001928E-02 0. -1.
</event>
<event>
 5   0  0.1119100E-05  0.2973707E+04  0.7818609E-02  0.8251279E-01
        2   -1    0    0  501    0  0.00000000000E+00  0.00000000000E+00  0.14492223392E+04  0.14492223392E+04  0.25500000920E-02 0.  1.
       -2   -1    0    0    0  501  0.00000000000E+00  0.00000000000E+00 -0.15254622719E+04  0.15254622719E+04  0.25500000920E-02 0. -1.
    10030    2    1    2    0    0  0.00000000000E+00  0.00000000000E+00 -0.76239932659E+02  0.29746846111E+04  0.29737074517E+04 0.  0.
        2    1    3    3  502    0 -0.83071760054E+03 -0.12309582946E+04  0.35279529152E+02  0.14854611069E+04  0.25500000920E-02 0. -1.
       -2    1    3    3    0  502  0.83071760054E+03  0.12309582946E+04 -0.11151946181E+03  0.14892235042E+04  0.25500000920E-02 0.  1.
</event>
<event>
 5   0  0.3807334E-06  0.3144993E+04  0.7818609E-02  0.8203497E-01
        1   -1    0    0  501    0  0.00000000000E+00  0.00000000000E+00  0.15211130001E+04  0.15211130001E+04  0.50400001928E-02 0. -1.
       -1   -1    0    0    0  501  0.00000000000E+00  0.00000000000E+00 -0.16256160786E+04  0.16256160786E+04  0.50400001928E-02 0.  1.
    10030    2    1    2    0    0  0.00000000000E+00  0.00000000000E+00 -0.10450307846E+03  0.31467290787E+04  0.31449933229E+04 0.  0.
        4    1    3    3  502    0 -0.82026220877E+03 -0.11245111030E+04  0.67985498469E+03  0.15490512338E+04  0.12699999809E+01 0. -1.
       -4    1    3    3    0  502  0.82026220877E+03  0.11245111030E+04 -0.78435806315E+03  0.15976778449E+04  0.12699999809E+01 0.  1.
</event>
<event>
 5   0  0.3848286E-06  0.2975698E+04  0.7818609E-02  0.8250705E-01
        1   -1    0    0  501    0  0.00000000000E+00  0.00000000000E+00  0.16960810392E+04  0.16960810392E+04  0.50400001928E-02 0. -1.
       -1   -1    0    0    0  501  0.00000000000E+00  0.00000000000E+00 -0.13051820091E+04  0.13051820091E+04  0.50400001928E-02 0.  1.
    10030    2    1    2    0    0  0.00000000000E+00  0.00000000000E+00  0.39089903017E+03  0.30012630483E+04  0.29756978733E+04 0.  0.
        2    1    3    3  502    0  0.12617544698E+04 -0.78167613284E+03  0.91351653842E+02  0.14870733147E+04  0.25500000920E-02 0. -1.
       -2    1    3    3    0  502 -0.12617544698E+04  0.78167613284E+03  0.29954737633E+03  0.15141897336E+04  0.25500000920E-02 0.  1.
</event>
<event>
 5   0  0.1108153E-05  0.3049693E+04  0.7818609E-02  0.8229681E-01
        2   -1    0    0  501    0  0.00000000000E+00  0.00000000000E+00  0.18932129829E+04  0.18932129829E+04  0.25500000920E-02 0. -1.
       -2   -1    0    0    0  501  0.00000000000E+00  0.00000000000E+00 -0.12281540906E+04  0.12281540906E+04  0.25500000920E-02 0.  1.
    10030    2    1    2    0    0  0.00000000000E+00  0.00000000000E+00  0.66505889231E+03  0.31213670736E+04  0.30496932760E+04 0.  0.
        4    1    3    3  502    0 -0.13991803944E+04 -0.57010575775E+03  0.54335421996E+03  0.16056032425E+04  0.12699999809E+01 0. -1.
       -4    1    3    3    0  502  0.13991803944E+04  0.57010575775E+03  0.12170467235E+03  0.15157638310E+04  0.12699999809E+01 0.  1.
</event>
<event>
 5   0  0.1108153E-05  0.2944232E+04  0.7818609E-02  0.8259838E-01
       -2   -1    0    0    0  501  0.00000000000E+00  0.00000000000E+00  0.19050926752E+04  0.19050926752E+04  0.25500000920E-02 0.  1.
        2   -1    0    0  501    0  0.00000000000E+00  0.00000000000E+00 -0.11375431239E+04  0.11375431239E+04  0.25500000920E-02 0. -1.
    10030    2    1    2    0    0  0.00000000000E+00  0.00000000000E+00  0.76754955126E+03  0.30426357991E+04  0.29442316981E+04 0.  0.
        4    1    3    3  502    0 -0.31535720781E+03  0.13173223515E+04  0.97952758898E+03  0.16716052933E+04  0.12699999809E+01 0.  1.
       -4    1    3    3    0  502  0.31535720781E+03 -0.13173223515E+04 -0.21197803772E+03  0.13710305057E+04  0.12699999809E+01 0. -1.
</event>
<event>
 5   0  0.3807334E-06  0.2403660E+04  0.7818609E-02  0.8438135E-01
       -1   -1    0    0    0  501  0.00000000000E+00  0.00000000000E+00  0.65013088951E+03  0.65013088953E+03  0.50400001928E-02 0.  1.
        1   -1    0    0  501    0  0.00000000000E+00  0.00000000000E+00 -0.22216987943E+04  0.22216987943E+04  0.50400001928E-02 0. -1.
    10030    2    1    2    0    0  0.00000000000E+00  0.00000000000E+00 -0.15715679048E+04  0.28718296838E+04  0.24036597208E+04 0.  0.
        4    1    3    3  502    0  0.95844235635E+03 -0.31666056386E+03 -0.15651463084E+04  0.18624097945E+04  0.12699999809E+01 0. -1.
       -4    1    3    3    0  502 -0.95844235635E+03  0.31666056386E+03 -0.64215964011E+01  0.10094198893E+04  0.12699999809E+01 0.  1.
</event>
<event>
 5   0  0.3848286E-06  0.3077342E+04  0.7818609E-02  0.8221984E-01
       -1   -1    0    0    0  501  0.00000000000E+00  0.00000000000E+00  0.15354982837E+04  0.15354982837E+04  0.50400001928E-02 0. -1.
        1   -1    0    0  501    0  0.00000000000E+00  0.00000000000E+00 -0.15418502959E+04  0.15418502959E+04  0.50400001928E-02 0.  1.
    10030    2    1    2    0    0  0.00000000000E+00  0.00000000000E+00 -0.63520122060E+01  0.30773485797E+04  0.30773420240E+04 0.  0.
        2    1    3    3  502    0  0.71670283447E+03  0.12081310297E+04 -0.63108254785E+03  0.15399703634E+04  0.25500000920E-02 0.  1.
       -2    1    3    3    0  502 -0.71670283447E+03 -0.12081310297E+04  0.62473053564E+03  0.15373782163E+04  0.25500000920E-02 0. -1.
</event>
<event>
 5   0  0.1001961E-05  0.3095641E+04  0.7818609E-02  0.8216935E-01
        2   -1    0    0  501    0  0.00000000000E+00  0.00000000000E+00  0.16660740053E+04  0.16660740053E+04  0.25500000920E-02 0.  1.
       -2   -1    0    0    0  501  0.00000000000E+00  0.00000000000E+00 -0.14379604632E+04  0.14379604632E+04  0.25500000920E-02 0. -1.
    10030    2    1    2    0    0  0.00000000000E+00  0.00000000000E+00  0.22811354215E+03  0.31040344685E+04  0.30956411604E+04 0.  0.
        5    1    3    3  502    0  0.27969161606E+03  0.42126996147E+01  0.16405119019E+04  0.16641954624E+04  0.46999998093E+01 0.  1.
       -5    1    3    3    0  502 -0.27969161606E+03 -0.42126996147E+01 -0.14123983597E+04  0.14398390061E+04  0.46999998093E+01 0. -1.
</event>
<event>
 5   0  0.1001961E-05  0.2932261E+04  0.7818609E-02  0.8263343E-01
        2   -1    0    0  501    0  0.00000000000E+00  0.00000000000E+00  0.15085154206E+04  0.15085154206E+04  0.25500000920E-02 0. -1.
       -2   -1    0    0    0  501  0.00000000000E+00  0.00000000000E+00 -0.14249360120E+04  0.14249360120E+04  0.25500000920E-02 0.  1.
    10030    2    1    2    0    0  0.00000000000E+00  0.00000000000E+00  0.83579408603E+02  0.29334514325E+04  0.29322605255E+04 0.  0.
        5    1    3    3  502    0 -0.21873178596E+03 -0.96791296496E+03  0.11214948047E+04  0.14974884938E+04  0.46999998093E+01 0. -1.
       -5    1    3    3    0  502  0.21873178596E+03  0.96791296496E+03 -0.10379153961E+04  0.14359629388E+04  0.46999998093E+01 0.  1.
</event>
<event>
 5   0  0.4139628E-06  0.2875840E+04  0.7818609E-02  0.8280102E-01
       -1   -1    0    0    0  501  0.00000000000E+00  0.00000000000E+00  0.11405913258E+04  0.11405913258E+04  0.50400001928E-02 0.  1.
        1   -1    0    0  501    0  0.00000000000E+00  0.00000000000E+00 -0.18127560019E+04  0.18127560019E+04  0.50400001928E-02 0. -1.
    10030    2    1    2    0    0  0.00000000000E+00  0.00000000000E+00 -0.67216467617E+03  0.29533473277E+04  0.28758398923E+04 0.  0.
        5    1    3    3  502    0  0.40084533505E+03  0.20273704915E+03  0.10666790638E+04  0.11574133268E+04  0.46999998093E+01 0.  1.
       -5    1    3    3    0  502 -0.40084533505E+03 -0.20273704915E+03 -0.17388437400E+04  0.17959340010E+04  0.46999998093E+01 0. -1.
</event>
<event>
 5   0  0.1119100E-05  0.3007089E+04  0.7818609E-02  0.8241710E-01
       -2   -1    0    0    0  501  0.00000000000E+00  0.00000000000E+00  0.10726055046E+04  0.10726055046E+04  0.25500000920E-02 0. -1.
        2   -1    0    0  501    0  0.00000000000E+00  0.00000000000E+00 -0.21076209317E+04  0.21076209317E+04  0.25500000920E-02 0.  1.
    10030    2    1    2    0    0  0.00000000000E+00  0.00000000000E+00 -0.10350154271E+04  0.31802264363E+04  0.30070888333E+04 0.  0.
        2    1    3    3  502    0  0.79942513737E+03 -0.11599822385E+04  0.38104029389E+02  0.14092875012E+04  0.25500000920E-02 0. -1.
       -2    1    3    3    0  502 -0.79942513737E+03  0.11599822385E+04 -0.10731194564E+04  0.17709389351E+04  0.25500000920E-02 0.  1.
</event>
<event>
 5   0  0.3807334E-06  0.3095158E+04  0.7818609E-02  0.8217068E-01
       -1   -1    0    0    0  501  0.00000000000E+00  0.00000000000E+00  0.94612506275E+03  0.94612506276E+03  0.50400001928E-02 0.  1.
        1   -1    0    0  501    0  0.00000000000E+00  0.00000000000E+00 -0.25313782386E+04  0.25313782386E+04  0.50400001928E-02 0. -1.
    10030    2    1    2    0    0  0.00000000000E+00  0.00000000000E+00 -0.15852531759E+04  0.34775033014E+04  0.30951577633E+04 0.  0.
        4    1    3    3  502    0  0.18381565927E+03  0.10053369103E+04  0.51304329487E+03  0.11435495333E+04  0.12699999809E+01 0.  1.
       -4    1    3    3    0  502 -0.18381565927E+03 -0.10053369103E+04 -0.20982964707E+04  0.23339537681E+04  0.12699999809E+01 0. -1.
</event>
<event>
 5   0  0.1007567E-05  0.3017332E+04  0.7818609E-02  0.8238799E-01
       -2   -1    0    0    0  501  0.00000000000E+00  0.00000000000E+00  0.96870043739E+03  0.96870043739E+03  0.25500000920E-02 0.  1.
        2   -1    0    0  501    0  0.00000000000E+00  0.00000000000E+00 -0.23496156104E+04  0.23496156104E+04  0.25500000920E-02 0. -1.
    10030    2    1    2    0    0  0.00000000000E+00  0.00000000000E+00 -0.13809151730E+04  0.33183160478E+04  0.30173323778E+04 0.  0.
        3    1    3    3  502    0 -0.10253430200E+04 -0.73882887057E+03  0.21567181461E+03  0.12820728335E+04  0.10100000352E+00 0.  1.
       -3    1    3    3    0  502  0.10253430200E+04  0.73882887057E+03 -0.15965869876E+04  0.20362432143E+04  0.10100000352E+00 0. -1.
</event>
<event>
 5   0  0.1001961E-05  0.3095111E+04  0.7818609E-02  0.8217081E-01
        2   -1    0    0  501    0  0.00000000000E+00  0.00000000000E+00  0.19817232799E+04  0.19817232799E+04  0.25500000920E-02 0. -1.
       -2   -1    0    0    0  501  0.00000000000E+00  0.00000000000E+00 -0.12085075137E+04  0.12085075137E+04  0.25500000920E-02 0.  1.
    10030    2    1    2    0    0  0.00000000000E+00  0.00000000000E+00  0.77321576618E+03  0.31902307935E+04  0.30951106434E+04 0.  0.
        5    1    3    3  502    0  0.61440136984E+03 -0.19012977895E+03 -0.10642251254E+04  0.12434772148E+04  0.46999998093E+01 0.  1.
       -5    1    3    3    0  502 -0.61440136984E+03  0.19012977895E+03  0.18374408916E+04  0.19467535787E+04  0.46999998093E+01 0. -1.
</event>
<event>
 5   0  0.1119100E-05  0.3147164E+04  0.7818609E-02  0.8202912E-01
        2   -1    0    0  501    0  0.00000000000E+00  0.00000000000E+00  0.26893409001E+04  0.26893409001E+04  0.25500000920E-02 0. -1.
       -2   -1    0    0    0  501  0.00000000000E+00  0.00000000000E+00 -0.92073099661E+03  0.92073099661E+03  0.25500000920E-02 0.  1.
    10030    2    1    2    0    0  0.00000000000E+00  0.00000000000E+00  0.17686099035E+04  0.36100718967E+04  0.31471635021E+04 0.  0.
        2    1    3    3  502    0  0.15003327728E+04  0.36125368311E+03  0.53138791395E+03  0.16321384034E+04  0.25500000920E-02 0.  1.
       -2    1    3    3    0  502 -0.15003327728E+04 -0.36125368311E+03  0.12372219895E+04  0.19779334933E+04  0.25500000920E-02 0. -1.
</event>
<event>
 5   0  0.3838525E-06  0.1694556E+04  0.7818609E-02  0.8764475E-01
       -1   -1    0    0    0  501  0.00000000000E+00  0.00000000000E+00  0.78007613789E+03  0.78007613791E+03  0.50400001928E-02 0.  1.
        1   -1    0    0  501    0  0.00000000000E+00  0.00000000000E+00 -0.92026942566E+03  0.92026942567E+03  0.50400001928E-02 0. -1.
    10030    2    1    2    0    0  0.00000000000E+00  0.00000000000E+00 -0.14019328777E+03  0.17003455636E+04  0.16945562480E+04 0.  0.
        3    1    3    3  502    0 -0.47778030673E+03 -0.54484905678E+03  0.37043138380E+03  0.81385129875E+03  0.10100000352E+00 0.  1.
       -3    1    3    3    0  502  0.47778030673E+03  0.54484905678E+03 -0.51062467156E+03  0.88649426483E+03  0.10100000352E+00 0. -1.
</event>
<event>
 5   0  0.1119100E-05  0.2964174E+04  0.7818609E-02  0.8254036E-01
        2   -1    0    0  501    0  0.00000000000E+00  0.00000000000E+00  0.13562673850E+04  0.13562673850E+04  0.25500000920E-02 0. -1.
       -2   -1    0    0    0  501  0.00000000000E+00  0.00000000000E+00 -0.16195783414E+04  0.16195783414E+04  0.25500000920E-02 0.  1.
    10030    2    1    2    0    0  0.00000000000E+00  0.00000000000E+00 -0.26331095641E+03  0.29758457264E+04  0.29641735995E+04 0.  0.
        2    1    3    3  502    0 -0.24869940657E+03  0.71832416836E+03 -0.14089626899E+04  0.16009424934E+04  0.25500000920E-02 0.  1.
       -2    1    3    3    0  502  0.24869940657E+03 -0.71832416836E+03  0.11456517335E+04  0.13749032330E+04  0.25500000920E-02 0. -1.
</event>
<event>
 5   0  0.4139628E-06  0.3075635E+04  0.7818609E-02  0.8222457E-01
        1   -1    0    0  501    0  0.00000000000E+00  0.00000000000E+00  0.33755965584E+04  0.33755965584E+04  0.50400001928E-02 0. -1.
       -1   -1    0    0    0  501  0.00000000000E+00  0.00000000000E+00 -0.70058216581E+03  0.70058216583E+03  0.50400001928E-02 0.  1.
    10030    2    1    2    0    0  0.00000000000E+00  0.00000000000E+00  0.26750143926E+04  0.40761787242E+04  0.30756350549E+04 0.  0.
        5    1    3    3  502    0  0.15036537264E+01  0.47720837242E+03 -0.59995815066E+03  0.76661722145E+03  0.46999998093E+01 0.  1.
       -5    1    3    3    0  502 -0.15036537264E+01 -0.47720837242E+03  0.32749725432E+04  0.33095615028E+04  0.46999998093E+01 0. -1.
</event>
<event>
 5   0  0.3807334E-06  0.3106926E+04  0.7818609E-02  0.8213840E-01
       -1   -1    0    0    0  501  0.00000000000E+00  0.00000000000E+00  0.25461342462E+04  0.25461342462E+04  0.50400001928E-02 0.  1.
        1   -1    0    0  501    0  0.00000000000E+00  0.00000000000E+00 -0.94780849707E+03  0.94780849708E+03  0.50400001928E-02 0. -1.
    10030    2    1    2    0    0  0.00000000000E+00  0.00000000000E+00  0.15983257492E+04  0.34939427433E+04  0.31069262452E+04 0.  0.
        4    1    3    3  502    0  0.68625341002E+03  0.70360361640E+03  0.21520319177E+04  0.23658496950E+04  0.12699999809E+01 0.  1.
       -4    1    3    3    0  502 -0.68625341002E+03 -0.70360361640E+03 -0.55370616849E+03  0.11280930483E+04  0.12699999809E+01 0. -1.
</event>
<event>
 5   0  0.1007567E-05  0.3153295E+04  0.7818609E-02  0.8201262E-01
        2   -1    0    0  501    0  0.00000000000E+00  0.00000000000E+00  0.16495636472E+04  0.16495636472E+04  0.25500000920E-02 0.  1.
       -2   -1    0    0    0  501  0.00000000000E+00  0.00000000000E+00 -0.15069543682E+04  0.15069543682E+04  0.25500000920E-02 0. -1.
    10030    2    1    2    0    0  0.00000000000E+00  0.00000000000E+00  0.14260927900E+03  0.31565180155E+04  0.31532948761E+04 0.  0.
        3    1    3    3  502    0 -0.14157032365E+04  0.19298170626E+03  0.73858899357E+03  0.16084064487E+04  0.10100000352E+00 0.  1.
       -3    1    3    3    0  502  0.14157032365E+04 -0.19298170626E+03 -0.59597971457E+03  0.15481115667E+04  0.10100000352E+00 0. -1.
</event>
<event>
 5   0  0.3838525E-06  0.3106914E+04  0.7818609E-02  0.8213843E-01
       -1   -1    0    0    0  501  0.00000000000E+00  0.00000000000E+00  0.21663975393E+04  0.21663975393E+04  0.50400001928E-02 0.  1.
        1   -1    0    0  501    0  0.00000000000E+00  0.00000000000E+00 -0.11139359996E+04  0.11139359997E+04  0.50400001928E-02 0. -1.
    10030    2    1    2    0    0  0.00000000000E+00  0.00000000000E+00  0.10524615397E+04  0.32803335390E+04  0.31069137153E+04 0.  0.
        3    1    3    3  502    0  0.11209493866E+03 -0.60782304354E+03  0.20309887675E+04  0.21229530167E+04  0.10100000352E+00 0.  1.
       -3    1    3    3    0  502 -0.11209493866E+03  0.60782304354E+03 -0.97852722779E+03  0.11573805222E+04  0.10100000352E+00 0. -1.
</event>
<event>
 5   0  0.3848286E-06  0.3746578E+04  0.7818609E-02  0.8057717E-01
        1   -1    0    0  501    0  0.00000000000E+00  0.00000000000E+00  0.20810692177E+04  0.20810692177E+04  0.50400001928E-02 0.  1.
       -1   -1    0    0    0  501  0.00000000000E+00  0.00000000000E+00 -0.16862545913E+04  0.16862545914E+04  0.50400001928E-02 0. -1.
    10030    2    1    2    0    0  0.00000000000E+00  0.00000000000E+00  0.39481462634E+03  0.37673238091E+04  0.37465784515E+04 0.  0.
        2    1    3    3  502    0 -0.24748357069E+03 -0.16082252745E+04  0.11307580690E+04  0.19814768386E+04  0.25500000920E-02 0.  1.
       -2    1    3    3    0  502  0.24748357069E+03  0.16082252745E+04 -0.73594344262E+03  0.17858469705E+04  0.25500000920E-02 0. -1.
</event>
<event>
 5   0  0.3848286E-06  0.3068850E+04  0.7818609E-02  0.8224339E-01
       -1   -1    0    0    0  501  0.00000000000E+00  0.00000000000E+00  0.11039764167E+04  0.11039764167E+04  0.50400001928E-02 0. -1.
        1   -1    0    0  501    0  0.00000000000E+00  0.00000000000E+00 -0.21327085742E+04  0.21327085742E+04  0.50400001928E-02 0.  1.
    10030    2    1    2    0    0  0.00000000000E+00  0.00000000000E+00 -0.10287321575E+04  0.32366849909E+04  0.30688499276E+04 0.  0.
        2    1    3    3  502    0 -0.48571977324E+03  0.12244563073E+04  0.31559044652E+03  0.13545531649E+04  0.25500000920E-02 0. -1.
       -2    1    3    3    0  502  0.48571977324E+03 -0.12244563073E+04 -0.13443226040E+04  0.18821318260E+04  0.25500000920E-02 0.  1.
</event>
<event>
 5   0  0.1108153E-05  0.3100061E+04  0.7818609E-02  0.8215721E-01
       -2   -1    0    0    0  501  0.00000000000E+00  0.00000000000E+00  0.10513381064E+04  0.10513381064E+04  0.25500000920E-02 0. -1.
        2   -1    0    0  501    0  0.00000000000E+00  0.00000000000E+00 -0.22852732328E+04  0.22852732328E+04  0.25500000920E-02 0.  1.
    10030    2    1    2    0    0  0.00000000000E+00  0.00000000000E+00 -0.12339351264E+04  0.33366113393E+04  0.31000611822E+04 0.  0.
        4    1    3    3  502    0 -0.83986740065E+03 -0.72039758452E+03 -0.17852634398E+04  0.21003611815E+04  0.12699999809E+01 0.  1.
       -4    1    3    3    0  502  0.83986740065E+03  0.72039758452E+03  0.55132831340E+03  0.12362501577E+04  0.12699999809E+01 0. -1.
</event>
<event>
 5   0  0.3807334E-06  0.3054555E+04  0.7818609E-02  0.8228322E-01
       -1   -1    0    0    0  501  0.00000000000E+00  0.00000000000E+00  0.13333984705E+04  0.13333984705E+04  0.50400001928E-02 0. -1.
        1   -1    0    0  501    0  0.00000000000E+00  0.00000000000E+00 -0.17493467128E+04  0.17493467128E+04  0.50400001928E-02 0.  1.
    10030    2    1    2    0    0  0.00000000000E+00  0.00000000000E+00 -0.41594824228E+03  0.30827451833E+04  0.30545547834E+04 0.  0.
        4    1    3    3  502    0  0.43618270157E+03 -0.52176905463E+03 -0.15881021470E+04  0.17275903269E+04  0.12699999809E+01 0.  1.
       -4    1    3    3    0  502 -0.43618270157E+03  0.52176905463E+03  0.11721539047E+04  0.13551548564E+04  0.12699999809E+01 0. -1.
</event>
<event>
 5   0  0.4250961E-06  0.3040869E+04  0.7818609E-02  0.8232156E-01
        1   -1    0    0  501    0  0.00000000000E+00  0.00000000000E+00  0.13441878034E+04  0.13441878034E+04  0.50400001928E-02 0.  1.
       -1   -1    0    0    0  501  0.00000000000E+00  0.00000000000E+00 -0.17197907936E+04  0.17197907936E+04  0.50400001928E-02 0. -1.
    10030    2    1    2    0    0  0.00000000000E+00  0.00000000000E+00 -0.37560299022E+03  0.30639785971E+04  0.30408694870E+04 0.  0.
        1    1    3    3  502    0 -0.85925966165E+02  0.80861390653E+03 -0.14822755616E+04  0.16906745879E+04  0.50400001928E-02 0. -1.
       -1    1    3    3    0  502  0.85925966165E+02 -0.80861390653E+03  0.11066725714E+04  0.13733040092E+04  0.50400001928E-02 0.  1.
</event>
<event>
 5   0  0.1001961E-05  0.3132625E+04  0.7818609E-02  0.8206841E-01
       -2   -1    0    0    0  501  0.00000000000E+00  0.00000000000E+00  0.10064571405E+04  0.10064571405E+04  0.25500000920E-02 0.  1.
        2   -1    0    0  501    0  0.00000000000E+00  0.00000000000E+00 -0.24375943709E+04  0.24375943709E+04  0.25500000920E-02 0. -1.
    10030    2    1    2    0    0  0.00000000000E+00  0.00000000000E+00 -0.14311372304E+04  0.34440515114E+04  0.31326246250E+04 0.  0.
        5    1    3    3  502    0  0.40170883581E+03 -0.95359157061E+03  0.57716901029E+03  0.11848430397E+04  0.46999998093E+01 0.  1.
       -5    1    3    3    0  502 -0.40170883581E+03  0.95359157061E+03 -0.20083062407E+04  0.22592084717E+04  0.46999998093E+01 0. -1.
</event>
<event>
 5   0  0.9797278E-06  0.3141016E+04  0.7818609E-02  0.8204571E-01
       -2   -1    0    0    0  501  0.00000000000E+00  0.00000000000E+00  0.15754741356E+04  0.15754741356E+04  0.25500000920E-02 0.  1.
        2   -1    0    0  501    0  0.00000000000E+00  0.00000000000E+00 -0.15655576217E+04  0.15655576217E+04  0.25500000920E-02 0. -1.
    10030    2    1    2    0    0  0.00000000000E+00  0.00000000000E+00  0.99165138665E+01  0.31410317573E+04  0.31410161036E+04 0.  0.
        1    1    3    3  502    0 -0.75132915187E+03  0.12530088339E+04 -0.57121204534E+03  0.15686968583E+04  0.50400001928E-02 0.  1.
       -1    1    3    3    0  502  0.75132915187E+03 -0.12530088339E+04  0.58112855921E+03  0.15723348990E+04  0.50400001928E-02 0. -1.
</event>
<event>
 5   0  0.9797278E-06  0.1650286E+04  0.7818609E-02  0.8790237E-01
       -2   -1    0    0    0  501  0.00000000000E+00  0.00000000000E+00  0.59467820636E+03  0.59467820636E+03  0.25500000920E-02 0. -1.
        2   -1    0    0  501    0  0.00000000000E+00  0.00000000000E+00 -0.11449234510E+04  0.11449234510E+04  0.25500000920E-02 0.  1.
    10030    2    1    2    0    0  0.00000000000E+00  0.00000000000E+00 -0.55024524464E+03  0.17396016574E+04  0.16502860652E+04 0.  0.
        1    1    3    3  502    0  0.53126355714E+03 -0.28278066218E+03 -0.87016932631E+03  0.10580172619E+04  0.50400001928E-02 0.  1.
       -1    1    3    3    0  502 -0.53126355714E+03  0.28278066218E+03  0.31992408167E+03  0.68158439544E+03  0.50400001928E-02 0. -1.
</event>
<event>
 5   0  0.3838525E-06  0.2235784E+04  0.7818609E-02  0.8503680E-01
        1   -1    0    0  501    0  0.00000000000E+00  0.00000000000E+00  0.17381222136E+04  0.17381222136E+04  0.50400001928E-02 0.  1.
       -1   -1    0    0    0  501  0.00000000000E+00  0.00000000000E+00 -0.71898421494E+03  0.71898421496E+03  0.50400001928E-02 0. -1.
    10030    2    1    2    0    0  0.00000000000E+00  0.00000000000E+00  0.10191379987E+04  0.24571064286E+04  0.22357839209E+04 0.  0.
        3    1    3    3  502    0 -0.37758245853E+03 -0.19242689701E+03 -0.62728171879E+03  0.75701980728E+03  0.10100000352E+00 0. -1.
       -3    1    3    3    0  502  0.37758245853E+03  0.19242689701E+03  0.16464197175E+04  0.17000866213E+04  0.10100000352E+00 0.  1.
</event>
<event>
 5   0  0.1001961E-05  0.1809933E+04  0.7818609E-02  0.8701035E-01
       -2   -1    0    0    0  501  0.00000000000E+00  0.00000000000E+00  0.10669617489E+04  0.10669617489E+04  0.25500000920E-02 0.  1.
        2   -1    0    0  501    0  0.00000000000E+00  0.00000000000E+00 -0.76756683473E+03  0.76756683473E+03  0.25500000920E-02 0. -1.
    10030    2    1    2    0    0  0.00000000000E+00  0.00000000000E+00  0.29939491421E+03  0.18345285837E+04  0.18099330954E+04 0.  0.
        5    1    3    3  502    0 -0.51513636036E+03 -0.18934733035E+03 -0.57961110508E+03  0.79824119438E+03  0.46999998093E+01 0. -1.
       -5    1    3    3    0  502  0.51513636036E+03  0.18934733035E+03  0.87900601928E+03  0.10362873893E+04  0.46999998093E+01 0.  1.
</event>
<event>
 5   0  0.1119100E-05  0.3090005E+04  0.7818609E-02  0.8218486E-01
       -2   -1    0    0    0  501  0.00000000000E+00  0.00000000000E+00  0.11879570640E+04  0.11879570640E+04  0.25500000920E-02 0. -1.
        2   -1    0    0  501    0  0.00000000000E+00  0.00000000000E+00 -0.20093591761E+04  0.20093591761E+04  0.25500000920E-02 0.  1.
    10030    2    1    2    0    0  0.00000000000E+00  0.00000000000E+00 -0.82140211210E+03  0.31973162400E+04  0.30900048073E+04 0.  0.
        2    1    3    3  502    0 -0.49074850259E+03  0.36969922549E+01  0.11051620479E+04  0.12092274032E+04  0.25500000920E-02 0. -1.
       -2    1    3    3    0  502  0.49074850259E+03 -0.36969922549E+01 -0.19265641600E+04  0.19880888368E+04  0.25500000920E-02 0.  1.
</event>
<event>
 5   0  0.4139628E-06  0.3123284E+04  0.7818609E-02  0.8209377E-01
        1   -1    0    0  501    0  0.00000000000E+00  0.00000000000E+00  0.12812726457E+04  0.12812726457E+04  0.50400001928E-02 0. -1.
       -1   -1    0    0    0  501  0.00000000000E+00  0.00000000000E+00 -0.19033619261E+04  0.19033619261E+04  0.50400001928E-02 0.  1.
    10030    2    1    2    0    0  0.00000000000E+00  0.00000000000E+00 -0.62208928045E+03  0.31846345718E+04  0.31232838941E+04 0.  0.
        5    1    3    3  502    0 -0.14154697218E+03 -0.79173426142E+03  0.10538399003E+04  0.13256995555E+04  0.46999998093E+01 0. -1.
       -5    1    3    3    0  502  0.14154697218E+03  0.79173426142E+03 -0.16759291807E+04  0.18589350163E+04  0.46999998093E+01 0.  1.
</event>
<event>
 5   0  0.9797278E-06  0.1806543E+04  0.7818609E-02  0.8702828E-01
        2   -1    0    0  501    0  0.00000000000E+00  0.00000000000E+00  0.15422116209E+04  0.15422116209E+04  0.25500000920E-02 0.  1.
       -2   -1    0    0    0  501  0.00000000000E+00  0.00000000000E+00 -0.52904503843E+03  0.52904503843E+03  0.25500000920E-02 0. -1.
    10030    2    1    2    0    0  0.00000000000E+00  0.00000000000E+00  0.10131665824E+04  0.20712566593E+04  0.18065430039E+04 0.  0.
        1    1    3    3  502    0  0.29635815729E+03 -0.73051998746E+03  0.10121132763E+04  0.12829111012E+04  0.50400001928E-02 0.  1.
       -1    1    3    3    0  502 -0.29635815729E+03  0.73051998746E+03  0.10533061063E+01  0.78834555808E+03  0.50400001928E-02 0. -1.
</event>
<event>
 5   0  0.1108153E-05  0.2120376E+04  0.7818609E-02  0.8552320E-01
        2   -1    0    0  501    0  0.00000000000E+00  0.00000000000E+00  0.93520005401E+03  0.93520005401E+03  0.25500000920E-02 0. -1.
       -2   -1    0    0    0  501  0.00000000000E+00  0.00000000000E+00 -0.12018803150E+04  0.12018803150E+04  0.25500000920E-02 0.  1.
    10030    2    1    2    0    0  0.00000000000E+00  0.00000000000E+00 -0.26668026097E+03  0.21370803690E+04  0.21203759435E+04 0.  0.
        4    1    3    3  502    0  0.99184543963E+03 -0.53103657967E+02  0.24028170049E+03  0.10219169649E+04  0.12699999809E+01 0. -1.
       -4    1    3    3    0  502 -0.99184543963E+03  0.53103657967E+02 -0.50696196146E+03  0.11151634041E+04  0.12699999809E+01 0.  1.
</event>
<event>
 5   0  0.9797278E-06  0.3136316E+04  0.7818609E-02  0.8205841E-01
       -2   -1    0    0    0  501  0.00000000000E+00  0.00000000000E+00  0.20456318711E+04  0.20456318711E+04  0.25500000920E-02 0. -1.
        2   -1    0    0  501    0  0.00000000000E+00  0.00000000000E+00 -0.12021318960E+04  0.12021318960E+04  0.25500000920E-02 0.  1.
    10030    2    1    2    0    0  0.00000000000E+00  0.00000000000E+00  0.84349997506E+03  0.32477637671E+04  0.31363158768E+04 0.  0.
        1    1    3    3  502    0 -0.58133196286E+03 -0.13022154980E+04  0.10971593668E+04  0.17992972879E+04  0.50400001928E-02 0. -1.
       -1    1    3    3    0  502  0.58133196286E+03  0.13022154980E+04 -0.25365939175E+03  0.14484664792E+04  0.50400001928E-02 0.  1.
</event>
<event>
 5   0  0.1119100E-05  0.3083459E+04  0.7818609E-02  0.8220292E-01
       -2   -1    0    0    0  501  0.00000000000E+00  0.00000000000E+00  0.13786613804E+04  0.13786613804E+04  0.25500000920E-02 0.  1.
        2   -1    0    0  501    0  0.00000000000E+00  0.00000000000E+00 -0.17240849518E+04  0.17240849518E+04  0.25500000920E-02 0. -1.
    10030    2    1    2    0    0  0.00000000000E+00  0.00000000000E+00 -0.34542357142E+03  0.31027463321E+04  0.30834586681E+04 0.  0.
        2    1    3    3  502    0  0.11656818195E+04 -0.77207788992E+03 -0.82639902659E+03  0.16241470758E+04  0.25500000920E-02 0. -1.
       -2    1    3    3    0  502 -0.11656818195E+04  0.77207788992E+03  0.48097545517E+03  0.14785992564E+04  0.25500000920E-02 0.  1.
</event>
<event>
 5   0  0.3848286E-06  0.1898943E+04  0.7818609E-02  0.8655383E-01
        1   -1    0    0  501    0  0.00000000000E+00  0.00000000000E+00  0.93548017118E+03  0.93548017120E+03  0.50400001928E-02 0.  1.
       -1   -1    0    0    0  501  0.00000000000E+00  0.00000000000E+00 -0.96367192212E+03  0.96367192213E+03  0.50400001928E-02 0. -1.
    10030    2    1    2    0    0  0.00000000000E+00  0.00000000000E+00 -0.28191750935E+02  0.18991520933E+04  0.18989428372E+04 0.  0.
        2    1    3    3  502    0 -0.61542839226E+03  0.70703950042E+03  0.13704659822E+03  0.94733242911E+03  0.25500000920E-02 0.  1.
       -2    1    3    3    0  502  0.61542839226E+03 -0.70703950042E+03 -0.16523834916E+03  0.95181966422E+03  0.25500000920E-02 0. -1.
</event>
<event>
 5   0  0.3848286E-06  0.3182354E+04  0.7818609E-02  0.8193493E-01
        1   -1    0    0  501    0  0.00000000000E+00  0.00000000000E+00  0.23951289086E+04  0.23951289086E+04  0.50400001928E-02 0.  1.
       -1   -1    0    0    0  501  0.00000000000E+00  0.00000000000E+00 -0.10570803021E+04  0.10570803021E+04  0.50400001928E-02 0. -1.
    10030    2    1    2    0    0  0.00000000000E+00  0.00000000000E+00  0.13380486066E+04  0.34522092107E+04  0.31823535883E+04 0.  0.
        2    1    3    3  502    0  0.35887636051E+03 -0.79671035500E+03  0.21115618784E+04  0.22852206017E+04  0.25500000920E-02 0.  1.
       -2    1    3    3    0  502 -0.35887636051E+03  0.79671035500E+03 -0.77351327185E+03  0.11669886090E+04  0.25500000920E-02 0. -1.
</event>
<event>
 5   0  0.9797278E-06  0.1804998E+04  0.7818609E-02  0.8703646E-01
       -2   -1    0    0    0  501  0.00000000000E+00  0.00000000000E+00  0.56518320936E+03  0.56518320937E+03  0.25500000920E-02 0.  1.
        2   -1    0    0  501    0  0.00000000000E+00  0.00000000000E+00 -0.14411336088E+04  0.14411336089E+04  0.25500000920E-02 0. -1.
    10030    2    1    2    0    0  0.00000000000E+00  0.00000000000E+00 -0.87595039949E+03  0.20063168182E+04  0.18049980811E+04 0.  0.
        1    1    3    3  502    0  0.69206723992E+03  0.56112199528E+02 -0.10788195229E+04  0.12829486376E+04  0.50400001928E-02 0. -1.
       -1    1    3    3    0  502 -0.69206723992E+03 -0.56112199528E+02  0.20286912346E+03  0.72336818066E+03  0.50400001928E-02 0.  1.
</event>
<event>
 5   0  0.4250961E-06  0.2173789E+04  0.7818609E-02  0.8529418E-01
       -1   -1    0    0    0  501  0.00000000000E+00  0.00000000000E+00  0.11033002323E+04  0.11033002323E+04  0.50400001928E-02 0.  1.
        1   -1    0    0  501    0  0.00000000000E+00  0.00000000000E+00 -0.10707324506E+04  0.10707324506E+04  0.50400001928E-02 0. -1.
    10030    2    1    2    0    0  0.00000000000E+00  0.00000000000E+00  0.32567781653E+02  0.21740326829E+04  0.21737887308E+04 0.  0.
        1    1    3    3  502    0 -0.68513572051E+02  0.91781768029E+03  0.59449750641E+03  0.10956781868E+04  0.50400001928E-02 0.  1.
       -1    1    3    3    0  502  0.68513572051E+02 -0.91781768029E+03 -0.56192972476E+03  0.10783544962E+04  0.50400001928E-02 0. -1.
</event>
<event>
 5   0  0.4139628E-06  0.3123891E+04  0.7818609E-02  0.8209212E-01
       -1   -1    0    0    0  501  0.00000000000E+00  0.00000000000E+00  0.17284028686E+04  0.17284028686E+04  0.50400001928E-02 0. -1.
        1   -1    0    0  501    0  0.00000000000E+00  0.00000000000E+00 -0.14115194161E+04  0.14115194161E+04  0.50400001928E-02 0.  1.
    10030    2    1    2    0    0  0.00000000000E+00  0.00000000000E+00  0.31688345248E+03  0.31399222847E+04  0.31238912963E+04 0.  0.
        5    1    3    3  502    0  0.10973234915E+04  0.10920786665E+04 -0.49738161798E+02  0.15489514626E+04  0.46999998093E+01 0.  1.
       -5    1    3    3    0  502 -0.10973234915E+04 -0.10920786665E+04  0.36662161428E+03  0.15909708221E+04  0.46999998093E+01 0. -1.
</event>
<event>
 5   0  0.1007567E-05  0.1771451E+04  0.7818609E-02  0.8721631E-01
       -2   -1    0    0    0  501  0.00000000000E+00  0.00000000000E+00  0.11736093457E+04  0.11736093457E+04  0.25500000920E-02 0. -1.
        2   -1    0    0  501    0  0.00000000000E+00  0.00000000000E+00 -0.66845892918E+03  0.66845892919E+03  0.25500000920E-02 0.  1.
    10030    2    1    2    0    0  0.00000000000E+00  0.00000000000E+00  0.50515041655E+03  0.18420682749E+04  0.17714509833E+04 0.  0.
        3    1    3    3  502    0 -0.30634419921E+03 -0.22003081778E+01  0.11167629764E+04  0.11580203648E+04  0.10100000352E+00 0. -1.
       -3    1    3    3    0  502  0.30634419921E+03  0.22003081778E+01 -0.61161255984E+03  0.68404791009E+03  0.10100000352E+00 0.  1.
</event>
<event>
 5   0  0.3807334E-06  0.2149950E+04  0.7818609E-02  0.8539554E-01
        1   -1    0    0  501    0  0.00000000000E+00  0.00000000000E+00  0.14289145165E+04  0.14289145165E+04  0.50400001928E-02 0. -1.
       -1   -1    0    0    0  501  0.00000000000E+00  0.00000000000E+00 -0.80870554027E+03  0.80870554029E+03  0.50400001928E-02 0.  1.
    10030    2    1    2    0    0  0.00000000000E+00  0.00000000000E+00  0.62020897622E+03  0.22376200568E+04  0.21499498469E+04 0.  0.
        4    1    3    3  502    0  0.38973222845E+03 -0.52520769520E+02  0.13513608415E+04  0.14074186932E+04  0.12699999809E+01 0. -1.
       -4    1    3    3    0  502 -0.38973222845E+03  0.52520769520E+02 -0.73115186528E+03  0.83020136360E+03  0.12699999809E+01 0.  1.
</event>
<event>
 5   0  0.1119100E-05  0.2983171E+04  0.7818609E-02  0.8248553E-01
       -2   -1    0    0    0  501  0.00000000000E+00  0.00000000000E+00  0.16923154671E+04  0.16923154671E+04  0.25500000920E-02 0. -1.
        2   -1    0    0  501    0  0.00000000000E+00  0.00000000000E+00 -0.13146642444E+04  0.13146642444E+04  0.25500000920E-02 0.  1.
    10030    2    1    2    0    0  0.00000000000E+00  0.00000000000E+00  0.37765122266E+03  0.30069797115E+04  0.29831705515E+04 0.  0.
        2    1    3    3  502    0  0.54379224629E+03  0.13030827014E+04 -0.29573149295E+03  0.14426335812E+04  0.25500000920E-02 0.  1.
       -2    1    3    3    0  502 -0.54379224629E+03 -0.13030827014E+04  0.67338271561E+03  0.15643461303E+04  0.25500000920E-02 0. -1.
</event>
<event>
 5   0  0.3807334E-06  0.3113914E+04  0.7818609E-02  0.8211930E-01
       -1   -1    0    0    0  501  0.00000000000E+00  0.00000000000E+00  0.27207001364E+04  0.27207001364E+04  0.50400001928E-02 0.  1.
        1   -1    0    0  501    0  0.00000000000E+00  0.00000000000E+00 -0.89098923256E+03  0.89098923258E+03  0.50400001928E-02 0. -1.
    10030    2    1    2    0    0  0.00000000000E+00  0.00000000000E+00  0.18297109038E+04  0.36116893690E+04  0.31139136318E+04 0.  0.
        4    1    3    3  502    0 -0.12789904637E+04  0.51678207639E+03  0.77481185312E+02  0.13816241412E+04  0.12699999809E+01 0. -1.
       -4    1    3    3    0  502  0.12789904637E+04 -0.51678207639E+03  0.17522297185E+04  0.22300652277E+04  0.12699999809E+01 0.  1.
</event>
<event>
 5   0  0.4250961E-06  0.3156012E+04  0.7818609E-02  0.8200532E-01
        1   -1    0    0  501    0  0.00000000000E+00  0.00000000000E+00  0.10468909302E+04  0.10468909303E+04  0.50400001928E-02 0.  1.
       -1   -1    0    0    0  501  0.00000000000E+00  0.00000000000E+00 -0.23785702361E+04  0.23785702361E+04  0.50400001928E-02 0. -1.
    10030    2    1    2    0    0  0.00000000000E+00  0.00000000000E+00 -0.13316793058E+04  0.34254611664E+04  0.31560124253E+04 0.  0.
        1    1    3    3  502    0  0.94440583817E+03 -0.12519448320E+04 -0.85643172769E+03  0.17868249925E+04  0.50400001928E-02 0. -1.
       -1    1    3    3    0  502 -0.94440583817E+03  0.12519448320E+04 -0.47524757816E+03  0.16386361738E+04  0.50400001928E-02 0.  1.
</event>
<event>
 5   0  0.1001961E-05  0.3135768E+04  0.7818609E-02  0.8205990E-01
       -2   -1    0    0    0  501  0.00000000000E+00  0.00000000000E+00  0.19783294093E+04  0.19783294093E+04  0.25500000920E-02 0. -1.
        2   -1    0    0  501    0  0.00000000000E+00  0.00000000000E+00 -0.12425937704E+04  0.12425937704E+04  0.25500000920E-02 0.  1.
    10030    2    1    2    0    0  0.00000000000E+00  0.00000000000E+00  0.73573563890E+03  0.32209231797E+04  0.31357677209E+04 0.  0.
        5    1    3    3  502    0 -0.51402992973E+03  0.20783808988E+03  0.18742595960E+04  0.19545573830E+04  0.46999998093E+01 0. -1.
       -5    1    3    3    0  502  0.51402992973E+03 -0.20783808988E+03 -0.11385239571E+04  0.12663657967E+04  0.46999998093E+01 0.  1.
</event>
<event>
 5   0  0.3838525E-06  0.3070177E+04  0.7818609E-02  0.8223971E-01
        1   -1    0    0  501    0  0.00000000000E+00  0.00000000000E+00  0.17902024330E+04  0.17902024330E+04  0.50400001928E-02 0.  1.
       -1   -1    0    0    0  501  0.00000000000E+00  0.00000000000E+00 -0.13163296958E+04  0.13163296958E+04  0.50400001928E-02 0. -1.
    10030    2    1    2    0    0  0.00000000000E+00  0.00000000000E+00  0.47387273717E+03  0.31065321288E+04  0.30701769487E+04 0.  0.
        3    1    3    3  502    0 -0.27054765159E+03 -0.74099343948E+03  0.15694317220E+04  0.17565259034E+04  0.10100000352E+00 0.  1.
       -3    1    3    3    0  502  0.27054765159E+03  0.74099343948E+03 -0.10955589848E+04  0.13500062254E+04  0.10100000352E+00 0. -1.
</event>
<event>
 5   0  0.3838525E-06  0.1692961E+04  0.7818609E-02  0.8765389E-01
       -1   -1    0    0    0  501  0.00000000000E+00  0.00000000000E+00  0.11844537187E+04  0.11844537187E+04  0.50400001928E-02 0.  1.
        1   -1    0    0  501    0  0.00000000000E+00  0.00000000000E+00 -0.60494471202E+03  0.60494471204E+03  0.50400001928E-02 0. -1.
    10030    2    1    2    0    0  0.00000000000E+00  0.00000000000E+00  0.57950900663E+03  0.17893984307E+04  0.16929607364E+04 0.  0.
        3    1    3    3  502    0  0.15546468928E+03 -0.36740206217E+03 -0.49934921088E+03  0.63914254240E+03  0.10100000352E+00 0. -1.
       -3    1    3    3    0  502 -0.15546468928E+03  0.36740206217E+03  0.10788582175E+04  0.11502558883E+04  0.10100000352E+00 0.  1.
</event>
<event>
 5   0  0.1119100E-05  0.3364582E+04  0.7818609E-02  0.8146654E-01
        2   -1    0    0  501    0  0.00000000000E+00  0.00000000000E+00  0.28507359005E+04  0.28507359005E+04  0.25500000920E-02 0. -1.
       -2   -1    0    0    0  501  0.00000000000E+00  0.00000000000E+00 -0.99276237482E+03  0.99276237482E+03  0.25500000920E-02 0.  1.
    10030    2    1    2    0    0  0.00000000000E+00  0.00000000000E+00  0.18579735257E+04  0.38434982753E+04  0.33645821985E+04 0.  0.
        2    1    3    3  502    0 -0.11308601066E+04 -0.11222017261E+04  0.31178238729E+03  0.16233882936E+04  0.25500000920E-02 0.  1.
       -2    1    3    3    0  502  0.11308601066E+04  0.11222017261E+04  0.15461911384E+04  0.22201099818E+04  0.25500000920E-02 0. -1.
</event>
<event>
 5   0  0.1108153E-05  0.3066457E+04  0.7818609E-02  0.8225004E-01
        2   -1    0    0  501    0  0.00000000000E+00  0.00000000000E+00  0.17262715672E+04  0.17262715672E+04  0.25500000920E-02 0. -1.
       -2   -1    0    0    0  501  0.00000000000E+00  0.00000000000E+00 -0.13617728079E+04  0.13617728079E+04  0.25500000920E-02 0.  1.
    10030    2    1    2    0    0  0.00000000000E+00  0.00000000000E+00  0.36449875928E+03  0.30880443750E+04  0.30664570300E+04 0.  0.
        4    1    3    3  502    0 -0.79171598424E+03  0.70571921411E+03  0.12972631726E+04  0.16756333611E+04  0.12699999809E+01 0. -1.
       -4    1    3    3    0  502  0.79171598424E+03 -0.70571921411E+03 -0.93276441329E+03  0.14124110140E+04  0.12699999809E+01 0.  1.
</event>
<event>
 5   0  0.3838525E-06  0.1558450E+04  0.7818609E-02  0.8846488E-01
        1   -1    0    0  501    0  0.00000000000E+00  0.00000000000E+00  0.55485978741E+03  0.55485978743E+03  0.50400001928E-02 0.  1.
       -1   -1    0    0    0  501  0.00000000000E+00  0.00000000000E+00 -0.10943159319E+04  0.10943159320E+04  0.50400001928E-02 0. -1.
    10030    2    1    2    0    0  0.00000000000E+00  0.00000000000E+00 -0.53945614454E+03  0.16491757194E+04  0.15584503911E+04 0.  0.
        3    1    3    3  502    0 -0.54059214059E+03 -0.59732601972E+02  0.32077495798E+03  0.63143046337E+03  0.10100000352E+00 0.  1.
       -3    1    3    3    0  502  0.54059214059E+03  0.59732601972E+02 -0.86023110252E+03  0.10177452560E+04  0.10100000352E+00 0. -1.
</event>
<event>
 5   0  0.1119100E-05  0.3132437E+04  0.7818609E-02  0.8206892E-01
        2   -1    0    0  501    0  0.00000000000E+00  0.00000000000E+00  0.14106361795E+04  0.14106361795E+04  0.25500000920E-02 0.  1.
       -2   -1    0    0    0  501  0.00000000000E+00  0.00000000000E+00 -0.17389605842E+04  0.17389605842E+04  0.25500000920E-02 0. -1.
    10030    2    1    2    0    0  0.00000000000E+00  0.00000000000E+00 -0.32832440468E+03  0.31495967636E+04  0.31324372075E+04 0.  0.
        2    1    3    3  502    0  0.88121532672E+03  0.71887861024E+03  0.91863716994E+03  0.14619237868E+04  0.25500000920E-02 0.  1.
       -2    1    3    3    0  502 -0.88121532672E+03 -0.71887861024E+03 -0.12469615746E+04  0.16876729769E+04  0.25500000920E-02 0. -1.
</event>
<event>
 5   0  0.9797278E-06  0.2014084E+04  0.7818609E-02  0.8600064E-01
        2   -1    0    0  501    0  0.00000000000E+00  0.00000000000E+00  0.26045188227E+04  0.26045188227E+04  0.25500000920E-02 0. -1.
       -2   -1    0    0    0  501  0.00000000000E+00  0.00000000000E+00 -0.38937478918E+03  0.38937478919E+03  0.25500000920E-02 0.  1.
    10030    2    1    2    0    0  0.00000000000E+00  0.00000000000E+00  0.22151440336E+04  0.29938936119E+04  0.20140843751E+04 0.  0.
        1    1    3    3  502    0  0.95980361770E+03 -0.27512895721E+03  0.13026070909E+04  0.16412507916E+04  0.50400001928E-02 0. -1.
       -1    1    3    3    0  502 -0.95980361770E+03  0.27512895721E+03  0.91253694270E+03  0.13526428204E+04  0.50400001928E-02 0.  1.
</event>
<event>
 5   0  0.1007567E-05  0.3107075E+04  0.7818609E-02  0.8213799E-01
        2   -1    0    0  501    0  0.00000000000E+00  0.00000000000E+00  0.18578281988E+04  0.18578281988E+04  0.25500000920E-02 0.  1.
       -2   -1    0    0    0  501  0.00000000000E+00  0.00000000000E+00 -0.12990858644E+04  0.12990858644E+04  0.25500000920E-02 0. -1.
    10030    2    1    2    0    0  0.00000000000E+00  0.00000000000E+00  0.55874233445E+03  0.31569140632E+04  0.31070747346E+04 0.  0.
        3    1    3    3  502    0 -0.15294128564E+04  0.13230965079E+03  0.52166822476E+03  0.16213411966E+04  0.10100000352E+00 0.  1.
       -3    1    3    3    0  502  0.15294128564E+04 -0.13230965079E+03  0.37074109688E+02  0.15355728666E+04  0.10100000352E+00 0. -1.
</event>
<event>
 5   0  0.3838525E-06  0.3067966E+04  0.7818609E-02  0.8224585E-01
        1   -1    0    0  501    0  0.00000000000E+00  0.00000000000E+00  0.23217400339E+04  0.23217400339E+04  0.50400001928E-02 0. -1.
       -1   -1    0    0    0  501  0.00000000000E+00  0.00000000000E+00 -0.10135085041E+04  0.10135085041E+04  0.50400001928E-02 0.  1.
    10030    2    1    2    0    0  0.00000000000E+00  0.00000000000E+00  0.13082315298E+04  0.33352485380E+04  0.30679656248E+04 0.  0.
        3    1    3    3  502    0 -0.43560782043E+03 -0.18151266920E+03 -0.93263427495E+03  0.10452309426E+04  0.10100000352E+00 0.  1.
       -3    1    3    3    0  502  0.43560782043E+03  0.18151266920E+03  0.22408658048E+04  0.22900175954E+04  0.10100000352E+00 0. -1.
</event>
<event>
 5   0  0.1119100E-05  0.3226449E+04  0.7818609E-02  0.8181867E-01
        2   -1    0    0  501    0  0.00000000000E+00  0.00000000000E+00  0.12804270923E+04  0.12804270923E+04  0.25500000920E-02 0. -1.
       -2   -1    0    0    0  501  0.00000000000E+00  0.00000000000E+00 -0.20325202527E+04  0.20325202527E+04  0.25500000920E-02 0.  1.
    10030    2    1    2    0    0  0.00000000000E+00  0.00000000000E+00 -0.75209316044E+03  0.33129473450E+04  0.32264494400E+04 0.  0.
        2    1    3    3  502    0  0.25465340847E+03  0.13141533210E+04  0.54845035494E+03  0.14465977677E+04  0.25500000920E-02 0. -1.
       -2    1    3    3    0  502 -0.25465340847E+03 -0.13141533210E+04 -0.13005435154E+04  0.18663495774E+04  0.25500000920E-02 0.  1.
</event>
<event>
 5   0  0.3493125E-06  0.3005062E+04  0.7818609E-02  0.8242287E-01
       -3   -1    0    0    0  501  0.00000000000E+00  0.00000000000E+00  0.15300510451E+04  0.15300510484E+04  0.10100000352E+00 0. -1.
        3   -1    0    0  501    0  0.00000000000E+00  0.00000000000E+00 -0.14755060467E+04  0.14755060501E+04  0.10100000352E+00 0.  1.
    10030    2    1    2    0    0  0.00000000000E+00  0.00000000000E+00  0.54544998433E+02  0.30055570986E+04  0.30050621152E+04 0.  0.
        2    1    3    3  502    0 -0.65387455309E+03  0.67515946212E+03  0.11997314943E+04  0.15240563929E+04  0.25500000920E-02 0. -1.
       -2    1    3    3    0  502  0.65387455309E+03 -0.67515946212E+03 -0.11451864959E+04  0.14815007056E+04  0.25500000920E-02 0.  1.
</event>
<event>
 5   0  0.3807334E-06  0.2991396E+04  0.7818609E-02  0.8246192E-01
       -1   -1    0    0    0  501  0.00000000000E+00  0.00000000000E+00  0.12745996145E+04  0.12745996146E+04  0.50400001928E-02 0.  1.
        1   -1    0    0  501    0  0.00000000000E+00  0.00000000000E+00 -0.17551493260E+04  0.17551493260E+04  0.50400001928E-02 0. -1.
    10030    2    1    2    0    0  0.00000000000E+00  0.00000000000E+00 -0.48054971143E+03  0.30297489405E+04  0.29913960984E+04 0.  0.
        4    1    3    3  502    0 -0.11893606315E+04 -0.53719186818E+03 -0.98036727143E+03  0.16322608293E+04  0.12699999809E+01 0. -1.
       -4    1    3    3    0  502  0.11893606315E+04  0.53719186818E+03  0.49981755999E+03  0.13974881113E+04  0.12699999809E+01 0.  1.
</event>
<event>
 5   0  0.1119100E-05  0.2158385E+04  0.7818609E-02  0.8535952E-01
       -2   -1    0    0    0  501  0.00000000000E+00  0.00000000000E+00  0.89243850857E+03  0.89243850857E+03  0.25500000920E-02 0.  1.
        2   -1    0    0  501    0  0.00000000000E+00  0.00000000000E+00 -0.13050270094E+04  0.13050270094E+04  0.25500000920E-02 0. -1.
    10030    2    1    2    0    0  0.00000000000E+00  0.00000000000E+00 -0.41258850084E+03  0.21974655180E+04  0.21583849128E+04 0.  0.
        2    1    3    3  502    0  0.84645373918E+03 -0.34863945060E+03  0.37556310231E+03  0.98948524138E+03  0.25500000920E-02 0.  1.
       -2    1    3    3    0  502 -0.84645373918E+03  0.34863945060E+03 -0.78815160315E+03  0.12079802766E+04  0.25500000920E-02 0. -1.
</event>
<event>
 5   0  0.4139628E-06  0.3069703E+04  0.7818609E-02  0.8224102E-01
        1   -1    0    0  501    0  0.00000000000E+00  0.00000000000E+00  0.18597947528E+04  0.18597947528E+04  0.50400001928E-02 0. -1.
       -1   -1    0    0    0  501  0.00000000000E+00  0.00000000000E+00 -0.12666821513E+04  0.12666821513E+04  0.50400001928E-02 0.  1.
    10030    2    1    2    0    0  0.00000000000E+00  0.00000000000E+00  0.59311260153E+03  0.31264769041E+04  0.30697027989E+04 0.  0.
        5    1    3    3  502    0  0.34669898510E+03  0.11832868646E+04  0.12274510987E+04  0.17398351301E+04  0.46999998093E+01 0. -1.
       -5    1    3    3    0  502 -0.34669898510E+03 -0.11832868646E+04 -0.63433849721E+03  0.13866417740E+04  0.46999998093E+01 0.  1.
</event>
<event>
 5   0  0.3838525E-06  0.1637721E+04  0.7818609E-02  0.8797704E-01
        1   -1    0    0  501    0  0.00000000000E+00  0.00000000000E+00  0.10598183864E+04  0.10598183864E+04  0.50400001928E-02 0. -1.
       -1   -1    0    0    0  501  0.00000000000E+00  0.00000000000E+00 -0.63268649907E+03  0.63268649909E+03  0.50400001928E-02 0.  1.
    10030    2    1    2    0    0  0.00000000000E+00  0.00000000000E+00  0.42713188736E+03  0.16925048855E+04  0.16377213250E+04 0.  0.
        3    1    3    3  502    0  0.20795195390E+03  0.19607307678E+03  0.10065968146E+04  0.10463870335E+04  0.10100000352E+00 0. -1.
       -3    1    3    3    0  502 -0.20795195390E+03 -0.19607307678E+03 -0.57946492724E+03  0.64611785200E+03  0.10100000352E+00 0.  1.
</event>
<event>
 5   0  0.3838525E-06  0.2997592E+04  0.7818609E-02  0.8244419E-01
       -1   -1    0    0    0  501  0.00000000000E+00  0.00000000000E+00  0.17155811702E+04  0.17155811702E+04  0.50400001928E-02 0.  1.
        1   -1    0    0  501    0  0.00000000000E+00  0.00000000000E+00 -0.13094041084E+04  0.13094041084E+04  0.50400001928E-02 0. -1.
    10030    2    1    2    0    0  0.00000000000E+00  0.00000000000E+00  0.40617706182E+03  0.30249852787E+04  0.29975917218E+04 0.  0.
        3    1    3    3  502    0  0.89769307239E+03 -0.31326724207E+02  0.14138675500E+04  0.16750688568E+04  0.10100000352E+00 0.  1.
       -3    1    3    3    0  502 -0.89769307239E+03  0.31326724207E+02 -0.10076904882E+04  0.13499164219E+04  0.10100000352E+00 0. -1.
</event>
<event>
 5   0  0.3848286E-06  0.3022742E+04  0.7818609E-02  0.8237267E-01
       -1   -1    0    0    0  501  0.00000000000E+00  0.00000000000E+00  0.95503485488E+03  0.95503485489E+03  0.50400001928E-02 0.  1.
        1   -1    0    0  501    0  0.00000000000E+00  0.00000000000E+00 -0.23917889702E+04  0.23917889702E+04  0.50400001928E-02 0. -1.
    10030    2    1    2    0    0  0.00000000000E+00  0.00000000000E+00 -0.14367541153E+04  0.33468238251E+04  0.30227416906E+04 0.  0.
        2    1    3    3  502    0  0.69037474486E+03 -0.67078640799E+03  0.57173949951E+03  0.11195792731E+04  0.25500000920E-02 0.  1.
       -2    1    3    3    0  502 -0.69037474486E+03  0.67078640799E+03 -0.20084936148E+04  0.22272445520E+04  0.25500000920E-02 0. -1.
</event>
<event>
 5   0  0.1001961E-05  0.2583195E+04  0.7818609E-02  0.8373932E-01
       -2   -1    0    0    0  501  0.00000000000E+00  0.00000000000E+00  0.12819322528E+04  0.12819322528E+04  0.25500000920E-02 0.  1.
        2   -1    0    0  501    0  0.00000000000E+00  0.00000000000E+00 -0.13013353134E+04  0.13013353134E+04  0.25500000920E-02 0. -1.
    10030    2    1    2    0    0  0.00000000000E+00  0.00000000000E+00 -0.19403060558E+02  0.25832675662E+04  0.25831946965E+04 0.  0.
        5    1    3    3  502    0  0.91847100169E+03  0.33167839655E+03 -0.85506677532E+03  0.12979833666E+04  0.46999998093E+01 0. -1.
       -5    1    3    3    0  502 -0.91847100169E+03 -0.33167839655E+03  0.83566371476E+03  0.12852841996E+04  0.46999998093E+01 0.  1.
</event>
<event>
 5   0  0.3807334E-06  0.2749152E+04  0.7818609E-02  0.8319231E-01
        1   -1    0    0  501    0  0.00000000000E+00  0.00000000000E+00  0.14010224524E+04  0.14010224524E+04  0.50400001928E-02 0.  1.
       -1   -1    0    0    0  501  0.00000000000E+00  0.00000000000E+00 -0.13486288731E+04  0.13486288731E+04  0.50400001928E-02 0. -1.
    10030    2    1    2    0    0  0.00000000000E+00  0.00000000000E+00  0.52393579228E+02  0.27496513255E+04  0.27491521101E+04 0.  0.
        4    1    3    3  502    0 -0.44090172478E+03  0.59239742493E+03  0.11857729536E+04  0.13969209535E+04  0.12699999809E+01 0.  1.
       -4    1    3    3    0  502  0.44090172478E+03 -0.59239742493E+03 -0.11333793744E+04  0.13527303720E+04  0.12699999809E+01 0. -1.
</event>
<event>
 5   0  0.3838525E-06  0.3177459E+04  0.7818609E-02  0.8194796E-01
       -1   -1    0    0    0  501  0.00000000000E+00  0.00000000000E+00  0.27858705454E+04  0.27858705454E+04  0.50400001928E-02 0. -1.
        1   -1    0    0  501    0  0.00000000000E+00  0.00000000000E+00 -0.90602246573E+03  0.90602246574E+03  0.50400001928E-02 0.  1.
    10030    2    1    2    0    0  0.00000000000E+00  0.00000000000E+00  0.18798480796E+04  0.36918930111E+04  0.31774589223E+04 0.  0.
        3    1    3    3  502    0 -0.68976389823E+03  0.70379202295E+03 -0.50801352161E+03  0.11086817376E+04  0.10100000352E+00 0.  1.
       -3    1    3    3    0  502  0.68976389823E+03 -0.70379202295E+03  0.23878616012E+04  0.25832112735E+04  0.10100000352E+00 0. -1.
</event>
<event>
 5   0  0.1119100E-05  0.3122103E+04  0.7818609E-02  0.8209698E-01
        2   -1    0    0  501    0  0.00000000000E+00  0.00000000000E+00  0.28005343975E+04  0.28005343975E+04  0.25500000920E-02 0. -1.
       -2   -1    0    0    0  501  0.00000000000E+00  0.00000000000E+00 -0.87014893796E+03  0.87014893797E+03  0.25500000920E-02 0.  1.
    10030    2    1    2    0    0  0.00000000000E+00  0.00000000000E+00  0.19303854596E+04  0.36706833355E+04  0.31221031577E+04 0.  0.
        2    1    3    3  502    0  0.49143705655E+03  0.42646251224E+03 -0.70311298358E+03  0.95799192198E+03  0.25500000920E-02 0.  1.
       -2    1    3    3    0  502 -0.49143705655E+03 -0.42646251224E+03  0.26334984432E+04  0.27126914135E+04  0.25500000920E-02 0. -1.
</event>
<event>
 5   0  0.3848286E-06  0.1600158E+04  0.7818609E-02  0.8820451E-01
       -1   -1    0    0    0  501  0.00000000000E+00  0.00000000000E+00  0.69673803132E+03  0.69673803134E+03  0.50400001928E-02 0.  1.
        1   -1    0    0  501    0  0.00000000000E+00  0.00000000000E+00 -0.91874807086E+03  0.91874807087E+03  0.50400001928E-02 0. -1.
    10030    2    1    2    0    0  0.00000000000E+00  0.00000000000E+00 -0.22201003954E+03  0.16154861022E+04  0.16001583949E+04 0.  0.
        2    1    3    3  502    0 -0.24992548780E+03  0.90994847994E+02  0.65079827609E+03  0.70305135515E+03  0.25500000920E-02 0.  1.
       -2    1    3    3    0  502  0.24992548780E+03 -0.90994847994E+02 -0.87280831563E+03  0.91243474706E+03  0.25500000920E-02 0. -1.
</event>
<event>
 5   0  0.1001961E-05  0.1818430E+04  0.7818609E-02  0.8696560E-01
       -2   -1    0    0    0  501  0.00000000000E+00  0.00000000000E+00  0.73876710376E+03  0.73876710376E+03  0.25500000920E-02 0. -1.
        2   -1    0    0  501    0  0.00000000000E+00  0.00000000000E+00 -0.11189881244E+04  0.11189881244E+04  0.25500000920E-02 0.  1.
    10030    2    1    2    0    0  0.00000000000E+00  0.00000000000E+00 -0.38022102062E+03  0.18577552281E+04  0.18184296696E+04 0.  0.
        5    1    3    3  502    0  0.26721071869E+03 -0.69840205437E+03 -0.71848238627E+03  0.10370178528E+04  0.46999998093E+01 0.  1.
       -5    1    3    3    0  502 -0.26721071869E+03  0.69840205437E+03  0.33826136565E+03  0.82073737531E+03  0.46999998093E+01 0. -1.
</event>
<event>
 5   0  0.4250961E-06  0.3100428E+04  0.7818609E-02  0.8215620E-01
        1   -1    0    0  501    0  0.00000000000E+00  0.00000000000E+00  0.32421604282E+04  0.32421604282E+04  0.50400001928E-02 0.  1.
       -1   -1    0    0    0  501  0.00000000000E+00  0.00000000000E+00 -0.74122281214E+03  0.74122281216E+03  0.50400001928E-02 0. -1.
    10030    2    1    2    0    0  0.00000000000E+00  0.00000000000E+00  0.25009376161E+04  0.39833832404E+04  0.31004278866E+04 0.  0.
        1    1    3    3  502    0 -0.12938401889E+04  0.72940582431E+03  0.68006481123E+03  0.16335677024E+04  0.50400001928E-02 0. -1.
       -1    1    3    3    0  502  0.12938401889E+04 -0.72940582431E+03  0.18208728048E+04  0.23498155380E+04  0.50400001928E-02 0.  1.
</event>
<event>
 5   0  0.1007567E-05  0.3090898E+04  0.7818609E-02  0.8218240E-01
       -2   -1    0    0    0  501  0.00000000000E+00  0.00000000000E+00  0.12908286968E+04  0.12908286968E+04  0.25500000920E-02 0. -1.
        2   -1    0    0  501    0  0.00000000000E+00  0.00000000000E+00 -0.18502939330E+04  0.18502939330E+04  0.25500000920E-02 0.  1.
    10030    2    1    2    0    0  0.00000000000E+00  0.00000000000E+00 -0.55946523622E+03  0.31411226299E+04  0.30908979319E+04 0.  0.
        3    1    3    3  502    0  0.90204222450E+03  0.28768220712E+03  0.96157796383E+03  0.13494715328E+04  0.10100000352E+00 0. -1.
       -3    1    3    3    0  502 -0.90204222450E+03 -0.28768220712E+03 -0.15210432000E+04  0.17916510971E+04  0.10100000352E+00 0.  1.
</event>
<event>
 5   0  0.1001961E-05  0.3079530E+04  0.7818609E-02  0.8221378E-01
        2   -1    0    0  501    0  0.00000000000E+00  0.00000000000E+00  0.23297594439E+04  0.23297594439E+04  0.25500000920E-02 0.  1.
       -2   -1    0    0    0  501  0.00000000000E+00  0.00000000000E+00 -0.10176482566E+04  0.10176482566E+04  0.25500000920E-02 0. -1.
    10030    2    1    2    0    0  0.00000000000E+00  0.00000000000E+00  0.13121111873E+04  0.33474077005E+04  0.30795295981E+04 0.  0.
        5    1    3    3  502    0  0.10843922975E+04 -0.61868585946E+03 -0.32354481205E+03  0.12897217464E+04  0.46999998093E+01 0. -1.
       -5    1    3    3    0  502 -0.10843922975E+04  0.61868585946E+03  0.16356559994E+04  0.20576859541E+04  0.46999998093E+01 0.  1.
</event>
<event>
 5   0  0.4250961E-06  0.3220994E+04  0.7818609E-02  0.8183295E-01
        1   -1    0    0  501    0  0.00000000000E+00  0.00000000000E+00  0.13566664702E+04  0.13566664702E+04  0.50400001928E-02 0. -1.
       -1   -1    0    0    0  501  0.00000000000E+00  0.00000000000E+00 -0.19118186075E+04  0.19118186075E+04  0.50400001928E-02 0.  1.
    10030    2    1    2    0    0  0.00000000000E+00  0.00000000000E+00 -0.55515213722E+03  0.32684850777E+04  0.32209937609E+04 0.  0.
        1    1    3    3  502    0 -0.18200811223E+02  0.45083629279E+03 -0.18463706240E+04  0.19007022685E+04  0.50400001928E-02 0.  1.
       -1    1    3    3    0  502  0.18200811223E+02 -0.45083629279E+03  0.12912184868E+04  0.13677828092E+04  0.50400001928E-02 0. -1.
</event>
<event>
 5   0  0.1119100E-05  0.2988598E+04  0.7818609E-02  0.8246994E-01
       -2   -1    0    0    0  501  0.00000000000E+00  0.00000000000E+00  0.15917740305E+04  0.15917740305E+04  0.25500000920E-02 0.  1.
        2   -1    0    0  501    0  0.00000000000E+00  0.00000000000E+00 -0.14027929849E+04  0.14027929849E+04  0.25500000920E-02 0. -1.
    10030    2    1    2    0    0  0.00000000000E+00  0.00000000000E+00  0.18898104560E+03  0.29945670155E+04  0.29885979613E+04 0.  0.
        2    1    3    3  502    0  0.11973643860E+04 -0.81926474724E+03 -0.26406947322E+03  0.14746555142E+04  0.25500000920E-02 0.  1.
       -2    1    3    3    0  502 -0.11973643860E+04  0.81926474724E+03  0.45305051882E+03  0.15199115012E+04  0.25500000920E-02 0. -1.
</event>
<event>
 5   0  0.1001961E-05  0.2567315E+04  0.7818609E-02  0.8379389E-01
       -2   -1    0    0    0  501  0.00000000000E+00  0.00000000000E+00  0.92506783243E+03  0.92506783243E+03  0.25500000920E-02 0. -1.
        2   -1    0    0  501    0  0.00000000000E+00  0.00000000000E+00 -0.17812490166E+04  0.17812490166E+04  0.25500000920E-02 0.  1.
    10030    2    1    2    0    0  0.00000000000E+00  0.00000000000E+00 -0.85618118412E+03  0.27063168490E+04  0.25673146802E+04 0.  0.
        5    1    3    3  502    0  0.89123359499E+03  0.46132647905E+03 -0.12718230270E+04  0.16200849802E+04  0.46999998093E+01 0. -1.
       -5    1    3    3    0  502 -0.89123359499E+03 -0.46132647905E+03  0.41564184291E+03  0.10862318687E+04  0.46999998093E+01 0.  1.
</event>
<event>
 5   0  0.3848286E-06  0.3268182E+04  0.7818609E-02  0.8171039E-01
       -1   -1    0    0    0  501  0.00000000000E+00  0.00000000000E+00  0.16849763233E+04  0.16849763233E+04  0.50400001928E-02 0. -1.
        1   -1    0    0  501    0  0.00000000000E+00  0.00000000000E+00 -0.15847428363E+04  0.15847428363E+04  0.50400001928E-02 0.  1.
    10030    2    1    2    0    0  0.00000000000E+00  0.00000000000E+00  0.10023348700E+03  0.32697191595E+04  0.32681824659E+04 0.  0.
        2    1    3    3  502    0  0.13574711381E+04 -0.89817730813E+03  0.19441975203E+03  0.16392831994E+04  0.25500000920E-02 0.  1.
       -2    1    3    3    0  502 -0.13574711381E+04  0.89817730813E+03 -0.94186265030E+02  0.16304359602E+04  0.25500000920E-02 0. -1.
</event>
<event>
 5   0  0.1001961E-05  0.3145495E+04  0.7818609E-02  0.8203362E-01
        2   -1    0    0  501    0  0.00000000000E+00  0.00000000000E+00  0.35331510512E+04  0.35331510512E+04  0.25500000920E-02 0. -1.
       -2   -1    0    0    0  501  0.00000000000E+00  0.00000000000E+00 -0.70009320626E+03  0.70009320626E+03  0.25500000920E-02 0.  1.
    10030    2    1    2    0    0  0.00000000000E+00  0.00000000000E+00  0.28330578449E+04  0.42332442575E+04  0.31454952218E+04 0.  0.
        5    1    3    3  502    0 -0.77836487006E+02 -0.21467150555E+03  0.35107133659E+04  0.35181348469E+04  0.46999998093E+01 0. -1.
       -5    1    3    3    0  502  0.77836487006E+02  0.21467150555E+03 -0.67765552091E+03  0.71510941053E+03  0.46999998093E+01 0.  1.
</event>
<event>
 5   0  0.3807334E-06  0.2688796E+04  0.7818609E-02  0.8338649E-01
       -1   -1    0    0    0  501  0.00000000000E+00  0.00000000000E+00  0.24365183878E+04  0.24365183878E+04  0.50400001928E-02 0.  1.
        1   -1    0    0  501    0  0.00000000000E+00  0.00000000000E+00 -0.74179876813E+03  0.74179876815E+03  0.50400001928E-02 0. -1.
    10030    2    1    2    0    0  0.00000000000E+00  0.00000000000E+00  0.16947196196E+04  0.31783171559E+04  0.26887962650E+04 0.  0.
        4    1    3    3  502    0 -0.92254704967E+03  0.27337839035E+03 -0.26250273719E+03  0.99736558147E+03  0.12699999809E+01 0. -1.
       -4    1    3    3    0  502  0.92254704967E+03 -0.27337839035E+03  0.19572223568E+04  0.21809515745E+04  0.12699999809E+01 0.  1.
</event>
<event>
 5   0  0.4139628E-06  0.1529175E+04  0.7818609E-02  0.8865280E-01
       -1   -1    0    0    0  501  0.00000000000E+00  0.00000000000E+00  0.83685046921E+03  0.83685046923E+03  0.50400001928E-02 0.  1.
        1   -1    0    0  501    0  0.00000000000E+00  0.00000000000E+00 -0.69856468421E+03  0.69856468422E+03  0.50400001928E-02 0. -1.
    10030    2    1    2    0    0  0.00000000000E+00  0.00000000000E+00  0.13828578501E+03  0.15354151535E+04  0.15291751813E+04 0.  0.
        5    1    3    3  502    0 -0.33830428797E+03 -0.72969925342E+02  0.75368562388E+03  0.82936030222E+03  0.46999998093E+01 0.  1.
       -5    1    3    3    0  502  0.33830428797E+03  0.72969925342E+02 -0.61539983887E+03  0.70605485123E+03  0.46999998093E+01 0. -1.
</event>
<event>
 5   0  0.4139628E-06  0.3079247E+04  0.7818609E-02  0.8221456E-01
       -1   -1    0    0    0  501  0.00000000000E+00  0.00000000000E+00  0.11967131454E+04  0.11967131454E+04  0.50400001928E-02 0.  1.
        1   -1    0    0  501    0  0.00000000000E+00  0.00000000000E+00 -0.19807932202E+04  0.19807932202E+04  0.50400001928E-02 0. -1.
    10030    2    1    2    0    0  0.00000000000E+00  0.00000000000E+00 -0.78408007484E+03  0.31775063656E+04  0.30792474957E+04 0.  0.
        5    1    3    3  502    0  0.81001064866E+02  0.68625521549E+03  0.10276940895E+04  0.12384202134E+04  0.46999998093E+01 0.  1.
       -5    1    3    3    0  502 -0.81001064866E+02 -0.68625521549E+03 -0.18117741643E+04  0.19390861523E+04  0.46999998093E+01 0. -1.
</event>
<event>
 5   0  0.3493125E-06  0.3121594E+04  0.7818609E-02  0.8209836E-01
        3   -1    0    0  501    0  0.00000000000E+00  0.00000000000E+00  0.11348781072E+04  0.11348781117E+04  0.10100000352E+00 0. -1.
       -3   -1    0    0    0  501  0.00000000000E+00  0.00000000000E+00 -0.21465630013E+04  0.21465630037E+04  0.10100000352E+00 0.  1.
    10030    2    1    2    0    0  0.00000000000E+00  0.00000000000E+00 -0.10116848942E+04  0.32814411154E+04  0.31215940589E+04 0.  0.
        4    1    3    3  502    0 -0.14087733482E+04  0.54263063300E+03 -0.92235841803E+03  0.17691345384E+04  0.12699999809E+01 0.  1.
       -4    1    3    3    0  502  0.14087733482E+04 -0.54263063300E+03 -0.89326476122E+02  0.15123065770E+04  0.12699999809E+01 0. -1.
</event>
<event>
 5   0  0.1007567E-05  0.3103922E+04  0.7818609E-02  0.8214662E-01
        2   -1    0    0  501    0  0.00000000000E+00  0.00000000000E+00  0.16524777684E+04  0.16524777684E+04  0.25500000920E-02 0. -1.
       -2   -1    0    0    0  501  0.00000000000E+00  0.00000000000E+00 -0.14575584149E+04  0.14575584149E+04  0.25500000920E-02 0.  1.
    10030    2    1    2    0    0  0.00000000000E+00  0.00000000000E+00  0.19491935350E+03  0.31100361833E+04  0.31039219557E+04 0.  0.
        3    1    3    3  502    0 -0.10301129973E+03 -0.57674619569E+03 -0.13424987033E+04  0.14647697023E+04  0.10100000352E+00 0.  1.
       -3    1    3    3    0  502  0.10301129973E+03  0.57674619569E+03  0.15374180568E+04  0.16452664810E+04  0.10100000352E+00 0. -1.
</event>
<event>
 5   0  0.4139628E-06  0.3064487E+04  0.7818609E-02  0.8225552E-01
       -1   -1    0    0    0  501  0.00000000000E+00  0.00000000000E+00  0.11608928413E+04  0.11608928413E+04  0.50400001928E-02 0. -1.
        1   -1    0    0  501    0  0.00000000000E+00  0.00000000000E+00 -0.20223837794E+04  0.20223837794E+04  0.50400001928E-02 0.  1.
    10030    2    1    2    0    0  0.00000000000E+00  0.00000000000E+00 -0.86149093808E+03  0.31832766208E+04  0.30644874625E+04 0.  0.
        5    1    3    3  502    0 -0.98938937506E+03  0.10009904040E+04  0.19843606419E+03  0.14213627567E+04  0.46999998093E+01 0. -1.
       -5    1    3    3    0  502  0.98938937506E+03 -0.10009904040E+04 -0.10599270023E+04  0.17619138641E+04  0.46999998093E+01 0.  1.
</event>
<event>
 5   0  0.4139628E-06  0.3108141E+04  0.7818609E-02  0.8213507E-01
       -1   -1    0    0    0  501  0.00000000000E+00  0.00000000000E+00  0.20563847073E+04  0.20563847073E+04  0.50400001928E-02 0.  1.
        1   -1    0    0  501    0  0.00000000000E+00  0.00000000000E+00 -0.11744570721E+04  0.11744570721E+04  0.50400001928E-02 0. -1.
    10030    2    1    2    0    0  0.00000000000E+00  0.00000000000E+00  0.88192763518E+03  0.32308417793E+04  0.31081412853E+04 0.  0.
        5    1    3    3  502    0 -0.32185559448E+03  0.45983429099E+03 -0.10654085052E+04  0.12042242199E+04  0.46999998093E+01 0. -1.
       -5    1    3    3    0  502  0.32185559448E+03 -0.45983429099E+03  0.19473361403E+04  0.20266175595E+04  0.46999998093E+01 0.  1.
</event>
<event>
 5   0  0.1007567E-05  0.2951149E+04  0.7818609E-02  0.8257820E-01
       -2   -1    0    0    0  501  0.00000000000E+00  0.00000000000E+00  0.14303946191E+04  0.14303946191E+04  0.25500000920E-02 0. -1.
        2   -1    0    0  501    0  0.00000000000E+00  0.00000000000E+00 -0.15221809980E+04  0.15221809980E+04  0.25500000920E-02 0.  1.
    10030    2    1    2    0    0  0.00000000000E+00  0.00000000000E+00 -0.91786378938E+02  0.29525756171E+04  0.29511485959E+04 0.  0.
        3    1    3    3  502    0 -0.13244329844E+04  0.37756636785E+03  0.48411801592E+03  0.14598114111E+04  0.10100000352E+00 0. -1.
       -3    1    3    3    0  502  0.13244329844E+04 -0.37756636785E+03 -0.57590439486E+03  0.14927642060E+04  0.10100000352E+00 0.  1.
</event>
<event>
 5   0  0.9797278E-06  0.3103520E+04  0.7818609E-02  0.8214772E-01
       -2   -1    0    0    0  501  0.00000000000E+00  0.00000000000E+00  0.13891849504E+04  0.13891849505E+04  0.25500000920E-02 0.  1.
        2   -1    0    0  501    0  0.00000000000E+00  0.00000000000E+00 -0.17333615096E+04  0.17333615096E+04  0.25500000920E-02 0. -1.
    10030    2    1    2    0    0  0.00000000000E+00  0.00000000000E+00 -0.34417655912E+03  0.31225464600E+04  0.31035204029E+04 0.  0.
        1    1    3    3  502    0  0.54405050146E+03  0.13692107350E+04  0.31796103247E+03  0.15072585058E+04  0.50400001928E-02 0.  1.
       -1    1    3    3    0  502 -0.54405050146E+03 -0.13692107350E+04 -0.66213759159E+03  0.16152879543E+04  0.50400001928E-02 0. -1.
</event>
<event>
 5   0  0.1108153E-05  0.3340255E+04  0.7818609E-02  0.8152727E-01
       -2   -1    0    0    0  501  0.00000000000E+00  0.00000000000E+00  0.18352183669E+04  0.18352183669E+04  0.25500000920E-02 0. -1.
        2   -1    0    0  501    0  0.00000000000E+00  0.00000000000E+00 -0.15198880007E+04  0.15198880007E+04  0.25500000920E-02 0.  1.
    10030    2    1    2    0    0  0.00000000000E+00  0.00000000000E+00  0.31533036626E+03  0.33551063676E+04  0.33402553043E+04 0.  0.
        4    1    3    3  502    0 -0.11663589823E+04  0.68353930194E+03  0.11426911579E+04  0.17701310539E+04  0.12699999809E+01 0. -1.
       -4    1    3    3    0  502  0.11663589823E+04 -0.68353930194E+03 -0.82736079159E+03  0.15849753137E+04  0.12699999809E+01 0.  1.
</event>
<event>
 5   0  0.3848286E-06  0.3134009E+04  0.7818609E-02  0.8206466E-01
        1   -1    0    0  501    0  0.00000000000E+00  0.00000000000E+00  0.12864987406E+04  0.12864987407E+04  0.50400001928E-02 0.  1.
       -1   -1    0    0    0  501  0.00000000000E+00  0.00000000000E+00 -0.19086715427E+04  0.19086715427E+04  0.50400001928E-02 0. -1.
    10030    2    1    2    0    0  0.00000000000E+00  0.00000000000E+00 -0.62217280209E+03  0.31951702834E+04  0.31340092764E+04 0.  0.
        2    1    3    3  502    0 -0.75598745252E+03 -0.17147590650E+03 -0.16994934566E+04  0.18679397806E+04  0.25500000920E-02 0. -1.
       -2    1    3    3    0  502  0.75598745252E+03  0.17147590650E+03  0.10773206545E+04  0.13272305028E+04  0.25500000920E-02 0.  1.
</event>
<event>
 5   0  0.1001961E-05  0.3057951E+04  0.7818609E-02  0.8227374E-01
       -2   -1    0    0    0  501  0.00000000000E+00  0.00000000000E+00  0.13258365932E+04  0.13258365932E+04  0.25500000920E-02 0.  1.
        2   -1    0    0  501    0  0.00000000000E+00  0.00000000000E+00 -0.17632382298E+04  0.17632382298E+04  0.25500000920E-02 0. -1.
    10030    2    1    2    0    0  0.00000000000E+00  0.00000000000E+00 -0.43740163661E+03  0.30890748230E+04  0.30579507960E+04 0.  0.
        5    1    3    3  502    0  0.82928127260E+03 -0.69810103961E+03 -0.13079572301E+04  0.16987721143E+04  0.46999998093E+01 0. -1.
       -5    1    3    3    0  502 -0.82928127260E+03  0.69810103961E+03  0.87055559348E+03  0.13903027087E+04  0.46999998093E+01 0.  1.
</event>
<event>
 5   0  0.3807334E-06  0.3099677E+04  0.7818609E-02  0.8215827E-01
       -1   -1    0    0    0  501  0.00000000000E+00  0.00000000000E+00  0.12309919461E+04  0.12309919461E+04  0.50400001928E-02 0. -1.
        1   -1    0    0  501    0  0.00000000000E+00  0.00000000000E+00 -0.19512708657E+04  0.19512708657E+04  0.50400001928E-02 0.  1.
    10030    2    1    2    0    0  0.00000000000E+00  0.00000000000E+00 -0.72027891957E+03  0.31822628118E+04  0.30996765769E+04 0.  0.
        4    1    3    3  502    0 -0.93034063275E+03  0.10619336179E+04 -0.10165175453E+04  0.17396971675E+04  0.12699999809E+01 0.  1.
       -4    1    3    3    0  502  0.93034063275E+03 -0.10619336179E+04  0.29623862575E+03  0.14425656443E+04  0.12699999809E+01 0. -1.
</event>
<event>
 5   0  0.9797278E-06  0.2816228E+04  0.7818609E-02  0.8298248E-01
       -2   -1    0    0    0  501  0.00000000000E+00  0.00000000000E+00  0.18088747664E+04  0.18088747664E+04  0.25500000920E-02 0. -1.
        2   -1    0    0  501    0  0.00000000000E+00  0.00000000000E+00 -0.10961427158E+04  0.10961427158E+04  0.25500000920E-02 0.  1.
    10030    2    1    2    0    0  0.00000000000E+00  0.00000000000E+00  0.71273205059E+03  0.29050174823E+04  0.28162279020E+04 0.  0.
        1    1    3    3  502    0  0.13241691369E+04  0.13905327013E+03 -0.11636775870E+03  0.13365257836E+04  0.50400001928E-02 0.  1.
       -1    1    3    3    0  502 -0.13241691369E+04 -0.13905327013E+03  0.82909980929E+03  0.15684916987E+04  0.50400001928E-02 0. -1.
</event>
<event>
 5   0  0.1001961E-05  0.3098352E+04  0.7818609E-02  0.8216190E-01
       -2   -1    0    0    0  501  0.00000000000E+00  0.00000000000E+00  0.93827662944E+03  0.93827662944E+03  0.25500000920E-02 0.  1.
        2   -1    0    0  501    0  0.00000000000E+00  0.00000000000E+00 -0.25578233522E+04  0.25578233522E+04  0.25500000920E-02 0. -1.
    10030    2    1    2    0    0  0.00000000000E+00  0.00000000000E+00 -0.16195467228E+04  0.34960999816E+04  0.30983517383E+04 0.  0.
        5    1    3    3  502    0 -0.68548171431E+03 -0.25250853351E+03  0.73171872046E+03  0.10339633050E+04  0.46999998093E+01 0.  1.
       -5    1    3    3    0  502  0.68548171431E+03  0.25250853351E+03 -0.23512654432E+04  0.24621366767E+04  0.46999998093E+01 0. -1.
</event>
<event>
 5   0  0.1119100E-05  0.2062335E+04  0.7818609E-02  0.8578019E-01
        2   -1    0    0  501    0  0.00000000000E+00  0.00000000000E+00  0.97713946015E+03  0.97713946016E+03  0.25500000920E-02 0.  1.
       -2   -1    0    0    0  501  0.00000000000E+00  0.00000000000E+00 -0.10881823660E+04  0.10881823660E+04  0.25500000920E-02 0. -1.
    10030    2    1    2    0    0  0.00000000000E+00  0.00000000000E+00 -0.11104290583E+03  0.20653218261E+04  0.20623345312E+04 0.  0.
        2    1    3    3  502    0  0.40570392268E+03  0.19674355724E+03  0.87318488557E+03  0.98272862205E+03  0.25500000920E-02 0.  1.
       -2    1    3    3    0  502 -0.40570392268E+03 -0.19674355724E+03 -0.98422779140E+03  0.10825932041E+04  0.25500000920E-02 0. -1.
</event>
<event>
 5   0  0.4250961E-06  0.3117387E+04  0.7818609E-02  0.8210982E-01
        1   -1    0    0  501    0  0.00000000000E+00  0.00000000000E+00  0.17666663774E+04  0.17666663774E+04  0.50400001928E-02 0. -1.
       -1   -1    0    0    0  501  0.00000000000E+00  0.00000000000E+00 -0.13752034303E+04  0.13752034303E+04  0.50400001928E-02 0.  1.
    10030    2    1    2    0    0  0.00000000000E+00  0.00000000000E+00  0.39146294714E+03  0.31418698077E+04  0.31173871511E+04 0.  0.
        1    1    3    3  502    0 -0.14234486112E+04  0.62939330488E+03  0.28115431222E+03  0.15815782081E+04  0.50400001928E-02 0. -1.
       -1    1    3    3    0  502  0.14234486112E+04 -0.62939330488E+03  0.11030863492E+03  0.15602915996E+04  0.50400001928E-02 0.  1.
</event>
<event>
 5   0  0.3807334E-06  0.1866348E+04  0.7818609E-02  0.8671791E-01
       -1   -1    0    0    0  501  0.00000000000E+00  0.00000000000E+00  0.60014909698E+03  0.60014909700E+03  0.50400001928E-02 0. -1.
        1   -1    0    0  501    0  0.00000000000E+00  0.00000000000E+00 -0.14509962426E+04  0.14509962426E+04  0.50400001928E-02 0.  1.
    10030    2    1    2    0    0  0.00000000000E+00  0.00000000000E+00 -0.85084714566E+03  0.20511453396E+04  0.18663483970E+04 0.  0.
        4    1    3    3  502    0  0.54077127883E+03  0.76026061052E+03 -0.40392384721E+03  0.10166542476E+04  0.12699999809E+01 0.  1.
       -4    1    3    3    0  502 -0.54077127883E+03 -0.76026061052E+03 -0.44692329845E+03  0.10344910920E+04  0.12699999809E+01 0. -1.
</event>
<event>
 5   0  0.1119100E-05  0.3130398E+04  0.7818609E-02  0.8207445E-01
        2   -1    0    0  501    0  0.00000000000E+00  0.00000000000E+00  0.23489692853E+04  0.23489692853E+04  0.25500000920E-02 0. -1.
       -2   -1    0    0    0  501  0.00000000000E+00  0.00000000000E+00 -0.10429458907E+04  0.10429458907E+04  0.25500000920E-02 0.  1.
    10030    2    1    2    0    0  0.00000000000E+00  0.00000000000E+00  0.13060233946E+04  0.33919151760E+04  0.31303979706E+04 0.  0.
        2    1    3    3  502    0 -0.10901122450E+04 -0.62039902395E+03  0.16675026914E+04  0.20865773126E+04  0.25500000920E-02 0. -1.
       -2    1    3    3    0  502  0.10901122450E+04  0.62039902395E+03 -0.36147929684E+03  0.13053378634E+04  0.25500000920E-02 0.  1.
</event>
<event>
 5   0  0.1001961E-05  0.1702166E+04  0.7818609E-02  0.8760130E-01
        2   -1    0    0  501    0  0.00000000000E+00  0.00000000000E+00  0.84900429908E+03  0.84900429909E+03  0.25500000920E-02 0. -1.
       -2   -1    0    0    0  501  0.00000000000E+00  0.00000000000E+00 -0.85316656862E+03  0.85316656863E+03  0.25500000920E-02 0.  1.
    10030    2    1    2    0    0  0.00000000000E+00  0.00000000000E+00 -0.41622695427E+01  0.17021708677E+04  0.17021657788E+04 0.  0.
        5    1    3    3  502    0  0.12479276292E+03 -0.25369698387E+03  0.80065696344E+03  0.84912252144E+03  0.46999998093E+01 0. -1.
       -5    1    3    3    0  502 -0.12479276292E+03  0.25369698387E+03 -0.80481923299E+03  0.85304834628E+03  0.46999998093E+01 0.  1.
</event>
<event>
 5   0  0.3807334E-06  0.1862802E+04  0.7818609E-02  0.8673597E-01
       -1   -1    0    0    0  501  0.00000000000E+00  0.00000000000E+00  0.68978304888E+03  0.68978304890E+03  0.50400001928E-02 0.  1.
        1   -1    0    0  501    0  0.00000000000E+00  0.00000000000E+00 -0.12576526459E+04  0.12576526459E+04  0.50400001928E-02 0. -1.
    10030    2    1    2    0    0  0.00000000000E+00  0.00000000000E+00 -0.56786959699E+03  0.19474356948E+04  0.18628016282E+04 0.  0.
        4    1    3    3  502    0 -0.44826081191E+03 -0.88907975714E+02  0.56451921680E+03  0.72630981177E+03  0.12699999809E+01 0.  1.
       -4    1    3    3    0  502  0.44826081191E+03  0.88907975714E+02 -0.11323888138E+04  0.12211258830E+04  0.12699999809E+01 0. -1.
</event>
<event>
 5   0  0.3848286E-06  0.3093779E+04  0.7818609E-02  0.8217447E-01
        1   -1    0    0  501    0  0.00000000000E+00  0.00000000000E+00  0.14316688882E+04  0.14316688882E+04  0.50400001928E-02 0.  1.
       -1   -1    0    0    0  501  0.00000000000E+00  0.00000000000E+00 -0.16713827346E+04  0.16713827346E+04  0.50400001928E-02 0. -1.
    10030    2    1    2    0    0  0.00000000000E+00  0.00000000000E+00 -0.23971384639E+03  0.31030516228E+04  0.30937787002E+04 0.  0.
        2    1    3    3  502    0  0.14637033658E+04  0.42706807760E+03 -0.38150655246E+03  0.15717385074E+04  0.25500000920E-02 0.  1.
       -2    1    3    3    0  502 -0.14637033658E+04 -0.42706807760E+03  0.14179270607E+03  0.15313131154E+04  0.25500000920E-02 0. -1.
</event>
<event>
 5   0  0.1108153E-05  0.3208441E+04  0.7818609E-02  0.8186591E-01
       -2   -1    0    0    0  501  0.00000000000E+00  0.00000000000E+00  0.16881127758E+04  0.16881127758E+04  0.25500000920E-02 0.  1.
        2   -1    0    0  501    0  0.00000000000E+00  0.00000000000E+00 -0.15244977349E+04  0.15244977349E+04  0.25500000920E-02 0. -1.
    10030    2    1    2    0    0  0.00000000000E+00  0.00000000000E+00  0.16361504085E+03  0.32126105107E+04  0.32084414304E+04 0.  0.
        4    1    3    3  502    0  0.63956348111E+02 -0.99679797409E+03  0.13387577273E+04  0.16703204725E+04  0.12699999809E+01 0.  1.
       -4    1    3    3    0  502 -0.63956348111E+02  0.99679797409E+03 -0.11751426864E+04  0.15422900382E+04  0.12699999809E+01 0. -1.
</event>
<event>
 5   0  0.4139628E-06  0.3027449E+04  0.7818609E-02  0.8235936E-01
       -1   -1    0    0    0  501  0.00000000000E+00  0.00000000000E+00  0.15793805163E+04  0.15793805163E+04  0.50400001928E-02 0.  1.
        1   -1    0    0  501    0  0.00000000000E+00  0.00000000000E+00 -0.14507974636E+04  0.14507974636E+04  0.50400001928E-02 0. -1.
    10030    2    1    2    0    0  0.00000000000E+00  0.00000000000E+00  0.12858305276E+03  0.30301779799E+04  0.30274485938E+04 0.  0.
        5    1    3    3  502    0 -0.32540387465E+03 -0.12465098444E+04  0.85978140498E+03  0.15488449336E+04  0.46999998093E+01 0.  1.
       -5    1    3    3    0  502  0.32540387465E+03  0.12465098444E+04 -0.73119835222E+03  0.14813330463E+04  0.46999998093E+01 0. -1.
</event>
<event>
 5   0  0.9797278E-06  0.2416475E+04  0.7818609E-02  0.8433361E-01
       -2   -1    0    0    0  501  0.00000000000E+00  0.00000000000E+00  0.81327767185E+03  0.81327767186E+03  0.25500000920E-02 0. -1.
        2   -1    0    0  501    0  0.00000000000E+00  0.00000000000E+00 -0.17950053886E+04  0.17950053886E+04  0.25500000920E-02 0.  1.
    10030    2    1    2    0    0  0.00000000000E+00  0.00000000000E+00 -0.98172771674E+03  0.26082830604E+04  0.24164749561E+04 0.  0.
        1    1    3    3  502    0  0.66012350711E+03 -0.20278609351E+03 -0.15609991854E+04  0.17069281477E+04  0.50400001928E-02 0.  1.
       -1    1    3    3    0  502 -0.66012350711E+03  0.20278609351E+03  0.57927146868E+03  0.90135491279E+03  0.50400001928E-02 0. -1.
</event>
<event>
 5   0  0.1108153E-05  0.3221896E+04  0.7818609E-02  0.8183058E-01
       -2   -1    0    0    0  501  0.00000000000E+00  0.00000000000E+00  0.12083602015E+04  0.12083602015E+04  0.25500000920E-02 0.  1.
        2   -1    0    0  501    0  0.00000000000E+00  0.00000000000E+00 -0.21476651063E+04  0.21476651063E+04  0.25500000920E-02 0. -1.
    10030    2    1    2    0    0  0.00000000000E+00  0.00000000000E+00 -0.93930490485E+03  0.33560253078E+04  0.32218957404E+04 0.  0.
        4    1    3    3  502    0 -0.10277588307E+04 -0.41262471560E+03 -0.16882285528E+04  0.20190751916E+04  0.12699999809E+01 0. -1.
       -4    1    3    3    0  502  0.10277588307E+04  0.41262471560E+03  0.74892364792E+03  0.13369501162E+04  0.12699999809E+01 0.  1.
</event>
<event>
 5   0  0.1007567E-05  0.3068045E+04  0.7818609E-02  0.8224563E-01
        2   -1    0    0  501    0  0.00000000000E+00  0.00000000000E+00  0.22246840973E+04  0.22246840973E+04  0.25500000920E-02 0.  1.
       -2   -1    0    0    0  501  0.00000000000E+00  0.00000000000E+00 -0.10577791916E+04  0.10577791917E+04  0.25500000920E-02 0. -1.
    10030    2    1    2    0    0  0.00000000000E+00  0.00000000000E+00  0.11669049056E+04  0.32824632889E+04  0.30680446842E+04 0.  0.
        3    1    3    3  502    0  0.82223029017E+03 -0.59870478777E+03  0.18120611399E+04  0.20779979927E+04  0.10100000352E+00 0.  1.
       -3    1    3    3    0  502 -0.82223029017E+03  0.59870478777E+03 -0.64515623423E+03  0.12044652962E+04  0.10100000352E+00 0. -1.
</event>
<event>
 5   0  0.3848286E-06  0.3022027E+04  0.7818609E-02  0.8237469E-01
       -1   -1    0    0    0  501  0.00000000000E+00  0.00000000000E+00  0.10448779012E+04  0.10448779012E+04  0.50400001928E-02 0.  1.
        1   -1    0    0  501    0  0.00000000000E+00  0.00000000000E+00 -0.21850997670E+04  0.21850997670E+04  0.50400001928E-02 0. -1.
    10030    2    1    2    0    0  0.00000000000E+00  0.00000000000E+00 -0.11402218658E+04  0.32299776681E+04  0.30220274376E+04 0.  0.
        2    1    3    3  502    0  0.94093526420E+03 -0.11781992386E+04 -0.67510413842E+03  0.16520527277E+04  0.25500000920E-02 0. -1.
       -2    1    3    3    0  502 -0.94093526420E+03  0.11781992386E+04 -0.46511772738E+03  0.15779249404E+04  0.25500000920E-02 0.  1.
</event>
<event>
 5   0  0.3807334E-06  0.1933346E+04  0.7818609E-02  0.8638434E-01
        1   -1    0    0  501    0  0.00000000000E+00  0.00000000000E+00  0.13177645156E+04  0.13177645156E+04  0.50400001928E-02 0.  1.
       -1   -1    0    0    0  501  0.00000000000E+00  0.00000000000E+00 -0.70912295047E+03  0.70912295049E+03  0.50400001928E-02 0. -1.
    10030    2    1    2    0    0  0.00000000000E+00  0.00000000000E+00  0.60864156515E+03  0.20268874661E+04  0.19333463853E+04 0.  0.
        4    1    3    3  502    0  0.47971324504E+03 -0.82137126533E+03  0.48493467407E+03  0.10676791672E+04  0.12699999809E+01 0.  1.
       -4    1    3    3    0  502 -0.47971324504E+03  0.82137126533E+03  0.12370689107E+03  0.95920829895E+03  0.12699999809E+01 0. -1.
</event>
<event>
 5   0  0.4139628E-06  0.3231460E+04  0.7818609E-02  0.8180558E-01
        1   -1    0    0  501    0  0.00000000000E+00  0.00000000000E+00  0.19807722869E+04  0.19807722869E+04  0.50400001928E-02 0.  1.
       -1   -1    0    0    0  501  0.00000000000E+00  0.00000000000E+00 -0.13179625263E+04  0.13179625263E+04  0.50400001928E-02 0. -1.
    10030    2    1    2    0    0  0.00000000000E+00  0.00000000000E+00  0.66280976058E+03  0.32987348132E+04  0.32314601327E+04 0.  0.
        5    1    3    3  502    0  0.84892229382E+03 -0.89524421218E+03 -0.73359341483E+03  0.14353789216E+04  0.46999998093E+01 0. -1.
       -5    1    3    3    0  502 -0.84892229382E+03  0.89524421218E+03  0.13964031754E+04  0.18633558916E+04  0.46999998093E+01 0.  1.
</event>
<event>
 5   0  0.9797278E-06  0.2749122E+04  0.7818609E-02  0.8319240E-01
       -2   -1    0    0    0  501  0.00000000000E+00  0.00000000000E+00  0.11844026873E+04  0.11844026873E+04  0.25500000920E-02 0. -1.
        2   -1    0    0  501    0  0.00000000000E+00  0.00000000000E+00 -0.15952497208E+04  0.15952497208E+04  0.25500000920E-02 0.  1.
    10030    2    1    2    0    0  0.00000000000E+00  0.00000000000E+00 -0.41084703352E+03  0.27796524081E+04  0.27491220826E+04 0.  0.
        1    1    3    3  502    0 -0.12242864194E+04 -0.36048030745E+03 -0.72157753255E+03  0.14661164429E+04  0.50400001928E-02 0. -1.
       -1    1    3    3    0  502  0.12242864194E+04  0.36048030745E+03  0.31073049903E+03  0.13135359652E+04  0.50400001928E-02 0.  1.
</event>
<event>
 5   0  0.1001961E-05  0.3116828E+04  0.7818609E-02  0.8211135E-01
       -2   -1    0    0    0  501  0.00000000000E+00  0.00000000000E+00  0.20367508512E+04  0.20367508512E+04  0.25500000920E-02 0. -1.
        2   -1    0    0  501    0  0.00000000000E+00  0.00000000000E+00 -0.11924162094E+04  0.11924162094E+04  0.25500000920E-02 0.  1.
    10030    2    1    2    0    0  0.00000000000E+00  0.00000000000E+00  0.84433464186E+03  0.32291670606E+04  0.31168283427E+04 0.  0.
        5    1    3    3  502    0 -0.33767170941E+03  0.11270849821E+04 -0.63656986739E+03  0.13377540978E+04  0.46999998093E+01 0.  1.
       -5    1    3    3    0  502  0.33767170941E+03 -0.11270849821E+04  0.14809045093E+04  0.18914129628E+04  0.46999998093E+01 0. -1.
</event>
<event>
 5   0  0.1108153E-05  0.3027374E+04  0.7818609E-02  0.8235957E-01
        2   -1    0    0  501    0  0.00000000000E+00  0.00000000000E+00  0.22876397485E+04  0.22876397485E+04  0.25500000920E-02 0. -1.
       -2   -1    0    0    0  501  0.00000000000E+00  0.00000000000E+00 -0.10015775182E+04  0.10015775182E+04  0.25500000920E-02 0.  1.
    10030    2    1    2    0    0  0.00000000000E+00  0.00000000000E+00  0.12860622304E+04  0.32892172667E+04  0.30273741373E+04 0.  0.
        4    1    3    3  502    0 -0.63179919641E+02 -0.11613250371E+04  0.16956277336E+04  0.20561669602E+04  0.12699999809E+01 0. -1.
       -4    1    3    3    0  502  0.63179919641E+02  0.11613250371E+04 -0.40956550326E+03  0.12330503065E+04  0.12699999809E+01 0.  1.
</event>
<event>
 5   0  0.4139628E-06  0.3130359E+04  0.7818609E-02  0.8207455E-01
       -1   -1    0    0    0  501  0.00000000000E+00  0.00000000000E+00  0.16824668552E+04  0.16824668552E+04  0.50400001928E-02 0.  1.
        1   -1    0    0  501    0  0.00000000000E+00  0.00000000000E+00 -0.14560688760E+04  0.14560688760E+04  0.50400001928E-02 0. -1.
    10030    2    1    2    0    0  0.00000000000E+00  0.00000000000E+00  0.22639797922E+03  0.31385357312E+04  0.31303594827E+04 0.  0.
        5    1    3    3  502    0  0.51236203249E+03  0.49134018348E+03  0.15117745194E+04  0.16701539797E+04  0.46999998093E+01 0.  1.
       -5    1    3    3    0  502 -0.51236203249E+03 -0.49134018348E+03 -0.12853765402E+04  0.14683817516E+04  0.46999998093E+01 0. -1.
</event>
<event>
 5   0  0.4250961E-06  0.3086932E+04  0.7818609E-02  0.8219333E-01
       -1   -1    0    0    0  501  0.00000000000E+00  0.00000000000E+00  0.20629775352E+04  0.20629775352E+04  0.50400001928E-02 0. -1.
        1   -1    0    0  501    0  0.00000000000E+00  0.00000000000E+00 -0.11547810055E+04  0.11547810056E+04  0.50400001928E-02 0.  1.
    10030    2    1    2    0    0  0.00000000000E+00  0.00000000000E+00  0.90819652965E+03  0.32177585407E+04  0.30869319866E+04 0.  0.
        1    1    3    3  502    0  0.51323452649E+03 -0.18960604239E+03  0.19584986307E+04  0.20334888780E+04  0.50400001928E-02 0. -1.
       -1    1    3    3    0  502 -0.51323452649E+03  0.18960604239E+03 -0.10503021011E+04  0.11842696627E+04  0.50400001928E-02 0.  1.
</event>
<event>
 5   0  0.3848286E-06  0.3078328E+04  0.7818609E-02  0.8221711E-01
       -1   -1    0    0    0  501  0.00000000000E+00  0.00000000000E+00  0.15992466357E+04  0.15992466357E+04  0.50400001928E-02 0. -1.
        1   -1    0    0  501    0  0.00000000000E+00  0.00000000000E+00 -0.14813385099E+04  0.14813385099E+04  0.50400001928E-02 0.  1.
    10030    2    1    2    0    0  0.00000000000E+00  0.00000000000E+00  0.11790812588E+03  0.30805851456E+04  0.30783278762E+04 0.  0.
        2    1    3    3  502    0 -0.57922909791E+03  0.20660670814E+03  0.14709574929E+04  0.15943364217E+04  0.25500000920E-02 0. -1.
       -2    1    3    3    0  502  0.57922909791E+03 -0.20660670814E+03 -0.13530493670E+04  0.14862487239E+04  0.25500000920E-02 0.  1.
</event>
<event>
 5   0  0.3848286E-06  0.3112140E+04  0.7818609E-02  0.8212414E-01
       -1   -1    0    0    0  501  0.00000000000E+00  0.00000000000E+00  0.15038747338E+04  0.15038747338E+04  0.50400001928E-02 0. -1.
        1   -1    0    0  501    0  0.00000000000E+00  0.00000000000E+00 -0.16100767131E+04  0.16100767131E+04  0.50400001928E-02 0.  1.
    10030    2    1    2    0    0  0.00000000000E+00  0.00000000000E+00 -0.10620197932E+03  0.31139514469E+04  0.31121398993E+04 0.  0.
        2    1    3    3  502    0 -0.58566195914E+03  0.14290046434E+04 -0.24373613448E+03  0.15634773758E+04  0.25500000920E-02 0. -1.
       -2    1    3    3    0  502  0.58566195914E+03 -0.14290046434E+04  0.13753415517E+03  0.15504740711E+04  0.25500000920E-02 0.  1.
</event>
<event>
 5   0  0.4139628E-06  0.2926554E+04  0.7818609E-02  0.8265021E-01
       -1   -1    0    0    0  501  0.00000000000E+00  0.00000000000E+00  0.82280034179E+03  0.82280034181E+03  0.50400001928E-02 0. -1.
        1   -1    0    0  501    0  0.00000000000E+00  0.00000000000E+00 -0.26023068068E+04  0.26023068068E+04  0.50400001928E-02 0.  1.
    10030    2    1    2    0    0  0.00000000000E+00  0.00000000000E+00 -0.17795064650E+04  0.34251071486E+04  0.29265535568E+04 0.  0.
        5    1    3    3  502    0  0.14199128433E+04 -0.11509674593E+03 -0.49850243013E+03  0.15092801285E+04  0.46999998093E+01 0. -1.
       -5    1    3    3    0  502 -0.14199128433E+04  0.11509674593E+03 -0.12810040349E+04  0.19158270201E+04  0.46999998093E+01 0.  1.
</event>
<event>
 5   0  0.9797278E-06  0.1860233E+04  0.7818609E-02  0.8674908E-01
       -2   -1    0    0    0  501  0.00000000000E+00  0.00000000000E+00  0.79847718043E+03  0.79847718043E+03  0.25500000920E-02 0. -1.
        2   -1    0    0  501    0  0.00000000000E+00  0.00000000000E+00 -0.10834584460E+04  0.10834584460E+04  0.25500000920E-02 0.  1.
    10030    2    1    2    0    0  0.00000000000E+00  0.00000000000E+00 -0.28498126555E+03  0.18819356264E+04  0.18602331521E+04 0.  0.
        1    1    3    3  502    0  0.11045589971E+03 -0.71768446693E+03  0.44553512978E+03  0.85192314896E+03  0.50400001928E-02 0. -1.
       -1    1    3    3    0  502 -0.11045589971E+03  0.71768446693E+03 -0.73051639533E+03  0.10300124775E+04  0.50400001928E-02 0.  1.
</event>
<event>
 5   0  0.3848286E-06  0.1902305E+04  0.7818609E-02  0.8653710E-01
       -1   -1    0    0    0  501  0.00000000000E+00  0.00000000000E+00  0.98809586177E+03  0.98809586178E+03  0.50400001928E-02 0. -1.
        1   -1    0    0  501    0  0.00000000000E+00  0.00000000000E+00 -0.91559063949E+03  0.91559063951E+03  0.50400001928E-02 0.  1.
    10030    2    1    2    0    0  0.00000000000E+00  0.00000000000E+00  0.72505222273E+02  0.19036865013E+04  0.19023052562E+04 0.  0.
        2    1    3    3  502    0  0.64389536872E+03  0.65809485524E+03  0.27517528428E+03  0.96094303756E+03  0.25500000920E-02 0. -1.
       -2    1    3    3    0  502 -0.64389536872E+03 -0.65809485524E+03 -0.20267006201E+03  0.94274346373E+03  0.25500000920E-02 0.  1.
</event>
<event>
 5   0  0.4250961E-06  0.3040729E+04  0.7818609E-02  0.8232195E-01
        1   -1    0    0  501    0  0.00000000000E+00  0.00000000000E+00  0.25992256408E+04  0.25992256408E+04  0.50400001928E-02 0. -1.
       -1   -1    0    0    0  501  0.00000000000E+00  0.00000000000E+00 -0.88930625184E+03  0.88930625185E+03  0.50400001928E-02 0.  1.
    10030    2    1    2    0    0  0.00000000000E+00  0.00000000000E+00  0.17099193890E+04  0.34885318927E+04  0.30407286050E+04 0.  0.
        1    1    3    3  502    0 -0.51874426029E+03 -0.72550659701E+03  0.22675691633E+04  0.24366627465E+04  0.50400001928E-02 0. -1.
       -1    1    3    3    0  502  0.51874426029E+03  0.72550659701E+03 -0.55764977430E+03  0.10518691462E+04  0.50400001928E-02 0.  1.
</event>
<event>
 5   0  0.1108153E-05  0.3057925E+04  0.7818609E-02  0.8227381E-01
       -2   -1    0    0    0  501  0.00000000000E+00  0.00000000000E+00  0.76976435685E+03  0.76976435685E+03  0.25500000920E-02 0.  1.
        2   -1    0    0  501    0  0.00000000000E+00  0.00000000000E+00 -0.30369367702E+04  0.30369367702E+04  0.25500000920E-02 0. -1.
    10030    2    1    2    0    0  0.00000000000E+00  0.00000000000E+00 -0.22671724133E+04  0.38067011270E+04  0.30579245770E+04 0.  0.
        4    1    3    3  502    0 -0.83558830855E+03 -0.12637086055E+04 -0.13903930087E+04  0.20562980311E+04  0.12699999809E+01 0.  1.
       -4    1    3    3    0  502  0.83558830855E+03  0.12637086055E+04 -0.87677940463E+03  0.17504030960E+04  0.12699999809E+01 0. -1.
</event>
<event>
 5   0  0.4139628E-06  0.2929324E+04  0.7818609E-02  0.8264206E-01
        1   -1    0    0  501    0  0.00000000000E+00  0.00000000000E+00  0.18726954814E+04  0.18726954814E+04  0.50400001928E-02 0.  1.
       -1   -1    0    0    0  501  0.00000000000E+00  0.00000000000E+00 -0.11455331006E+04  0.11455331006E+04  0.50400001928E-02 0. -1.
    10030    2    1    2    0    0  0.00000000000E+00  0.00000000000E+00  0.72716238074E+03  0.30182285820E+04  0.29293239229E+04 0.  0.
        5    1    3    3  502    0  0.46164064243E+03 -0.84110579360E+03 -0.77664029737E+03  0.12344080688E+04  0.46999998093E+01 0. -1.
       -5    1    3    3    0  502 -0.46164064243E+03  0.84110579360E+03  0.15038026781E+04  0.17838205132E+04  0.46999998093E+01 0.  1.
</event>
<event>
 5   0  0.4139628E-06  0.2997090E+04  0.7818609E-02  0.8244562E-01
        1   -1    0    0  501    0  0.00000000000E+00  0.00000000000E+00  0.16200853492E+04  0.16200853492E+04  0.50400001928E-02 0. -1.
       -1   -1    0    0    0  501  0.00000000000E+00  0.00000000000E+00 -0.13861230919E+04  0.13861230920E+04  0.50400001928E-02 0.  1.
    10030    2    1    2    0    0  0.00000000000E+00  0.00000000000E+00  0.23396225722E+03  0.30062084411E+04  0.29970903980E+04 0.  0.
        5    1    3    3  502    0  0.27585984375E+03  0.13837753286E+04 -0.38921528537E+03  0.14637087967E+04  0.46999998093E+01 0.  1.
       -5    1    3    3    0  502 -0.27585984375E+03 -0.13837753286E+04  0.62317754259E+03  0.15424996444E+04  0.46999998093E+01 0. -1.
</event>
<event>
 5   0  0.3848286E-06  0.2995511E+04  0.7818609E-02  0.8245014E-01
        1   -1    0    0  501    0  0.00000000000E+00  0.00000000000E+00  0.11371582652E+04  0.11371582652E+04  0.50400001928E-02 0. -1.
       -1   -1    0    0    0  501  0.00000000000E+00  0.00000000000E+00 -0.19726995935E+04  0.19726995935E+04  0.50400001928E-02 0.  1.
    10030    2    1    2    0    0  0.00000000000E+00  0.00000000000E+00 -0.83554132825E+03  0.31098578587E+04  0.29955110733E+04 0.  0.
        2    1    3    3  502    0  0.68774383285E+03 -0.61229883842E+03 -0.16441203719E+04  0.18844185428E+04  0.25500000920E-02 0.  1.
       -2    1    3    3    0  502 -0.68774383285E+03  0.61229883842E+03  0.80857904367E+03  0.12254393159E+04  0.25500000920E-02 0. -1.
</event>
<event>
 5   0  0.9797278E-06  0.3213850E+04  0.7818609E-02  0.8185169E-01
        2   -1    0    0  501    0  0.00000000000E+00  0.00000000000E+00  0.22194694665E+04  0.22194694665E+04  0.25500000920E-02 0.  1.
       -2   -1    0    0    0  501  0.00000000000E+00  0.00000000000E+00 -0.11634350476E+04  0.11634350476E+04  0.25500000920E-02 0. -1.
    10030    2    1    2    0    0  0.00000000000E+00  0.00000000000E+00  0.10560344189E+04  0.33829045141E+04  0.32138503788E+04 0.  0.
        1    1    3    3  502    0 -0.12607899662E+04 -0.99616708406E+03  0.54526080616E+03  0.16968351555E+04  0.50400001928E-02 0. -1.
       -1    1    3    3    0  502  0.12607899662E+04  0.99616708406E+03  0.51077361274E+03  0.16860693585E+04  0.50400001928E-02 0.  1.
</event>
<event>
 5   0  0.3848286E-06  0.1689547E+04  0.7818609E-02  0.8767349E-01
        1   -1    0    0  501    0  0.00000000000E+00  0.00000000000E+00  0.86992515078E+03  0.86992515080E+03  0.50400001928E-02 0.  1.
       -1   -1    0    0    0  501  0.00000000000E+00  0.00000000000E+00 -0.82034916593E+03  0.82034916594E+03  0.50400001928E-02 0. -1.
    10030    2    1    2    0    0  0.00000000000E+00  0.00000000000E+00  0.49575984855E+02  0.16902743167E+04  0.16895471250E+04 0.  0.
        2    1    3    3  502    0  0.24962525912E+03 -0.68872210050E+03  0.44567260780E+03  0.85748176369E+03  0.25500000920E-02 0.  1.
       -2    1    3    3    0  502 -0.24962525912E+03  0.68872210050E+03 -0.39609662294E+03  0.83279255305E+03  0.25500000920E-02 0. -1.
</event>
<event>
 5   0  0.9797278E-06  0.2795569E+04  0.7818609E-02  0.8304645E-01
        2   -1    0    0  501    0  0.00000000000E+00  0.00000000000E+00  0.15864547901E+04  0.15864547901E+04  0.25500000920E-02 0. -1.
       -2   -1    0    0    0  501  0.00000000000E+00  0.00000000000E+00 -0.12315521129E+04  0.12315521129E+04  0.25500000920E-02 0.  1.
    10030    2    1    2    0    0  0.00000000000E+00  0.00000000000E+00  0.35490267720E+03  0.28180069029E+04  0.27955691719E+04 0.  0.
        1    1    3    3  502    0 -0.28578570948E+03 -0.44079807933E+03 -0.11282540105E+04  0.12445615817E+04  0.50400001928E-02 0.  1.
       -1    1    3    3    0  502  0.28578570948E+03  0.44079807933E+03  0.14831566877E+04  0.15734453212E+04  0.50400001928E-02 0. -1.
</event>
<event>
 5   0  0.1007567E-05  0.2829670E+04  0.7818609E-02  0.8294116E-01
       -2   -1    0    0    0  501  0.00000000000E+00  0.00000000000E+00  0.96341542242E+03  0.96341542243E+03  0.25500000920E-02 0. -1.
        2   -1    0    0  501    0  0.00000000000E+00  0.00000000000E+00 -0.20777721730E+04  0.20777721730E+04  0.25500000920E-02 0.  1.
    10030    2    1    2    0    0  0.00000000000E+00  0.00000000000E+00 -0.11143567506E+04  0.30411875954E+04  0.28296697728E+04 0.  0.
        3    1    3    3  502    0  0.25443669267E+03 -0.72558613741E+03  0.71926292136E+03  0.10528781666E+04  0.10100000352E+00 0. -1.
       -3    1    3    3    0  502 -0.25443669267E+03  0.72558613741E+03 -0.18336196720E+04  0.19883094289E+04  0.10100000352E+00 0.  1.
</event>
<event>
 5   0  0.1007567E-05  0.2975221E+04  0.7818609E-02  0.8250842E-01
        2   -1    0    0  501    0  0.00000000000E+00  0.00000000000E+00  0.23009182781E+04  0.23009182781E+04  0.25500000920E-02 0. -1.
       -2   -1    0    0    0  501  0.00000000000E+00  0.00000000000E+00 -0.96178345394E+03  0.96178345394E+03  0.25500000920E-02 0.  1.
    10030    2    1    2    0    0  0.00000000000E+00  0.00000000000E+00  0.13391348242E+04  0.32627017321E+04  0.29752210868E+04 0.  0.
        3    1    3    3  502    0 -0.10670808309E+04  0.96893780249E+03  0.10732135291E+04  0.17970223299E+04  0.10100000352E+00 0. -1.
       -3    1    3    3    0  502  0.10670808309E+04 -0.96893780249E+03  0.26592129507E+03  0.14656794022E+04  0.10100000352E+00 0.  1.
</event>
<event>
 5   0  0.4250961E-06  0.3009353E+04  0.7818609E-02  0.8241065E-01
        1   -1    0    0  501    0  0.00000000000E+00  0.00000000000E+00  0.14955728887E+04  0.14955728887E+04  0.50400001928E-02 0.  1.
       -1   -1    0    0    0  501  0.00000000000E+00  0.00000000000E+00 -0.15138358893E+04  0.15138358893E+04  0.50400001928E-02 0. -1.
    10030    2    1    2    0    0  0.00000000000E+00  0.00000000000E+00 -0.18263000636E+02  0.30094087780E+04  0.30093533617E+04 0.  0.
        1    1    3    3  502    0 -0.54149029450E+03  0.11991669057E+04 -0.73910309661E+03  0.15091343195E+04  0.50400001928E-02 0. -1.
       -1    1    3    3    0  502  0.54149029450E+03 -0.11991669057E+04  0.72084009598E+03  0.15002744585E+04  0.50400001928E-02 0.  1.
</event>
<event>
 5   0  0.4139628E-06  0.3109730E+04  0.7818609E-02  0.8213073E-01
        1   -1    0    0  501    0  0.00000000000E+00  0.00000000000E+00  0.11442257310E+04  0.11442257311E+04  0.50400001928E-02 0.  1.
       -1   -1    0    0    0  501  0.00000000000E+00  0.00000000000E+00 -0.21128740022E+04  0.21128740022E+04  0.50400001928E-02 0. -1.
    10030    2    1    2    0    0  0.00000000000E+00  0.00000000000E+00 -0.96864827117E+03  0.32570997333E+04  0.31097297631E+04 0.  0.
        5    1    3    3  502    0  0.14438079616E+04  0.34136798379E+03  0.29871195471E+01  0.14836254727E+04  0.46999998093E+01 0.  1.
       -5    1    3    3    0  502 -0.14438079616E+04 -0.34136798379E+03 -0.97163539071E+03  0.17734742606E+04  0.46999998093E+01 0. -1.
</event>
<event>
 5   0  0.1007567E-05  0.3199653E+04  0.7818609E-02  0.8188909E-01
       -2   -1    0    0    0  501  0.00000000000E+00  0.00000000000E+00  0.11975941573E+04  0.11975941573E+04  0.25500000920E-02 0.  1.
        2   -1    0    0  501    0  0.00000000000E+00  0.00000000000E+00 -0.21371552841E+04  0.21371552841E+04  0.25500000920E-02 0. -1.
    10030    2    1    2    0    0  0.00000000000E+00  0.00000000000E+00 -0.93956112681E+03  0.33347494414E+04  0.31996529071E+04 0.  0.
        3    1    3    3  502    0 -0.78040024326E+03  0.12970961423E+04  0.69725990618E+02  0.15153694817E+04  0.10100000352E+00 0. -1.
       -3    1    3    3    0  502  0.78040024326E+03 -0.12970961423E+04 -0.10092871174E+04  0.18193799597E+04  0.10100000352E+00 0.  1.
</event>
<event>
 5   0  0.4139628E-06  0.3148086E+04  0.7818609E-02  0.8202664E-01
        1   -1    0    0  501    0  0.00000000000E+00  0.00000000000E+00  0.28036002302E+04  0.28036002302E+04  0.50400001928E-02 0. -1.
       -1   -1    0    0    0  501  0.00000000000E+00  0.00000000000E+00 -0.88372463307E+03  0.88372463308E+03  0.50400001928E-02 0.  1.
    10030    2    1    2    0    0  0.00000000000E+00  0.00000000000E+00  0.19198755971E+04  0.36873248633E+04  0.31480855038E+04 0.  0.
        5    1    3    3  502    0  0.76689675067E+03  0.92506792127E+02  0.25663159082E+04  0.26800536493E+04  0.46999998093E+01 0. -1.
       -5    1    3    3    0  502 -0.76689675067E+03 -0.92506792127E+02 -0.64644031102E+03  0.10072712140E+04  0.46999998093E+01 0.  1.
</event>
<event>
 5   0  0.1119100E-05  0.2650280E+04  0.7818609E-02  0.8351320E-01
       -2   -1    0    0    0  501  0.00000000000E+00  0.00000000000E+00  0.16709527882E+04  0.16709527882E+04  0.25500000920E-02 0. -1.
        2   -1    0    0  501    0  0.00000000000E+00  0.00000000000E+00 -0.10508947697E+04  0.10508947697E+04  0.25500000920E-02 0.  1.
    10030    2    1    2    0    0  0.00000000000E+00  0.00000000000E+00  0.62005801849E+03  0.27218475578E+04  0.26502796422E+04 0.  0.
        2    1    3    3  502    0  0.85785007541E+03  0.55500456324E+03  0.11766515976E+04  0.15583471370E+04  0.25500000920E-02 0. -1.
       -2    1    3    3    0  502 -0.85785007541E+03 -0.55500456324E+03 -0.55659357911E+03  0.11635004209E+04  0.25500000920E-02 0.  1.
</event>
<event>
 5   0  0.3838525E-06  0.3052430E+04  0.7818609E-02  0.8228916E-01
       -1   -1    0    0    0  501  0.00000000000E+00  0.00000000000E+00  0.14379399665E+04  0.14379399665E+04  0.50400001928E-02 0.  1.
        1   -1    0    0  501    0  0.00000000000E+00  0.00000000000E+00 -0.16199094803E+04  0.16199094803E+04  0.50400001928E-02 0. -1.
    10030    2    1    2    0    0  0.00000000000E+00  0.00000000000E+00 -0.18196951387E+03  0.30578494468E+04  0.30524302343E+04 0.  0.
        3    1    3    3  502    0  0.14088092579E+04 -0.32216966540E+03  0.40059587758E+03  0.14996712593E+04  0.10100000352E+00 0.  1.
       -3    1    3    3    0  502 -0.14088092579E+04  0.32216966540E+03 -0.58256539145E+03  0.15581781875E+04  0.10100000352E+00 0. -1.
</event>
<event>
 5   0  0.4250961E-06  0.2246129E+04  0.7818609E-02  0.8499470E-01
        1   -1    0    0  501    0  0.00000000000E+00  0.00000000000E+00  0.84764041048E+03  0.84764041050E+03  0.50400001928E-02 0. -1.
       -1   -1    0    0    0  501  0.00000000000E+00  0.00000000000E+00 -0.14879816906E+04  0.14879816906E+04  0.50400001928E-02 0.  1.
    10030    2    1    2    0    0  0.00000000000E+00  0.00000000000E+00 -0.64034128007E+03  0.23356221011E+04  0.22461285903E+04 0.  0.
        1    1    3    3  502    0 -0.14740404625E+03  0.85115962937E+03 -0.10664513990E+04  0.13724136600E+04  0.50400001928E-02 0.  1.
       -1    1    3    3    0  502  0.14740404625E+03 -0.85115962937E+03  0.42611011896E+03  0.96320844111E+03  0.50400001928E-02 0. -1.
</event>
<event>
 5   0  0.3807334E-06  0.3079114E+04  0.7818609E-02  0.8221493E-01
        1   -1    0    0  501    0  0.00000000000E+00  0.00000000000E+00  0.74526387796E+03  0.74526387797E+03  0.50400001928E-02 0.  1.
       -1   -1    0    0    0  501  0.00000000000E+00  0.00000000000E+00 -0.31803972606E+04  0.31803972606E+04  0.50400001928E-02 0. -1.
    10030    2    1    2    0    0  0.00000000000E+00  0.00000000000E+00 -0.24351333826E+04  0.39256611385E+04  0.30791136360E+04 0.  0.
        4    1    3    3  502    0 -0.89740630719E+03  0.87206182032E+03 -0.74098422960E+02  0.12535238681E+04  0.12699999809E+01 0.  1.
       -4    1    3    3    0  502  0.89740630719E+03 -0.87206182032E+03 -0.23610349597E+04  0.26721372705E+04  0.12699999809E+01 0. -1.
</event>
<event>
 5   0  0.1108153E-05  0.1856947E+04  0.7818609E-02  0.8676588E-01
       -2   -1    0    0    0  501  0.00000000000E+00  0.00000000000E+00  0.44834312652E+03  0.44834312653E+03  0.25500000920E-02 0.  1.
        2   -1    0    0  501    0  0.00000000000E+00  0.00000000000E+00 -0.19227752421E+04  0.19227752421E+04  0.25500000920E-02 0. -1.
    10030    2    1    2    0    0  0.00000000000E+00  0.00000000000E+00 -0.14744321156E+04  0.23711183687E+04  0.18569470253E+04 0.  0.
        4    1    3    3  502    0  0.69566702439E+03  0.89615036097E+02 -0.15140001933E+04  0.16685867258E+04  0.12699999809E+01 0. -1.
       -4    1    3    3    0  502 -0.69566702439E+03 -0.89615036097E+02  0.39568077638E+02  0.70253164284E+03  0.12699999809E+01 0.  1.
</event>
<event>
 5   0  0.3838525E-06  0.2774728E+04  0.7818609E-02  0.8311158E-01
        1   -1    0    0  501    0  0.00000000000E+00  0.00000000000E+00  0.19909065960E+04  0.19909065960E+04  0.50400001928E-02 0.  1.
       -1   -1    0    0    0  501  0.00000000000E+00  0.00000000000E+00 -0.96678490411E+03  0.96678490413E+03  0.50400001928E-02 0. -1.
    10030    2    1    2    0    0  0.00000000000E+00  0.00000000000E+00  0.10241216919E+04  0.29576915001E+04  0.27747276930E+04 0.  0.
        3    1    3    3  502    0 -0.12601091571E+04 -0.39508304438E+03  0.58801247787E+02  0.13219013945E+04  0.10100000352E+00 0.  1.
       -3    1    3    3    0  502  0.12601091571E+04  0.39508304438E+03  0.96532044408E+03  0.16357901056E+04  0.10100000352E+00 0. -1.
</event>
<event>
 5   0  0.4139628E-06  0.3087534E+04  0.7818609E-02  0.8219167E-01
        1   -1    0    0  501    0  0.00000000000E+00  0.00000000000E+00  0.18731869036E+04  0.18731869036E+04  0.50400001928E-02 0.  1.
       -1   -1    0    0    0  501  0.00000000000E+00  0.00000000000E+00 -0.12722794090E+04  0.12722794090E+04  0.50400001928E-02 0. -1.
    10030    2    1    2    0    0  0.00000000000E+00  0.00000000000E+00  0.60090749455E+03  0.31454663126E+04  0.30875343734E+04 0.  0.
        5    1    3    3  502    0  0.55043580041E+03 -0.15337587607E+03  0.17614792382E+04  0.18518463561E+04  0.46999998093E+01 0.  1.
       -5    1    3    3    0  502 -0.55043580041E+03  0.15337587607E+03 -0.11605717437E+04  0.12936199566E+04  0.46999998093E+01 0. -1.
</event>
<event>
 5   0  0.3807334E-06  0.2946760E+04  0.7818609E-02  0.8259099E-01
        1   -1    0    0  501    0  0.00000000000E+00  0.00000000000E+00  0.20613281666E+04  0.20613281666E+04  0.50400001928E-02 0.  1.
       -1   -1    0    0    0  501  0.00000000000E+00  0.00000000000E+00 -0.10531309994E+04  0.10531309994E+04  0.50400001928E-02 0. -1.
    10030    2    1    2    0    0  0.00000000000E+00  0.00000000000E+00  0.10081971672E+04  0.31144591660E+04  0.29467599782E+04 0.  0.
        4    1    3    3  502    0  0.17797187184E+03 -0.80792887496E+03 -0.78447499421E+03  0.11400989797E+04  0.12699999809E+01 0. -1.
       -4    1    3    3    0  502 -0.17797187184E+03  0.80792887496E+03  0.17926721614E+04  0.19743601863E+04  0.12699999809E+01 0.  1.
</event>
<event>
 5   0  0.1119100E-05  0.3064002E+04  0.7818609E-02  0.8225687E-01
       -2   -1    0    0    0  501  0.00000000000E+00  0.00000000000E+00  0.14395270732E+04  0.14395270732E+04  0.25500000920E-02 0. -1.
        2   -1    0    0  501    0  0.00000000000E+00  0.00000000000E+00 -0.16304153664E+04  0.16304153664E+04  0.25500000920E-02 0.  1.
    10030    2    1    2    0    0  0.00000000000E+00  0.00000000000E+00 -0.19088829325E+03  0.30699424396E+04  0.30640019977E+04 0.  0.
        2    1    3    3  502    0  0.99042388414E+03  0.11310157109E+04  0.19990023681E+03  0.15166067760E+04  0.25500000920E-02 0.  1.
       -2    1    3    3    0  502 -0.99042388414E+03 -0.11310157109E+04 -0.39078853005E+03  0.15533356636E+04  0.25500000920E-02 0. -1.
</event>
<event>
 5   0  0.1108153E-05  0.2778683E+04  0.7818609E-02  0.8309917E-01
       -2   -1    0    0    0  501  0.00000000000E+00  0.00000000000E+00  0.73978399035E+03  0.73978399035E+03  0.25500000920E-02 0. -1.
        2   -1    0    0  501    0  0.00000000000E+00  0.00000000000E+00 -0.26092338503E+04  0.26092338503E+04  0.25500000920E-02 0.  1.
    10030    2    1    2    0    0  0.00000000000E+00  0.00000000000E+00 -0.18694498599E+04  0.33490178406E+04  0.27786827307E+04 0.  0.
        4    1    3    3  502    0 -0.15840273339E+02  0.13831906081E+04 -0.10909466670E+04  0.17617132048E+04  0.12699999809E+01 0. -1.
       -4    1    3    3    0  502  0.15840273339E+02 -0.13831906081E+04 -0.77850319294E+03  0.15873046359E+04  0.12699999809E+01 0.  1.
</event>
<event>
 5   0  0.1108153E-05  0.3078531E+04  0.7818609E-02  0.8221655E-01
        2   -1    0    0  501    0  0.00000000000E+00  0.00000000000E+00  0.18340226421E+04  0.18340226421E+04  0.25500000920E-02 0. -1.
       -2   -1    0    0    0  501  0.00000000000E+00  0.00000000000E+00 -0.12918802766E+04  0.12918802766E+04  0.25500000920E-02 0.  1.
    10030    2    1    2    0    0  0.00000000000E+00  0.00000000000E+00  0.54214236555E+03  0.31259029187E+04  0.30785306094E+04 0.  0.
        4    1    3    3  502    0  0.10718344860E+03 -0.10563558669E+03 -0.12843921188E+04  0.12931789886E+04  0.12699999809E+01 0.  1.
       -4    1    3    3    0  502 -0.10718344860E+03  0.10563558669E+03  0.18265344843E+04  0.18327239302E+04  0.12699999809E+01 0. -1.
</event>
<event>
 5   0  0.3807334E-06  0.3087099E+04  0.7818609E-02  0.8219287E-01
       -1   -1    0    0    0  501  0.00000000000E+00  0.00000000000E+00  0.14176795321E+04  0.14176795321E+04  0.50400001928E-02 0.  1.
        1   -1    0    0  501    0  0.00000000000E+00  0.00000000000E+00 -0.16805954587E+04  0.16805954587E+04  0.50400001928E-02 0. -1.
    10030    2    1    2    0    0  0.00000000000E+00  0.00000000000E+00 -0.26291592654E+03  0.30982749908E+04  0.30870994694E+04 0.  0.
        4    1    3    3  502    0 -0.93440055046E+03  0.98110535824E+03 -0.87364301890E+03  0.16121184355E+04  0.12699999809E+01 0. -1.
       -4    1    3    3    0  502  0.93440055046E+03 -0.98110535824E+03  0.61072709236E+03  0.14861565553E+04  0.12699999809E+01 0.  1.
</event>
<event>
 5   0  0.1119100E-05  0.3155789E+04  0.7818609E-02  0.8200592E-01
       -2   -1    0    0    0  501  0.00000000000E+00  0.00000000000E+00  0.15004017935E+04  0.15004017935E+04  0.25500000920E-02 0. -1.
        2   -1    0    0  501    0  0.00000000000E+00  0.00000000000E+00 -0.16593898277E+04  0.16593898277E+04  0.25500000920E-02 0.  1.
    10030    2    1    2    0    0  0.00000000000E+00  0.00000000000E+00 -0.15898803414E+03  0.31597916212E+04  0.31557892664E+04 0.  0.
        2    1    3    3  502    0  0.13146558100E+04  0.75431161334E+03  0.35974853034E+03  0.15577948883E+04  0.25500000920E-02 0.  1.
       -2    1    3    3    0  502 -0.13146558100E+04 -0.75431161334E+03 -0.51873656449E+03  0.16019967329E+04  0.25500000920E-02 0. -1.
</event>
<event>
 5   0  0.1108153E-05  0.3106257E+04  0.7818609E-02  0.8214023E-01
        2   -1    0    0  501    0  0.00000000000E+00  0.00000000000E+00  0.12628935453E+04  0.12628935453E+04  0.25500000920E-02 0.  1.
       -2   -1    0    0    0  501  0.00000000000E+00  0.00000000000E+00 -0.19100647186E+04  0.19100647186E+04  0.25500000920E-02 0. -1.
    10030    2    1    2    0    0  0.00000000000E+00  0.00000000000E+00 -0.64717117329E+03  0.31729582639E+04  0.31062571717E+04 0.  0.
        4    1    3    3  502    0  0.25217591409E+03 -0.92837933981E+03  0.92191060683E+03  0.13324419950E+04  0.12699999809E+01 0.  1.
       -4    1    3    3    0  502 -0.25217591409E+03  0.92837933981E+03 -0.15690817801E+04  0.18405162688E+04  0.12699999809E+01 0. -1.
</event>
<event>
 5   0  0.1001961E-05  0.2762985E+04  0.7818609E-02  0.8314853E-01
       -2   -1    0    0    0  501  0.00000000000E+00  0.00000000000E+00  0.12724158524E+04  0.12724158524E+04  0.25500000920E-02 0. -1.
        2   -1    0    0  501    0  0.00000000000E+00  0.00000000000E+00 -0.14999195900E+04  0.14999195900E+04  0.25500000920E-02 0.  1.
    10030    2    1    2    0    0  0.00000000000E+00  0.00000000000E+00 -0.22750373752E+03  0.27723354424E+04  0.27629849537E+04 0.  0.
        5    1    3    3  502    0  0.62051391201E+02 -0.13343812661E+04  0.23968390959E+03  0.13571640302E+04  0.46999998093E+01 0. -1.
       -5    1    3    3    0  502 -0.62051391201E+02  0.13343812661E+04 -0.46718764711E+03  0.14151714122E+04  0.46999998093E+01 0.  1.
</event>
<event>
 5   0  0.3493125E-06  0.1607522E+04  0.7818609E-02  0.8815941E-01
        4   -1    0    0  501    0  0.00000000000E+00  0.00000000000E+00  0.10299866189E+04  0.10299874019E+04  0.12699999809E+01 0.  1.
       -4   -1    0    0    0  501  0.00000000000E+00  0.00000000000E+00 -0.62722142477E+03  0.62722271052E+03  0.12699999809E+01 0. -1.
    10030    2    1    2    0    0  0.00000000000E+00  0.00000000000E+00  0.40276519416E+03  0.16572101124E+04  0.16075215566E+04 0.  0.
        1    1    3    3  502    0 -0.41793531281E+02 -0.79183699983E+03  0.65870442078E+02  0.79567043976E+03  0.50400001928E-02 0. -1.
       -1    1    3    3    0  502  0.41793531281E+02  0.79183699983E+03  0.33689475208E+03  0.86153967265E+03  0.50400001928E-02 0.  1.
</event>
<event>
 5   0  0.1001961E-05  0.3172854E+04  0.7818609E-02  0.8196023E-01
        2   -1    0    0  501    0  0.00000000000E+00  0.00000000000E+00  0.17163057186E+04  0.17163057186E+04  0.25500000920E-02 0. -1.
       -2   -1    0    0    0  501  0.00000000000E+00  0.00000000000E+00 -0.14663770682E+04  0.14663770682E+04  0.25500000920E-02 0.  1.
    10030    2    1    2    0    0  0.00000000000E+00  0.00000000000E+00  0.24992865042E+03  0.31826827868E+04  0.31728544548E+04 0.  0.
        5    1    3    3  502    0 -0.81750528536E+02 -0.54655520488E+03 -0.13666939679E+04  0.14742049494E+04  0.46999998093E+01 0.  1.
       -5    1    3    3    0  502  0.81750528536E+02  0.54655520488E+03  0.16166226183E+04  0.17084778374E+04  0.46999998093E+01 0. -1.
</event>
<event>
 5   0  0.4139628E-06  0.3148913E+04  0.7818609E-02  0.8202441E-01
        1   -1    0    0  501    0  0.00000000000E+00  0.00000000000E+00  0.12025121090E+04  0.12025121091E+04  0.50400001928E-02 0.  1.
       -1   -1    0    0    0  501  0.00000000000E+00  0.00000000000E+00 -0.20614450400E+04  0.20614450400E+04  0.50400001928E-02 0. -1.
    10030    2    1    2    0    0  0.00000000000E+00  0.00000000000E+00 -0.85893293095E+03  0.32639571491E+04  0.31489125887E+04 0.  0.
        5    1    3    3  502    0 -0.20081813351E+03 -0.13887948992E+04  0.31063043987E+03  0.14372169477E+04  0.46999998093E+01 0.  1.
       -5    1    3    3    0  502  0.20081813351E+03  0.13887948992E+04 -0.11695633708E+04  0.18267402013E+04  0.46999998093E+01 0. -1.
</event>
<event>
 5   0  0.3848286E-06  0.3016052E+04  0.7818609E-02  0.8239162E-01
       -1   -1    0    0    0  501  0.00000000000E+00  0.00000000000E+00  0.12791120707E+04  0.12791120707E+04  0.50400001928E-02 0.  1.
        1   -1    0    0  501    0  0.00000000000E+00  0.00000000000E+00 -0.17779073876E+04  0.17779073876E+04  0.50400001928E-02 0. -1.
    10030    2    1    2    0    0  0.00000000000E+00  0.00000000000E+00 -0.49879531688E+03  0.30570194583E+04  0.30160522542E+04 0.  0.
        2    1    3    3  502    0 -0.12990060229E+04  0.68391424563E+03 -0.59902865900E+03  0.15855568981E+04  0.25500000920E-02 0. -1.
       -2    1    3    3    0  502  0.12990060229E+04 -0.68391424563E+03  0.10023334212E+03  0.14714625601E+04  0.25500000920E-02 0.  1.
</event>
<event>
 5   0  0.9797278E-06  0.3092618E+04  0.7818609E-02  0.8217767E-01
       -2   -1    0    0    0  501  0.00000000000E+00  0.00000000000E+00  0.14628239877E+04  0.14628239877E+04  0.25500000920E-02 0. -1.
        2   -1    0    0  501    0  0.00000000000E+00  0.00000000000E+00 -0.16345589834E+04  0.16345589834E+04  0.25500000920E-02 0.  1.
    10030    2    1    2    0    0  0.00000000000E+00  0.00000000000E+00 -0.17173499567E+03  0.30973829710E+04  0.30926183665E+04 0.  0.
        1    1    3    3  502    0  0.14358598846E+04  0.30463284176E+03  0.40127399611E+03  0.15216818315E+04  0.50400001928E-02 0. -1.
       -1    1    3    3    0  502 -0.14358598846E+04 -0.30463284176E+03 -0.57300899178E+03  0.15757011395E+04  0.50400001928E-02 0.  1.
</event>
<event>
 5   0  0.3807334E-06  0.3068195E+04  0.7818609E-02  0.8224521E-01
       -1   -1    0    0    0  501  0.00000000000E+00  0.00000000000E+00  0.17131589353E+04  0.17131589353E+04  0.50400001928E-02 0. -1.
        1   -1    0    0  501    0  0.00000000000E+00  0.00000000000E+00 -0.13737514041E+04  0.13737514041E+04  0.50400001928E-02 0.  1.
    10030    2    1    2    0    0  0.00000000000E+00  0.00000000000E+00  0.33940753122E+03  0.30869103393E+04  0.30681945784E+04 0.  0.
        4    1    3    3  502    0  0.62090530138E+03  0.20376232451E+03 -0.12267145115E+04  0.13899181932E+04  0.12699999809E+01 0.  1.
       -4    1    3    3    0  502 -0.62090530138E+03 -0.20376232451E+03  0.15661220428E+04  0.16969921461E+04  0.12699999809E+01 0. -1.
</event>
<event>
 5   0  0.1007567E-05  0.3088947E+04  0.7818609E-02  0.8218778E-01
       -2   -1    0    0    0  501  0.00000000000E+00  0.00000000000E+00  0.12215075721E+04  0.12215075721E+04  0.25500000920E-02 0.  1.
        2   -1    0    0  501    0  0.00000000000E+00  0.00000000000E+00 -0.19528315110E+04  0.19528315110E+04  0.25500000920E-02 0. -1.
    10030    2    1    2    0    0  0.00000000000E+00  0.00000000000E+00 -0.73132393897E+03  0.31743390831E+04  0.30889470554E+04 0.  0.
        3    1    3    3  502    0  0.80531032805E+02 -0.11481082403E+04  0.69274224380E+03  0.13433278101E+04  0.10100000352E+00 0.  1.
       -3    1    3    3    0  502 -0.80531032805E+02  0.11481082403E+04 -0.14240661828E+04  0.18310112730E+04  0.10100000352E+00 0. -1.
</event>
<event>
 5   0  0.4139628E-06  0.2504338E+04  0.7818609E-02  0.8401442E-01
        1   -1    0    0  501    0  0.00000000000E+00  0.00000000000E+00  0.20191111983E+04  0.20191111983E+04  0.50400001928E-02 0. -1.
       -1   -1    0    0    0  501  0.00000000000E+00  0.00000000000E+00 -0.77654353668E+03  0.77654353669E+03  0.50400001928E-02 0.  1.
    10030    2    1    2    0    0  0.00000000000E+00  0.00000000000E+00  0.12425676617E+04  0.27956547350E+04  0.25043384363E+04 0.  0.
        5    1    3    3  502    0  0.51388015402E+03  0.10769575987E+04  0.19767550099E+03  0.12095487488E+04  0.46999998093E+01 0.  1.
       -5    1    3    3    0  502 -0.51388015402E+03 -0.10769575987E+04  0.10448921607E+04  0.15861059862E+04  0.46999998093E+01 0. -1.
</event>
<event>
 5   0  0.3838525E-06  0.3086339E+04  0.7818609E-02  0.8219497E-01
        1   -1    0    0  501    0  0.00000000000E+00  0.00000000000E+00  0.23780644739E+04  0.23780644739E+04  0.50400001928E-02 0. -1.
       -1   -1    0    0    0  501  0.00000000000E+00  0.00000000000E+00 -0.10013907939E+04  0.10013907939E+04  0.50400001928E-02 0.  1.
    10030    2    1    2    0    0  0.00000000000E+00  0.00000000000E+00  0.13766736800E+04  0.33794552678E+04  0.30863388482E+04 0.  0.
        3    1    3    3  502    0 -0.39647582196E+03 -0.11069579584E+04  0.17826643931E+04  0.21355189879E+04  0.10100000352E+00 0. -1.
       -3    1    3    3    0  502  0.39647582196E+03  0.11069579584E+04 -0.40599071308E+03  0.12439362799E+04  0.10100000352E+00 0.  1.
</event>
<event>
 5   0  0.3493125E-06  0.3130425E+04  0.7818609E-02  0.8207437E-01
       -3   -1    0    0    0  501  0.00000000000E+00  0.00000000000E+00  0.95600427454E+03  0.95600427988E+03  0.10100000352E+00 0. -1.
        3   -1    0    0  501    0  0.00000000000E+00  0.00000000000E+00 -0.25626357706E+04  0.25626357725E+04  0.10100000352E+00 0.  1.
    10030    2    1    2    0    0  0.00000000000E+00  0.00000000000E+00 -0.16066314960E+04  0.35186400524E+04  0.31304253792E+04 0.  0.
        4    1    3    3  502    0  0.92078209490E+03 -0.77133750828E+03  0.32467407709E+03  0.12442733169E+04  0.12699999809E+01 0. -1.
       -4    1    3    3    0  502 -0.92078209490E+03  0.77133750828E+03 -0.19313055731E+04  0.22743667355E+04  0.12699999809E+01 0.  1.
</event>
<event>
 5   0  0.1119100E-05  0.2761274E+04  0.7818609E-02  0.8315393E-01
       -2   -1    0    0    0  501  0.00000000000E+00  0.00000000000E+00  0.11576699955E+04  0.11576699955E+04  0.25500000920E-02 0.  1.
        2   -1    0    0  501    0  0.00000000000E+00  0.00000000000E+00 -0.16465478442E+04  0.16465478442E+04  0.25500000920E-02 0. -1.
    10030    2    1    2    0    0  0.00000000000E+00  0.00000000000E+00 -0.48887784872E+03  0.28042178397E+04  0.27612743691E+04 0.  0.
        2    1    3    3  502    0  0.12425707281E+04  0.44880381289E+03  0.16273559530E+03  0.13311234920E+04  0.25500000920E-02 0. -1.
       -2    1    3    3    0  502 -0.12425707281E+04 -0.44880381289E+03 -0.65161344403E+03  0.14730943477E+04  0.25500000920E-02 0.  1.
</event>
<event>
 5   0  0.1001961E-05  0.3095042E+04  0.7818609E-02  0.8217100E-01
       -2   -1    0    0    0  501  0.00000000000E+00  0.00000000000E+00  0.11289511146E+04  0.11289511146E+04  0.25500000920E-02 0.  1.
        2   -1    0    0  501    0  0.00000000000E+00  0.00000000000E+00 -0.21212797208E+04  0.21212797208E+04  0.25500000920E-02 0. -1.
    10030    2    1    2    0    0  0.00000000000E+00  0.00000000000E+00 -0.99232860619E+03  0.32502308354E+04  0.30950419094E+04 0.  0.
        5    1    3    3  502    0 -0.18488498530E+03  0.13729185220E+04 -0.12204658306E+04  0.18462520574E+04  0.46999998093E+01 0. -1.
       -5    1    3    3    0  502  0.18488498530E+03 -0.13729185220E+04  0.22813722444E+03  0.14039787780E+04  0.46999998093E+01 0.  1.
</event>
<event>
 5   0  0.3807334E-06  0.3182892E+04  0.7818609E-02  0.8193350E-01
       -1   -1    0    0    0  501  0.00000000000E+00  0.00000000000E+00  0.11649369021E+04  0.11649369021E+04  0.50400001928E-02 0. -1.
        1   -1    0    0  501    0  0.00000000000E+00  0.00000000000E+00 -0.21741089508E+04  0.21741089508E+04  0.50400001928E-02 0.  1.
    10030    2    1    2    0    0  0.00000000000E+00  0.00000000000E+00 -0.10091720487E+04  0.33390458529E+04  0.31828916073E+04 0.  0.
        4    1    3    3  502    0 -0.36989644303E+03 -0.66988054088E+03 -0.19684426576E+04  0.21119496743E+04  0.12699999809E+01 0.  1.
       -4    1    3    3    0  502  0.36989644303E+03  0.66988054088E+03  0.95927060890E+03  0.12270961786E+04  0.12699999809E+01 0. -1.
</event>
<event>
 5   0  0.1108153E-05  0.1864478E+04  0.7818609E-02  0.8672743E-01
       -2   -1    0    0    0  501  0.00000000000E+00  0.00000000000E+00  0.56710709318E+03  0.56710709318E+03  0.25500000920E-02 0.  1.
        2   -1    0    0  501    0  0.00000000000E+00  0.00000000000E+00 -0.15324618813E+04  0.15324618813E+04  0.25500000920E-02 0. -1.
    10030    2    1    2    0    0  0.00000000000E+00  0.00000000000E+00 -0.96535478812E+03  0.20995689745E+04  0.18644784825E+04 0.  0.
        4    1    3    3  502    0 -0.75214816723E+03 -0.46610889160E+03 -0.15228194610E+03  0.89787291323E+03  0.12699999809E+01 0.  1.
       -4    1    3    3    0  502  0.75214816723E+03  0.46610889160E+03 -0.81307284202E+03  0.12016960613E+04  0.12699999809E+01 0. -1.
</event>
<event>
 5   0  0.4139628E-06  0.2960987E+04  0.7818609E-02  0.8254960E-01
       -1   -1    0    0    0  501  0.00000000000E+00  0.00000000000E+00  0.10638819602E+04  0.10638819602E+04  0.50400001928E-02 0.  1.
        1   -1    0    0  501    0  0.00000000000E+00  0.00000000000E+00 -0.20602488961E+04  0.20602488961E+04  0.50400001928E-02 0. -1.
    10030    2    1    2    0    0  0.00000000000E+00  0.00000000000E+00 -0.99636693583E+03  0.31241308563E+04  0.29609874259E+04 0.  0.
        5    1    3    3  502    0  0.12023839097E+04 -0.33909414539E+03 -0.13363904090E+04  0.18293915165E+04  0.46999998093E+01 0. -1.
       -5    1    3    3    0  502 -0.12023839097E+04  0.33909414539E+03  0.34002347312E+03  0.12947393398E+04  0.46999998093E+01 0.  1.
</event>
<event>
 5   0  0.1119100E-05  0.3219237E+04  0.7818609E-02  0.8183755E-01
        2   -1    0    0  501    0  0.00000000000E+00  0.00000000000E+00  0.17981695649E+04  0.17981695649E+04  0.25500000920E-02 0.  1.
       -2   -1    0    0    0  501  0.00000000000E+00  0.00000000000E+00 -0.14408386378E+04  0.14408386378E+04  0.25500000920E-02 0. -1.
    10030    2    1    2    0    0  0.00000000000E+00  0.00000000000E+00  0.35733092711E+03  0.32390082027E+04  0.32192372926E+04 0.  0.
        2    1    3    3  502    0 -0.36062975543E+03  0.14302888970E+04  0.82689864662E+03  0.16910178950E+04  0.25500000920E-02 0. -1.
       -2    1    3    3    0  502  0.36062975543E+03 -0.14302888970E+04 -0.46956771951E+03  0.15479903077E+04  0.25500000920E-02 0.  1.
</event>
<event>
 5   0  0.1007567E-05  0.3096037E+04  0.7818609E-02  0.8216826E-01
        2   -1    0    0  501    0  0.00000000000E+00  0.00000000000E+00  0.21127073193E+04  0.21127073193E+04  0.25500000920E-02 0.  1.
       -2   -1    0    0    0  501  0.00000000000E+00  0.00000000000E+00 -0.11342606116E+04  0.11342606116E+04  0.25500000920E-02 0. -1.
    10030    2    1    2    0    0  0.00000000000E+00  0.00000000000E+00  0.97844670773E+03  0.32469679309E+04  0.30960366252E+04 0.  0.
        3    1    3    3  502    0 -0.11766989943E+04  0.95366688640E+03  0.82459320917E+03  0.17245448745E+04  0.10100000352E+00 0.  1.
       -3    1    3    3    0  502  0.11766989943E+04 -0.95366688640E+03  0.15385349856E+03  0.15224230564E+04  0.10100000352E+00 0. -1.
</event>
<event>
 5   0  0.3848286E-06  0.1740098E+04  0.7818609E-02  0.8738820E-01
       -1   -1    0    0    0  501  0.00000000000E+00  0.00000000000E+00  0.39811756115E+03  0.39811756118E+03  0.50400001928E-02 0.  1.
        1   -1    0    0  501    0  0.00000000000E+00  0.00000000000E+00 -0.19014108628E+04  0.19014108628E+04  0.50400001928E-02 0. -1.
    10030    2    1    2    0    0  0.00000000000E+00  0.00000000000E+00 -0.15032933017E+04  0.22995284240E+04  0.17400977622E+04 0.  0.
        2    1    3    3  502    0  0.37864618881E+03 -0.68157847993E+03 -0.12618577585E+04  0.14833095305E+04  0.25500000920E-02 0. -1.
       -2    1    3    3    0  502 -0.37864618881E+03  0.68157847993E+03 -0.24143554318E+03  0.81621889351E+03  0.25500000920E-02 0.  1.
</event>
<event>
 5   0  0.4139628E-06  0.3268662E+04  0.7818609E-02  0.8170915E-01
       -1   -1    0    0    0  501  0.00000000000E+00  0.00000000000E+00  0.21951353350E+04  0.21951353350E+04  0.50400001928E-02 0.  1.
        1   -1    0    0  501    0  0.00000000000E+00  0.00000000000E+00 -0.12167985554E+04  0.12167985554E+04  0.50400001928E-02 0. -1.
    10030    2    1    2    0    0  0.00000000000E+00  0.00000000000E+00  0.97833677959E+03  0.34119338904E+04  0.32686618085E+04 0.  0.
        5    1    3    3  502    0  0.15924594318E+04 -0.29749291891E+03  0.26386906198E+03  0.16413646915E+04  0.46999998093E+01 0. -1.
       -5    1    3    3    0  502 -0.15924594318E+04  0.29749291891E+03  0.71446771761E+03  0.17705691989E+04  0.46999998093E+01 0.  1.
</event>
<event>
 5   0  0.1007567E-05  0.3163336E+04  0.7818609E-02  0.8198568E-01
       -2   -1    0    0    0  501  0.00000000000E+00  0.00000000000E+00  0.17764355804E+04  0.17764355804E+04  0.25500000920E-02 0. -1.
        2   -1    0    0  501    0  0.00000000000E+00  0.00000000000E+00 -0.14082543900E+04  0.14082543900E+04  0.25500000920E-02 0.  1.
    10030    2    1    2    0    0  0.00000000000E+00  0.00000000000E+00  0.36818119048E+03  0.31846899704E+04  0.31633357107E+04 0.  0.
        3    1    3    3  502    0 -0.21912187525E+03  0.14345854345E+04  0.81732263030E+03  0.16655527783E+04  0.10100000352E+00 0. -1.
       -3    1    3    3    0  502  0.21912187525E+03 -0.14345854345E+04 -0.44914143981E+03  0.15191371921E+04  0.10100000352E+00 0.  1.
</event>
<event>
 5   0  0.1007567E-05  0.2754990E+04  0.7818609E-02  0.8317380E-01
        2   -1    0    0  501    0  0.00000000000E+00  0.00000000000E+00  0.11557982899E+04  0.11557982899E+04  0.25500000920E-02 0.  1.
       -2   -1    0    0    0  501  0.00000000000E+00  0.00000000000E+00 -0.16417159422E+04  0.16417159422E+04  0.25500000920E-02 0. -1.
    10030    2    1    2    0    0  0.00000000000E+00  0.00000000000E+00 -0.48591765222E+03  0.27975142321E+04  0.27549900025E+04 0.  0.
        3    1    3    3  502    0  0.83642094123E+03 -0.95480303201E+03 -0.78623443357E+03  0.14931220364E+04  0.10100000352E+00 0. -1.
       -3    1    3    3    0  502 -0.83642094123E+03  0.95480303201E+03  0.30031678135E+03  0.13043921957E+04  0.10100000352E+00 0.  1.
</event>
<event>
 5   0  0.1119100E-05  0.3238027E+04  0.7818609E-02  0.8178846E-01
        2   -1    0    0  501    0  0.00000000000E+00  0.00000000000E+00  0.22239425740E+04  0.22239425740E+04  0.25500000920E-02 0.  1.
       -2   -1    0    0    0  501  0.00000000000E+00  0.00000000000E+00 -0.11786293933E+04  0.11786293933E+04  0.25500000920E-02 0. -1.
    10030    2    1    2    0    0  0.00000000000E+00  0.00000000000E+00  0.10453131806E+04  0.34025719673E+04  0.32380266131E+04 0.  0.
        2    1    3    3  502    0 -0.97092882004E+03  0.11823909485E+04 -0.33832838009E+02  0.15303253868E+04  0.25500000920E-02 0. -1.
       -2    1    3    3    0  502  0.97092882004E+03 -0.11823909485E+04  0.10791460187E+04  0.18722465805E+04  0.25500000920E-02 0.  1.
</event>
<event>
 5   0  0.4250961E-06  0.1889619E+04  0.7818609E-02  0.8660041E-01
        1   -1    0    0  501    0  0.00000000000E+00  0.00000000000E+00  0.55898705698E+03  0.55898705701E+03  0.50400001928E-02 0.  1.
       -1   -1    0    0    0  501  0.00000000000E+00  0.00000000000E+00 -0.15969324400E+04  0.15969324400E+04  0.50400001928E-02 0. -1.
    10030    2    1    2    0    0  0.00000000000E+00  0.00000000000E+00 -0.10379453830E+04  0.21559194970E+04  0.18896185487E+04 0.  0.
        1    1    3    3  502    0 -0.47573254959E+03  0.53757379868E+03 -0.12198385419E+04  0.14153844411E+04  0.50400001928E-02 0. -1.
       -1    1    3    3    0  502  0.47573254959E+03 -0.53757379868E+03  0.18189315889E+03  0.74053505591E+03  0.50400001928E-02 0.  1.
</event>
<event>
 5   0  0.1108153E-05  0.1793961E+04  0.7818609E-02  0.8709517E-01
       -2   -1    0    0    0  501  0.00000000000E+00  0.00000000000E+00  0.15110015963E+04  0.15110015963E+04  0.25500000920E-02 0. -1.
        2   -1    0    0  501    0  0.00000000000E+00  0.00000000000E+00 -0.53247752654E+03  0.53247752654E+03  0.25500000920E-02 0.  1.
    10030    2    1    2    0    0  0.00000000000E+00  0.00000000000E+00  0.97852406974E+03  0.20434791228E+04  0.17939614183E+04 0.  0.
        4    1    3    3  502    0 -0.29703072875E+03 -0.19099651761E+03  0.14284850406E+04  0.14714883784E+04  0.12699999809E+01 0. -1.
       -4    1    3    3    0  502  0.29703072875E+03  0.19099651761E+03 -0.44996097085E+03  0.57199074446E+03  0.12699999809E+01 0.  1.
</event>
<event>
 5   0  0.1007567E-05  0.2776381E+04  0.7818609E-02  0.8310639E-01
        2   -1    0    0  501    0  0.00000000000E+00  0.00000000000E+00  0.23573916280E+04  0.23573916280E+04  0.25500000920E-02 0. -1.
       -2   -1    0    0    0  501  0.00000000000E+00  0.00000000000E+00 -0.81745970411E+03  0.81745970412E+03  0.25500000920E-02 0.  1.
    10030    2    1    2    0    0  0.00000000000E+00  0.00000000000E+00  0.15399319239E+04  0.31748513321E+04  0.27763808548E+04 0.  0.
        3    1    3    3  502    0 -0.64080483578E+03  0.78990181102E+02 -0.63531099757E+03  0.90580922942E+03  0.10100000352E+00 0.  1.
       -3    1    3    3    0  502  0.64080483578E+03 -0.78990181102E+02  0.21752429214E+04  0.22690421027E+04  0.10100000352E+00 0. -1.
</event>
<event>
 5   0  0.3848286E-06  0.3076785E+04  0.7818609E-02  0.8222138E-01
       -1   -1    0    0    0  501  0.00000000000E+00  0.00000000000E+00  0.86530006652E+03  0.86530006654E+03  0.50400001928E-02 0. -1.
        1   -1    0    0  501    0  0.00000000000E+00  0.00000000000E+00 -0.27350640737E+04  0.27350640737E+04  0.50400001928E-02 0.  1.
    10030    2    1    2    0    0  0.00000000000E+00  0.00000000000E+00 -0.18697640072E+04  0.36003641403E+04  0.30767847666E+04 0.  0.
        2    1    3    3  502    0 -0.53046780715E+03 -0.26114760908E+03  0.72703140460E+03  0.93710662757E+03  0.25500000920E-02 0. -1.
       -2    1    3    3    0  502  0.53046780715E+03  0.26114760908E+03 -0.25967954118E+04  0.26632575127E+04  0.25500000920E-02 0.  1.
</event>
<event>
 5   0  0.4250961E-06  0.2518193E+04  0.7818609E-02  0.8396533E-01
       -1   -1    0    0    0  501  0.00000000000E+00  0.00000000000E+00  0.10046409718E+04  0.10046409718E+04  0.50400001928E-02 0.  1.
        1   -1    0    0  501    0  0.00000000000E+00  0.00000000000E+00 -0.15780010287E+04  0.15780010287E+04  0.50400001928E-02 0. -1.
    10030    2    1    2    0    0  0.00000000000E+00  0.00000000000E+00 -0.57336005692E+03  0.25826420006E+04  0.25181933898E+04 0.  0.
        1    1    3    3  502    0 -0.46301813902E+03  0.10294696923E+04  0.28538666400E+03  0.11643191970E+04  0.50400001928E-02 0.  1.
       -1    1    3    3    0  502  0.46301813902E+03 -0.10294696923E+04 -0.85874672092E+03  0.14183228036E+04  0.50400001928E-02 0. -1.
</event>
<event>
 5   0  0.9797278E-06  0.3270461E+04  0.7818609E-02  0.8170452E-01
        2   -1    0    0  501    0  0.00000000000E+00  0.00000000000E+00  0.19895010821E+04  0.19895010821E+04  0.25500000920E-02 0.  1.
       -2   -1    0    0    0  501  0.00000000000E+00  0.00000000000E+00 -0.13440450102E+04  0.13440450102E+04  0.25500000920E-02 0. -1.
    10030    2    1    2    0    0  0.00000000000E+00  0.00000000000E+00  0.64545607185E+03  0.33335460923E+04  0.32704611309E+04 0.  0.
        1    1    3    3  502    0  0.95597314203E+03 -0.30669455139E+03  0.16383746334E+04  0.19215144120E+04  0.50400001928E-02 0.  1.
       -1    1    3    3    0  502 -0.95597314203E+03  0.30669455139E+03 -0.99291856157E+03  0.14120316803E+04  0.50400001928E-02 0. -1.
</event>
<event>
 5   0  0.4139628E-06  0.3063800E+04  0.7818609E-02  0.8225743E-01
       -1   -1    0    0    0  501  0.00000000000E+00  0.00000000000E+00  0.92545408200E+03  0.92545408201E+03  0.50400001928E-02 0.  1.
        1   -1    0    0  501    0  0.00000000000E+00  0.00000000000E+00 -0.25357471600E+04  0.25357471600E+04  0.50400001928E-02 0. -1.
    10030    2    1    2    0    0  0.00000000000E+00  0.00000000000E+00 -0.16102930780E+04  0.34612012420E+04  0.30637999675E+04 0.  0.
        5    1    3    3  502    0  0.41719153795E+03  0.75295747522E+03 -0.22366713563E+04  0.23966048037E+04  0.46999998093E+01 0. -1.
       -5    1    3    3    0  502 -0.41719153795E+03 -0.75295747522E+03  0.62637827836E+03  0.10645964383E+04  0.46999998093E+01 0.  1.
</event>
<event>
 5   0  0.3807334E-06  0.3119185E+04  0.7818609E-02  0.8210492E-01
       -1   -1    0    0    0  501  0.00000000000E+00  0.00000000000E+00  0.16486514007E+04  0.16486514007E+04  0.50400001928E-02 0. -1.
        1   -1    0    0  501    0  0.00000000000E+00  0.00000000000E+00 -0.14753443380E+04  0.14753443380E+04  0.50400001928E-02 0.  1.
    10030    2    1    2    0    0  0.00000000000E+00  0.00000000000E+00  0.17330706272E+03  0.31239957387E+04  0.31191848354E+04 0.  0.
        4    1    3    3  502    0 -0.25966964976E+02 -0.12708900064E+04  0.99164623440E+03  0.16122033242E+04  0.12699999809E+01 0. -1.
       -4    1    3    3    0  502  0.25966964976E+02  0.12708900064E+04 -0.81833917168E+03  0.15117924144E+04  0.12699999809E+01 0.  1.
</event>
<event>
 5   0  0.1007567E-05  0.3186526E+04  0.7818609E-02  0.8192385E-01
       -2   -1    0    0    0  501  0.00000000000E+00  0.00000000000E+00  0.26851138214E+04  0.26851138214E+04  0.25500000920E-02 0. -1.
        2   -1    0    0  501    0  0.00000000000E+00  0.00000000000E+00 -0.94539248098E+03  0.94539248098E+03  0.25500000920E-02 0.  1.
    10030    2    1    2    0    0  0.00000000000E+00  0.00000000000E+00  0.17397213404E+04  0.36305063024E+04  0.31865256424E+04 0.  0.
        3    1    3    3  502    0  0.77860531943E+03 -0.91502133878E+03  0.20620797455E+04  0.23865588576E+04  0.10100000352E+00 0. -1.
       -3    1    3    3    0  502 -0.77860531943E+03  0.91502133878E+03 -0.32235840506E+03  0.12439474448E+04  0.10100000352E+00 0.  1.
</event>
<event>
 5   0  0.3807334E-06  0.2886611E+04  0.7818609E-02  0.8276872E-01
        1   -1    0    0  501    0  0.00000000000E+00  0.00000000000E+00  0.11033771152E+04  0.11033771152E+04  0.50400001928E-02 0. -1.
       -1   -1    0    0    0  501  0.00000000000E+00  0.00000000000E+00 -0.18879587602E+04  0.18879587602E+04  0.50400001928E-02 0.  1.
    10030    2    1    2    0    0  0.00000000000E+00  0.00000000000E+00 -0.78458164496E+03  0.29913358754E+04  0.28866108089E+04 0.  0.
        4    1    3    3  502    0  0.37133930833E+03 -0.12918407553E+04 -0.93708564275E+03  0.16385592860E+04  0.12699999809E+01 0.  1.
       -4    1    3    3    0  502 -0.37133930833E+03  0.12918407553E+04  0.15250399779E+03  0.13527765895E+04  0.12699999809E+01 0. -1.
</event>
<event>
 5   0  0.4250961E-06  0.3052507E+04  0.7818609E-02  0.8228894E-01
        1   -1    0    0  501    0  0.00000000000E+00  0.00000000000E+00  0.14467354131E+04  0.14467354131E+04  0.50400001928E-02 0. -1.
       -1   -1    0    0    0  501  0.00000000000E+00  0.00000000000E+00 -0.16101417282E+04  0.16101417282E+04  0.50400001928E-02 0.  1.
    10030    2    1    2    0    0  0.00000000000E+00  0.00000000000E+00 -0.16340631511E+03  0.30568771412E+04  0.30525065492E+04 0.  0.
        1    1    3    3  502    0  0.31797295639E+03 -0.43820840953E+03  0.13473353418E+04  0.14520488747E+04  0.50400001928E-02 0. -1.
       -1    1    3    3    0  502 -0.31797295639E+03  0.43820840953E+03 -0.15107416569E+04  0.16048282666E+04  0.50400001928E-02 0.  1.
</event>
<event>
 5   0  0.3848286E-06  0.2205097E+04  0.7818609E-02  0.8516309E-01
        1   -1    0    0  501    0  0.00000000000E+00  0.00000000000E+00  0.14569789688E+04  0.14569789688E+04  0.50400001928E-02 0.  1.
       -1   -1    0    0    0  501  0.00000000000E+00  0.00000000000E+00 -0.83433851423E+03  0.83433851425E+03  0.50400001928E-02 0. -1.
    10030    2    1    2    0    0  0.00000000000E+00  0.00000000000E+00  0.62264045460E+03  0.22913174831E+04  0.22050974293E+04 0.  0.
        2    1    3    3  502    0  0.53167405062E+03  0.21776944214E+03 -0.66649077102E+03  0.87994930189E+03  0.25500000920E-02 0. -1.
       -2    1    3    3    0  502 -0.53167405062E+03 -0.21776944214E+03  0.12891312256E+04  0.14113681812E+04  0.25500000920E-02 0.  1.
</event>
<event>
 5   0  0.9797278E-06  0.3133594E+04  0.7818609E-02  0.8206578E-01
        2   -1    0    0  501    0  0.00000000000E+00  0.00000000000E+00  0.17893647872E+04  0.17893647872E+04  0.25500000920E-02 0. -1.
       -2   -1    0    0    0  501  0.00000000000E+00  0.00000000000E+00 -0.13719131839E+04  0.13719131839E+04  0.25500000920E-02 0.  1.
    10030    2    1    2    0    0  0.00000000000E+00  0.00000000000E+00  0.41745160332E+03  0.31612779710E+04  0.31335941934E+04 0.  0.
        1    1    3    3  502    0  0.13274372527E+04 -0.61573284763E+03  0.77370604346E+03  0.16552454927E+04  0.50400001928E-02 0. -1.
       -1    1    3    3    0  502 -0.13274372527E+04  0.61573284763E+03 -0.35625444014E+03  0.15060324783E+04  0.50400001928E-02 0.  1.
</event>
<event>
 5   0  0.3493125E-06  0.1930621E+04  0.7818609E-02  0.8639763E-01
        3   -1    0    0  501    0  0.00000000000E+00  0.00000000000E+00  0.52960707049E+03  0.52960708012E+03  0.10100000352E+00 0. -1.
       -3   -1    0    0    0  501  0.00000000000E+00  0.00000000000E+00 -0.17594628062E+04  0.17594628091E+04  0.10100000352E+00 0.  1.
    10030    2    1    2    0    0  0.00000000000E+00  0.00000000000E+00 -0.12298557357E+04  0.22890698892E+04  0.19306205808E+04 0.  0.
        4    1    3    3  502    0 -0.84003458758E+03 -0.14930198969E+03 -0.11502832080E+04  0.14321669819E+04  0.12699999809E+01 0.  1.
       -4    1    3    3    0  502  0.84003458758E+03  0.14930198969E+03 -0.79572527649E+02  0.85690290729E+03  0.12699999809E+01 0. -1.
</event>
<event>
 5   0  0.1007567E-05  0.3147248E+04  0.7818609E-02  0.8202889E-01
        2   -1    0    0  501    0  0.00000000000E+00  0.00000000000E+00  0.22726029497E+04  0.22726029497E+04  0.25500000920E-02 0. -1.
       -2   -1    0    0    0  501  0.00000000000E+00  0.00000000000E+00 -0.10896283210E+04  0.10896283210E+04  0.25500000920E-02 0.  1.
    10030    2    1    2    0    0  0.00000000000E+00  0.00000000000E+00  0.11829746288E+04  0.33622312707E+04  0.31472480273E+04 0.  0.
        3    1    3    3  502    0 -0.12352114295E+04 -0.12098394470E+03  0.16249938428E+04  0.20447467789E+04  0.10100000352E+00 0. -1.
       -3    1    3    3    0  502  0.12352114295E+04  0.12098394470E+03 -0.44201921406E+03  0.13174844918E+04  0.10100000352E+00 0.  1.
</event>
<event>
 5   0  0.1119100E-05  0.3089069E+04  0.7818609E-02  0.8218744E-01
       -2   -1    0    0    0  501  0.00000000000E+00  0.00000000000E+00  0.11641952941E+04  0.11641952942E+04  0.25500000920E-02 0. -1.
        2   -1    0    0  501    0  0.00000000000E+00  0.00000000000E+00 -0.20491292223E+04  0.20491292223E+04  0.25500000920E-02 0.  1.
    10030    2    1    2    0    0  0.00000000000E+00  0.00000000000E+00 -0.88493392816E+03  0.32133245165E+04  0.30890688550E+04 0.  0.
        2    1    3    3  502    0  0.36561669993E+02 -0.10931315999E+04  0.69195625948E+03  0.12942476253E+04  0.25500000920E-02 0. -1.
       -2    1    3    3    0  502 -0.36561669993E+02  0.10931315999E+04 -0.15768901876E+04  0.19190768912E+04  0.25500000920E-02 0.  1.
</event>
<event>
 5   0  0.9797278E-06  0.2913162E+04  0.7818609E-02  0.8268972E-01
       -2   -1    0    0    0  501  0.00000000000E+00  0.00000000000E+00  0.11451533813E+04  0.11451533813E+04  0.25500000920E-02 0. -1.
        2   -1    0    0  501    0  0.00000000000E+00  0.00000000000E+00 -0.18527024452E+04  0.18527024452E+04  0.25500000920E-02 0.  1.
    10030    2    1    2    0    0  0.00000000000E+00  0.00000000000E+00 -0.70754906395E+03  0.29978558265E+04  0.29131621786E+04 0.  0.
        1    1    3    3  502    0 -0.12361840544E+03  0.26725287729E+03  0.11142051855E+04  0.11524577242E+04  0.50400001928E-02 0. -1.
       -1    1    3    3    0  502  0.12361840544E+03 -0.26725287729E+03 -0.18217542495E+04  0.18453981023E+04  0.50400001928E-02 0.  1.
</event>
<event>
 5   0  0.1007567E-05  0.3276799E+04  0.7818609E-02  0.8168824E-01
        2   -1    0    0  501    0  0.00000000000E+00  0.00000000000E+00  0.19942665269E+04  0.19942665269E+04  0.25500000920E-02 0.  1.
       -2   -1    0    0    0  501  0.00000000000E+00  0.00000000000E+00 -0.13460355889E+04  0.13460355889E+04  0.25500000920E-02 0. -1.
    10030    2    1    2    0    0  0.00000000000E+00  0.00000000000E+00  0.64823093798E+03  0.33403021158E+04  0.32767994867E+04 0.  0.
        3    1    3    3  502    0  0.42263441654E+03 -0.36771637708E+03 -0.12453709371E+04  0.13655709301E+04  0.10100000352E+00 0. -1.
       -3    1    3    3    0  502 -0.42263441654E+03  0.36771637708E+03  0.18936018751E+04  0.19747311857E+04  0.10100000352E+00 0.  1.
</event>
<event>
 5   0  0.4250961E-06  0.3106986E+04  0.7818609E-02  0.8213823E-01
        1   -1    0    0  501    0  0.00000000000E+00  0.00000000000E+00  0.22748274990E+04  0.22748274990E+04  0.50400001928E-02 0. -1.
       -1   -1    0    0    0  501  0.00000000000E+00  0.00000000000E+00 -0.10608895716E+04  0.10608895716E+04  0.50400001928E-02 0.  1.
    10030    2    1    2    0    0  0.00000000000E+00  0.00000000000E+00  0.12139379275E+04  0.33357170706E+04  0.31069861737E+04 0.  0.
        1    1    3    3  502    0  0.40570313792E+03  0.14955865072E+04  0.72441482234E+03  0.17105995649E+04  0.50400001928E-02 0.  1.
       -1    1    3    3    0  502 -0.40570313792E+03 -0.14955865072E+04  0.48952310514E+03  0.16251175057E+04  0.50400001928E-02 0. -1.
</event>
<event>
 5   0  0.3493125E-06  0.3086446E+04  0.7818609E-02  0.8219468E-01
       -3   -1    0    0    0  501  0.00000000000E+00  0.00000000000E+00  0.10518377689E+04  0.10518377737E+04  0.10100000352E+00 0.  1.
        3   -1    0    0  501    0  0.00000000000E+00  0.00000000000E+00 -0.22641672945E+04  0.22641672968E+04  0.10100000352E+00 0. -1.
    10030    2    1    2    0    0  0.00000000000E+00  0.00000000000E+00 -0.12123295256E+04  0.33160050705E+04  0.30864456498E+04 0.  0.
        4    1    3    3  502    0  0.67946400124E+02  0.28392818700E+03  0.10218980727E+04  0.10627837092E+04  0.12699999809E+01 0.  1.
       -4    1    3    3    0  502 -0.67946400124E+02 -0.28392818700E+03 -0.22342275984E+04  0.22532213613E+04  0.12699999809E+01 0. -1.
</event>
<event>
 5   0  0.3493125E-06  0.1705011E+04  0.7818609E-02  0.8758511E-01
       -3   -1    0    0    0  501  0.00000000000E+00  0.00000000000E+00  0.47721055015E+03  0.47721056084E+03  0.10100000352E+00 0. -1.
        3   -1    0    0  501    0  0.00000000000E+00  0.00000000000E+00 -0.15229462646E+04  0.15229462680E+04  0.10100000352E+00 0.  1.
    10030    2    1    2    0    0  0.00000000000E+00  0.00000000000E+00 -0.10457357145E+04  0.20001568288E+04  0.17050114825E+04 0.  0.
        5    1    3    3  502    0  0.17941935625E+03 -0.79467592858E+03 -0.22832090776E+03  0.84608135766E+03  0.46999998093E+01 0.  1.
       -5    1    3    3    0  502 -0.17941935625E+03  0.79467592858E+03 -0.81741480671E+03  0.11540754711E+04  0.46999998093E+01 0. -1.
</event>
<event>
 5   0  0.1108153E-05  0.3128201E+04  0.7818609E-02  0.8208041E-01
       -2   -1    0    0    0  501  0.00000000000E+00  0.00000000000E+00  0.11510538740E+04  0.11510538740E+04  0.25500000920E-02 0.  1.
        2   -1    0    0  501    0  0.00000000000E+00  0.00000000000E+00 -0.21253653724E+04  0.21253653724E+04  0.25500000920E-02 0. -1.
    10030    2    1    2    0    0  0.00000000000E+00  0.00000000000E+00 -0.97431149845E+03  0.32764192464E+04  0.31282007899E+04 0.  0.
        4    1    3    3  502    0 -0.13442354485E+04 -0.64594682917E+03 -0.98086269522E+03  0.17850236656E+04  0.12699999809E+01 0. -1.
       -4    1    3    3    0  502  0.13442354485E+04  0.64594682917E+03  0.65511967682E+01  0.14913955807E+04  0.12699999809E+01 0.  1.
</event>
<event>
 5   0  0.1119100E-05  0.3447224E+04  0.7818609E-02  0.8126412E-01
       -2   -1    0    0    0  501  0.00000000000E+00  0.00000000000E+00  0.20195532139E+04  0.20195532139E+04  0.25500000920E-02 0. -1.
        2   -1    0    0  501    0  0.00000000000E+00  0.00000000000E+00 -0.14710374768E+04  0.14710374768E+04  0.25500000920E-02 0.  1.
    10030    2    1    2    0    0  0.00000000000E+00  0.00000000000E+00  0.54851573710E+03  0.34905906906E+04  0.34472240797E+04 0.  0.
        2    1    3    3  502    0  0.64127560688E+02  0.39326814030E+03  0.19722754727E+04  0.20121239312E+04  0.25500000920E-02 0. -1.
       -2    1    3    3    0  502 -0.64127560688E+02 -0.39326814030E+03 -0.14237597356E+04  0.14784667595E+04  0.25500000920E-02 0.  1.
</event>
<event>
 5   0  0.3848286E-06  0.3188503E+04  0.7818609E-02  0.8191860E-01
       -1   -1    0    0    0  501  0.00000000000E+00  0.00000000000E+00  0.11483170927E+04  0.11483170927E+04  0.50400001928E-02 0.  1.
        1   -1    0    0  501    0  0.00000000000E+00  0.00000000000E+00 -0.22133584482E+04  0.22133584482E+04  0.50400001928E-02 0. -1.
    10030    2    1    2    0    0  0.00000000000E+00  0.00000000000E+00 -0.10650413555E+04  0.33616755409E+04  0.31885026820E+04 0.  0.
        2    1    3    3  502    0 -0.44496269789E+03 -0.24930363296E+03  0.10599762394E+04  0.11763051186E+04  0.25500000920E-02 0.  1.
       -2    1    3    3    0  502  0.44496269789E+03  0.24930363296E+03 -0.21250175949E+04  0.21853704223E+04  0.25500000920E-02 0. -1.
</event>
<event>
 5   0  0.3493125E-06  0.3068679E+04  0.7818609E-02  0.8224387E-01
       -4   -1    0    0    0  501  0.00000000000E+00  0.00000000000E+00  0.17093469949E+04  0.17093474667E+04  0.12699999809E+01 0. -1.
        4   -1    0    0  501    0  0.00000000000E+00  0.00000000000E+00 -0.13772483927E+04  0.13772489783E+04  0.12699999809E+01 0.  1.
    10030    2    1    2    0    0  0.00000000000E+00  0.00000000000E+00  0.33209860213E+03  0.30865964450E+04  0.30686785646E+04 0.  0.
        5    1    3    3  502    0  0.58058669510E+03  0.88129091812E+03 -0.95419538701E+03  0.14227668535E+04  0.46999998093E+01 0.  1.
       -5    1    3    3    0  502 -0.58058669510E+03 -0.88129091812E+03  0.12862939891E+04  0.16638295915E+04  0.46999998093E+01 0. -1.
</event>
<event>
 5   0  0.9797278E-06  0.3119583E+04  0.7818609E-02  0.8210384E-01
        2   -1    0    0  501    0  0.00000000000E+00  0.00000000000E+00  0.21322005028E+04  0.21322005028E+04  0.25500000920E-02 0.  1.
       -2   -1    0    0    0  501  0.00000000000E+00  0.00000000000E+00 -0.11410510988E+04  0.11410510988E+04  0.25500000920E-02 0. -1.
    10030    2    1    2    0    0  0.00000000000E+00  0.00000000000E+00  0.99114940400E+03  0.32732516016E+04  0.31195831302E+04 0.  0.
        1    1    3    3  502    0  0.74276566662E+03 -0.36251001955E+03 -0.89239958985E+03  0.12163434457E+04  0.50400001928E-02 0. -1.
       -1    1    3    3    0  502 -0.74276566662E+03  0.36251001955E+03  0.18835489939E+04  0.20569081560E+04  0.50400001928E-02 0.  1.
</event>
<event>
 5   0  0.3807334E-06  0.2994566E+04  0.7818609E-02  0.8245284E-01
       -1   -1    0    0    0  501  0.00000000000E+00  0.00000000000E+00  0.97964608614E+03  0.97964608616E+03  0.50400001928E-02 0. -1.
        1   -1    0    0  501    0  0.00000000000E+00  0.00000000000E+00 -0.22884354139E+04  0.22884354139E+04  0.50400001928E-02 0.  1.
    10030    2    1    2    0    0  0.00000000000E+00  0.00000000000E+00 -0.13087893278E+04  0.32680815001E+04  0.29945662769E+04 0.  0.
        4    1    3    3  502    0  0.26451650562E+02  0.67182289144E+03  0.80563726413E+03  0.10493325028E+04  0.12699999809E+01 0. -1.
       -4    1    3    3    0  502 -0.26451650562E+02 -0.67182289144E+03 -0.21144265919E+04  0.22187489973E+04  0.12699999809E+01 0.  1.
</event>
<event>
 5   0  0.4139628E-06  0.3182315E+04  0.7818609E-02  0.8193503E-01
       -1   -1    0    0    0  501  0.00000000000E+00  0.00000000000E+00  0.15569006043E+04  0.15569006043E+04  0.50400001928E-02 0. -1.
        1   -1    0    0  501    0  0.00000000000E+00  0.00000000000E+00 -0.16261684896E+04  0.16261684897E+04  0.50400001928E-02 0.  1.
    10030    2    1    2    0    0  0.00000000000E+00  0.00000000000E+00 -0.69267885352E+02  0.31830690940E+04  0.31823153233E+04 0.  0.
        5    1    3    3  502    0 -0.12484702746E+03 -0.15850549662E+04 -0.96086172010E+02  0.15928718305E+04  0.46999998093E+01 0. -1.
       -5    1    3    3    0  502  0.12484702746E+03  0.15850549662E+04  0.26818286658E+02  0.15901972634E+04  0.46999998093E+01 0.  1.
</event>
<event>
 5   0  0.4250961E-06  0.3070880E+04  0.7818609E-02  0.8223775E-01
       -1   -1    0    0    0  501  0.00000000000E+00  0.00000000000E+00  0.87346810013E+03  0.87346810014E+03  0.50400001928E-02 0.  1.
        1   -1    0    0  501    0  0.00000000000E+00  0.00000000000E+00 -0.26990975718E+04  0.26990975718E+04  0.50400001928E-02 0. -1.
    10030    2    1    2    0    0  0.00000000000E+00  0.00000000000E+00 -0.18256294717E+04  0.35725656719E+04  0.30708797620E+04 0.  0.
        1    1    3    3  502    0  0.36941706715E+03 -0.63107259901E+02  0.81944261567E+03  0.90107585482E+03  0.50400001928E-02 0.  1.
       -1    1    3    3    0  502 -0.36941706715E+03  0.63107259901E+02 -0.26450720873E+04  0.26714898171E+04  0.50400001928E-02 0. -1.
</event>
<event>
 5   0  0.3838525E-06  0.2211626E+04  0.7818609E-02  0.8513605E-01
        1   -1    0    0  501    0  0.00000000000E+00  0.00000000000E+00  0.17445235080E+04  0.17445235080E+04  0.50400001928E-02 0. -1.
       -1   -1    0    0    0  501  0.00000000000E+00  0.00000000000E+00 -0.70094907559E+03  0.70094907561E+03  0.50400001928E-02 0.  1.
    10030    2    1    2    0    0  0.00000000000E+00  0.00000000000E+00  0.10435744324E+04  0.24454725836E+04  0.22116257733E+04 0.  0.
        3    1    3    3  502    0  0.40336647310E+03 -0.98454389007E+03  0.85496223349E+03  0.13649145079E+04  0.10100000352E+00 0. -1.
       -3    1    3    3    0  502 -0.40336647310E+03  0.98454389007E+03  0.18861219890E+03  0.10805580757E+04  0.10100000352E+00 0.  1.
</event>
<event>
 5   0  0.1007567E-05  0.3087292E+04  0.7818609E-02  0.8219234E-01
       -2   -1    0    0    0  501  0.00000000000E+00  0.00000000000E+00  0.11521134844E+04  0.11521134844E+04  0.25500000920E-02 0.  1.
        2   -1    0    0  501    0  0.00000000000E+00  0.00000000000E+00 -0.20682364904E+04  0.20682364904E+04  0.25500000920E-02 0. -1.
    10030    2    1    2    0    0  0.00000000000E+00  0.00000000000E+00 -0.91612300603E+03  0.32203499748E+04  0.30872921141E+04 0.  0.
        3    1    3    3  502    0 -0.12297603277E+04 -0.46205939028E+03 -0.13035723868E+04  0.18507053579E+04  0.10100000352E+00 0. -1.
       -3    1    3    3    0  502  0.12297603277E+04  0.46205939028E+03  0.38744938080E+03  0.13696446169E+04  0.10100000352E+00 0.  1.
</event>
<event>
 5   0  0.9797278E-06  0.3057812E+04  0.7818609E-02  0.8227412E-01
        2   -1    0    0  501    0  0.00000000000E+00  0.00000000000E+00  0.30306496143E+04  0.30306496143E+04  0.25500000920E-02 0.  1.
       -2   -1    0    0    0  501  0.00000000000E+00  0.00000000000E+00 -0.77130425489E+03  0.77130425490E+03  0.25500000920E-02 0. -1.
    10030    2    1    2    0    0  0.00000000000E+00  0.00000000000E+00  0.22593453594E+04  0.38019538692E+04  0.30578115982E+04 0.  0.
        1    1    3    3  502    0  0.12640699476E+04 -0.85243316433E+03  0.98770206857E+03  0.18166096191E+04  0.50400001928E-02 0. -1.
       -1    1    3    3    0  502 -0.12640699476E+04  0.85243316433E+03  0.12716432908E+04  0.19853442500E+04  0.50400001928E-02 0.  1.
</event>
<event>
 5   0  0.3493125E-06  0.3051259E+04  0.7818609E-02  0.8229243E-01
       -3   -1    0    0    0  501  0.00000000000E+00  0.00000000000E+00  0.11998305175E+04  0.11998305218E+04  0.10100000352E+00 0.  1.
        3   -1    0    0  501    0  0.00000000000E+00  0.00000000000E+00 -0.19398954484E+04  0.19398954510E+04  0.10100000352E+00 0. -1.
    10030    2    1    2    0    0  0.00000000000E+00  0.00000000000E+00 -0.74006493084E+03  0.31397259728E+04  0.30512592617E+04 0.  0.
        1    1    3    3  502    0  0.11933790806E+04  0.80612231526E+03  0.14811348729E+03  0.14477307838E+04  0.50400001928E-02 0.  1.
       -1    1    3    3    0  502 -0.11933790806E+04 -0.80612231526E+03 -0.88817841813E+03  0.16919951890E+04  0.50400001928E-02 0. -1.
</event>
<event>
 5   0  0.1108153E-05  0.3061081E+04  0.7818609E-02  0.8226501E-01
        2   -1    0    0  501    0  0.00000000000E+00  0.00000000000E+00  0.19538531100E+04  0.19538531100E+04  0.25500000920E-02 0.  1.
       -2   -1    0    0    0  501  0.00000000000E+00  0.00000000000E+00 -0.11989408392E+04  0.11989408392E+04  0.25500000920E-02 0. -1.
    10030    2    1    2    0    0  0.00000000000E+00  0.00000000000E+00  0.75491227085E+03  0.31527939492E+04  0.30610810426E+04 0.  0.
        4    1    3    3  502    0  0.51331877007E+03  0.13844436279E+04  0.79248357072E+03  0.16757721030E+04  0.12699999809E+01 0. -1.
       -4    1    3    3    0  502 -0.51331877007E+03 -0.13844436279E+04 -0.37571299867E+02  0.14770218462E+04  0.12699999809E+01 0.  1.
</event>
<event>
 5   0  0.3848286E-06  0.3084516E+04  0.7818609E-02  0.8220000E-01
        1   -1    0    0  501    0  0.00000000000E+00  0.00000000000E+00  0.13586054424E+04  0.13586054424E+04  0.50400001928E-02 0.  1.
       -1   -1    0    0    0  501  0.00000000000E+00  0.00000000000E+00 -0.17507363957E+04  0.17507363957E+04  0.50400001928E-02 0. -1.
    10030    2    1    2    0    0  0.00000000000E+00  0.00000000000E+00 -0.39213095329E+03  0.31093418381E+04  0.30845161665E+04 0.  0.
        2    1    3    3  502    0 -0.10397864888E+04 -0.65952289519E+03 -0.11322129183E+04  0.16727320419E+04  0.25500000920E-02 0. -1.
       -2    1    3    3    0  502  0.10397864888E+04  0.65952289519E+03  0.74008196498E+03  0.14366097962E+04  0.25500000920E-02 0.  1.
</event>
<event>
 5   0  0.1001961E-05  0.3084595E+04  0.7818609E-02  0.8219978E-01
        2   -1    0    0  501    0  0.00000000000E+00  0.00000000000E+00  0.23211993344E+04  0.23211993344E+04  0.25500000920E-02 0.  1.
       -2   -1    0    0    0  501  0.00000000000E+00  0.00000000000E+00 -0.10247640907E+04  0.10247640907E+04  0.25500000920E-02 0. -1.
    10030    2    1    2    0    0  0.00000000000E+00  0.00000000000E+00  0.12964352437E+04  0.33459634251E+04  0.30845950951E+04 0.  0.
        5    1    3    3  502    0 -0.13922085802E+04  0.54508978144E+03  0.10588319033E+04  0.18320793351E+04  0.46999998093E+01 0.  1.
       -5    1    3    3    0  502  0.13922085802E+04 -0.54508978144E+03  0.23760334039E+03  0.15138840900E+04  0.46999998093E+01 0. -1.
</event>
<event>
 5   0  0.1001961E-05  0.2980968E+04  0.7818609E-02  0.8249187E-01
       -2   -1    0    0    0  501  0.00000000000E+00  0.00000000000E+00  0.10265232809E+04  0.10265232809E+04  0.25500000920E-02 0. -1.
        2   -1    0    0  501    0  0.00000000000E+00  0.00000000000E+00 -0.21641424398E+04  0.21641424398E+04  0.25500000920E-02 0.  1.
    10030    2    1    2    0    0  0.00000000000E+00  0.00000000000E+00 -0.11376191590E+04  0.31906657207E+04  0.29809680291E+04 0.  0.
        5    1    3    3  502    0 -0.26801490402E+03 -0.94194177713E+03 -0.17714294219E+04  0.20241221769E+04  0.46999998093E+01 0.  1.
       -5    1    3    3    0  502  0.26801490402E+03  0.94194177713E+03  0.63381026291E+03  0.11665435438E+04  0.46999998093E+01 0. -1.
</event>
<event>
 5   0  0.1007567E-05  0.3092251E+04  0.7818609E-02  0.8217868E-01
       -2   -1    0    0    0  501  0.00000000000E+00  0.00000000000E+00  0.19909576910E+04  0.19909576910E+04  0.25500000920E-02 0. -1.
        2   -1    0    0  501    0  0.00000000000E+00  0.00000000000E+00 -0.12006801757E+04  0.12006801757E+04  0.25500000920E-02 0.  1.
    10030    2    1    2    0    0  0.00000000000E+00  0.00000000000E+00  0.79027751529E+03  0.31916378667E+04  0.30922505916E+04 0.  0.
        3    1    3    3  502    0  0.63443206063E+03 -0.25586913519E+03 -0.10359795315E+04  0.12414614991E+04  0.10100000352E+00 0.  1.
       -3    1    3    3    0  502 -0.63443206063E+03  0.25586913519E+03  0.18262570468E+04  0.19501763676E+04  0.10100000352E+00 0. -1.
</event>
<event>
 5   0  0.1001961E-05  0.2912580E+04  0.7818609E-02  0.8269144E-01
        2   -1    0    0  501    0  0.00000000000E+00  0.00000000000E+00  0.19325390304E+04  0.19325390304E+04  0.25500000920E-02 0.  1.
       -2   -1    0    0    0  501  0.00000000000E+00  0.00000000000E+00 -0.10974064879E+04  0.10974064879E+04  0.25500000920E-02 0. -1.
    10030    2    1    2    0    0  0.00000000000E+00  0.00000000000E+00  0.83513254257E+03  0.30299455183E+04  0.29125802101E+04 0.  0.
        5    1    3    3  502    0 -0.10236543208E+04  0.94338619279E+03  0.86248361282E+03  0.16376036608E+04  0.46999998093E+01 0.  1.
       -5    1    3    3    0  502  0.10236543208E+04 -0.94338619279E+03 -0.27351070255E+02  0.13923418576E+04  0.46999998093E+01 0. -1.
</event>
<event>
 5   0  0.1119100E-05  0.3148657E+04  0.7818609E-02  0.8202510E-01
        2   -1    0    0  501    0  0.00000000000E+00  0.00000000000E+00  0.16598030524E+04  0.16598030524E+04  0.25500000920E-02 0. -1.
       -2   -1    0    0    0  501  0.00000000000E+00  0.00000000000E+00 -0.14932551751E+04  0.14932551751E+04  0.25500000920E-02 0.  1.
    10030    2    1    2    0    0  0.00000000000E+00  0.00000000000E+00  0.16654787728E+03  0.31530582275E+04  0.31486565374E+04 0.  0.
        2    1    3    3  502    0  0.11070002379E+04  0.85250915537E+03  0.80974527113E+03  0.16149020995E+04  0.25500000920E-02 0. -1.
       -2    1    3    3    0  502 -0.11070002379E+04 -0.85250915537E+03 -0.64319739385E+03  0.15381561280E+04  0.25500000920E-02 0.  1.
</event>
<event>
 5   0  0.1001961E-05  0.2699702E+04  0.7818609E-02  0.8335102E-01
        2   -1    0    0  501    0  0.00000000000E+00  0.00000000000E+00  0.17837664256E+04  0.17837664256E+04  0.25500000920E-02 0.  1.
       -2   -1    0    0    0  501  0.00000000000E+00  0.00000000000E+00 -0.10214890508E+04  0.10214890508E+04  0.25500000920E-02 0. -1.
    10030    2    1    2    0    0  0.00000000000E+00  0.00000000000E+00  0.76227737477E+03  0.28052554765E+04  0.26997021117E+04 0.  0.
        5    1    3    3  502    0 -0.76033635210E+02 -0.23520339445E+03 -0.99776219202E+03  0.10279363951E+04  0.46999998093E+01 0. -1.
       -5    1    3    3    0  502  0.76033635210E+02  0.23520339445E+03  0.17600395668E+04  0.17773190814E+04  0.46999998093E+01 0.  1.
</event>
<event>
 5   0  0.1119100E-05  0.2971795E+04  0.7818609E-02  0.8251831E-01
       -2   -1    0    0    0  501  0.00000000000E+00  0.00000000000E+00  0.78071842878E+03  0.78071842878E+03  0.25500000920E-02 0.  1.
        2   -1    0    0  501    0  0.00000000000E+00  0.00000000000E+00 -0.28280255885E+04  0.28280255885E+04  0.25500000920E-02 0. -1.
    10030    2    1    2    0    0  0.00000000000E+00  0.00000000000E+00 -0.20473071597E+04  0.36087440173E+04  0.29717952110E+04 0.  0.
        2    1    3    3  502    0 -0.46519589634E+03  0.12501902389E+04 -0.18185619876E+04  0.22553382359E+04  0.25500000920E-02 0. -1.
       -2    1    3    3    0  502  0.46519589634E+03 -0.12501902389E+04 -0.22874517210E+03  0.13534057814E+04  0.25500000920E-02 0.  1.
</event>
<event>
 5   0  0.1108153E-05  0.2983001E+04  0.7818609E-02  0.8248602E-01
        2   -1    0    0  501    0  0.00000000000E+00  0.00000000000E+00  0.16073913654E+04  0.16073913654E+04  0.25500000920E-02 0. -1.
       -2   -1    0    0    0  501  0.00000000000E+00  0.00000000000E+00 -0.13839653529E+04  0.13839653529E+04  0.25500000920E-02 0.  1.
    10030    2    1    2    0    0  0.00000000000E+00  0.00000000000E+00  0.22342601248E+03  0.29913567183E+04  0.29830011454E+04 0.  0.
        4    1    3    3  502    0  0.11766252008E+04 -0.70957307967E+03 -0.47011172689E+03  0.14522215627E+04  0.12699999809E+01 0. -1.
       -4    1    3    3    0  502 -0.11766252008E+04  0.70957307967E+03  0.69353773936E+03  0.15391351556E+04  0.12699999809E+01 0.  1.
</event>
<event>
 5   0  0.9797278E-06  0.3119047E+04  0.7818609E-02  0.8210530E-01
        2   -1    0    0  501    0  0.00000000000E+00  0.00000000000E+00  0.26006385935E+04  0.26006385935E+04  0.25500000920E-02 0. -1.
       -2   -1    0    0    0  501  0.00000000000E+00  0.00000000000E+00 -0.93519881741E+03  0.93519881742E+03  0.25500000920E-02 0.  1.
    10030    2    1    2    0    0  0.00000000000E+00  0.00000000000E+00  0.16654397761E+04  0.35358374109E+04  0.31190473784E+04 0.  0.
        1    1    3    3  502    0 -0.20140586816E+03  0.89571413978E+03 -0.59639083339E+03  0.10947831612E+04  0.50400001928E-02 0.  1.
       -1    1    3    3    0  502  0.20140586816E+03 -0.89571413978E+03  0.22618306094E+04  0.24410542497E+04  0.50400001928E-02 0. -1.
</event>
<event>
 5   0  0.4250961E-06  0.2706300E+04  0.7818609E-02  0.8332964E-01
        1   -1    0    0  501    0  0.00000000000E+00  0.00000000000E+00  0.15295551573E+04  0.15295551573E+04  0.50400001928E-02 0. -1.
       -1   -1    0    0    0  501  0.00000000000E+00  0.00000000000E+00 -0.11970897802E+04  0.11970897802E+04  0.50400001928E-02 0.  1.
    10030    2    1    2    0    0  0.00000000000E+00  0.00000000000E+00  0.33246537714E+03  0.27266449375E+04  0.27062999442E+04 0.  0.
        1    1    3    3  502    0 -0.58379843595E+02 -0.10844864590E+04  0.97945344804E+03  0.14624801342E+04  0.50400001928E-02 0. -1.
       -1    1    3    3    0  502  0.58379843595E+02  0.10844864590E+04 -0.64698807091E+03  0.12641648033E+04  0.50400001928E-02 0.  1.
</event>
<event>
 5   0  0.4139628E-06  0.3089369E+04  0.7818609E-02  0.8218662E-01
        1   -1    0    0  501    0  0.00000000000E+00  0.00000000000E+00  0.12643320558E+04  0.12643320558E+04  0.50400001928E-02 0. -1.
       -1   -1    0    0    0  501  0.00000000000E+00  0.00000000000E+00 -0.18872016786E+04  0.18872016787E+04  0.50400001928E-02 0.  1.
    10030    2    1    2    0    0  0.00000000000E+00  0.00000000000E+00 -0.62286962288E+03  0.31515337344E+04  0.30893685944E+04 0.  0.
        5    1    3    3  502    0  0.36455040671E+03  0.10505988847E+04 -0.14050955678E+04  0.17919181511E+04  0.46999998093E+01 0.  1.
       -5    1    3    3    0  502 -0.36455040671E+03 -0.10505988847E+04  0.78222594497E+03  0.13596155833E+04  0.46999998093E+01 0. -1.
</event>
<event>
 5   0  0.3848286E-06  0.3094503E+04  0.7818609E-02  0.8217248E-01
        1   -1    0    0  501    0  0.00000000000E+00  0.00000000000E+00  0.20750947701E+04  0.20750947701E+04  0.50400001928E-02 0.  1.
       -1   -1    0    0    0  501  0.00000000000E+00  0.00000000000E+00 -0.11536763933E+04  0.11536763933E+04  0.50400001928E-02 0. -1.
    10030    2    1    2    0    0  0.00000000000E+00  0.00000000000E+00  0.92141837688E+03  0.32287711634E+04  0.30945034174E+04 0.  0.
        2    1    3    3  502    0  0.89068496804E+03  0.65146467219E+03 -0.67090482699E+03  0.12914484962E+04  0.25500000920E-02 0. -1.
       -2    1    3    3    0  502 -0.89068496804E+03 -0.65146467219E+03  0.15923232039E+04  0.19373226672E+04  0.25500000920E-02 0.  1.
</event>
<event>
 5   0  0.4139628E-06  0.2984855E+04  0.7818609E-02  0.8248069E-01
       -1   -1    0    0    0  501  0.00000000000E+00  0.00000000000E+00  0.16065478981E+04  0.16065478981E+04  0.50400001928E-02 0.  1.
        1   -1    0    0  501    0  0.00000000000E+00  0.00000000000E+00 -0.13864133076E+04  0.13864133076E+04  0.50400001928E-02 0. -1.
    10030    2    1    2    0    0  0.00000000000E+00  0.00000000000E+00  0.22013459047E+03  0.29929612057E+04  0.29848546934E+04 0.  0.
        5    1    3    3  502    0  0.17999750237E+03  0.77363429015E+03  0.13769892605E+04  0.15896636844E+04  0.46999998093E+01 0.  1.
       -5    1    3    3    0  502 -0.17999750237E+03 -0.77363429015E+03 -0.11568546701E+04  0.14032975213E+04  0.46999998093E+01 0. -1.
</event>
<event>
 5   0  0.9797278E-06  0.2723227E+04  0.7818609E-02  0.8327508E-01
        2   -1    0    0  501    0  0.00000000000E+00  0.00000000000E+00  0.19279323696E+04  0.19279323696E+04  0.25500000920E-02 0. -1.
       -2   -1    0    0    0  501  0.00000000000E+00  0.00000000000E+00 -0.96164768975E+03  0.96164768975E+03  0.25500000920E-02 0.  1.
    10030    2    1    2    0    0  0.00000000000E+00  0.00000000000E+00  0.96628467984E+03  0.28895800593E+04  0.27232272834E+04 0.  0.
        1    1    3    3  502    0 -0.93330702908E+03 -0.98506994735E+03  0.60209245813E+03  0.14845673241E+04  0.50400001928E-02 0. -1.
       -1    1    3    3    0  502  0.93330702908E+03  0.98506994735E+03  0.36419222171E+03  0.14050127352E+04  0.50400001928E-02 0.  1.
</event>
<event>
 5   0  0.1108153E-05  0.2117165E+04  0.7818609E-02  0.8553720E-01
       -2   -1    0    0    0  501  0.00000000000E+00  0.00000000000E+00  0.64354449047E+03  0.64354449048E+03  0.25500000920E-02 0. -1.
        2   -1    0    0  501    0  0.00000000000E+00  0.00000000000E+00 -0.17412882014E+04  0.17412882014E+04  0.25500000920E-02 0.  1.
    10030    2    1    2    0    0  0.00000000000E+00  0.00000000000E+00 -0.10977437109E+04  0.23848326918E+04  0.21171645456E+04 0.  0.
        4    1    3    3  502    0  0.17281726925E+03 -0.64493527206E+03 -0.14741809248E+04  0.16183381370E+04  0.12699999809E+01 0.  1.
       -4    1    3    3    0  502 -0.17281726925E+03  0.64493527206E+03  0.37643721391E+03  0.76649455485E+03  0.12699999809E+01 0. -1.
</event>
<event>
 5   0  0.3807334E-06  0.3137905E+04  0.7818609E-02  0.8205411E-01
        1   -1    0    0  501    0  0.00000000000E+00  0.00000000000E+00  0.19413123899E+04  0.19413123899E+04  0.50400001928E-02 0. -1.
       -1   -1    0    0    0  501  0.00000000000E+00  0.00000000000E+00 -0.12680144953E+04  0.12680144953E+04  0.50400001928E-02 0.  1.
    10030    2    1    2    0    0  0.00000000000E+00  0.00000000000E+00  0.67329789460E+03  0.32093268852E+04  0.31379051931E+04 0.  0.
        4    1    3    3  502    0  0.15253452062E+02 -0.11593678747E+04 -0.74440700274E+03  0.13778642660E+04  0.12699999809E+01 0. -1.
       -4    1    3    3    0  502 -0.15253452062E+02  0.11593678747E+04  0.14177048973E+04  0.18314626192E+04  0.12699999809E+01 0.  1.
</event>
<event>
 5   0  0.3848286E-06  0.2964796E+04  0.7818609E-02  0.8253856E-01
        1   -1    0    0  501    0  0.00000000000E+00  0.00000000000E+00  0.19171860383E+04  0.19171860383E+04  0.50400001928E-02 0. -1.
       -1   -1    0    0    0  501  0.00000000000E+00  0.00000000000E+00 -0.11462128752E+04  0.11462128752E+04  0.50400001928E-02 0.  1.
    10030    2    1    2    0    0  0.00000000000E+00  0.00000000000E+00  0.77097316305E+03  0.30633989135E+04  0.29647956566E+04 0.  0.
        2    1    3    3  502    0 -0.87977316655E+03 -0.68289348475E+03  0.13963694313E+04  0.17861108378E+04  0.25500000920E-02 0. -1.
       -2    1    3    3    0  502  0.87977316655E+03  0.68289348475E+03 -0.62539626827E+03  0.12772880758E+04  0.25500000920E-02 0.  1.
</event>
<event>
 5   0  0.3848286E-06  0.3223620E+04  0.7818609E-02  0.8182607E-01
        1   -1    0    0  501    0  0.00000000000E+00  0.00000000000E+00  0.16191466740E+04  0.16191466741E+04  0.50400001928E-02 0. -1.
       -1   -1    0    0    0  501  0.00000000000E+00  0.00000000000E+00 -0.16045065605E+04  0.16045065605E+04  0.50400001928E-02 0.  1.
    10030    2    1    2    0    0  0.00000000000E+00  0.00000000000E+00  0.14640113528E+02  0.32236532346E+04  0.32236199906E+04 0.  0.
        2    1    3    3  502    0 -0.10662471805E+04  0.20358746163E+03  0.11988022582E+04  0.16172376939E+04  0.25500000920E-02 0. -1.
       -2    1    3    3    0  502  0.10662471805E+04 -0.20358746163E+03 -0.11841621447E+04  0.16064155407E+04  0.25500000920E-02 0.  1.
</event>
<event>
 5   0  0.1119100E-05  0.3302381E+04  0.7818609E-02  0.8162290E-01
        2   -1    0    0  501    0  0.00000000000E+00  0.00000000000E+00  0.18524872483E+04  0.18524872483E+04  0.25500000920E-02 0.  1.
       -2   -1    0    0    0  501  0.00000000000E+00  0.00000000000E+00 -0.14717670817E+04  0.14717670817E+04  0.25500000920E-02 0. -1.
    10030    2    1    2    0    0  0.00000000000E+00  0.00000000000E+00  0.38072016662E+03  0.33242543300E+04  0.33023808086E+04 0.  0.
        2    1    3    3  502    0 -0.16121103497E+04  0.26671533083E+03 -0.48684728064E+02  0.16347498432E+04  0.25500000920E-02 0.  1.
       -2    1    3    3    0  502  0.16121103497E+04 -0.26671533083E+03  0.42940489469E+03  0.16895044868E+04  0.25500000920E-02 0. -1.
</event>
<event>
 5   0  0.4250961E-06  0.3007206E+04  0.7818609E-02  0.8241676E-01
       -1   -1    0    0    0  501  0.00000000000E+00  0.00000000000E+00  0.14729614363E+04  0.14729614363E+04  0.50400001928E-02 0. -1.
        1   -1    0    0  501    0  0.00000000000E+00  0.00000000000E+00 -0.15348819942E+04  0.15348819942E+04  0.50400001928E-02 0.  1.
    10030    2    1    2    0    0  0.00000000000E+00  0.00000000000E+00 -0.61920557928E+02  0.30078434305E+04  0.30072060034E+04 0.  0.
        1    1    3    3  502    0  0.25248050082E+03  0.14822035195E+04 -0.18779434474E+02  0.15036709560E+04  0.50400001928E-02 0. -1.
       -1    1    3    3    0  502 -0.25248050082E+03 -0.14822035195E+04 -0.43141123454E+02  0.15041724745E+04  0.50400001928E-02 0.  1.
</event>
<event>
 5   0  0.3848286E-06  0.3237431E+04  0.7818609E-02  0.8179001E-01
        1   -1    0    0  501    0  0.00000000000E+00  0.00000000000E+00  0.12593330067E+04  0.12593330067E+04  0.50400001928E-02 0. -1.
       -1   -1    0    0    0  501  0.00000000000E+00  0.00000000000E+00 -0.20806567606E+04  0.20806567606E+04  0.50400001928E-02 0.  1.
    10030    2    1    2    0    0  0.00000000000E+00  0.00000000000E+00 -0.82132375388E+03  0.33399897673E+04  0.32374309162E+04 0.  0.
        2    1    3    3  502    0 -0.68692420861E+03  0.13985050469E+04  0.42054258055E+02  0.15586692386E+04  0.25500000920E-02 0.  1.
       -2    1    3    3    0  502  0.68692420861E+03 -0.13985050469E+04 -0.86337801193E+03  0.17813205288E+04  0.25500000920E-02 0. -1.
</event>
<event>
 5   0  0.3838525E-06  0.2494529E+04  0.7818609E-02  0.8404937E-01
       -1   -1    0    0    0  501  0.00000000000E+00  0.00000000000E+00  0.88191749074E+03  0.88191749075E+03  0.50400001928E-02 0. -1.
        1   -1    0    0  501    0  0.00000000000E+00  0.00000000000E+00 -0.17639616094E+04  0.17639616094E+04  0.50400001928E-02 0.  1.
    10030    2    1    2    0    0  0.00000000000E+00  0.00000000000E+00 -0.88204411869E+03  0.26458791002E+04  0.24945288905E+04 0.  0.
        3    1    3    3  502    0 -0.44640777927E+03 -0.10717899005E+04 -0.92436207091E+03  0.14840683086E+04  0.10100000352E+00 0.  1.
       -3    1    3    3    0  502  0.44640777927E+03  0.10717899005E+04  0.42317952217E+02  0.11618107916E+04  0.10100000352E+00 0. -1.
</event>
<event>
 5   0  0.3807334E-06  0.3040418E+04  0.7818609E-02  0.8232283E-01
        1   -1    0    0  501    0  0.00000000000E+00  0.00000000000E+00  0.14937182175E+04  0.14937182175E+04  0.50400001928E-02 0. -1.
       -1   -1    0    0    0  501  0.00000000000E+00  0.00000000000E+00 -0.15471695204E+04  0.15471695204E+04  0.50400001928E-02 0.  1.
    10030    2    1    2    0    0  0.00000000000E+00  0.00000000000E+00 -0.53451302946E+02  0.30408877379E+04  0.30404179306E+04 0.  0.
        4    1    3    3  502    0  0.10136074361E+04 -0.83070039670E+03  0.74382866428E+03  0.15068994254E+04  0.12699999809E+01 0. -1.
       -4    1    3    3    0  502 -0.10136074361E+04  0.83070039670E+03 -0.79727996723E+03  0.15339883124E+04  0.12699999809E+01 0.  1.
</event>
<event>
 5   0  0.1108153E-05  0.3029821E+04  0.7818609E-02  0.8235266E-01
        2   -1    0    0  501    0  0.00000000000E+00  0.00000000000E+00  0.14255650560E+04  0.14255650560E+04  0.25500000920E-02 0. -1.
       -2   -1    0    0    0  501  0.00000000000E+00  0.00000000000E+00 -0.16098555782E+04  0.16098555782E+04  0.25500000920E-02 0.  1.
    10030    2    1    2    0    0  0.00000000000E+00  0.00000000000E+00 -0.18429052225E+03  0.30354206342E+04  0.30298210227E+04 0.  0.
        4    1    3    3  502    0 -0.63749221704E+03 -0.37206980004E+03 -0.14175112420E+04  0.15981777113E+04  0.12699999809E+01 0.  1.
       -4    1    3    3    0  502  0.63749221704E+03  0.37206980004E+03  0.12332207197E+04  0.14372429229E+04  0.12699999809E+01 0. -1.
</event>
<event>
 5   0  0.1119100E-05  0.1752164E+04  0.7818609E-02  0.8732160E-01
       -2   -1    0    0    0  501  0.00000000000E+00  0.00000000000E+00  0.53546493714E+03  0.53546493715E+03  0.25500000920E-02 0. -1.
        2   -1    0    0  501    0  0.00000000000E+00  0.00000000000E+00 -0.14333711411E+04  0.14333711411E+04  0.25500000920E-02 0.  1.
    10030    2    1    2    0    0  0.00000000000E+00  0.00000000000E+00 -0.89790620393E+03  0.19688360782E+04  0.17521643621E+04 0.  0.
        2    1    3    3  502    0 -0.32853595519E+03  0.78702034383E+03 -0.22370746118E+03  0.88169264693E+03  0.25500000920E-02 0. -1.
       -2    1    3    3    0  502  0.32853595519E+03 -0.78702034383E+03 -0.67419874275E+03  0.10871434313E+04  0.25500000920E-02 0.  1.
</event>
<event>
 5   0  0.1001961E-05  0.2312185E+04  0.7818609E-02  0.8473132E-01
       -2   -1    0    0    0  501  0.00000000000E+00  0.00000000000E+00  0.10554797017E+04  0.10554797017E+04  0.25500000920E-02 0.  1.
        2   -1    0    0  501    0  0.00000000000E+00  0.00000000000E+00 -0.12662962324E+04  0.12662962324E+04  0.25500000920E-02 0. -1.
    10030    2    1    2    0    0  0.00000000000E+00  0.00000000000E+00 -0.21081653077E+03  0.23217759341E+04  0.23121850875E+04 0.  0.
        5    1    3    3  502    0 -0.20498598373E+03 -0.60511784368E+03  0.86209286288E+03  0.10730391663E+04  0.46999998093E+01 0.  1.
       -5    1    3    3    0  502  0.20498598373E+03  0.60511784368E+03 -0.10729093936E+04  0.12487367678E+04  0.46999998093E+01 0. -1.
</event>
<event>
 5   0  0.1007567E-05  0.2427997E+04  0.7818609E-02  0.8429096E-01
       -2   -1    0    0    0  501  0.00000000000E+00  0.00000000000E+00  0.10491976665E+04  0.10491976665E+04  0.25500000920E-02 0.  1.
        2   -1    0    0  501    0  0.00000000000E+00  0.00000000000E+00 -0.14046851347E+04  0.14046851347E+04  0.25500000920E-02 0. -1.
    10030    2    1    2    0    0  0.00000000000E+00  0.00000000000E+00 -0.35548746821E+03  0.24538828012E+04  0.24279970062E+04 0.  0.
        3    1    3    3  502    0 -0.11887679334E+04  0.15983005200E+02 -0.42606160864E+03  0.12629145500E+04  0.10100000352E+00 0.  1.
       -3    1    3    3    0  502  0.11887679334E+04 -0.15983005200E+02  0.70574140432E+02  0.11909682513E+04  0.10100000352E+00 0. -1.
</event>
<event>
 5   0  0.9797278E-06  0.2113099E+04  0.7818609E-02  0.8555495E-01
       -2   -1    0    0    0  501  0.00000000000E+00  0.00000000000E+00  0.58216491787E+03  0.58216491788E+03  0.25500000920E-02 0.  1.
        2   -1    0    0  501    0  0.00000000000E+00  0.00000000000E+00 -0.19174930227E+04  0.19174930227E+04  0.25500000920E-02 0. -1.
    10030    2    1    2    0    0  0.00000000000E+00  0.00000000000E+00 -0.13353281048E+04  0.24996579405E+04  0.21130993049E+04 0.  0.
        1    1    3    3  502    0  0.71391305692E+03  0.67966348999E+03 -0.21770891838E+03  0.10094609877E+04  0.50400001928E-02 0.  1.
       -1    1    3    3    0  502 -0.71391305692E+03 -0.67966348999E+03 -0.11176191864E+04  0.14901969529E+04  0.50400001928E-02 0. -1.
</event>
<event>
 5   0  0.3838525E-06  0.2210175E+04  0.7818609E-02  0.8514205E-01
        1   -1    0    0  501    0  0.00000000000E+00  0.00000000000E+00  0.13757166218E+04  0.13757166218E+04  0.50400001928E-02 0.  1.
       -1   -1    0    0    0  501  0.00000000000E+00  0.00000000000E+00 -0.88769639622E+03  0.88769639623E+03  0.50400001928E-02 0. -1.
    10030    2    1    2    0    0  0.00000000000E+00  0.00000000000E+00  0.48802022558E+03  0.22634130180E+04  0.22101752758E+04 0.  0.
        3    1    3    3  502    0 -0.96201639550E+02  0.60498690148E+03 -0.69790261418E+03  0.92861831529E+03  0.10100000352E+00 0. -1.
       -3    1    3    3    0  502  0.96201639550E+02 -0.60498690148E+03  0.11859228398E+04  0.13347947027E+04  0.10100000352E+00 0.  1.
</event>
<event>
 5   0  0.3838525E-06  0.3031177E+04  0.7818609E-02  0.8234884E-01
        1   -1    0    0  501    0  0.00000000000E+00  0.00000000000E+00  0.12959410198E+04  0.12959410198E+04  0.50400001928E-02 0. -1.
       -1   -1    0    0    0  501  0.00000000000E+00  0.00000000000E+00 -0.17724636247E+04  0.17724636247E+04  0.50400001928E-02 0.  1.
    10030    2    1    2    0    0  0.00000000000E+00  0.00000000000E+00 -0.47652260486E+03  0.30684046445E+04  0.30311768786E+04 0.  0.
        3    1    3    3  502    0  0.11866817879E+04  0.14951108880E+03  0.70399894300E+03  0.13878695016E+04  0.10100000352E+00 0. -1.
       -3    1    3    3    0  502 -0.11866817879E+04 -0.14951108880E+03 -0.11805215479E+04  0.16805351429E+04  0.10100000352E+00 0.  1.
</event>
<event>
 5   0  0.1001961E-05  0.3141080E+04  0.7818609E-02  0.8204553E-01
        2   -1    0    0  501    0  0.00000000000E+00  0.00000000000E+00  0.15460116650E+04  0.15460116650E+04  0.25500000920E-02 0. -1.
       -2   -1    0    0    0  501  0.00000000000E+00  0.00000000000E+00 -0.15954577585E+04  0.15954577585E+04  0.25500000920E-02 0.  1.
    10030    2    1    2    0    0  0.00000000000E+00  0.00000000000E+00 -0.49446093510E+02  0.31414694235E+04  0.31410802636E+04 0.  0.
        5    1    3    3  502    0 -0.23574696025E+03  0.15099172759E+04  0.33746461880E+03  0.15650339511E+04  0.46999998093E+01 0.  1.
       -5    1    3    3    0  502  0.23574696025E+03 -0.15099172759E+04 -0.38691071231E+03  0.15764354724E+04  0.46999998093E+01 0. -1.
</event>
<event>
 5   0  0.3807334E-06  0.2351691E+04  0.7818609E-02  0.8457815E-01
        1   -1    0    0  501    0  0.00000000000E+00  0.00000000000E+00  0.11138172678E+04  0.11138172679E+04  0.50400001928E-02 0. -1.
       -1   -1    0    0    0  501  0.00000000000E+00  0.00000000000E+00 -0.12413275487E+04  0.12413275487E+04  0.50400001928E-02 0.  1.
    10030    2    1    2    0    0  0.00000000000E+00  0.00000000000E+00 -0.12751028084E+03  0.23551448166E+04  0.23516905058E+04 0.  0.
        4    1    3    3  502    0  0.93153624983E+02 -0.55314254383E+02 -0.12363178843E+04  0.12410563196E+04  0.12699999809E+01 0.  1.
       -4    1    3    3    0  502 -0.93153624983E+02  0.55314254383E+02  0.11088076035E+04  0.11140884969E+04  0.12699999809E+01 0. -1.
</event>
<event>
 5   0  0.9797278E-06  0.3071752E+04  0.7818609E-02  0.8223533E-01
       -2   -1    0    0    0  501  0.00000000000E+00  0.00000000000E+00  0.10762921802E+04  0.10762921802E+04  0.25500000920E-02 0.  1.
        2   -1    0    0  501    0  0.00000000000E+00  0.00000000000E+00 -0.21917056117E+04  0.21917056117E+04  0.25500000920E-02 0. -1.
    10030    2    1    2    0    0  0.00000000000E+00  0.00000000000E+00 -0.11154134315E+04  0.32679977919E+04  0.30717523410E+04 0.  0.
        1    1    3    3  502    0 -0.17846168376E+03  0.66580289865E+03 -0.20178985066E+04  0.21323828117E+04  0.50400001928E-02 0. -1.
       -1    1    3    3    0  502  0.17846168376E+03 -0.66580289865E+03  0.90248507516E+03  0.11356149802E+04  0.50400001928E-02 0.  1.
</event>
<event>
 5   0  0.1007567E-05  0.2886718E+04  0.7818609E-02  0.8276840E-01
        2   -1    0    0  501    0  0.00000000000E+00  0.00000000000E+00  0.14936774861E+04  0.14936774861E+04  0.25500000920E-02 0. -1.
       -2   -1    0    0    0  501  0.00000000000E+00  0.00000000000E+00 -0.13947357246E+04  0.13947357246E+04  0.25500000920E-02 0.  1.
    10030    2    1    2    0    0  0.00000000000E+00  0.00000000000E+00  0.98941761447E+02  0.28884132107E+04  0.28867181025E+04 0.  0.
        3    1    3    3  502    0  0.13579010707E+04  0.42519923742E+03 -0.19273660749E+03  0.14359098577E+04  0.10100000352E+00 0. -1.
       -3    1    3    3    0  502 -0.13579010707E+04 -0.42519923742E+03  0.29167836894E+03  0.14525033530E+04  0.10100000352E+00 0.  1.
</event>
<event>
 5   0  0.4250961E-06  0.3197434E+04  0.7818609E-02  0.8189495E-01
       -1   -1    0    0    0  501  0.00000000000E+00  0.00000000000E+00  0.11473453963E+04  0.11473453963E+04  0.50400001928E-02 0.  1.
        1   -1    0    0  501    0  0.00000000000E+00  0.00000000000E+00 -0.22276610587E+04  0.22276610587E+04  0.50400001928E-02 0. -1.
    10030    2    1    2    0    0  0.00000000000E+00  0.00000000000E+00 -0.10803156624E+04  0.33750064550E+04  0.31974343841E+04 0.  0.
        1    1    3    3  502    0 -0.51839139435E+03 -0.53784635661E+03 -0.20321226100E+04  0.21650705862E+04  0.50400001928E-02 0. -1.
       -1    1    3    3    0  502  0.51839139435E+03  0.53784635661E+03  0.95180694762E+03  0.12099358688E+04  0.50400001928E-02 0.  1.
</event>
<event>
 5   0  0.1007567E-05  0.3093454E+04  0.7818609E-02  0.8217537E-01
       -2   -1    0    0    0  501  0.00000000000E+00  0.00000000000E+00  0.16231443304E+04  0.16231443304E+04  0.25500000920E-02 0. -1.
        2   -1    0    0  501    0  0.00000000000E+00  0.00000000000E+00 -0.14739070601E+04  0.14739070601E+04  0.25500000920E-02 0.  1.
    10030    2    1    2    0    0  0.00000000000E+00  0.00000000000E+00  0.14923727032E+03  0.30970513904E+04  0.30934536609E+04 0.  0.
        3    1    3    3  502    0 -0.58252160966E+03  0.14196819196E+04 -0.11934800941E+03  0.15391790461E+04  0.10100000352E+00 0.  1.
       -3    1    3    3    0  502  0.58252160966E+03 -0.14196819196E+04  0.26858527974E+03  0.15578723443E+04  0.10100000352E+00 0. -1.
</event>
<event>
 5   0  0.9797278E-06  0.3040737E+04  0.7818609E-02  0.8232193E-01
        2   -1    0    0  501    0  0.00000000000E+00  0.00000000000E+00  0.18497013192E+04  0.18497013192E+04  0.25500000920E-02 0. -1.
       -2   -1    0    0    0  501  0.00000000000E+00  0.00000000000E+00 -0.12496723614E+04  0.12496723614E+04  0.25500000920E-02 0.  1.
    10030    2    1    2    0    0  0.00000000000E+00  0.00000000000E+00  0.60002895782E+03  0.30993736806E+04  0.30407371576E+04 0.  0.
        1    1    3    3  502    0  0.12701538517E+04  0.71258940174E+03  0.74483125851E+03  0.16358019642E+04  0.50400001928E-02 0.  1.
       -1    1    3    3    0  502 -0.12701538517E+04 -0.71258940174E+03 -0.14480230069E+03  0.14635717163E+04  0.50400001928E-02 0. -1.
</event>
<event>
 5   0  0.3848286E-06  0.3016784E+04  0.7818609E-02  0.8238954E-01
       -1   -1    0    0    0  501  0.00000000000E+00  0.00000000000E+00  0.95664552324E+03  0.95664552325E+03  0.50400001928E-02 0. -1.
        1   -1    0    0  501    0  0.00000000000E+00  0.00000000000E+00 -0.23783593541E+04  0.23783593541E+04  0.50400001928E-02 0.  1.
    10030    2    1    2    0    0  0.00000000000E+00  0.00000000000E+00 -0.14217138309E+04  0.33350048773E+04  0.30167842672E+04 0.  0.
        2    1    3    3  502    0 -0.95260237501E+03  0.11218017443E+04 -0.34528375583E+03  0.15116584635E+04  0.25500000920E-02 0.  1.
       -2    1    3    3    0  502  0.95260237501E+03 -0.11218017443E+04 -0.10764300750E+04  0.18233464138E+04  0.25500000920E-02 0. -1.
</event>
<event>
 5   0  0.1108153E-05  0.3439072E+04  0.7818609E-02  0.8128383E-01
        2   -1    0    0  501    0  0.00000000000E+00  0.00000000000E+00  0.22529477022E+04  0.22529477022E+04  0.25500000920E-02 0.  1.
       -2   -1    0    0    0  501  0.00000000000E+00  0.00000000000E+00 -0.13124154083E+04  0.13124154083E+04  0.25500000920E-02 0. -1.
    10030    2    1    2    0    0  0.00000000000E+00  0.00000000000E+00  0.94053229393E+03  0.35653631105E+04  0.34390715482E+04 0.  0.
        4    1    3    3  502    0 -0.23552524305E+02  0.96897563072E+03 -0.10022205177E+04  0.13942439074E+04  0.12699999809E+01 0. -1.
       -4    1    3    3    0  502  0.23552524305E+02 -0.96897563072E+03  0.19427528116E+04  0.21711192031E+04  0.12699999809E+01 0.  1.
</event>
<event>
 5   0  0.1119100E-05  0.3112832E+04  0.7818609E-02  0.8212225E-01
        2   -1    0    0  501    0  0.00000000000E+00  0.00000000000E+00  0.17463782656E+04  0.17463782656E+04  0.25500000920E-02 0.  1.
       -2   -1    0    0    0  501  0.00000000000E+00  0.00000000000E+00 -0.13871167161E+04  0.13871167161E+04  0.25500000920E-02 0. -1.
    10030    2    1    2    0    0  0.00000000000E+00  0.00000000000E+00  0.35926154956E+03  0.31334949817E+04  0.31128318199E+04 0.  0.
        2    1    3    3  502    0 -0.12846068184E+04  0.84719590970E+03  0.41457866929E+03  0.15936847431E+04  0.25500000920E-02 0. -1.
       -2    1    3    3    0  502  0.12846068184E+04 -0.84719590970E+03 -0.55317119734E+02  0.15398102386E+04  0.25500000920E-02 0.  1.
</event>
<event>
 5   0  0.3838525E-06  0.3058713E+04  0.7818609E-02  0.8227161E-01
       -1   -1    0    0    0  501  0.00000000000E+00  0.00000000000E+00  0.12160726603E+04  0.12160726603E+04  0.50400001928E-02 0.  1.
        1   -1    0    0  501    0  0.00000000000E+00  0.00000000000E+00 -0.19233481660E+04  0.19233481660E+04  0.50400001928E-02 0. -1.
    10030    2    1    2    0    0  0.00000000000E+00  0.00000000000E+00 -0.70727550574E+03  0.31394208263E+04  0.30587128803E+04 0.  0.
        3    1    3    3  502    0  0.53293730915E+03  0.76997331084E+03 -0.15946953600E+04  0.18493064582E+04  0.10100000352E+00 0. -1.
       -3    1    3    3    0  502 -0.53293730915E+03 -0.76997331084E+03  0.88741985428E+03  0.12901143681E+04  0.10100000352E+00 0.  1.
</event>
<event>
 5   0  0.3807334E-06  0.3166776E+04  0.7818609E-02  0.8197647E-01
       -1   -1    0    0    0  501  0.00000000000E+00  0.00000000000E+00  0.19420565788E+04  0.19420565788E+04  0.50400001928E-02 0.  1.
        1   -1    0    0  501    0  0.00000000000E+00  0.00000000000E+00 -0.12909597861E+04  0.12909597861E+04  0.50400001928E-02 0. -1.
    10030    2    1    2    0    0  0.00000000000E+00  0.00000000000E+00  0.65109679268E+03  0.32330163649E+04  0.31667756128E+04 0.  0.
        4    1    3    3  502    0 -0.14360858974E+04 -0.18011372356E+02 -0.35506610163E+03  0.14794393072E+04  0.12699999809E+01 0. -1.
       -4    1    3    3    0  502  0.14360858974E+04  0.18011372356E+02  0.10061628943E+04  0.17535770576E+04  0.12699999809E+01 0.  1.
</event>
<event>
 5   0  0.4139628E-06  0.2310756E+04  0.7818609E-02  0.8473692E-01
        1   -1    0    0  501    0  0.00000000000E+00  0.00000000000E+00  0.22537909400E+04  0.22537909400E+04  0.50400001928E-02 0. -1.
       -1   -1    0    0    0  501  0.00000000000E+00  0.00000000000E+00 -0.59229040533E+03  0.59229040536E+03  0.50400001928E-02 0.  1.
    10030    2    1    2    0    0  0.00000000000E+00  0.00000000000E+00  0.16615005346E+04  0.28460813453E+04  0.23107563692E+04 0.  0.
        5    1    3    3  502    0 -0.31995235997E+02  0.61412847306E+03 -0.37395511724E+03  0.71975134335E+03  0.46999998093E+01 0.  1.
       -5    1    3    3    0  502  0.31995235997E+02 -0.61412847306E+03  0.20354556519E+04  0.21263300020E+04  0.46999998093E+01 0. -1.
</event>
<event>
 5   0  0.3807334E-06  0.3084558E+04  0.7818609E-02  0.8219989E-01
        1   -1    0    0  501    0  0.00000000000E+00  0.00000000000E+00  0.12994296430E+04  0.12994296430E+04  0.50400001928E-02 0. -1.
       -1   -1    0    0    0  501  0.00000000000E+00  0.00000000000E+00 -0.18305138238E+04  0.18305138238E+04  0.50400001928E-02 0.  1.
    10030    2    1    2    0    0  0.00000000000E+00  0.00000000000E+00 -0.53108418075E+03  0.31299434668E+04  0.30845576179E+04 0.  0.
        4    1    3    3  502    0 -0.60899959934E+03 -0.40899129619E+03 -0.16421419858E+04  0.17985511688E+04  0.12699999809E+01 0.  1.
       -4    1    3    3    0  502  0.60899959934E+03  0.40899129619E+03  0.11110578050E+04  0.13313922981E+04  0.12699999809E+01 0. -1.
</event>
<event>
 5   0  0.4250961E-06  0.1630079E+04  0.7818609E-02  0.8802279E-01
       -1   -1    0    0    0  501  0.00000000000E+00  0.00000000000E+00  0.39964324699E+03  0.39964324702E+03  0.50400001928E-02 0.  1.
        1   -1    0    0  501    0  0.00000000000E+00  0.00000000000E+00 -0.16622069780E+04  0.16622069780E+04  0.50400001928E-02 0. -1.
    10030    2    1    2    0    0  0.00000000000E+00  0.00000000000E+00 -0.12625637310E+04  0.20618502250E+04  0.16300794998E+04 0.  0.
        1    1    3    3  502    0 -0.51479955201E+02 -0.52685560034E+03  0.15259787816E+03  0.55092024998E+03  0.50400001928E-02 0.  1.
       -1    1    3    3    0  502  0.51479955201E+02  0.52685560034E+03 -0.14151616091E+04  0.15109299750E+04  0.50400001928E-02 0. -1.
</event>
<event>
 5   0  0.1001961E-05  0.3169567E+04  0.7818609E-02  0.8196901E-01
        2   -1    0    0  501    0  0.00000000000E+00  0.00000000000E+00  0.84302150902E+03  0.84302150903E+03  0.25500000920E-02 0. -1.
       -2   -1    0    0    0  501  0.00000000000E+00  0.00000000000E+00 -0.29792107033E+04  0.29792107033E+04  0.25500000920E-02 0.  1.
    10030    2    1    2    0    0  0.00000000000E+00  0.00000000000E+00 -0.21361891942E+04  0.38222322123E+04  0.31695669753E+04 0.  0.
        5    1    3    3  502    0  0.16060151143E+03  0.14707878393E+03  0.82488336972E+03  0.85315864749E+03  0.46999998093E+01 0. -1.
       -5    1    3    3    0  502 -0.16060151143E+03 -0.14707878393E+03 -0.29610725640E+04  0.29690735648E+04  0.46999998093E+01 0.  1.
</event>
<event>
 5   0  0.3807334E-06  0.2099549E+04  0.7818609E-02  0.8561442E-01
       -1   -1    0    0    0  501  0.00000000000E+00  0.00000000000E+00  0.70843102254E+03  0.70843102256E+03  0.50400001928E-02 0.  1.
        1   -1    0    0  501    0  0.00000000000E+00  0.00000000000E+00 -0.15555873424E+04  0.15555873424E+04  0.50400001928E-02 0. -1.
    10030    2    1    2    0    0  0.00000000000E+00  0.00000000000E+00 -0.84715631983E+03  0.22640183649E+04  0.20995488388E+04 0.  0.
        4    1    3    3  502    0 -0.71335811057E+03  0.41041707190E+03  0.27916479661E+03  0.86905498295E+03  0.12699999809E+01 0.  1.
       -4    1    3    3    0  502  0.71335811057E+03 -0.41041707190E+03 -0.11263211164E+04  0.13949633820E+04  0.12699999809E+01 0. -1.
</event>
<event>
 5   0  0.1001961E-05  0.3168515E+04  0.7818609E-02  0.8197182E-01
        2   -1    0    0  501    0  0.00000000000E+00  0.00000000000E+00  0.27704952525E+04  0.27704952525E+04  0.25500000920E-02 0.  1.
       -2   -1    0    0    0  501  0.00000000000E+00  0.00000000000E+00 -0.90592909595E+03  0.90592909595E+03  0.25500000920E-02 0. -1.
    10030    2    1    2    0    0  0.00000000000E+00  0.00000000000E+00  0.18645661565E+04  0.36764243485E+04  0.31685152734E+04 0.  0.
        5    1    3    3  502    0  0.14116555277E+04  0.71905757423E+03  0.93915195463E+03  0.18416958511E+04  0.46999998093E+01 0. -1.
       -5    1    3    3    0  502 -0.14116555277E+04 -0.71905757423E+03  0.92541420191E+03  0.18347284974E+04  0.46999998093E+01 0.  1.
</event>
<event>
 5   0  0.1007567E-05  0.3090100E+04  0.7818609E-02  0.8218460E-01
        2   -1    0    0  501    0  0.00000000000E+00  0.00000000000E+00  0.19497761480E+04  0.19497761480E+04  0.25500000920E-02 0.  1.
       -2   -1    0    0    0  501  0.00000000000E+00  0.00000000000E+00 -0.12243352757E+04  0.12243352757E+04  0.25500000920E-02 0. -1.
    10030    2    1    2    0    0  0.00000000000E+00  0.00000000000E+00  0.72544087237E+03  0.31741114237E+04  0.30901001393E+04 0.  0.
        3    1    3    3  502    0  0.55633553766E+03 -0.14536072091E+03  0.18357730971E+04  0.19237208331E+04  0.10100000352E+00 0.  1.
       -3    1    3    3    0  502 -0.55633553766E+03  0.14536072091E+03 -0.11103322247E+04  0.12503905906E+04  0.10100000352E+00 0. -1.
</event>
<event>
 5   0  0.1007567E-05  0.3060207E+04  0.7818609E-02  0.8226744E-01
       -2   -1    0    0    0  501  0.00000000000E+00  0.00000000000E+00  0.18955295718E+04  0.18955295718E+04  0.25500000920E-02 0.  1.
        2   -1    0    0  501    0  0.00000000000E+00  0.00000000000E+00 -0.12351253316E+04  0.12351253316E+04  0.25500000920E-02 0. -1.
    10030    2    1    2    0    0  0.00000000000E+00  0.00000000000E+00  0.66040424025E+03  0.31306549034E+04  0.30602069152E+04 0.  0.
        3    1    3    3  502    0  0.46188004533E+03 -0.94124876367E+03  0.14702778309E+04  0.18058237239E+04  0.10100000352E+00 0.  1.
       -3    1    3    3    0  502 -0.46188004533E+03  0.94124876367E+03 -0.80987359065E+03  0.13248311796E+04  0.10100000352E+00 0. -1.
</event>
<event>
 5   0  0.4139628E-06  0.3101423E+04  0.7818609E-02  0.8215347E-01
       -1   -1    0    0    0  501  0.00000000000E+00  0.00000000000E+00  0.20105554766E+04  0.20105554767E+04  0.50400001928E-02 0. -1.
        1   -1    0    0  501    0  0.00000000000E+00  0.00000000000E+00 -0.11960407385E+04  0.11960407386E+04  0.50400001928E-02 0.  1.
    10030    2    1    2    0    0  0.00000000000E+00  0.00000000000E+00  0.81451473810E+03  0.32065962152E+04  0.31014230651E+04 0.  0.
        5    1    3    3  502    0  0.62569807841E+02  0.15384618966E+04  0.21688238478E+03  0.15549405284E+04  0.46999998093E+01 0.  1.
       -5    1    3    3    0  502 -0.62569807841E+02 -0.15384618966E+04  0.59763235332E+03  0.16516556868E+04  0.46999998093E+01 0. -1.
</event>
<event>
 5   0  0.1001961E-05  0.1570368E+04  0.7818609E-02  0.8838962E-01
       -2   -1    0    0    0  501  0.00000000000E+00  0.00000000000E+00  0.44522585373E+03  0.44522585374E+03  0.25500000920E-02 0.  1.
        2   -1    0    0  501    0  0.00000000000E+00  0.00000000000E+00 -0.13847216464E+04  0.13847216464E+04  0.25500000920E-02 0. -1.
    10030    2    1    2    0    0  0.00000000000E+00  0.00000000000E+00 -0.93949579263E+03  0.18299475001E+04  0.15703679533E+04 0.  0.
        5    1    3    3  502    0  0.53687480149E+03 -0.43795920051E+03 -0.90019753004E+03  0.11359667675E+04  0.46999998093E+01 0. -1.
       -5    1    3    3    0  502 -0.53687480149E+03  0.43795920051E+03 -0.39298262585E+02  0.69398073260E+03  0.46999998093E+01 0.  1.
</event>
<event>
 5   0  0.1007567E-05  0.3110865E+04  0.7818609E-02  0.8212762E-01
        2   -1    0    0  501    0  0.00000000000E+00  0.00000000000E+00  0.14965352890E+04  0.14965352890E+04  0.25500000920E-02 0. -1.
       -2   -1    0    0    0  501  0.00000000000E+00  0.00000000000E+00 -0.16166477721E+04  0.16166477721E+04  0.25500000920E-02 0.  1.
    10030    2    1    2    0    0  0.00000000000E+00  0.00000000000E+00 -0.12011248312E+03  0.31131830611E+04  0.31108651149E+04 0.  0.
        3    1    3    3  502    0  0.74083138352E+02 -0.12714924159E+04 -0.95357601760E+03  0.15910652113E+04  0.10100000352E+00 0.  1.
       -3    1    3    3    0  502 -0.74083138352E+02  0.12714924159E+04  0.83346353447E+03  0.15221178498E+04  0.10100000352E+00 0. -1.
</event>
<event>
 5   0  0.3838525E-06  0.3110202E+04  0.7818609E-02  0.8212944E-01
       -1   -1    0    0    0  501  0.00000000000E+00  0.00000000000E+00  0.13383806202E+04  0.13383806202E+04  0.50400001928E-02 0.  1.
        1   -1    0    0  501    0  0.00000000000E+00  0.00000000000E+00 -0.18069146560E+04  0.18069146560E+04  0.50400001928E-02 0. -1.
    10030    2    1    2    0    0  0.00000000000E+00  0.00000000000E+00 -0.46853403582E+03  0.31452952762E+04  0.31102022815E+04 0.  0.
        3    1    3    3  502    0  0.12200818079E+04 -0.88889740855E+03 -0.61211539398E+03  0.16289332358E+04  0.10100000352E+00 0. -1.
       -3    1    3    3    0  502 -0.12200818079E+04  0.88889740855E+03  0.14358135816E+03  0.15163620404E+04  0.10100000352E+00 0.  1.
</event>
<event>
 5   0  0.3838525E-06  0.3127150E+04  0.7818609E-02  0.8208326E-01
       -1   -1    0    0    0  501  0.00000000000E+00  0.00000000000E+00  0.10365968969E+04  0.10365968969E+04  0.50400001928E-02 0.  1.
        1   -1    0    0  501    0  0.00000000000E+00  0.00000000000E+00 -0.23584545558E+04  0.23584545558E+04  0.50400001928E-02 0. -1.
    10030    2    1    2    0    0  0.00000000000E+00  0.00000000000E+00 -0.13218576589E+04  0.33950514527E+04  0.31271499318E+04 0.  0.
        3    1    3    3  502    0  0.13930461548E+04 -0.47111371390E+03 -0.12377054706E+04  0.19220927561E+04  0.10100000352E+00 0. -1.
       -3    1    3    3    0  502 -0.13930461548E+04  0.47111371390E+03 -0.84152188305E+02  0.14729586966E+04  0.10100000352E+00 0.  1.
</event>
<event>
 5   0  0.3807334E-06  0.2934542E+04  0.7818609E-02  0.8262674E-01
        1   -1    0    0  501    0  0.00000000000E+00  0.00000000000E+00  0.18198618976E+04  0.18198618976E+04  0.50400001928E-02 0.  1.
       -1   -1    0    0    0  501  0.00000000000E+00  0.00000000000E+00 -0.11829932801E+04  0.11829932801E+04  0.50400001928E-02 0. -1.
    10030    2    1    2    0    0  0.00000000000E+00  0.00000000000E+00  0.63686861756E+03  0.30028551777E+04  0.29345421418E+04 0.  0.
        4    1    3    3  502    0 -0.10513208682E+04 -0.74014844200E+03 -0.40497939459E+03  0.13480004477E+04  0.12699999809E+01 0. -1.
       -4    1    3    3    0  502  0.10513208682E+04  0.74014844200E+03  0.10418480122E+04  0.16548547300E+04  0.12699999809E+01 0.  1.
</event>
<event>
 5   0  0.9797278E-06  0.3143297E+04  0.7818609E-02  0.8203955E-01
       -2   -1    0    0    0  501  0.00000000000E+00  0.00000000000E+00  0.95832216762E+03  0.95832216762E+03  0.25500000920E-02 0. -1.
        2   -1    0    0  501    0  0.00000000000E+00  0.00000000000E+00 -0.25775043744E+04  0.25775043744E+04  0.25500000920E-02 0.  1.
    10030    2    1    2    0    0  0.00000000000E+00  0.00000000000E+00 -0.16191822068E+04  0.35358265420E+04  0.31432973637E+04 0.  0.
        1    1    3    3  502    0  0.10344507785E+04 -0.89513520826E+03 -0.16799910630E+04  0.21665007330E+04  0.50400001928E-02 0. -1.
       -1    1    3    3    0  502 -0.10344507785E+04  0.89513520826E+03  0.60808856227E+02  0.13693258090E+04  0.50400001928E-02 0.  1.
</event>
<event>
 5   0  0.1001961E-05  0.2949079E+04  0.7818609E-02  0.8258423E-01
       -2   -1    0    0    0  501  0.00000000000E+00  0.00000000000E+00  0.11417383077E+04  0.11417383077E+04  0.25500000920E-02 0. -1.
        2   -1    0    0  501    0  0.00000000000E+00  0.00000000000E+00 -0.19043473427E+04  0.19043473427E+04  0.25500000920E-02 0.  1.
    10030    2    1    2    0    0  0.00000000000E+00  0.00000000000E+00 -0.76260903497E+03  0.30460856505E+04  0.29490787120E+04 0.  0.
        5    1    3    3  502    0  0.28492872161E+03 -0.90951475142E+03  0.78080117371E+03  0.12321014659E+04  0.46999998093E+01 0. -1.
       -5    1    3    3    0  502 -0.28492872161E+03  0.90951475142E+03 -0.15434102087E+04  0.18139841845E+04  0.46999998093E+01 0.  1.
</event>
<event>
 5   0  0.1119100E-05  0.3144708E+04  0.7818609E-02  0.8203574E-01
       -2   -1    0    0    0  501  0.00000000000E+00  0.00000000000E+00  0.14226046342E+04  0.14226046342E+04  0.25500000920E-02 0.  1.
        2   -1    0    0  501    0  0.00000000000E+00  0.00000000000E+00 -0.17378671516E+04  0.17378671516E+04  0.25500000920E-02 0. -1.
    10030    2    1    2    0    0  0.00000000000E+00  0.00000000000E+00 -0.31526251741E+03  0.31604717859E+04  0.31447084848E+04 0.  0.
        2    1    3    3  502    0 -0.13556381484E+04 -0.30726976691E+03  0.58098696309E+03  0.15065574500E+04  0.25500000920E-02 0.  1.
       -2    1    3    3    0  502  0.13556381484E+04  0.30726976691E+03 -0.89624948050E+03  0.16539143358E+04  0.25500000920E-02 0. -1.
</event>
<event>
 5   0  0.1007567E-05  0.3060211E+04  0.7818609E-02  0.8226743E-01
        2   -1    0    0  501    0  0.00000000000E+00  0.00000000000E+00  0.10087241254E+04  0.10087241254E+04  0.25500000920E-02 0. -1.
       -2   -1    0    0    0  501  0.00000000000E+00  0.00000000000E+00 -0.23209742378E+04  0.23209742378E+04  0.25500000920E-02 0.  1.
    10030    2    1    2    0    0  0.00000000000E+00  0.00000000000E+00 -0.13122501124E+04  0.33296983633E+04  0.30602109131E+04 0.  0.
        3    1    3    3  502    0  0.99182388241E+03 -0.35668873629E+03  0.55073171684E+03  0.11892211327E+04  0.10100000352E+00 0. -1.
       -3    1    3    3    0  502 -0.99182388241E+03  0.35668873629E+03 -0.18629818292E+04  0.21404772306E+04  0.10100000352E+00 0.  1.
</event>
<event>
 5   0  0.3848286E-06  0.3077526E+04  0.7818609E-02  0.8221933E-01
        1   -1    0    0  501    0  0.00000000000E+00  0.00000000000E+00  0.95603907366E+03  0.95603907368E+03  0.50400001928E-02 0. -1.
       -1   -1    0    0    0  501  0.00000000000E+00  0.00000000000E+00 -0.24766688570E+04  0.24766688570E+04  0.50400001928E-02 0.  1.
    10030    2    1    2    0    0  0.00000000000E+00  0.00000000000E+00 -0.15206297833E+04  0.34327079307E+04  0.30775264092E+04 0.  0.
        2    1    3    3  502    0 -0.14605811420E+04 -0.48284669795E+03 -0.80135829893E+03  0.17345354794E+04  0.25500000920E-02 0.  1.
       -2    1    3    3    0  502  0.14605811420E+04  0.48284669795E+03 -0.71927148440E+03  0.16981724513E+04  0.25500000920E-02 0. -1.
</event>
<event>
 5   0  0.4250961E-06  0.2062592E+04  0.7818609E-02  0.8577903E-01
        1   -1    0    0  501    0  0.00000000000E+00  0.00000000000E+00  0.23475639469E+04  0.23475639469E+04  0.50400001928E-02 0.  1.
       -1   -1    0    0    0  501  0.00000000000E+00  0.00000000000E+00 -0.45305307425E+03  0.45305307428E+03  0.50400001928E-02 0. -1.
    10030    2    1    2    0    0  0.00000000000E+00  0.00000000000E+00  0.18945108726E+04  0.28006170211E+04  0.20625916350E+04 0.  0.
        1    1    3    3  502    0  0.28989644745E+03 -0.55284428619E+03  0.20618999070E+04  0.21543230912E+04  0.50400001928E-02 0.  1.
       -1    1    3    3    0  502 -0.28989644745E+03  0.55284428619E+03 -0.16738903434E+03  0.64629392993E+03  0.50400001928E-02 0. -1.
</event>
<event>
 5   0  0.1007567E-05  0.3122597E+04  0.7818609E-02  0.8209564E-01
        2   -1    0    0  501    0  0.00000000000E+00  0.00000000000E+00  0.25142152011E+04  0.25142152011E+04  0.25500000920E-02 0.  1.
       -2   -1    0    0    0  501  0.00000000000E+00  0.00000000000E+00 -0.96954847717E+03  0.96954847717E+03  0.25500000920E-02 0. -1.
    10030    2    1    2    0    0  0.00000000000E+00  0.00000000000E+00  0.15446667239E+04  0.34837636782E+04  0.31225973288E+04 0.  0.
        3    1    3    3  502    0 -0.47261736915E+03 -0.14295473685E+04  0.12332526163E+04  0.19462489261E+04  0.10100000352E+00 0.  1.
       -3    1    3    3    0  502  0.47261736915E+03  0.14295473685E+04  0.31141410759E+03  0.15375147522E+04  0.10100000352E+00 0. -1.
</event>
<event>
 5   0  0.1001961E-05  0.1796501E+04  0.7818609E-02  0.8708163E-01
       -2   -1    0    0    0  501  0.00000000000E+00  0.00000000000E+00  0.13178686233E+04  0.13178686233E+04  0.25500000920E-02 0. -1.
        2   -1    0    0  501    0  0.00000000000E+00  0.00000000000E+00 -0.61224130090E+03  0.61224130091E+03  0.25500000920E-02 0.  1.
    10030    2    1    2    0    0  0.00000000000E+00  0.00000000000E+00  0.70562732236E+03  0.19301099242E+04  0.17965005988E+04 0.  0.
        5    1    3    3  502    0  0.43942333098E+03  0.62365530919E+03 -0.15657090379E+03  0.77882947196E+03  0.46999998093E+01 0.  1.
       -5    1    3    3    0  502 -0.43942333098E+03 -0.62365530919E+03  0.86219822615E+03  0.11512804522E+04  0.46999998093E+01 0. -1.
</event>
<event>
 5   0  0.3838525E-06  0.3116414E+04  0.7818609E-02  0.8211248E-01
        1   -1    0    0  501    0  0.00000000000E+00  0.00000000000E+00  0.16944203342E+04  0.16944203342E+04  0.50400001928E-02 0.  1.
       -1   -1    0    0    0  501  0.00000000000E+00  0.00000000000E+00 -0.14329435124E+04  0.14329435124E+04  0.50400001928E-02 0. -1.
    10030    2    1    2    0    0  0.00000000000E+00  0.00000000000E+00  0.26147682179E+03  0.31273638466E+04  0.31164137243E+04 0.  0.
        3    1    3    3  502    0  0.61762017666E+03 -0.13454106406E+04 -0.35720472441E+03  0.15228853207E+04  0.10100000352E+00 0. -1.
       -3    1    3    3    0  502 -0.61762017666E+03  0.13454106406E+04  0.61868154620E+03  0.16044785260E+04  0.10100000352E+00 0.  1.
</event>
<event>
 5   0  0.3848286E-06  0.3074852E+04  0.7818609E-02  0.8222674E-01
       -1   -1    0    0    0  501  0.00000000000E+00  0.00000000000E+00  0.83662693567E+03  0.83662693569E+03  0.50400001928E-02 0.  1.
        1   -1    0    0  501    0  0.00000000000E+00  0.00000000000E+00 -0.28252487408E+04  0.28252487408E+04  0.50400001928E-02 0. -1.
    10030    2    1    2    0    0  0.00000000000E+00  0.00000000000E+00 -0.19886218051E+04  0.36618756765E+04  0.30748523194E+04 0.  0.
        2    1    3    3  502    0  0.14331558663E+04 -0.54698320562E+03 -0.11166495991E+04  0.18973752111E+04  0.25500000920E-02 0.  1.
       -2    1    3    3    0  502 -0.14331558663E+04  0.54698320562E+03 -0.87197220597E+03  0.17645004654E+04  0.25500000920E-02 0. -1.
</event>
<event>
 5   0  0.3848286E-06  0.3093561E+04  0.7818609E-02  0.8217507E-01
       -1   -1    0    0    0  501  0.00000000000E+00  0.00000000000E+00  0.96587451484E+03  0.96587451485E+03  0.50400001928E-02 0. -1.
        1   -1    0    0  501    0  0.00000000000E+00  0.00000000000E+00 -0.24770615772E+04  0.24770615772E+04  0.50400001928E-02 0.  1.
    10030    2    1    2    0    0  0.00000000000E+00  0.00000000000E+00 -0.15111870624E+04  0.34429360921E+04  0.30935614745E+04 0.  0.
        2    1    3    3  502    0  0.11886712005E+04 -0.11399914317E+03 -0.18497832318E+04  0.22017340966E+04  0.25500000920E-02 0.  1.
       -2    1    3    3    0  502 -0.11886712005E+04  0.11399914317E+03  0.33859616947E+03  0.12412019954E+04  0.25500000920E-02 0. -1.
</event>
<event>
 5   0  0.1108153E-05  0.2997339E+04  0.7818609E-02  0.8244491E-01
        2   -1    0    0  501    0  0.00000000000E+00  0.00000000000E+00  0.14397214727E+04  0.14397214727E+04  0.25500000920E-02 0. -1.
       -2   -1    0    0    0  501  0.00000000000E+00  0.00000000000E+00 -0.15600315149E+04  0.15600315149E+04  0.25500000920E-02 0.  1.
    10030    2    1    2    0    0  0.00000000000E+00  0.00000000000E+00 -0.12031004212E+03  0.29997529876E+04  0.29973394003E+04 0.  0.
        4    1    3    3  502    0 -0.58928605233E+03 -0.66633886964E+03  0.11469437756E+04  0.14514638053E+04  0.12699999809E+01 0. -1.
       -4    1    3    3    0  502  0.58928605233E+03  0.66633886964E+03 -0.12672538177E+04  0.15482891823E+04  0.12699999809E+01 0.  1.
</event>
<event>
 5   0  0.4139628E-06  0.2130034E+04  0.7818609E-02  0.8548127E-01
        1   -1    0    0  501    0  0.00000000000E+00  0.00000000000E+00  0.16953645140E+04  0.16953645140E+04  0.50400001928E-02 0. -1.
       -1   -1    0    0    0  501  0.00000000000E+00  0.00000000000E+00 -0.66903661145E+03  0.66903661147E+03  0.50400001928E-02 0.  1.
    10030    2    1    2    0    0  0.00000000000E+00  0.00000000000E+00  0.10263279026E+04  0.23644011255E+04  0.21300337365E+04 0.  0.
        5    1    3    3  502    0 -0.69055136134E+03 -0.76264688907E+03  0.20765883900E+03  0.10495883686E+04  0.46999998093E+01 0.  1.
       -5    1    3    3    0  502  0.69055136134E+03  0.76264688907E+03  0.81866906358E+03  0.13148127569E+04  0.46999998093E+01 0. -1.
</event>
<event>
 5   0  0.1001961E-05  0.3058061E+04  0.7818609E-02  0.8227343E-01
       -2   -1    0    0    0  501  0.00000000000E+00  0.00000000000E+00  0.13932972109E+04  0.13932972109E+04  0.25500000920E-02 0. -1.
        2   -1    0    0  501    0  0.00000000000E+00  0.00000000000E+00 -0.16779865847E+04  0.16779865847E+04  0.25500000920E-02 0.  1.
    10030    2    1    2    0    0  0.00000000000E+00  0.00000000000E+00 -0.28468937378E+03  0.30712837955E+04  0.30580608420E+04 0.  0.
        5    1    3    3  502    0 -0.68622892383E+03  0.84838608251E+03  0.93338092270E+03  0.14359286604E+04  0.46999998093E+01 0. -1.
       -5    1    3    3    0  502  0.68622892383E+03 -0.84838608251E+03 -0.12180702965E+04  0.16353551351E+04  0.46999998093E+01 0.  1.
</event>
<event>
 5   0  0.3848286E-06  0.3102141E+04  0.7818609E-02  0.8215151E-01
       -1   -1    0    0    0  501  0.00000000000E+00  0.00000000000E+00  0.12493242953E+04  0.12493242953E+04  0.50400001928E-02 0. -1.
        1   -1    0    0  501    0  0.00000000000E+00  0.00000000000E+00 -0.19256970068E+04  0.19256970068E+04  0.50400001928E-02 0.  1.
    10030    2    1    2    0    0  0.00000000000E+00  0.00000000000E+00 -0.67637271153E+03  0.31750213021E+04  0.31021412321E+04 0.  0.
        2    1    3    3  502    0 -0.52789338956E+03 -0.14351450381E+04 -0.72260484229E+02  0.15308606366E+04  0.25500000920E-02 0.  1.
       -2    1    3    3    0  502  0.52789338956E+03  0.14351450381E+04 -0.60411222730E+03  0.16441606656E+04  0.25500000920E-02 0. -1.
</event>
<event>
 5   0  0.9797278E-06  0.2506278E+04  0.7818609E-02  0.8400752E-01
       -2   -1    0    0    0  501  0.00000000000E+00  0.00000000000E+00  0.14917045156E+04  0.14917045156E+04  0.25500000920E-02 0. -1.
        2   -1    0    0  501    0  0.00000000000E+00  0.00000000000E+00 -0.10527271682E+04  0.10527271682E+04  0.25500000920E-02 0.  1.
    10030    2    1    2    0    0  0.00000000000E+00  0.00000000000E+00  0.43897734733E+03  0.25444316838E+04  0.25062784127E+04 0.  0.
        1    1    3    3  502    0  0.81082785495E+03 -0.48565461718E+03  0.10548486541E+04  0.14163360832E+04  0.50400001928E-02 0. -1.
       -1    1    3    3    0  502 -0.81082785495E+03  0.48565461718E+03 -0.61587130676E+03  0.11280956006E+04  0.50400001928E-02 0.  1.
</event>
<event>
 5   0  0.4139628E-06  0.2727884E+04  0.7818609E-02  0.8326014E-01
       -1   -1    0    0    0  501  0.00000000000E+00  0.00000000000E+00  0.81092539562E+03  0.81092539564E+03  0.50400001928E-02 0. -1.
        1   -1    0    0  501    0  0.00000000000E+00  0.00000000000E+00 -0.22940927888E+04  0.22940927888E+04  0.50400001928E-02 0.  1.
    10030    2    1    2    0    0  0.00000000000E+00  0.00000000000E+00 -0.14831673932E+04  0.31050181845E+04  0.27278842368E+04 0.  0.
        5    1    3    3  502    0  0.12784721589E+04  0.37866097367E+03 -0.41476314484E+03  0.13963974185E+04  0.46999998093E+01 0. -1.
       -5    1    3    3    0  502 -0.12784721589E+04 -0.37866097367E+03 -0.10684042483E+04  0.17086207660E+04  0.46999998093E+01 0.  1.
</event>
<event>
 5   0  0.3848286E-06  0.3010785E+04  0.7818609E-02  0.8240658E-01
        1   -1    0    0  501    0  0.00000000000E+00  0.00000000000E+00  0.17546178938E+04  0.17546178938E+04  0.50400001928E-02 0. -1.
       -1   -1    0    0    0  501  0.00000000000E+00  0.00000000000E+00 -0.12915666959E+04  0.12915666959E+04  0.50400001928E-02 0.  1.
    10030    2    1    2    0    0  0.00000000000E+00  0.00000000000E+00  0.46305119791E+03  0.30461845898E+04  0.30107846391E+04 0.  0.
        2    1    3    3  502    0  0.11367948306E+04 -0.13681239355E+03 -0.75730177522E+03  0.13727804255E+04  0.25500000920E-02 0.  1.
       -2    1    3    3    0  502 -0.11367948306E+04  0.13681239355E+03  0.12203529731E+04  0.16734041643E+04  0.25500000920E-02 0. -1.
</event>
<event>
 5   0  0.1119100E-05  0.3058483E+04  0.7818609E-02  0.8227225E-01
       -2   -1    0    0    0  501  0.00000000000E+00  0.00000000000E+00  0.14028287498E+04  0.14028287498E+04  0.25500000920E-02 0. -1.
        2   -1    0    0  501    0  0.00000000000E+00  0.00000000000E+00 -0.16670461406E+04  0.16670461406E+04  0.25500000920E-02 0.  1.
    10030    2    1    2    0    0  0.00000000000E+00  0.00000000000E+00 -0.26421739089E+03  0.30698748904E+04  0.30584834499E+04 0.  0.
        2    1    3    3  502    0  0.66967367892E+03  0.26657937402E+03 -0.14858547406E+04  0.16514513947E+04  0.25500000920E-02 0.  1.
       -2    1    3    3    0  502 -0.66967367892E+03 -0.26657937402E+03  0.12216373497E+04  0.14184234957E+04  0.25500000920E-02 0. -1.
</event>
<event>
 5   0  0.1119100E-05  0.2558572E+04  0.7818609E-02  0.8382411E-01
       -2   -1    0    0    0  501  0.00000000000E+00  0.00000000000E+00  0.74609685944E+03  0.74609685945E+03  0.25500000920E-02 0.  1.
        2   -1    0    0  501    0  0.00000000000E+00  0.00000000000E+00 -0.21935122038E+04  0.21935122038E+04  0.25500000920E-02 0. -1.
    10030    2    1    2    0    0  0.00000000000E+00  0.00000000000E+00 -0.14474153444E+04  0.29396090633E+04  0.25585719192E+04 0.  0.
        2    1    3    3  502    0  0.87511415632E+03  0.28428931207E+03  0.29743289209E+03  0.96701164670E+03  0.25500000920E-02 0.  1.
       -2    1    3    3    0  502 -0.87511415632E+03 -0.28428931207E+03 -0.17448482365E+04  0.19725974166E+04  0.25500000920E-02 0. -1.
</event>
<event>
 5   0  0.1108153E-05  0.2596525E+04  0.7818609E-02  0.8369383E-01
        2   -1    0    0  501    0  0.00000000000E+00  0.00000000000E+00  0.21424668032E+04  0.21424668032E+04  0.25500000920E-02 0. -1.
       -2   -1    0    0    0  501  0.00000000000E+00  0.00000000000E+00 -0.78670303075E+03  0.78670303076E+03  0.25500000920E-02 0.  1.
    10030    2    1    2    0    0  0.00000000000E+00  0.00000000000E+00  0.13557637725E+04  0.29291698340E+04  0.25965246984E+04 0.  0.
        4    1    3    3  502    0 -0.41886151027E+03 -0.10268076016E+04 -0.83660092906E+02  0.11121058581E+04  0.12699999809E+01 0.  1.
       -4    1    3    3    0  502  0.41886151027E+03  0.10268076016E+04  0.14394238654E+04  0.18170639759E+04  0.12699999809E+01 0. -1.
</event>
<event>
 5   0  0.1119100E-05  0.2128666E+04  0.7818609E-02  0.8548720E-01
       -2   -1    0    0    0  501  0.00000000000E+00  0.00000000000E+00  0.10627905427E+04  0.10627905427E+04  0.25500000920E-02 0.  1.
        2   -1    0    0  501    0  0.00000000000E+00  0.00000000000E+00 -0.10658776671E+04  0.10658776671E+04  0.25500000920E-02 0. -1.
    10030    2    1    2    0    0  0.00000000000E+00  0.00000000000E+00 -0.30871243801E+01  0.21286682097E+04  0.21286659712E+04 0.  0.
        2    1    3    3  502    0  0.73650308336E+03  0.61022371925E+03  0.46535619511E+03  0.10636569784E+04  0.25500000920E-02 0. -1.
       -2    1    3    3    0  502 -0.73650308336E+03 -0.61022371925E+03 -0.46844331949E+03  0.10650112314E+04  0.25500000920E-02 0.  1.
</event>
<event>
 5   0  0.1119100E-05  0.2025149E+04  0.7818609E-02  0.8594952E-01
        2   -1    0    0  501    0  0.00000000000E+00  0.00000000000E+00  0.19893501204E+04  0.19893501204E+04  0.25500000920E-02 0.  1.
       -2   -1    0    0    0  501  0.00000000000E+00  0.00000000000E+00 -0.51539803731E+03  0.51539803731E+03  0.25500000920E-02 0. -1.
    10030    2    1    2    0    0  0.00000000000E+00  0.00000000000E+00  0.14739520831E+04  0.25047481577E+04  0.20251490291E+04 0.  0.
        2    1    3    3  502    0 -0.91215304406E+03  0.17107417063E+03  0.23607457412E+03  0.95761200504E+03  0.25500000920E-02 0.  1.
       -2    1    3    3    0  502  0.91215304406E+03 -0.17107417063E+03  0.12378775089E+04  0.15471361526E+04  0.25500000920E-02 0. -1.
</event>
<event>
 5   0  0.1007567E-05  0.3075997E+04  0.7818609E-02  0.8222356E-01
       -2   -1    0    0    0  501  0.00000000000E+00  0.00000000000E+00  0.11860924038E+04  0.11860924038E+04  0.25500000920E-02 0. -1.
        2   -1    0    0  501    0  0.00000000000E+00  0.00000000000E+00 -0.19943128189E+04  0.19943128189E+04  0.25500000920E-02 0.  1.
    10030    2    1    2    0    0  0.00000000000E+00  0.00000000000E+00 -0.80822041510E+03  0.31804052228E+04  0.30759969346E+04 0.  0.
        3    1    3    3  502    0 -0.32460252743E+03  0.15013218373E+04 -0.32332217116E+03  0.15696723532E+04  0.10100000352E+00 0. -1.
       -3    1    3    3    0  502  0.32460252743E+03 -0.15013218373E+04 -0.48489824394E+03  0.16107328696E+04  0.10100000352E+00 0.  1.
</event>
<event>
 5   0  0.3807334E-06  0.3100824E+04  0.7818609E-02  0.8215512E-01
        1   -1    0    0  501    0  0.00000000000E+00  0.00000000000E+00  0.27635157074E+04  0.27635157074E+04  0.50400001928E-02 0. -1.
       -1   -1    0    0    0  501  0.00000000000E+00  0.00000000000E+00 -0.86982595808E+03  0.86982595809E+03  0.50400001928E-02 0.  1.
    10030    2    1    2    0    0  0.00000000000E+00  0.00000000000E+00  0.18936897493E+04  0.36333416655E+04  0.31008242116E+04 0.  0.
        4    1    3    3  502    0 -0.94359240777E+03 -0.27572170034E+02 -0.49426869598E+03  0.10655655838E+04  0.12699999809E+01 0.  1.
       -4    1    3    3    0  502  0.94359240777E+03  0.27572170034E+02  0.23879584453E+04  0.25677760817E+04  0.12699999809E+01 0. -1.
</event>
<event>
 5   0  0.4250961E-06  0.3044811E+04  0.7818609E-02  0.8231049E-01
        1   -1    0    0  501    0  0.00000000000E+00  0.00000000000E+00  0.12681176000E+04  0.12681176000E+04  0.50400001928E-02 0. -1.
       -1   -1    0    0    0  501  0.00000000000E+00  0.00000000000E+00 -0.18276843253E+04  0.18276843253E+04  0.50400001928E-02 0.  1.
    10030    2    1    2    0    0  0.00000000000E+00  0.00000000000E+00 -0.55956672533E+03  0.30958019253E+04  0.30448111010E+04 0.  0.
        1    1    3    3  502    0  0.45059679575E+03 -0.14463331199E+04 -0.12625226019E+03  0.15201501897E+04  0.50400001928E-02 0. -1.
       -1    1    3    3    0  502 -0.45059679575E+03  0.14463331199E+04 -0.43331446514E+03  0.15756517356E+04  0.50400001928E-02 0.  1.
</event>
<event>
 5   0  0.3838525E-06  0.3135160E+04  0.7818609E-02  0.8206154E-01
       -1   -1    0    0    0  501  0.00000000000E+00  0.00000000000E+00  0.14844389094E+04  0.14844389094E+04  0.50400001928E-02 0. -1.
        1   -1    0    0  501    0  0.00000000000E+00  0.00000000000E+00 -0.16553775535E+04  0.16553775535E+04  0.50400001928E-02 0.  1.
    10030    2    1    2    0    0  0.00000000000E+00  0.00000000000E+00 -0.17093864404E+03  0.31398164629E+04  0.31351598684E+04 0.  0.
        3    1    3    3  502    0 -0.13141656341E+04 -0.18850926854E+02 -0.94109193304E+03  0.16164902437E+04  0.10100000352E+00 0.  1.
       -3    1    3    3    0  502  0.13141656341E+04  0.18850926854E+02  0.77015328900E+03  0.15233262192E+04  0.10100000352E+00 0. -1.
</event>
<event>
 5   0  0.3848286E-06  0.2807941E+04  0.7818609E-02  0.8300807E-01
        1   -1    0    0  501    0  0.00000000000E+00  0.00000000000E+00  0.16450540652E+04  0.16450540652E+04  0.50400001928E-02 0.  1.
       -1   -1    0    0    0  501  0.00000000000E+00  0.00000000000E+00 -0.11982181569E+04  0.11982181569E+04  0.50400001928E-02 0. -1.
    10030    2    1    2    0    0  0.00000000000E+00  0.00000000000E+00  0.44683590830E+03  0.28432722222E+04  0.28079413456E+04 0.  0.
        2    1    3    3  502    0  0.13715265670E+04 -0.80606863878E+02  0.51610694794E+03  0.14676338004E+04  0.25500000920E-02 0. -1.
       -2    1    3    3    0  502 -0.13715265670E+04  0.80606863878E+02 -0.69271039636E+02  0.13756384218E+04  0.25500000920E-02 0.  1.
</event>
<event>
 5   0  0.4250961E-06  0.3132745E+04  0.7818609E-02  0.8206808E-01
        1   -1    0    0  501    0  0.00000000000E+00  0.00000000000E+00  0.11734609788E+04  0.11734609788E+04  0.50400001928E-02 0.  1.
       -1   -1    0    0    0  501  0.00000000000E+00  0.00000000000E+00 -0.20908437371E+04  0.20908437371E+04  0.50400001928E-02 0. -1.
    10030    2    1    2    0    0  0.00000000000E+00  0.00000000000E+00 -0.91738275825E+03  0.32643047159E+04  0.31327454657E+04 0.  0.
        1    1    3    3  502    0 -0.75753835755E+03  0.13611994855E+04 -0.28812494768E+03  0.15842172793E+04  0.50400001928E-02 0.  1.
       -1    1    3    3    0  502  0.75753835755E+03 -0.13611994855E+04 -0.62925781058E+03  0.16800874366E+04  0.50400001928E-02 0. -1.
</event>
<event>
 5   0  0.1108153E-05  0.3153498E+04  0.7818609E-02  0.8201207E-01
        2   -1    0    0  501    0  0.00000000000E+00  0.00000000000E+00  0.15040814366E+04  0.15040814366E+04  0.25500000920E-02 0.  1.
       -2   -1    0    0    0  501  0.00000000000E+00  0.00000000000E+00 -0.16529272345E+04  0.16529272345E+04  0.25500000920E-02 0. -1.
    10030    2    1    2    0    0  0.00000000000E+00  0.00000000000E+00 -0.14884579793E+03  0.31570086711E+04  0.31534978481E+04 0.  0.
        4    1    3    3  502    0  0.15890712774E+02  0.62855875841E+03  0.13731457294E+04  0.15102547582E+04  0.12699999809E+01 0.  1.
       -4    1    3    3    0  502 -0.15890712774E+02 -0.62855875841E+03 -0.15219915274E+04  0.16467539129E+04  0.12699999809E+01 0. -1.
</event>
<event>
 5   0  0.1108153E-05  0.3197567E+04  0.7818609E-02  0.8189460E-01
       -2   -1    0    0    0  501  0.00000000000E+00  0.00000000000E+00  0.34380294404E+04  0.34380294404E+04  0.25500000920E-02 0. -1.
        2   -1    0    0  501    0  0.00000000000E+00  0.00000000000E+00 -0.74348082545E+03  0.74348082545E+03  0.25500000920E-02 0.  1.
    10030    2    1    2    0    0  0.00000000000E+00  0.00000000000E+00  0.26945486150E+04  0.41815102659E+04  0.31975671792E+04 0.  0.
        4    1    3    3  502    0 -0.51148258810E+03  0.11354165865E+04  0.36082875509E+02  0.12458285795E+04  0.12699999809E+01 0.  1.
       -4    1    3    3    0  502  0.51148258810E+03 -0.11354165865E+04  0.26584657395E+04  0.29356816864E+04  0.12699999809E+01 0. -1.
</event>
<event>
 5   0  0.1119100E-05  0.3035175E+04  0.7818609E-02  0.8233757E-01
        2   -1    0    0  501    0  0.00000000000E+00  0.00000000000E+00  0.17620325834E+04  0.17620325835E+04  0.25500000920E-02 0.  1.
       -2   -1    0    0    0  501  0.00000000000E+00  0.00000000000E+00 -0.13070540986E+04  0.13070540986E+04  0.25500000920E-02 0. -1.
    10030    2    1    2    0    0  0.00000000000E+00  0.00000000000E+00  0.45497848486E+03  0.30690866820E+04  0.30351750592E+04 0.  0.
        2    1    3    3  502    0 -0.38586656347E+03 -0.36097670789E+02 -0.12561725206E+04  0.13145970668E+04  0.25500000920E-02 0. -1.
       -2    1    3    3    0  502  0.38586656347E+03  0.36097670789E+02  0.17111510054E+04  0.17544896152E+04  0.25500000920E-02 0.  1.
</event>
<event>
 5   0  0.3493125E-06  0.2974075E+04  0.7818609E-02  0.8251173E-01
       -3   -1    0    0    0  501  0.00000000000E+00  0.00000000000E+00  0.14327120368E+04  0.14327120403E+04  0.10100000352E+00 0. -1.
        3   -1    0    0  501    0  0.00000000000E+00  0.00000000000E+00 -0.15434224793E+04  0.15434224826E+04  0.10100000352E+00 0.  1.
    10030    2    1    2    0    0  0.00000000000E+00  0.00000000000E+00 -0.11071044256E+03  0.29761345230E+04  0.29740746286E+04 0.  0.
        2    1    3    3  502    0 -0.57718732060E+03 -0.95019416228E+03 -0.10435946984E+04  0.15248291851E+04  0.25500000920E-02 0.  1.
       -2    1    3    3    0  502  0.57718732060E+03  0.95019416228E+03  0.93288425582E+03  0.14513053379E+04  0.25500000920E-02 0. -1.
</event>
<event>
 5   0  0.3807334E-06  0.3015672E+04  0.7818609E-02  0.8239270E-01
        1   -1    0    0  501    0  0.00000000000E+00  0.00000000000E+00  0.14972780382E+04  0.14972780382E+04  0.50400001928E-02 0. -1.
       -1   -1    0    0    0  501  0.00000000000E+00  0.00000000000E+00 -0.15184687756E+04  0.15184687756E+04  0.50400001928E-02 0.  1.
    10030    2    1    2    0    0  0.00000000000E+00  0.00000000000E+00 -0.21190737431E+02  0.30157468138E+04  0.30156723624E+04 0.  0.
        4    1    3    3  502    0 -0.14511999687E+03  0.14949368929E+04 -0.14353551208E+03  0.15088075369E+04  0.12699999809E+01 0. -1.
       -4    1    3    3    0  502  0.14511999687E+03 -0.14949368929E+04  0.12234477465E+03  0.15069392769E+04  0.12699999809E+01 0.  1.
</event>
<event>
 5   0  0.3838525E-06  0.1589638E+04  0.7818609E-02  0.8826939E-01
       -1   -1    0    0    0  501  0.00000000000E+00  0.00000000000E+00  0.95147535721E+03  0.95147535722E+03  0.50400001928E-02 0. -1.
        1   -1    0    0  501    0  0.00000000000E+00  0.00000000000E+00 -0.66395507811E+03  0.66395507812E+03  0.50400001928E-02 0.  1.
    10030    2    1    2    0    0  0.00000000000E+00  0.00000000000E+00  0.28752027910E+03  0.16154304353E+04  0.15896375626E+04 0.  0.
        3    1    3    3  502    0  0.15927675849E+03  0.73141178349E+03  0.41531228989E+03  0.85604707298E+03  0.10100000352E+00 0.  1.
       -3    1    3    3    0  502 -0.15927675849E+03 -0.73141178349E+03 -0.12779201078E+03  0.75938336237E+03  0.10100000352E+00 0. -1.
</event>
<event>
 5   0  0.3807334E-06  0.3071112E+04  0.7818609E-02  0.8223711E-01
       -1   -1    0    0    0  501  0.00000000000E+00  0.00000000000E+00  0.12773127288E+04  0.12773127288E+04  0.50400001928E-02 0. -1.
        1   -1    0    0  501    0  0.00000000000E+00  0.00000000000E+00 -0.18460100339E+04  0.18460100339E+04  0.50400001928E-02 0.  1.
    10030    2    1    2    0    0  0.00000000000E+00  0.00000000000E+00 -0.56869730505E+03  0.31233227627E+04  0.30711119249E+04 0.  0.
        4    1    3    3  502    0 -0.12443715076E+04  0.89851626666E+03 -0.33137952244E+03  0.15702248028E+04  0.12699999809E+01 0.  1.
       -4    1    3    3    0  502  0.12443715076E+04 -0.89851626666E+03 -0.23731778261E+03  0.15530979600E+04  0.12699999809E+01 0. -1.
</event>
<event>
 5   0  0.3807334E-06  0.3015508E+04  0.7818609E-02  0.8239316E-01
       -1   -1    0    0    0  501  0.00000000000E+00  0.00000000000E+00  0.75301008624E+03  0.75301008626E+03  0.50400001928E-02 0. -1.
        1   -1    0    0  501    0  0.00000000000E+00  0.00000000000E+00 -0.30189791777E+04  0.30189791777E+04  0.50400001928E-02 0.  1.
    10030    2    1    2    0    0  0.00000000000E+00  0.00000000000E+00 -0.22659690915E+04  0.37719892640E+04  0.30155077656E+04 0.  0.
        4    1    3    3  502    0 -0.39327856683E+03 -0.78745071810E+02  0.68505511735E+03  0.79383307073E+03  0.12699999809E+01 0. -1.
       -4    1    3    3    0  502  0.39327856683E+03  0.78745071810E+02 -0.29510242088E+04  0.29781561933E+04  0.12699999809E+01 0.  1.
</event>
<event>
 5   0  0.9797278E-06  0.2043460E+04  0.7818609E-02  0.8586567E-01
       -2   -1    0    0    0  501  0.00000000000E+00  0.00000000000E+00  0.56985600149E+03  0.56985600150E+03  0.25500000920E-02 0.  1.
        2   -1    0    0  501    0  0.00000000000E+00  0.00000000000E+00 -0.18319230664E+04  0.18319230664E+04  0.25500000920E-02 0. -1.
    10030    2    1    2    0    0  0.00000000000E+00  0.00000000000E+00 -0.12620670649E+04  0.24017790679E+04  0.20434601574E+04 0.  0.
        1    1    3    3  502    0 -0.99299780861E+03  0.62737295018E+02 -0.90403790259E+03  0.13443456198E+04  0.50400001928E-02 0. -1.
       -1    1    3    3    0  502  0.99299780861E+03 -0.62737295018E+02 -0.35802916231E+03  0.10574334481E+04  0.50400001928E-02 0.  1.
</event>
<event>
 5   0  0.1119100E-05  0.2425946E+04  0.7818609E-02  0.8429853E-01
       -2   -1    0    0    0  501  0.00000000000E+00  0.00000000000E+00  0.14083948654E+04  0.14083948654E+04  0.25500000920E-02 0. -1.
        2   -1    0    0  501    0  0.00000000000E+00  0.00000000000E+00 -0.10446669767E+04  0.10446669767E+04  0.25500000920E-02 0.  1.
    10030    2    1    2    0    0  0.00000000000E+00  0.00000000000E+00  0.36372788876E+03  0.24530618421E+04  0.24259460885E+04 0.  0.
        2    1    3    3  502    0 -0.89454583294E+03 -0.18728828862E+03 -0.62455522895E+03  0.11069590707E+04  0.25500000920E-02 0.  1.
       -2    1    3    3    0  502  0.89454583294E+03  0.18728828862E+03  0.98828311771E+03  0.13461027714E+04  0.25500000920E-02 0. -1.
</event>
<event>
 5   0  0.1007567E-05  0.1855949E+04  0.7818609E-02  0.8677099E-01
        2   -1    0    0  501    0  0.00000000000E+00  0.00000000000E+00  0.15295867178E+04  0.15295867178E+04  0.25500000920E-02 0. -1.
       -2   -1    0    0    0  501  0.00000000000E+00  0.00000000000E+00 -0.56298656468E+03  0.56298656468E+03  0.25500000920E-02 0.  1.
    10030    2    1    2    0    0  0.00000000000E+00  0.00000000000E+00  0.96660015309E+03  0.20925732825E+04  0.18559491067E+04 0.  0.
        3    1    3    3  502    0  0.70953685961E+03  0.16666398096E+03  0.11309154853E+04  0.13454327493E+04  0.10100000352E+00 0. -1.
       -3    1    3    3    0  502 -0.70953685961E+03 -0.16666398096E+03 -0.16431533223E+03  0.74714053317E+03  0.10100000352E+00 0.  1.
</event>
<event>
 5   0  0.1001961E-05  0.2389128E+04  0.7818609E-02  0.8443585E-01
        2   -1    0    0  501    0  0.00000000000E+00  0.00000000000E+00  0.18126211243E+04  0.18126211243E+04  0.25500000920E-02 0. -1.
       -2   -1    0    0    0  501  0.00000000000E+00  0.00000000000E+00 -0.78724830341E+03  0.78724830341E+03  0.25500000920E-02 0.  1.
    10030    2    1    2    0    0  0.00000000000E+00  0.00000000000E+00  0.10253728209E+04  0.25998694277E+04  0.23891277947E+04 0.  0.
        5    1    3    3  502    0  0.54668969078E+03 -0.76014530732E+03  0.13199218054E+04  0.16183034847E+04  0.46999998093E+01 0. -1.
       -5    1    3    3    0  502 -0.54668969078E+03  0.76014530732E+03 -0.29454898449E+03  0.98156594302E+03  0.46999998093E+01 0.  1.
</event>
<event>
 5   0  0.4139628E-06  0.1700920E+04  0.7818609E-02  0.8760840E-01
       -1   -1    0    0    0  501  0.00000000000E+00  0.00000000000E+00  0.75531684366E+03  0.75531684368E+03  0.50400001928E-02 0. -1.
        1   -1    0    0  501    0  0.00000000000E+00  0.00000000000E+00 -0.95758736949E+03  0.95758736950E+03  0.50400001928E-02 0.  1.
    10030    2    1    2    0    0  0.00000000000E+00  0.00000000000E+00 -0.20227052582E+03  0.17129042132E+04  0.17009195977E+04 0.  0.
        5    1    3    3  502    0  0.43330805024E+03  0.69641362487E+03 -0.32746752935E+03  0.88317884717E+03  0.46999998093E+01 0.  1.
       -5    1    3    3    0  502 -0.43330805024E+03 -0.69641362487E+03  0.12519700353E+03  0.82972536601E+03  0.46999998093E+01 0. -1.
</event>
<event>
 5   0  0.3848286E-06  0.2597144E+04  0.7818609E-02  0.8369172E-01
        1   -1    0    0  501    0  0.00000000000E+00  0.00000000000E+00  0.22605305343E+04  0.22605305343E+04  0.50400001928E-02 0. -1.
       -1   -1    0    0    0  501  0.00000000000E+00  0.00000000000E+00 -0.74597060338E+03  0.74597060339E+03  0.50400001928E-02 0.  1.
    10030    2    1    2    0    0  0.00000000000E+00  0.00000000000E+00  0.15145599310E+04  0.30065011377E+04  0.25971440674E+04 0.  0.
        2    1    3    3  502    0  0.46028807788E+03  0.10650746052E+04  0.82238384855E+02  0.11631905180E+04  0.25500000920E-02 0.  1.
       -2    1    3    3    0  502 -0.46028807788E+03 -0.10650746052E+04  0.14323215461E+04  0.18433106197E+04  0.25500000920E-02 0. -1.
</event>
<event>
 5   0  0.4139628E-06  0.2167142E+04  0.7818609E-02  0.8532230E-01
       -1   -1    0    0    0  501  0.00000000000E+00  0.00000000000E+00  0.98988213657E+03  0.98988213659E+03  0.50400001928E-02 0. -1.
        1   -1    0    0  501    0  0.00000000000E+00  0.00000000000E+00 -0.11861270219E+04  0.11861270219E+04  0.50400001928E-02 0.  1.
    10030    2    1    2    0    0  0.00000000000E+00  0.00000000000E+00 -0.19624488530E+03  0.21760091585E+04  0.21671418511E+04 0.  0.
        5    1    3    3  502    0  0.37061906993E+03 -0.47741643863E+03  0.80490100640E+03  0.10065647873E+04  0.46999998093E+01 0. -1.
       -5    1    3    3    0  502 -0.37061906993E+03  0.47741643863E+03 -0.10011458917E+04  0.11694443712E+04  0.46999998093E+01 0.  1.
</event>
<event>
 5   0  0.1119100E-05  0.3135469E+04  0.7818609E-02  0.8206071E-01
        2   -1    0    0  501    0  0.00000000000E+00  0.00000000000E+00  0.20900005485E+04  0.20900005485E+04  0.25500000920E-02 0.  1.
       -2   -1    0    0    0  501  0.00000000000E+00  0.00000000000E+00 -0.11759768360E+04  0.11759768360E+04  0.25500000920E-02 0. -1.
    10030    2    1    2    0    0  0.00000000000E+00  0.00000000000E+00  0.91402371250E+03  0.32659773844E+04  0.31354694909E+04 0.  0.
        2    1    3    3  502    0 -0.37568809401E+03  0.18503712186E+03 -0.11166362019E+04  0.11925840381E+04  0.25500000920E-02 0. -1.
       -2    1    3    3    0  502  0.37568809401E+03 -0.18503712186E+03  0.20306599144E+04  0.20733933463E+04  0.25500000920E-02 0.  1.
</event>
<event>
 5   0  0.9797278E-06  0.1643080E+04  0.7818609E-02  0.8794511E-01
       -2   -1    0    0    0  501  0.00000000000E+00  0.00000000000E+00  0.66327493842E+03  0.66327493842E+03  0.25500000920E-02 0.  1.
        2   -1    0    0  501    0  0.00000000000E+00  0.00000000000E+00 -0.10175685514E+04  0.10175685515E+04  0.25500000920E-02 0. -1.
    10030    2    1    2    0    0  0.00000000000E+00  0.00000000000E+00 -0.35429361303E+03  0.16808434899E+04  0.16430796917E+04 0.  0.
        1    1    3    3  502    0  0.93314951093E+02  0.79075711507E+03  0.29797539059E+02  0.79680134820E+03  0.50400001928E-02 0.  1.
       -1    1    3    3    0  502 -0.93314951093E+02 -0.79075711507E+03 -0.38409115209E+03  0.88404214168E+03  0.50400001928E-02 0. -1.
</event>
<event>
 5   0  0.9797278E-06  0.3170303E+04  0.7818609E-02  0.8196704E-01
        2   -1    0    0  501    0  0.00000000000E+00  0.00000000000E+00  0.24273351685E+04  0.24273351685E+04  0.25500000920E-02 0. -1.
       -2   -1    0    0    0  501  0.00000000000E+00  0.00000000000E+00 -0.10351702795E+04  0.10351702795E+04  0.25500000920E-02 0.  1.
    10030    2    1    2    0    0  0.00000000000E+00  0.00000000000E+00  0.13921648890E+04  0.34625054481E+04  0.31703029666E+04 0.  0.
        1    1    3    3  502    0 -0.75259810380E+03 -0.49957711593E+03  0.21187233861E+04  0.23032520460E+04  0.50400001928E-02 0. -1.
       -1    1    3    3    0  502  0.75259810380E+03  0.49957711593E+03 -0.72655849707E+03  0.11592534021E+04  0.50400001928E-02 0.  1.
</event>
<event>
 5   0  0.1007567E-05  0.2343710E+04  0.7818609E-02  0.8460884E-01
       -2   -1    0    0    0  501  0.00000000000E+00  0.00000000000E+00  0.90146593657E+03  0.90146593657E+03  0.25500000920E-02 0.  1.
        2   -1    0    0  501    0  0.00000000000E+00  0.00000000000E+00 -0.15233451310E+04  0.15233451310E+04  0.25500000920E-02 0. -1.
    10030    2    1    2    0    0  0.00000000000E+00  0.00000000000E+00 -0.62187919442E+03  0.24248110676E+04  0.23437096622E+04 0.  0.
        3    1    3    3  502    0  0.67460850128E+03  0.77916453429E+03 -0.88795713331E+03  0.13603903419E+04  0.10100000352E+00 0. -1.
       -3    1    3    3    0  502 -0.67460850128E+03 -0.77916453429E+03  0.26607793889E+03  0.10644207257E+04  0.10100000352E+00 0.  1.
</event>
<event>
 5   0  0.3807334E-06  0.3004911E+04  0.7818609E-02  0.8242330E-01
        1   -1    0    0  501    0  0.00000000000E+00  0.00000000000E+00  0.27215866482E+04  0.27215866483E+04  0.50400001928E-02 0. -1.
       -1   -1    0    0    0  501  0.00000000000E+00  0.00000000000E+00 -0.82943276559E+03  0.82943276560E+03  0.50400001928E-02 0.  1.
    10030    2    1    2    0    0  0.00000000000E+00  0.00000000000E+00  0.18921538827E+04  0.35510194139E+04  0.30049114067E+04 0.  0.
        4    1    3    3  502    0 -0.80080455903E+03  0.79100661453E+03  0.21221247115E+04  0.24021645052E+04  0.12699999809E+01 0. -1.
       -4    1    3    3    0  502  0.80080455903E+03 -0.79100661453E+03 -0.22997082889E+03  0.11488549086E+04  0.12699999809E+01 0.  1.
</event>
<event>
 5   0  0.1007567E-05  0.3025999E+04  0.7818609E-02  0.8236345E-01
       -2   -1    0    0    0  501  0.00000000000E+00  0.00000000000E+00  0.13325525307E+04  0.13325525307E+04  0.25500000920E-02 0. -1.
        2   -1    0    0  501    0  0.00000000000E+00  0.00000000000E+00 -0.17178815311E+04  0.17178815311E+04  0.25500000920E-02 0.  1.
    10030    2    1    2    0    0  0.00000000000E+00  0.00000000000E+00 -0.38532900039E+03  0.30504340618E+04  0.30259989305E+04 0.  0.
        3    1    3    3  502    0 -0.10011128444E+04 -0.24418479839E+03 -0.13094525448E+04  0.16662890266E+04  0.10100000352E+00 0.  1.
       -3    1    3    3    0  502  0.10011128444E+04  0.24418479839E+03  0.92412354444E+03  0.13841450352E+04  0.10100000352E+00 0. -1.
</event>
<event>
 5   0  0.3848286E-06  0.3094384E+04  0.7818609E-02  0.8217281E-01
        1   -1    0    0  501    0  0.00000000000E+00  0.00000000000E+00  0.11001507885E+04  0.11001507886E+04  0.50400001928E-02 0.  1.
       -1   -1    0    0    0  501  0.00000000000E+00  0.00000000000E+00 -0.21758868714E+04  0.21758868714E+04  0.50400001928E-02 0. -1.
    10030    2    1    2    0    0  0.00000000000E+00  0.00000000000E+00 -0.10757360829E+04  0.32760376600E+04  0.30943843700E+04 0.  0.
        2    1    3    3  502    0  0.71414090761E+03 -0.74282062110E+03  0.68401782972E+03  0.12367942846E+04  0.25500000920E-02 0.  1.
       -2    1    3    3    0  502 -0.71414090761E+03  0.74282062110E+03 -0.17597539126E+04  0.20392433754E+04  0.25500000920E-02 0. -1.
</event>
<event>
 5   0  0.1001961E-05  0.3035244E+04  0.7818609E-02  0.8233738E-01
       -2   -1    0    0    0  501  0.00000000000E+00  0.00000000000E+00  0.12224191836E+04  0.12224191836E+04  0.25500000920E-02 0.  1.
        2   -1    0    0  501    0  0.00000000000E+00  0.00000000000E+00 -0.18841130083E+04  0.18841130083E+04  0.25500000920E-02 0. -1.
    10030    2    1    2    0    0  0.00000000000E+00  0.00000000000E+00 -0.66169382464E+03  0.31065321919E+04  0.30352435721E+04 0.  0.
        5    1    3    3  502    0 -0.57138068457E+03  0.54526477675E+03 -0.16571865842E+04  0.18357774997E+04  0.46999998093E+01 0. -1.
       -5    1    3    3    0  502  0.57138068457E+03 -0.54526477675E+03  0.99549275956E+03  0.12707546922E+04  0.46999998093E+01 0.  1.
</event>
<event>
 5   0  0.1007567E-05  0.3187831E+04  0.7818609E-02  0.8192038E-01
        2   -1    0    0  501    0  0.00000000000E+00  0.00000000000E+00  0.13834868656E+04  0.13834868656E+04  0.25500000920E-02 0. -1.
       -2   -1    0    0    0  501  0.00000000000E+00  0.00000000000E+00 -0.18363500129E+04  0.18363500129E+04  0.25500000920E-02 0.  1.
    10030    2    1    2    0    0  0.00000000000E+00  0.00000000000E+00 -0.45286314727E+03  0.32198368784E+04  0.31878306877E+04 0.  0.
        3    1    3    3  502    0  0.34557457642E+03 -0.87491707247E+02  0.13427071221E+04  0.13892224490E+04  0.10100000352E+00 0. -1.
       -3    1    3    3    0  502 -0.34557457642E+03  0.87491707247E+02 -0.17955702694E+04  0.18306144295E+04  0.10100000352E+00 0.  1.
</event>
<event>
 5   0  0.3848286E-06  0.2065491E+04  0.7818609E-02  0.8576599E-01
        1   -1    0    0  501    0  0.00000000000E+00  0.00000000000E+00  0.77893535430E+03  0.77893535432E+03  0.50400001928E-02 0. -1.
       -1   -1    0    0    0  501  0.00000000000E+00  0.00000000000E+00 -0.13692576858E+04  0.13692576859E+04  0.50400001928E-02 0.  1.
    10030    2    1    2    0    0  0.00000000000E+00  0.00000000000E+00 -0.59032233155E+03  0.21481930402E+04  0.20654909544E+04 0.  0.
        2    1    3    3  502    0 -0.85767937283E+01  0.10146070012E+04 -0.94937159580E+02  0.10190750672E+04  0.25500000920E-02 0.  1.
       -2    1    3    3    0  502  0.85767937283E+01 -0.10146070012E+04 -0.49538517197E+03  0.11291179730E+04  0.25500000920E-02 0. -1.
</event>
<event>
 5   0  0.3848286E-06  0.3330461E+04  0.7818609E-02  0.8155188E-01
        1   -1    0    0  501    0  0.00000000000E+00  0.00000000000E+00  0.16798019129E+04  0.16798019130E+04  0.50400001928E-02 0.  1.
       -1   -1    0    0    0  501  0.00000000000E+00  0.00000000000E+00 -0.16507852651E+04  0.16507852651E+04  0.50400001928E-02 0. -1.
    10030    2    1    2    0    0  0.00000000000E+00  0.00000000000E+00  0.29016647861E+02  0.33305871780E+04  0.33304607766E+04 0.  0.
        2    1    3    3  502    0 -0.46414483749E+03  0.97476353330E+03  0.12823883987E+04  0.16763395781E+04  0.25500000920E-02 0.  1.
       -2    1    3    3    0  502  0.46414483749E+03 -0.97476353330E+03 -0.12533717508E+04  0.16542475999E+04  0.25500000920E-02 0. -1.
</event>
<event>
 5   0  0.4139628E-06  0.3105153E+04  0.7818609E-02  0.8214325E-01
        1   -1    0    0  501    0  0.00000000000E+00  0.00000000000E+00  0.18382130175E+04  0.18382130175E+04  0.50400001928E-02 0. -1.
       -1   -1    0    0    0  501  0.00000000000E+00  0.00000000000E+00 -0.13113246195E+04  0.13113246195E+04  0.50400001928E-02 0.  1.
    10030    2    1    2    0    0  0.00000000000E+00  0.00000000000E+00  0.52688839800E+03  0.31495376369E+04  0.31051531271E+04 0.  0.
        5    1    3    3  502    0 -0.70045050075E+03 -0.74550695669E+03 -0.92117993569E+03  0.13765922019E+04  0.46999998093E+01 0.  1.
       -5    1    3    3    0  502  0.70045050075E+03  0.74550695669E+03  0.14480683337E+04  0.17729454350E+04  0.46999998093E+01 0. -1.
</event>
<event>
 5   0  0.1119100E-05  0.3097174E+04  0.7818609E-02  0.8216514E-01
        2   -1    0    0  501    0  0.00000000000E+00  0.00000000000E+00  0.86755774379E+03  0.86755774379E+03  0.25500000920E-02 0.  1.
       -2   -1    0    0    0  501  0.00000000000E+00  0.00000000000E+00 -0.27642221283E+04  0.27642221283E+04  0.25500000920E-02 0. -1.
    10030    2    1    2    0    0  0.00000000000E+00  0.00000000000E+00 -0.18966643846E+04  0.36317798721E+04  0.30971743981E+04 0.  0.
        2    1    3    3  502    0  0.10496346223E+04 -0.11243790822E+04 -0.73804169100E+03  0.17060676125E+04  0.25500000920E-02 0.  1.
       -2    1    3    3    0  502 -0.10496346223E+04  0.11243790822E+04 -0.11586226936E+04  0.19257122596E+04  0.25500000920E-02 0. -1.
</event>
<event>
 5   0  0.1119100E-05  0.3175972E+04  0.7818609E-02  0.8195192E-01
        2   -1    0    0  501    0  0.00000000000E+00  0.00000000000E+00  0.17479330805E+04  0.17479330805E+04  0.25500000920E-02 0. -1.
       -2   -1    0    0    0  501  0.00000000000E+00  0.00000000000E+00 -0.14426754974E+04  0.14426754974E+04  0.25500000920E-02 0.  1.
    10030    2    1    2    0    0  0.00000000000E+00  0.00000000000E+00  0.30525758303E+03  0.31906085779E+04  0.31759724346E+04 0.  0.
        2    1    3    3  502    0 -0.17255458146E+03 -0.68079459944E+03 -0.12781691278E+04  0.14584144437E+04  0.25500000920E-02 0.  1.
       -2    1    3    3    0  502  0.17255458146E+03  0.68079459944E+03  0.15834267108E+04  0.17321941343E+04  0.25500000920E-02 0. -1.
</event>
<event>
 5   0  0.3838525E-06  0.2855698E+04  0.7818609E-02  0.8286182E-01
        1   -1    0    0  501    0  0.00000000000E+00  0.00000000000E+00  0.12523043080E+04  0.12523043080E+04  0.50400001928E-02 0.  1.
       -1   -1    0    0    0  501  0.00000000000E+00  0.00000000000E+00 -0.16280015897E+04  0.16280015897E+04  0.50400001928E-02 0. -1.
    10030    2    1    2    0    0  0.00000000000E+00  0.00000000000E+00 -0.37569728177E+03  0.28803058977E+04  0.28556984464E+04 0.  0.
        3    1    3    3  502    0  0.13637814242E+04  0.58481431867E+02  0.23460843227E+03  0.13850490885E+04  0.10100000352E+00 0. -1.
       -3    1    3    3    0  502 -0.13637814242E+04 -0.58481431867E+02 -0.61030571404E+03  0.14952568092E+04  0.10100000352E+00 0.  1.
</event>
<event>
 5   0  0.1108153E-05  0.3082483E+04  0.7818609E-02  0.8220562E-01
        2   -1    0    0  501    0  0.00000000000E+00  0.00000000000E+00  0.24234998589E+04  0.24234998589E+04  0.25500000920E-02 0.  1.
       -2   -1    0    0    0  501  0.00000000000E+00  0.00000000000E+00 -0.98016328906E+03  0.98016328906E+03  0.25500000920E-02 0. -1.
    10030    2    1    2    0    0  0.00000000000E+00  0.00000000000E+00  0.14433365699E+04  0.34036631480E+04  0.30824831502E+04 0.  0.
        4    1    3    3  502    0 -0.14494957476E+04  0.50442784645E+03  0.56575136436E+03  0.16357143986E+04  0.12699999809E+01 0. -1.
       -4    1    3    3    0  502  0.14494957476E+04 -0.50442784645E+03  0.87758520551E+03  0.17679487494E+04  0.12699999809E+01 0.  1.
</event>
<event>
 5   0  0.4250961E-06  0.2997036E+04  0.7818609E-02  0.8244578E-01
       -1   -1    0    0    0  501  0.00000000000E+00  0.00000000000E+00  0.12206315296E+04  0.12206315296E+04  0.50400001928E-02 0. -1.
        1   -1    0    0  501    0  0.00000000000E+00  0.00000000000E+00 -0.18396674942E+04  0.18396674942E+04  0.50400001928E-02 0.  1.
    10030    2    1    2    0    0  0.00000000000E+00  0.00000000000E+00 -0.61903596454E+03  0.30602990238E+04  0.29970359674E+04 0.  0.
        1    1    3    3  502    0  0.62470983439E+03  0.14415888577E+03 -0.16925498449E+04  0.18099085996E+04  0.50400001928E-02 0.  1.
       -1    1    3    3    0  502 -0.62470983439E+03 -0.14415888577E+03  0.10735138804E+04  0.12503904242E+04  0.50400001928E-02 0. -1.
</event>
<event>
 5   0  0.1119100E-05  0.3177291E+04  0.7818609E-02  0.8194840E-01
       -2   -1    0    0    0  501  0.00000000000E+00  0.00000000000E+00  0.14166025417E+04  0.14166025417E+04  0.25500000920E-02 0. -1.
        2   -1    0    0  501    0  0.00000000000E+00  0.00000000000E+00 -0.17815824363E+04  0.17815824363E+04  0.25500000920E-02 0.  1.
    10030    2    1    2    0    0  0.00000000000E+00  0.00000000000E+00 -0.36497989460E+03  0.31981849780E+04  0.31772908004E+04 0.  0.
        2    1    3    3  502    0 -0.12171254064E+04 -0.86586289382E+03 -0.72704799045E+03  0.16612379679E+04  0.25500000920E-02 0. -1.
       -2    1    3    3    0  502  0.12171254064E+04  0.86586289382E+03  0.36206809585E+03  0.15369470101E+04  0.25500000920E-02 0.  1.
</event>
<event>
 5   0  0.3838525E-06  0.2960837E+04  0.7818609E-02  0.8255003E-01
        1   -1    0    0  501    0  0.00000000000E+00  0.00000000000E+00  0.14623351144E+04  0.14623351144E+04  0.50400001928E-02 0.  1.
       -1   -1    0    0    0  501  0.00000000000E+00  0.00000000000E+00 -0.14987256238E+04  0.14987256238E+04  0.50400001928E-02 0. -1.
    10030    2    1    2    0    0  0.00000000000E+00  0.00000000000E+00 -0.36390509393E+02  0.29610607382E+04  0.29608371158E+04 0.  0.
        3    1    3    3  502    0  0.10792409217E+04 -0.10060156377E+04  0.10351301620E+03  0.14790346126E+04  0.10100000352E+00 0.  1.
       -3    1    3    3    0  502 -0.10792409217E+04  0.10060156377E+04 -0.13990352560E+03  0.14820261256E+04  0.10100000352E+00 0. -1.
</event>
<event>
 5   0  0.9797278E-06  0.3134652E+04  0.7818609E-02  0.8206292E-01
        2   -1    0    0  501    0  0.00000000000E+00  0.00000000000E+00  0.31700838008E+04  0.31700838008E+04  0.25500000920E-02 0. -1.
       -2   -1    0    0    0  501  0.00000000000E+00  0.00000000000E+00 -0.77490430060E+03  0.77490430060E+03  0.25500000920E-02 0.  1.
    10030    2    1    2    0    0  0.00000000000E+00  0.00000000000E+00  0.23951795002E+04  0.39449881014E+04  0.31346524978E+04 0.  0.
        1    1    3    3  502    0 -0.14954404952E+04  0.26410510604E+03  0.70949302362E+03  0.16761486009E+04  0.50400001928E-02 0.  1.
       -1    1    3    3    0  502  0.14954404952E+04 -0.26410510604E+03  0.16856864766E+04  0.22688395005E+04  0.50400001928E-02 0. -1.
</event>
<event>
 5   0  0.1001961E-05  0.3191336E+04  0.7818609E-02  0.8191109E-01
        2   -1    0    0  501    0  0.00000000000E+00  0.00000000000E+00  0.16422566663E+04  0.16422566663E+04  0.25500000920E-02 0. -1.
       -2   -1    0    0    0  501  0.00000000000E+00  0.00000000000E+00 -0.15504010864E+04  0.15504010864E+04  0.25500000920E-02 0.  1.
    10030    2    1    2    0    0  0.00000000000E+00  0.00000000000E+00  0.91855579861E+02  0.31926577527E+04  0.31913360961E+04 0.  0.
        5    1    3    3  502    0 -0.30505588787E+03  0.12338319854E+04  0.10110728736E+04  0.16240969518E+04  0.46999998093E+01 0. -1.
       -5    1    3    3    0  502  0.30505588787E+03 -0.12338319854E+04 -0.91921729376E+03  0.15685608009E+04  0.46999998093E+01 0.  1.
</event>
<event>
 5   0  0.4250961E-06  0.2933149E+04  0.7818609E-02  0.8263082E-01
        1   -1    0    0  501    0  0.00000000000E+00  0.00000000000E+00  0.22809800908E+04  0.22809800908E+04  0.50400001928E-02 0. -1.
       -1   -1    0    0    0  501  0.00000000000E+00  0.00000000000E+00 -0.94294600359E+03  0.94294600360E+03  0.50400001928E-02 0.  1.
    10030    2    1    2    0    0  0.00000000000E+00  0.00000000000E+00  0.13380340872E+04  0.32239260944E+04  0.29331492024E+04 0.  0.
        1    1    3    3  502    0  0.26056440318E+03 -0.21303758509E+03  0.22379571475E+04  0.22631241713E+04  0.50400001928E-02 0. -1.
       -1    1    3    3    0  502 -0.26056440318E+03  0.21303758509E+03 -0.89992306030E+03  0.96080192305E+03  0.50400001928E-02 0.  1.
</event>
<event>
 5   0  0.3807334E-06  0.3145600E+04  0.7818609E-02  0.8203334E-01
       -1   -1    0    0    0  501  0.00000000000E+00  0.00000000000E+00  0.18846545821E+04  0.18846545821E+04  0.50400001928E-02 0.  1.
        1   -1    0    0  501    0  0.00000000000E+00  0.00000000000E+00 -0.13125485410E+04  0.13125485410E+04  0.50400001928E-02 0. -1.
    10030    2    1    2    0    0  0.00000000000E+00  0.00000000000E+00  0.57210604111E+03  0.31972031232E+04  0.31456004973E+04 0.  0.
        4    1    3    3  502    0  0.11667353419E+04  0.64835997014E+03 -0.55949367521E+03  0.14472998288E+04  0.12699999809E+01 0.  1.
       -4    1    3    3    0  502 -0.11667353419E+04 -0.64835997014E+03  0.11315997163E+04  0.17499032944E+04  0.12699999809E+01 0. -1.
</event>
<event>
 5   0  0.3807334E-06  0.3233748E+04  0.7818609E-02  0.8179961E-01
       -1   -1    0    0    0  501  0.00000000000E+00  0.00000000000E+00  0.13196149095E+04  0.13196149095E+04  0.50400001928E-02 0.  1.
        1   -1    0    0  501    0  0.00000000000E+00  0.00000000000E+00 -0.19810942821E+04  0.19810942821E+04  0.50400001928E-02 0. -1.
    10030    2    1    2    0    0  0.00000000000E+00  0.00000000000E+00 -0.66147937266E+03  0.33007091916E+04  0.32337480123E+04 0.  0.
        4    1    3    3  502    0 -0.35683485305E+03  0.14014236973E+04 -0.10688741947E+04  0.17982806090E+04  0.12699999809E+01 0. -1.
       -4    1    3    3    0  502  0.35683485305E+03 -0.14014236973E+04  0.40739482206E+03  0.15024285826E+04  0.12699999809E+01 0.  1.
</event>
<event>
 5   0  0.1119100E-05  0.3248527E+04  0.7818609E-02  0.8176117E-01
       -2   -1    0    0    0  501  0.00000000000E+00  0.00000000000E+00  0.16748648582E+04  0.16748648582E+04  0.25500000920E-02 0.  1.
        2   -1    0    0  501    0  0.00000000000E+00  0.00000000000E+00 -0.15751912956E+04  0.15751912956E+04  0.25500000920E-02 0. -1.
    10030    2    1    2    0    0  0.00000000000E+00  0.00000000000E+00  0.99673562641E+02  0.32500561538E+04  0.32485273870E+04 0.  0.
        2    1    3    3  502    0 -0.12782206052E+04  0.86911152082E+03 -0.44942691491E+03  0.16097165288E+04  0.25500000920E-02 0. -1.
       -2    1    3    3    0  502  0.12782206052E+04 -0.86911152082E+03  0.54910047755E+03  0.16403396251E+04  0.25500000920E-02 0.  1.
</event>
<event>
 5   0  0.1119100E-05  0.3109563E+04  0.7818609E-02  0.8213118E-01
       -2   -1    0    0    0  501  0.00000000000E+00  0.00000000000E+00  0.10435471435E+04  0.10435471435E+04  0.25500000920E-02 0.  1.
        2   -1    0    0  501    0  0.00000000000E+00  0.00000000000E+00 -0.23164696421E+04  0.23164696421E+04  0.25500000920E-02 0. -1.
    10030    2    1    2    0    0  0.00000000000E+00  0.00000000000E+00 -0.12729224986E+04  0.33600167855E+04  0.31095628490E+04 0.  0.
        2    1    3    3  502    0 -0.14642099995E+04 -0.12205335381E+03 -0.11858803341E+04  0.18881525655E+04  0.25500000920E-02 0. -1.
       -2    1    3    3    0  502  0.14642099995E+04  0.12205335381E+03 -0.87042164458E+02  0.14718642200E+04  0.25500000920E-02 0.  1.
</event>
<event>
 5   0  0.1108153E-05  0.3095220E+04  0.7818609E-02  0.8217051E-01
        2   -1    0    0  501    0  0.00000000000E+00  0.00000000000E+00  0.14495475210E+04  0.14495475210E+04  0.25500000920E-02 0. -1.
       -2   -1    0    0    0  501  0.00000000000E+00  0.00000000000E+00 -0.16523064707E+04  0.16523064708E+04  0.25500000920E-02 0.  1.
    10030    2    1    2    0    0  0.00000000000E+00  0.00000000000E+00 -0.20275894980E+03  0.31018539917E+04  0.30952200235E+04 0.  0.
        4    1    3    3  502    0  0.69516256981E+03 -0.74448283312E+03  0.10662742036E+04  0.14746009553E+04  0.12699999809E+01 0. -1.
       -4    1    3    3    0  502 -0.69516256981E+03  0.74448283312E+03 -0.12690331534E+04  0.16272530364E+04  0.12699999809E+01 0.  1.
</event>
<event>
 5   0  0.1001961E-05  0.2965203E+04  0.7818609E-02  0.8253738E-01
        2   -1    0    0  501    0  0.00000000000E+00  0.00000000000E+00  0.22520571409E+04  0.22520571409E+04  0.25500000920E-02 0.  1.
       -2   -1    0    0    0  501  0.00000000000E+00  0.00000000000E+00 -0.97604425338E+03  0.97604425338E+03  0.25500000920E-02 0. -1.
    10030    2    1    2    0    0  0.00000000000E+00  0.00000000000E+00  0.12760128875E+04  0.32281013942E+04  0.29652031503E+04 0.  0.
        5    1    3    3  502    0 -0.39677827021E+03  0.11057299273E+04 -0.34662340231E+03  0.12248434761E+04  0.46999998093E+01 0. -1.
       -5    1    3    3    0  502  0.39677827021E+03 -0.11057299273E+04  0.16226362898E+04  0.20032579182E+04  0.46999998093E+01 0.  1.
</event>
<event>
 5   0  0.1119100E-05  0.3054515E+04  0.7818609E-02  0.8228333E-01
        2   -1    0    0  501    0  0.00000000000E+00  0.00000000000E+00  0.19343554044E+04  0.19343554044E+04  0.25500000920E-02 0. -1.
       -2   -1    0    0    0  501  0.00000000000E+00  0.00000000000E+00 -0.12058359905E+04  0.12058359905E+04  0.25500000920E-02 0.  1.
    10030    2    1    2    0    0  0.00000000000E+00  0.00000000000E+00  0.72851941397E+03  0.31401913949E+04  0.30545149304E+04 0.  0.
        2    1    3    3  502    0  0.27041024663E+03 -0.14672151465E+04  0.28489707785E+02  0.14921975912E+04  0.25500000920E-02 0.  1.
       -2    1    3    3    0  502 -0.27041024663E+03  0.14672151465E+04  0.70002970618E+03  0.16479938037E+04  0.25500000920E-02 0. -1.
</event>
<event>
 5   0  0.9797278E-06  0.3131512E+04  0.7818609E-02  0.8207143E-01
       -2   -1    0    0    0  501  0.00000000000E+00  0.00000000000E+00  0.10389103433E+04  0.10389103433E+04  0.25500000920E-02 0.  1.
        2   -1    0    0  501    0  0.00000000000E+00  0.00000000000E+00 -0.23597722794E+04  0.23597722794E+04  0.25500000920E-02 0. -1.
    10030    2    1    2    0    0  0.00000000000E+00  0.00000000000E+00 -0.13208619361E+04  0.33986826227E+04  0.31315119855E+04 0.  0.
        1    1    3    3  502    0 -0.90985371662E+03 -0.89339588874E+03 -0.16465784179E+04  0.20825970532E+04  0.50400001928E-02 0. -1.
       -1    1    3    3    0  502  0.90985371662E+03  0.89339588874E+03  0.32571648179E+03  0.13160855695E+04  0.50400001928E-02 0.  1.
</event>
<event>
 5   0  0.1108153E-05  0.2996133E+04  0.7818609E-02  0.8244836E-01
        2   -1    0    0  501    0  0.00000000000E+00  0.00000000000E+00  0.17668301668E+04  0.17668301668E+04  0.25500000920E-02 0.  1.
       -2   -1    0    0    0  501  0.00000000000E+00  0.00000000000E+00 -0.12701861477E+04  0.12701861477E+04  0.25500000920E-02 0. -1.
    10030    2    1    2    0    0  0.00000000000E+00  0.00000000000E+00  0.49664401901E+03  0.30370163145E+04  0.29961329765E+04 0.  0.
        4    1    3    3  502    0 -0.93539676856E+03  0.89284750878E+02 -0.93433010875E+03  0.13251087678E+04  0.12699999809E+01 0. -1.
       -4    1    3    3    0  502  0.93539676856E+03 -0.89284750878E+02  0.14309741278E+04  0.17119075467E+04  0.12699999809E+01 0.  1.
</event>
<event>
 5   0  0.1108153E-05  0.3310649E+04  0.7818609E-02  0.8160191E-01
       -2   -1    0    0    0  501  0.00000000000E+00  0.00000000000E+00  0.17662813366E+04  0.17662813366E+04  0.25500000920E-02 0. -1.
        2   -1    0    0  501    0  0.00000000000E+00  0.00000000000E+00 -0.15513381947E+04  0.15513381948E+04  0.25500000920E-02 0.  1.
    10030    2    1    2    0    0  0.00000000000E+00  0.00000000000E+00  0.21494314188E+03  0.33176195314E+04  0.33106493020E+04 0.  0.
        4    1    3    3  502    0 -0.67842602419E+03 -0.91912338166E+03  0.13079287669E+04  0.17365854235E+04  0.12699999809E+01 0. -1.
       -4    1    3    3    0  502  0.67842602419E+03  0.91912338166E+03 -0.10929856250E+04  0.15810341079E+04  0.12699999809E+01 0.  1.
</event>
<event>
 5   0  0.1001961E-05  0.3115619E+04  0.7818609E-02  0.8211465E-01
       -2   -1    0    0    0  501  0.00000000000E+00  0.00000000000E+00  0.23529104390E+04  0.23529104390E+04  0.25500000920E-02 0.  1.
        2   -1    0    0  501    0  0.00000000000E+00  0.00000000000E+00 -0.10313907626E+04  0.10313907626E+04  0.25500000920E-02 0. -1.
    10030    2    1    2    0    0  0.00000000000E+00  0.00000000000E+00  0.13215196763E+04  0.33843012016E+04  0.31156187778E+04 0.  0.
        5    1    3    3  502    0 -0.30203602444E+03  0.85776380878E+03 -0.71313213451E+03  0.11556660603E+04  0.46999998093E+01 0. -1.
       -5    1    3    3    0  502  0.30203602444E+03 -0.85776380878E+03  0.20346518108E+04  0.22286351413E+04  0.46999998093E+01 0.  1.
</event>
<event>
 5   0  0.3807334E-06  0.2774400E+04  0.7818609E-02  0.8311261E-01
       -1   -1    0    0    0  501  0.00000000000E+00  0.00000000000E+00  0.10029423199E+04  0.10029423199E+04  0.50400001928E-02 0.  1.
        1   -1    0    0  501    0  0.00000000000E+00  0.00000000000E+00 -0.19186779938E+04  0.19186779938E+04  0.50400001928E-02 0. -1.
    10030    2    1    2    0    0  0.00000000000E+00  0.00000000000E+00 -0.91573567393E+03  0.29216203137E+04  0.27743996527E+04 0.  0.
        4    1    3    3  502    0 -0.13829791036E+04 -0.10202828380E+03 -0.42018089168E+03  0.14489977800E+04  0.12699999809E+01 0. -1.
       -4    1    3    3    0  502  0.13829791036E+04  0.10202828380E+03 -0.49555478225E+03  0.14726225337E+04  0.12699999809E+01 0.  1.
</event>
<event>
 5   0  0.1001961E-05  0.3091362E+04  0.7818609E-02  0.8218113E-01
        2   -1    0    0  501    0  0.00000000000E+00  0.00000000000E+00  0.27323984877E+04  0.27323984877E+04  0.25500000920E-02 0. -1.
       -2   -1    0    0    0  501  0.00000000000E+00  0.00000000000E+00 -0.87437087459E+03  0.87437087460E+03  0.25500000920E-02 0.  1.
    10030    2    1    2    0    0  0.00000000000E+00  0.00000000000E+00  0.18580276131E+04  0.36067693623E+04  0.30913619364E+04 0.  0.
        5    1    3    3  502    0  0.10554017267E+04 -0.85961313260E+03  0.17834358111E+04  0.22435402659E+04  0.46999998093E+01 0. -1.
       -5    1    3    3    0  502 -0.10554017267E+04  0.85961313260E+03  0.74591802009E+02  0.13632290964E+04  0.46999998093E+01 0.  1.
</event>
<event>
 5   0  0.1007567E-05  0.3083791E+04  0.7818609E-02  0.8220200E-01
        2   -1    0    0  501    0  0.00000000000E+00  0.00000000000E+00  0.15027779085E+04  0.15027779085E+04  0.25500000920E-02 0. -1.
       -2   -1    0    0    0  501  0.00000000000E+00  0.00000000000E+00 -0.15820317803E+04  0.15820317803E+04  0.25500000920E-02 0.  1.
    10030    2    1    2    0    0  0.00000000000E+00  0.00000000000E+00 -0.79253871854E+02  0.30848096888E+04  0.30837914391E+04 0.  0.
        3    1    3    3  502    0 -0.13907304787E+04 -0.52538728261E+03  0.36950608198E+03  0.15318935393E+04  0.10100000352E+00 0. -1.
       -3    1    3    3    0  502  0.13907304787E+04  0.52538728261E+03 -0.44875995383E+03  0.15529161495E+04  0.10100000352E+00 0.  1.
</event>
<event>
 5   0  0.1001961E-05  0.1558320E+04  0.7818609E-02  0.8846571E-01
       -2   -1    0    0    0  501  0.00000000000E+00  0.00000000000E+00  0.31096238189E+03  0.31096238190E+03  0.25500000920E-02 0.  1.
        2   -1    0    0  501    0  0.00000000000E+00  0.00000000000E+00 -0.19522952463E+04  0.19522952463E+04  0.25500000920E-02 0. -1.
    10030    2    1    2    0    0  0.00000000000E+00  0.00000000000E+00 -0.16413328644E+04  0.22632576282E+04  0.15583200954E+04 0.  0.
        5    1    3    3  502    0  0.55787846399E+03 -0.39156754647E+03 -0.27238030994E+03  0.73400725288E+03  0.46999998093E+01 0.  1.
       -5    1    3    3    0  502 -0.55787846399E+03  0.39156754647E+03 -0.13689525545E+04  0.15292503753E+04  0.46999998093E+01 0. -1.
</event>
<event>
 5   0  0.4250961E-06  0.2636308E+04  0.7818609E-02  0.8355972E-01
        1   -1    0    0  501    0  0.00000000000E+00  0.00000000000E+00  0.21613292186E+04  0.21613292186E+04  0.50400001928E-02 0. -1.
       -1   -1    0    0    0  501  0.00000000000E+00  0.00000000000E+00 -0.80391712202E+03  0.80391712203E+03  0.50400001928E-02 0.  1.
    10030    2    1    2    0    0  0.00000000000E+00  0.00000000000E+00  0.13574120966E+04  0.29652463406E+04  0.26363076946E+04 0.  0.
        1    1    3    3  502    0 -0.40661901008E+03 -0.57314192322E+03  0.19330663569E+04  0.20568364602E+04  0.50400001928E-02 0. -1.
       -1    1    3    3    0  502  0.40661901008E+03  0.57314192322E+03 -0.57565426034E+03  0.90840988049E+03  0.50400001928E-02 0.  1.
</event>
<event>
 5   0  0.4139628E-06  0.2669597E+04  0.7818609E-02  0.8344938E-01
        1   -1    0    0  501    0  0.00000000000E+00  0.00000000000E+00  0.19416678088E+04  0.19416678088E+04  0.50400001928E-02 0. -1.
       -1   -1    0    0    0  501  0.00000000000E+00  0.00000000000E+00 -0.91760664890E+03  0.91760664892E+03  0.50400001928E-02 0.  1.
    10030    2    1    2    0    0  0.00000000000E+00  0.00000000000E+00  0.10240611599E+04  0.28592744577E+04  0.26695971916E+04 0.  0.
        5    1    3    3  502    0 -0.98565798779E+03  0.72219326160E+03 -0.63334556092E+02  0.12235677881E+04  0.46999998093E+01 0.  1.
       -5    1    3    3    0  502  0.98565798779E+03 -0.72219326160E+03  0.10873957160E+04  0.16357066696E+04  0.46999998093E+01 0. -1.
</event>
<event>
 5   0  0.4139628E-06  0.3135061E+04  0.7818609E-02  0.8206181E-01
       -1   -1    0    0    0  501  0.00000000000E+00  0.00000000000E+00  0.87239026202E+03  0.87239026203E+03  0.50400001928E-02 0.  1.
        1   -1    0    0  501    0  0.00000000000E+00  0.00000000000E+00 -0.28165741604E+04  0.28165741604E+04  0.50400001928E-02 0. -1.
    10030    2    1    2    0    0  0.00000000000E+00  0.00000000000E+00 -0.19441838984E+04  0.36889644224E+04  0.31350610009E+04 0.  0.
        5    1    3    3  502    0 -0.11478173109E+03 -0.54495733855E+02  0.86631240419E+03  0.87559345729E+03  0.46999998093E+01 0.  1.
       -5    1    3    3    0  502  0.11478173109E+03  0.54495733855E+02 -0.28104963026E+04  0.28133709651E+04  0.46999998093E+01 0. -1.
</event>
<event>
 5   0  0.9797278E-06  0.3027870E+04  0.7818609E-02  0.8235817E-01
       -2   -1    0    0    0  501  0.00000000000E+00  0.00000000000E+00  0.82849503486E+03  0.82849503486E+03  0.25500000920E-02 0. -1.
        2   -1    0    0  501    0  0.00000000000E+00  0.00000000000E+00 -0.27664605615E+04  0.27664605615E+04  0.25500000920E-02 0.  1.
    10030    2    1    2    0    0  0.00000000000E+00  0.00000000000E+00 -0.19379655267E+04  0.35949555964E+04  0.30278697722E+04 0.  0.
        1    1    3    3  502    0 -0.19045908029E+03  0.11055674263E+04 -0.21759625294E+04  0.24481353975E+04  0.50400001928E-02 0.  1.
       -1    1    3    3    0  502  0.19045908029E+03 -0.11055674263E+04  0.23799700270E+03  0.11468201989E+04  0.50400001928E-02 0. -1.
</event>
<event>
 5   0  0.9797278E-06  0.2962198E+04  0.7818609E-02  0.8254609E-01
       -2   -1    0    0    0  501  0.00000000000E+00  0.00000000000E+00  0.10283112106E+04  0.10283112106E+04  0.25500000920E-02 0.  1.
        2   -1    0    0  501    0  0.00000000000E+00  0.00000000000E+00 -0.21332593585E+04  0.21332593585E+04  0.25500000920E-02 0. -1.
    10030    2    1    2    0    0  0.00000000000E+00  0.00000000000E+00 -0.11049481479E+04  0.31615705690E+04  0.29621981793E+04 0.  0.
        1    1    3    3  502    0 -0.58733779697E+03 -0.13431615687E+04 -0.77788998233E+03  0.16595666639E+04  0.50400001928E-02 0.  1.
       -1    1    3    3    0  502  0.58733779697E+03  0.13431615687E+04 -0.32705816555E+03  0.15020039051E+04  0.50400001928E-02 0. -1.
</event>
<event>
 5   0  0.3807334E-06  0.3124289E+04  0.7818609E-02  0.8209103E-01
       -1   -1    0    0    0  501  0.00000000000E+00  0.00000000000E+00  0.14356955603E+04  0.14356955603E+04  0.50400001928E-02 0. -1.
        1   -1    0    0  501    0  0.00000000000E+00  0.00000000000E+00 -0.16997305858E+04  0.16997305858E+04  0.50400001928E-02 0.  1.
    10030    2    1    2    0    0  0.00000000000E+00  0.00000000000E+00 -0.26403502549E+03  0.31354261462E+04  0.31242891389E+04 0.  0.
        4    1    3    3  502    0  0.97515309098E+03  0.53680065204E+03 -0.12319241676E+04  0.16603364895E+04  0.12699999809E+01 0.  1.
       -4    1    3    3    0  502 -0.97515309098E+03 -0.53680065204E+03  0.96788914208E+03  0.14750896566E+04  0.12699999809E+01 0. -1.
</event>
<event>
 5   0  0.1119100E-05  0.2975335E+04  0.7818609E-02  0.8250809E-01
        2   -1    0    0  501    0  0.00000000000E+00  0.00000000000E+00  0.15436684571E+04  0.15436684571E+04  0.25500000920E-02 0.  1.
       -2   -1    0    0    0  501  0.00000000000E+00  0.00000000000E+00 -0.14336985947E+04  0.14336985947E+04  0.25500000920E-02 0. -1.
    10030    2    1    2    0    0  0.00000000000E+00  0.00000000000E+00  0.10996986240E+03  0.29773670518E+04  0.29753354753E+04 0.  0.
        2    1    3    3  502    0  0.43184005249E+03 -0.13841471046E+04  0.38808796238E+03  0.15009867770E+04  0.25500000920E-02 0.  1.
       -2    1    3    3    0  502 -0.43184005249E+03  0.13841471046E+04 -0.27811809998E+03  0.14763802748E+04  0.25500000920E-02 0. -1.
</event>
<event>
 5   0  0.3493125E-06  0.2950330E+04  0.7818609E-02  0.8258058E-01
        3   -1    0    0  501    0  0.00000000000E+00  0.00000000000E+00  0.18901811470E+04  0.18901811497E+04  0.10100000352E+00 0. -1.
       -3   -1    0    0    0  501  0.00000000000E+00  0.00000000000E+00 -0.11512715418E+04  0.11512715462E+04  0.10100000352E+00 0.  1.
    10030    2    1    2    0    0  0.00000000000E+00  0.00000000000E+00  0.73890960523E+03  0.30414526960E+04  0.29503299980E+04 0.  0.
        3    1    3    3  502    0 -0.54856043585E+03  0.11126651393E+04  0.11923375569E+04  0.17206426485E+04  0.10100000352E+00 0. -1.
       -3    1    3    3    0  502  0.54856043585E+03 -0.11126651393E+04 -0.45342795168E+03  0.13208100475E+04  0.10100000352E+00 0.  1.
</event>
<event>
 5   0  0.1001961E-05  0.3056899E+04  0.7818609E-02  0.8227667E-01
        2   -1    0    0  501    0  0.00000000000E+00  0.00000000000E+00  0.19860415996E+04  0.19860415996E+04  0.25500000920E-02 0. -1.
       -2   -1    0    0    0  501  0.00000000000E+00  0.00000000000E+00 -0.11762887845E+04  0.11762887845E+04  0.25500000920E-02 0.  1.
    10030    2    1    2    0    0  0.00000000000E+00  0.00000000000E+00  0.80975281511E+03  0.31623303841E+04  0.30568993828E+04 0.  0.
        5    1    3    3  502    0  0.10199085429E+04  0.23340032482E+03  0.15575072252E+04  0.18763102073E+04  0.46999998093E+01 0. -1.
       -5    1    3    3    0  502 -0.10199085429E+04 -0.23340032482E+03 -0.74775441005E+03  0.12860201768E+04  0.46999998093E+01 0.  1.
</event>
<event>
 5   0  0.1001961E-05  0.3137236E+04  0.7818609E-02  0.8205593E-01
       -2   -1    0    0    0  501  0.00000000000E+00  0.00000000000E+00  0.10531063401E+04  0.10531063401E+04  0.25500000920E-02 0. -1.
        2   -1    0    0  501    0  0.00000000000E+00  0.00000000000E+00 -0.23364800717E+04  0.23364800717E+04  0.25500000920E-02 0.  1.
    10030    2    1    2    0    0  0.00000000000E+00  0.00000000000E+00 -0.12833737316E+04  0.33895864118E+04  0.31372357113E+04 0.  0.
        5    1    3    3  502    0 -0.12184491087E+04 -0.71109065011E+03  0.99237714041E+02  0.14142624782E+04  0.46999998093E+01 0. -1.
       -5    1    3    3    0  502  0.12184491087E+04  0.71109065011E+03 -0.13826114456E+04  0.19753239336E+04  0.46999998093E+01 0.  1.
</event>
<event>
 5   0  0.4250961E-06  0.1542824E+04  0.7818609E-02  0.8856464E-01
       -1   -1    0    0    0  501  0.00000000000E+00  0.00000000000E+00  0.58720113115E+03  0.58720113117E+03  0.50400001928E-02 0.  1.
        1   -1    0    0  501    0  0.00000000000E+00  0.00000000000E+00 -0.10134121630E+04  0.10134121630E+04  0.50400001928E-02 0. -1.
    10030    2    1    2    0    0  0.00000000000E+00  0.00000000000E+00 -0.42621103187E+03  0.16006132942E+04  0.15428243821E+04 0.  0.
        1    1    3    3  502    0 -0.79560146222E+02  0.52333706262E+03 -0.79525203699E+03  0.95532052231E+03  0.50400001928E-02 0. -1.
       -1    1    3    3    0  502  0.79560146222E+02 -0.52333706262E+03  0.36904100512E+03  0.64529277190E+03  0.50400001928E-02 0.  1.
</event>
<event>
 5   0  0.3807334E-06  0.3018437E+04  0.7818609E-02  0.8238485E-01
       -1   -1    0    0    0  501  0.00000000000E+00  0.00000000000E+00  0.14556303786E+04  0.14556303786E+04  0.50400001928E-02 0. -1.
        1   -1    0    0  501    0  0.00000000000E+00  0.00000000000E+00 -0.15647798806E+04  0.15647798806E+04  0.50400001928E-02 0.  1.
    10030    2    1    2    0    0  0.00000000000E+00  0.00000000000E+00 -0.10914950201E+03  0.30204102592E+04  0.30184374302E+04 0.  0.
        4    1    3    3  502    0 -0.13795338852E+04 -0.28597977303E+03  0.48692711331E+03  0.14906367088E+04  0.12699999809E+01 0. -1.
       -4    1    3    3    0  502  0.13795338852E+04  0.28597977303E+03 -0.59607661532E+03  0.15297735503E+04  0.12699999809E+01 0.  1.
</event>
<event>
 5   0  0.1007567E-05  0.3104427E+04  0.7818609E-02  0.8214524E-01
       -2   -1    0    0    0  501  0.00000000000E+00  0.00000000000E+00  0.11424047724E+04  0.11424047724E+04  0.25500000920E-02 0.  1.
        2   -1    0    0  501    0  0.00000000000E+00  0.00000000000E+00 -0.21090304598E+04  0.21090304598E+04  0.25500000920E-02 0. -1.
    10030    2    1    2    0    0  0.00000000000E+00  0.00000000000E+00 -0.96662568744E+03  0.32514352322E+04  0.31044268150E+04 0.  0.
        3    1    3    3  502    0 -0.28629695274E+03  0.15249410798E+04 -0.43700117615E+03  0.16119495278E+04  0.10100000352E+00 0. -1.
       -3    1    3    3    0  502  0.28629695274E+03 -0.15249410798E+04 -0.52962451129E+03  0.16394857044E+04  0.10100000352E+00 0.  1.
</event>
<event>
 5   0  0.9797278E-06  0.3059687E+04  0.7818609E-02  0.8226889E-01
       -2   -1    0    0    0  501  0.00000000000E+00  0.00000000000E+00  0.25773440125E+04  0.25773440125E+04  0.25500000920E-02 0. -1.
        2   -1    0    0  501    0  0.00000000000E+00  0.00000000000E+00 -0.90807505027E+03  0.90807505028E+03  0.25500000920E-02 0.  1.
    10030    2    1    2    0    0  0.00000000000E+00  0.00000000000E+00  0.16692689622E+04  0.34854190628E+04  0.30596874309E+04 0.  0.
        1    1    3    3  502    0 -0.23142107916E+03  0.13078846263E+04 -0.30141686318E+02  0.13285429736E+04  0.50400001928E-02 0.  1.
       -1    1    3    3    0  502  0.23142107916E+03 -0.13078846263E+04  0.16994106485E+04  0.21568760891E+04  0.50400001928E-02 0. -1.
</event>
<event>
 5   0  0.1001961E-05  0.3097723E+04  0.7818609E-02  0.8216363E-01
        2   -1    0    0  501    0  0.00000000000E+00  0.00000000000E+00  0.25730079985E+04  0.25730079985E+04  0.25500000920E-02 0.  1.
       -2   -1    0    0    0  501  0.00000000000E+00  0.00000000000E+00 -0.93236075562E+03  0.93236075562E+03  0.25500000920E-02 0. -1.
    10030    2    1    2    0    0  0.00000000000E+00  0.00000000000E+00  0.16406472429E+04  0.35053687541E+04  0.30977228292E+04 0.  0.
        5    1    3    3  502    0  0.56788130802E+03 -0.55915219084E+03  0.23231782090E+04  0.24560780593E+04  0.46999998093E+01 0.  1.
       -5    1    3    3    0  502 -0.56788130802E+03  0.55915219084E+03 -0.68253096613E+03  0.10492906948E+04  0.46999998093E+01 0. -1.
</event>
<event>
 5   0  0.3493125E-06  0.2581907E+04  0.7818609E-02  0.8374373E-01
        4   -1    0    0  501    0  0.00000000000E+00  0.00000000000E+00  0.13389226182E+04  0.13389232205E+04  0.12699999809E+01 0.  1.
       -4   -1    0    0    0  501  0.00000000000E+00  0.00000000000E+00 -0.12447015986E+04  0.12447022465E+04  0.12699999809E+01 0. -1.
    10030    2    1    2    0    0  0.00000000000E+00  0.00000000000E+00  0.94221019613E+02  0.25836254670E+04  0.25819068444E+04 0.  0.
        2    1    3    3  502    0  0.65255882191E+03 -0.65210533559E+02  0.11598197950E+04  0.13323916041E+04  0.25500000920E-02 0.  1.
       -2    1    3    3    0  502 -0.65255882191E+03  0.65210533559E+02 -0.10655987754E+04  0.12512338630E+04  0.25500000920E-02 0. -1.
</event>
<event>
 5   0  0.1007567E-05  0.3102879E+04  0.7818609E-02  0.8214948E-01
       -2   -1    0    0    0  501  0.00000000000E+00  0.00000000000E+00  0.14240698704E+04  0.14240698704E+04  0.25500000920E-02 0.  1.
        2   -1    0    0  501    0  0.00000000000E+00  0.00000000000E+00 -0.16902010687E+04  0.16902010687E+04  0.25500000920E-02 0. -1.
    10030    2    1    2    0    0  0.00000000000E+00  0.00000000000E+00 -0.26613119825E+03  0.31142709391E+04  0.31028789321E+04 0.  0.
        3    1    3    3  502    0 -0.48293352921E+03 -0.29427074566E+03 -0.15830649402E+04  0.16810457104E+04  0.10100000352E+00 0. -1.
       -3    1    3    3    0  502  0.48293352921E+03  0.29427074566E+03  0.13169337419E+04  0.14332252287E+04  0.10100000352E+00 0.  1.
</event>
<event>
 5   0  0.1108153E-05  0.2758211E+04  0.7818609E-02  0.8316361E-01
        2   -1    0    0  501    0  0.00000000000E+00  0.00000000000E+00  0.30414603890E+04  0.30414603890E+04  0.25500000920E-02 0.  1.
       -2   -1    0    0    0  501  0.00000000000E+00  0.00000000000E+00 -0.62533495217E+03  0.62533495217E+03  0.25500000920E-02 0. -1.
    10030    2    1    2    0    0  0.00000000000E+00  0.00000000000E+00  0.24161254369E+04  0.36667953412E+04  0.27582106424E+04 0.  0.
        4    1    3    3  502    0 -0.33232149479E+03  0.77553437442E+02 -0.56831969062E+03  0.66290345843E+03  0.12699999809E+01 0. -1.
       -4    1    3    3    0  502  0.33232149479E+03 -0.77553437442E+02  0.29844451275E+04  0.30038918828E+04  0.12699999809E+01 0.  1.
</event>
<event>
 5   0  0.3493125E-06  0.2756827E+04  0.7818609E-02  0.8316799E-01
       -3   -1    0    0    0  501  0.00000000000E+00  0.00000000000E+00  0.28541776317E+04  0.28541776335E+04  0.10100000352E+00 0.  1.
        3   -1    0    0  501    0  0.00000000000E+00  0.00000000000E+00 -0.66569910231E+03  0.66569910997E+03  0.10100000352E+00 0. -1.
    10030    2    1    2    0    0  0.00000000000E+00  0.00000000000E+00  0.21884785294E+04  0.35198767435E+04  0.27568268019E+04 0.  0.
        2    1    3    3  502    0 -0.32990715169E+03 -0.13198362646E+04  0.13774929606E+04  0.19360509680E+04  0.25500000920E-02 0. -1.
       -2    1    3    3    0  502  0.32990715169E+03  0.13198362646E+04  0.81098556881E+03  0.15838257755E+04  0.25500000920E-02 0.  1.
</event>
<event>
 5   0  0.1007567E-05  0.3058746E+04  0.7818609E-02  0.8227152E-01
        2   -1    0    0  501    0  0.00000000000E+00  0.00000000000E+00  0.14632419158E+04  0.14632419158E+04  0.25500000920E-02 0.  1.
       -2   -1    0    0    0  501  0.00000000000E+00  0.00000000000E+00 -0.15984932017E+04  0.15984932017E+04  0.25500000920E-02 0. -1.
    10030    2    1    2    0    0  0.00000000000E+00  0.00000000000E+00 -0.13525128586E+03  0.30617351175E+04  0.30587463150E+04 0.  0.
        3    1    3    3  502    0  0.50511774059E+03 -0.98297875666E+02  0.13739815549E+04  0.14671849671E+04  0.10100000352E+00 0.  1.
       -3    1    3    3    0  502 -0.50511774059E+03  0.98297875666E+02 -0.15092328408E+04  0.15945501504E+04  0.10100000352E+00 0. -1.
</event>
<event>
 5   0  0.1108153E-05  0.3067927E+04  0.7818609E-02  0.8224596E-01
       -2   -1    0    0    0  501  0.00000000000E+00  0.00000000000E+00  0.12545344677E+04  0.12545344677E+04  0.25500000920E-02 0. -1.
        2   -1    0    0  501    0  0.00000000000E+00  0.00000000000E+00 -0.18756309232E+04  0.18756309232E+04  0.25500000920E-02 0.  1.
    10030    2    1    2    0    0  0.00000000000E+00  0.00000000000E+00 -0.62109645553E+03  0.31301653909E+04  0.30679267539E+04 0.  0.
        4    1    3    3  502    0  0.73729309936E+03 -0.11833576309E+04 -0.96313764639E+03  0.16945713723E+04  0.12699999809E+01 0.  1.
       -4    1    3    3    0  502 -0.73729309936E+03  0.11833576309E+04  0.34204119085E+03  0.14355940186E+04  0.12699999809E+01 0. -1.
</event>
<event>
 5   0  0.9797278E-06  0.3201629E+04  0.7818609E-02  0.8188387E-01
       -2   -1    0    0    0  501  0.00000000000E+00  0.00000000000E+00  0.14704479062E+04  0.14704479062E+04  0.25500000920E-02 0.  1.
        2   -1    0    0  501    0  0.00000000000E+00  0.00000000000E+00 -0.17427388808E+04  0.17427388808E+04  0.25500000920E-02 0. -1.
    10030    2    1    2    0    0  0.00000000000E+00  0.00000000000E+00 -0.27229097469E+03  0.32131867870E+04  0.32016287969E+04 0.  0.
        1    1    3    3  502    0 -0.10310281581E+04  0.95165702429E+03 -0.90960045500E+03  0.16721372977E+04  0.50400001928E-02 0. -1.
       -1    1    3    3    0  502  0.10310281581E+04 -0.95165702429E+03  0.63730948032E+03  0.15410494893E+04  0.50400001928E-02 0.  1.
</event>
<event>
 5   0  0.3807334E-06  0.3149816E+04  0.7818609E-02  0.8202198E-01
        1   -1    0    0  501    0  0.00000000000E+00  0.00000000000E+00  0.23499184475E+04  0.23499184475E+04  0.50400001928E-02 0.  1.
       -1   -1    0    0    0  501  0.00000000000E+00  0.00000000000E+00 -0.10554984340E+04  0.10554984340E+04  0.50400001928E-02 0. -1.
    10030    2    1    2    0    0  0.00000000000E+00  0.00000000000E+00  0.12944200135E+04  0.34054168815E+04  0.31498160209E+04 0.  0.
        4    1    3    3  502    0  0.13318171155E+03 -0.37516350824E+03  0.22946213270E+04  0.23288996701E+04  0.12699999809E+01 0.  1.
       -4    1    3    3    0  502 -0.13318171155E+03  0.37516350824E+03 -0.10002013135E+04  0.10765172115E+04  0.12699999809E+01 0. -1.
</event>
<event>
 5   0  0.1007567E-05  0.2977395E+04  0.7818609E-02  0.8250215E-01
        2   -1    0    0  501    0  0.00000000000E+00  0.00000000000E+00  0.82896043037E+03  0.82896043037E+03  0.25500000920E-02 0.  1.
       -2   -1    0    0    0  501  0.00000000000E+00  0.00000000000E+00 -0.26734933882E+04  0.26734933882E+04  0.25500000920E-02 0. -1.
    10030    2    1    2    0    0  0.00000000000E+00  0.00000000000E+00 -0.18445329579E+04  0.35024538186E+04  0.29773949887E+04 0.  0.
        3    1    3    3  502    0  0.30730942263E+03 -0.10411512044E+04 -0.21206331545E+04  0.23823349676E+04  0.10100000352E+00 0. -1.
       -3    1    3    3    0  502 -0.30730942263E+03  0.10411512044E+04  0.27610019663E+03  0.11201188510E+04  0.10100000352E+00 0.  1.
</event>
<event>
 5   0  0.1001961E-05  0.2812117E+04  0.7818609E-02  0.8299516E-01
       -2   -1    0    0    0  501  0.00000000000E+00  0.00000000000E+00  0.79365178885E+03  0.79365178885E+03  0.25500000920E-02 0.  1.
        2   -1    0    0  501    0  0.00000000000E+00  0.00000000000E+00 -0.24910175285E+04  0.24910175285E+04  0.25500000920E-02 0. -1.
    10030    2    1    2    0    0  0.00000000000E+00  0.00000000000E+00 -0.16973657396E+04  0.32846693173E+04  0.28121170086E+04 0.  0.
        5    1    3    3  502    0 -0.41359292516E+03  0.44843092037E+03 -0.23283793895E+04  0.24069736329E+04  0.46999998093E+01 0. -1.
       -5    1    3    3    0  502  0.41359292516E+03 -0.44843092037E+03  0.63101364988E+03  0.87769568441E+03  0.46999998093E+01 0.  1.
</event>
<event>
 5   0  0.3838525E-06  0.3039413E+04  0.7818609E-02  0.8232565E-01
        1   -1    0    0  501    0  0.00000000000E+00  0.00000000000E+00  0.12135773934E+04  0.12135773934E+04  0.50400001928E-02 0. -1.
       -1   -1    0    0    0  501  0.00000000000E+00  0.00000000000E+00 -0.19030582778E+04  0.19030582778E+04  0.50400001928E-02 0.  1.
    10030    2    1    2    0    0  0.00000000000E+00  0.00000000000E+00 -0.68948088433E+03  0.31166356712E+04  0.30394134331E+04 0.  0.
        3    1    3    3  502    0  0.27790747403E+03 -0.32202921898E+02 -0.18764248632E+04  0.18971662737E+04  0.10100000352E+00 0.  1.
       -3    1    3    3    0  502 -0.27790747403E+03  0.32202921898E+02  0.11869439789E+04  0.12194693976E+04  0.10100000352E+00 0. -1.
</event>
<event>
 5   0  0.3807334E-06  0.2150381E+04  0.7818609E-02  0.8539369E-01
        1   -1    0    0  501    0  0.00000000000E+00  0.00000000000E+00  0.43709970876E+03  0.43709970878E+03  0.50400001928E-02 0. -1.
       -1   -1    0    0    0  501  0.00000000000E+00  0.00000000000E+00 -0.26447851942E+04  0.26447851942E+04  0.50400001928E-02 0.  1.
    10030    2    1    2    0    0  0.00000000000E+00  0.00000000000E+00 -0.22076854855E+04  0.30818849030E+04  0.21503812110E+04 0.  0.
        4    1    3    3  502    0  0.26786570463E+03  0.13165935061E+03 -0.25842199267E+04  0.26013997122E+04  0.12699999809E+01 0.  1.
       -4    1    3    3    0  502 -0.26786570463E+03 -0.13165935061E+03  0.37653444118E+03  0.48048519084E+03  0.12699999809E+01 0. -1.
</event>
<event>
 5   0  0.1108153E-05  0.3060145E+04  0.7818609E-02  0.8226762E-01
        2   -1    0    0  501    0  0.00000000000E+00  0.00000000000E+00  0.22594245242E+04  0.22594245242E+04  0.25500000920E-02 0.  1.
       -2   -1    0    0    0  501  0.00000000000E+00  0.00000000000E+00 -0.10361587455E+04  0.10361587455E+04  0.25500000920E-02 0. -1.
    10030    2    1    2    0    0  0.00000000000E+00  0.00000000000E+00  0.12232657787E+04  0.32955832697E+04  0.30601454086E+04 0.  0.
        4    1    3    3  502    0 -0.84545643560E+03 -0.61604096202E+03  0.18141512770E+04  0.20941464897E+04  0.12699999809E+01 0.  1.
       -4    1    3    3    0  502  0.84545643560E+03  0.61604096202E+03 -0.59088549826E+03  0.12014367800E+04  0.12699999809E+01 0. -1.
</event>
<event>
 5   0  0.3838525E-06  0.2527463E+04  0.7818609E-02  0.8393266E-01
       -1   -1    0    0    0  501  0.00000000000E+00  0.00000000000E+00  0.10934212506E+04  0.10934212506E+04  0.50400001928E-02 0. -1.
        1   -1    0    0  501    0  0.00000000000E+00  0.00000000000E+00 -0.14605693704E+04  0.14605693704E+04  0.50400001928E-02 0.  1.
    10030    2    1    2    0    0  0.00000000000E+00  0.00000000000E+00 -0.36714811981E+03  0.25539906211E+04  0.25274632244E+04 0.  0.
        3    1    3    3  502    0 -0.16711356460E+03 -0.16686849443E+03  0.10709250841E+04  0.10966551800E+04  0.10100000352E+00 0. -1.
       -3    1    3    3    0  502  0.16711356460E+03  0.16686849443E+03 -0.14380732039E+04  0.14573354411E+04  0.10100000352E+00 0.  1.
</event>
<event>
 5   0  0.1001961E-05  0.3062419E+04  0.7818609E-02  0.8226128E-01
       -2   -1    0    0    0  501  0.00000000000E+00  0.00000000000E+00  0.13241934340E+04  0.13241934340E+04  0.25500000920E-02 0. -1.
        2   -1    0    0  501    0  0.00000000000E+00  0.00000000000E+00 -0.17705889744E+04  0.17705889744E+04  0.25500000920E-02 0.  1.
    10030    2    1    2    0    0  0.00000000000E+00  0.00000000000E+00 -0.44639554033E+03  0.30947824084E+04  0.30624188442E+04 0.  0.
        5    1    3    3  502    0 -0.13142699142E+04  0.93532406890E+02 -0.10115227235E+04  0.16611002464E+04  0.46999998093E+01 0.  1.
       -5    1    3    3    0  502  0.13142699142E+04 -0.93532406890E+02  0.56512718315E+03  0.14336821620E+04  0.46999998093E+01 0. -1.
</event>
<event>
 5   0  0.1119100E-05  0.3061013E+04  0.7818609E-02  0.8226520E-01
        2   -1    0    0  501    0  0.00000000000E+00  0.00000000000E+00  0.22624185204E+04  0.22624185204E+04  0.25500000920E-02 0. -1.
       -2   -1    0    0    0  501  0.00000000000E+00  0.00000000000E+00 -0.10353744292E+04  0.10353744292E+04  0.25500000920E-02 0.  1.
    10030    2    1    2    0    0  0.00000000000E+00  0.00000000000E+00  0.12270440912E+04  0.32977929497E+04  0.30610130900E+04 0.  0.
        2    1    3    3  502    0  0.94652672397E+03  0.10701489036E+04  0.22135702965E+02  0.14288532130E+04  0.25500000920E-02 0.  1.
       -2    1    3    3    0  502 -0.94652672397E+03 -0.10701489036E+04  0.12049083882E+04  0.18689397366E+04  0.25500000920E-02 0. -1.
</event>
<event>
 5   0  0.1001961E-05  0.3125392E+04  0.7818609E-02  0.8208804E-01
       -2   -1    0    0    0  501  0.00000000000E+00  0.00000000000E+00  0.76523889137E+03  0.76523889137E+03  0.25500000920E-02 0. -1.
        2   -1    0    0  501    0  0.00000000000E+00  0.00000000000E+00 -0.31911847009E+04  0.31911847009E+04  0.25500000920E-02 0.  1.
    10030    2    1    2    0    0  0.00000000000E+00  0.00000000000E+00 -0.24259458095E+04  0.39564235922E+04  0.31253919067E+04 0.  0.
        5    1    3    3  502    0  0.25065667837E+03  0.43581174074E+03  0.66005643871E+03  0.82973323186E+03  0.46999998093E+01 0. -1.
       -5    1    3    3    0  502 -0.25065667837E+03 -0.43581174074E+03 -0.30860022482E+04  0.31266903604E+04  0.46999998093E+01 0.  1.
</event>
<event>
 5   0  0.4139628E-06  0.1904060E+04  0.7818609E-02  0.8652838E-01
        1   -1    0    0  501    0  0.00000000000E+00  0.00000000000E+00  0.13981277651E+04  0.13981277651E+04  0.50400001928E-02 0. -1.
       -1   -1    0    0    0  501  0.00000000000E+00  0.00000000000E+00 -0.64826796935E+03  0.64826796937E+03  0.50400001928E-02 0.  1.
    10030    2    1    2    0    0  0.00000000000E+00  0.00000000000E+00  0.74985979579E+03  0.20463957345E+04  0.19040603428E+04 0.  0.
        5    1    3    3  502    0  0.56242679992E+03  0.36851140200E+03 -0.34940524064E+03  0.75778009400E+03  0.46999998093E+01 0.  1.
       -5    1    3    3    0  502 -0.56242679992E+03 -0.36851140200E+03  0.10992650364E+04  0.12886156405E+04  0.46999998093E+01 0. -1.
</event>
<event>
 5   0  0.3807334E-06  0.1755238E+04  0.7818609E-02  0.8730472E-01
       -1   -1    0    0    0  501  0.00000000000E+00  0.00000000000E+00  0.11006683664E+04  0.11006683664E+04  0.50400001928E-02 0. -1.
        1   -1    0    0  501    0  0.00000000000E+00  0.00000000000E+00 -0.69977017778E+03  0.69977017780E+03  0.50400001928E-02 0.  1.
    10030    2    1    2    0    0  0.00000000000E+00  0.00000000000E+00  0.40089818863E+03  0.18004385442E+04  0.17552377599E+04 0.  0.
        4    1    3    3  502    0 -0.76527006412E+03  0.39119385385E+03  0.18273749291E+02  0.85965484070E+03  0.12699999809E+01 0.  1.
       -4    1    3    3    0  502  0.76527006412E+03 -0.39119385385E+03  0.38262443934E+03  0.94078370352E+03  0.12699999809E+01 0. -1.
</event>
<event>
 5   0  0.1007567E-05  0.1562101E+04  0.7818609E-02  0.8844175E-01
       -2   -1    0    0    0  501  0.00000000000E+00  0.00000000000E+00  0.36129797117E+03  0.36129797118E+03  0.25500000920E-02 0.  1.
        2   -1    0    0  501    0  0.00000000000E+00  0.00000000000E+00 -0.16884672148E+04  0.16884672148E+04  0.25500000920E-02 0. -1.
    10030    2    1    2    0    0  0.00000000000E+00  0.00000000000E+00 -0.13271692436E+04  0.20497651860E+04  0.15621008663E+04 0.  0.
        3    1    3    3  502    0 -0.28900125265E+03 -0.12473195757E+03  0.27438437578E+03  0.41757224662E+03  0.10100000352E+00 0.  1.
       -3    1    3    3    0  502  0.28900125265E+03  0.12473195757E+03 -0.16015536194E+04  0.16321929394E+04  0.10100000352E+00 0. -1.
</event>
<event>
 5   0  0.3848286E-06  0.3086553E+04  0.7818609E-02  0.8219438E-01
       -1   -1    0    0    0  501  0.00000000000E+00  0.00000000000E+00  0.90211499571E+03  0.90211499572E+03  0.50400001928E-02 0. -1.
        1   -1    0    0  501    0  0.00000000000E+00  0.00000000000E+00 -0.26401316174E+04  0.26401316174E+04  0.50400001928E-02 0.  1.
    10030    2    1    2    0    0  0.00000000000E+00  0.00000000000E+00 -0.17380166217E+04  0.35422466131E+04  0.30865529788E+04 0.  0.
        2    1    3    3  502    0  0.89151651731E+03  0.35494579022E+03  0.51812243979E+03  0.10905223873E+04  0.25500000920E-02 0. -1.
       -2    1    3    3    0  502 -0.89151651731E+03 -0.35494579022E+03 -0.22561390615E+04  0.24517242258E+04  0.25500000920E-02 0.  1.
</event>
<event>
 5   0  0.1108153E-05  0.3118362E+04  0.7818609E-02  0.8210717E-01
       -2   -1    0    0    0  501  0.00000000000E+00  0.00000000000E+00  0.19983227569E+04  0.19983227569E+04  0.25500000920E-02 0.  1.
        2   -1    0    0  501    0  0.00000000000E+00  0.00000000000E+00 -0.12165429287E+04  0.12165429287E+04  0.25500000920E-02 0. -1.
    10030    2    1    2    0    0  0.00000000000E+00  0.00000000000E+00  0.78177982824E+03  0.32148656856E+04  0.31183620182E+04 0.  0.
        4    1    3    3  502    0 -0.40089756250E+03 -0.21176057439E+03  0.19288617556E+04  0.19814314728E+04  0.12699999809E+01 0.  1.
       -4    1    3    3    0  502  0.40089756250E+03  0.21176057439E+03 -0.11470819273E+04  0.12334342128E+04  0.12699999809E+01 0. -1.
</event>
<event>
 5   0  0.3807334E-06  0.3106433E+04  0.7818609E-02  0.8213975E-01
       -1   -1    0    0    0  501  0.00000000000E+00  0.00000000000E+00  0.95079818684E+03  0.95079818685E+03  0.50400001928E-02 0. -1.
        1   -1    0    0  501    0  0.00000000000E+00  0.00000000000E+00 -0.25373219517E+04  0.25373219517E+04  0.50400001928E-02 0.  1.
    10030    2    1    2    0    0  0.00000000000E+00  0.00000000000E+00 -0.15865237648E+04  0.34881201385E+04  0.31064327523E+04 0.  0.
        4    1    3    3  502    0 -0.70920792207E+03 -0.52069973533E+02 -0.23437954663E+04  0.24492990752E+04  0.12699999809E+01 0.  1.
       -4    1    3    3    0  502  0.70920792207E+03  0.52069973533E+02  0.75727170149E+03  0.10388210633E+04  0.12699999809E+01 0. -1.
</event>
<event>
 5   0  0.4250961E-06  0.3094437E+04  0.7818609E-02  0.8217266E-01
        1   -1    0    0  501    0  0.00000000000E+00  0.00000000000E+00  0.11151537972E+04  0.11151537972E+04  0.50400001928E-02 0. -1.
       -1   -1    0    0    0  501  0.00000000000E+00  0.00000000000E+00 -0.21466853914E+04  0.21466853914E+04  0.50400001928E-02 0.  1.
    10030    2    1    2    0    0  0.00000000000E+00  0.00000000000E+00 -0.10315315942E+04  0.32618391887E+04  0.30944365340E+04 0.  0.
        1    1    3    3  502    0 -0.11609809162E+04  0.79869883806E+03  0.15761045403E+03  0.14179695261E+04  0.50400001928E-02 0.  1.
       -1    1    3    3    0  502  0.11609809162E+04 -0.79869883806E+03 -0.11891420482E+04  0.18438696626E+04  0.50400001928E-02 0. -1.
</event>
<event>
 5   0  0.4139628E-06  0.2904203E+04  0.7818609E-02  0.8271628E-01
       -1   -1    0    0    0  501  0.00000000000E+00  0.00000000000E+00  0.95829546846E+03  0.95829546847E+03  0.50400001928E-02 0. -1.
        1   -1    0    0  501    0  0.00000000000E+00  0.00000000000E+00 -0.22003636472E+04  0.22003636472E+04  0.50400001928E-02 0.  1.
    10030    2    1    2    0    0  0.00000000000E+00  0.00000000000E+00 -0.12420681787E+04  0.31586591157E+04  0.29042028249E+04 0.  0.
        5    1    3    3  502    0  0.60252980876E+03 -0.50769041445E+03  0.70558382901E+03  0.10576683588E+04  0.46999998093E+01 0. -1.
       -5    1    3    3    0  502 -0.60252980876E+03  0.50769041445E+03 -0.19476520077E+04  0.21009907569E+04  0.46999998093E+01 0.  1.
</event>
<event>
 5   0  0.3838525E-06  0.2673184E+04  0.7818609E-02  0.8343759E-01
       -1   -1    0    0    0  501  0.00000000000E+00  0.00000000000E+00  0.95407880028E+03  0.95407880030E+03  0.50400001928E-02 0.  1.
        1   -1    0    0  501    0  0.00000000000E+00  0.00000000000E+00 -0.18724636809E+04  0.18724636809E+04  0.50400001928E-02 0. -1.
    10030    2    1    2    0    0  0.00000000000E+00  0.00000000000E+00 -0.91838488061E+03  0.28265424812E+04  0.26731837964E+04 0.  0.
        3    1    3    3  502    0 -0.66623560553E+03  0.64409629228E+03 -0.14776471126E+04  0.17441820190E+04  0.10100000352E+00 0. -1.
       -3    1    3    3    0  502  0.66623560553E+03 -0.64409629228E+03  0.55926223199E+03  0.10823604622E+04  0.10100000352E+00 0.  1.
</event>
<event>
 5   0  0.1119100E-05  0.3789919E+04  0.7818609E-02  0.8048322E-01
        2   -1    0    0  501    0  0.00000000000E+00  0.00000000000E+00  0.14468495858E+04  0.14468495858E+04  0.25500000920E-02 0. -1.
       -2   -1    0    0    0  501  0.00000000000E+00  0.00000000000E+00 -0.24818555693E+04  0.24818555693E+04  0.25500000920E-02 0.  1.
    10030    2    1    2    0    0  0.00000000000E+00  0.00000000000E+00 -0.10350059836E+04  0.39287051551E+04  0.37899191033E+04 0.  0.
        2    1    3    3  502    0 -0.52358818387E+03  0.18042384703E+04 -0.77447319412E+03  0.20320506324E+04  0.25500000920E-02 0.  1.
       -2    1    3    3    0  502  0.52358818387E+03 -0.18042384703E+04 -0.26053278945E+03  0.18966545227E+04  0.25500000920E-02 0. -1.
</event>
<event>
 5   0  0.3807334E-06  0.2843051E+04  0.7818609E-02  0.8290026E-01
       -1   -1    0    0    0  501  0.00000000000E+00  0.00000000000E+00  0.16634709615E+04  0.16634709615E+04  0.50400001928E-02 0.  1.
        1   -1    0    0  501    0  0.00000000000E+00  0.00000000000E+00 -0.12147702811E+04  0.12147702811E+04  0.50400001928E-02 0. -1.
    10030    2    1    2    0    0  0.00000000000E+00  0.00000000000E+00  0.44870068042E+03  0.28782412427E+04  0.28430512395E+04 0.  0.
        4    1    3    3  502    0  0.13003666961E+04  0.51461351226E+03  0.48236338015E+03  0.14793433187E+04  0.12699999809E+01 0. -1.
       -4    1    3    3    0  502 -0.13003666961E+04 -0.51461351226E+03 -0.33662699730E+02  0.13988979239E+04  0.12699999809E+01 0.  1.
</event>
<event>
 5   0  0.1007567E-05  0.3248000E+04  0.7818609E-02  0.8176254E-01
       -2   -1    0    0    0  501  0.00000000000E+00  0.00000000000E+00  0.10954953095E+04  0.10954953095E+04  0.25500000920E-02 0.  1.
        2   -1    0    0  501    0  0.00000000000E+00  0.00000000000E+00 -0.24074728503E+04  0.24074728503E+04  0.25500000920E-02 0. -1.
    10030    2    1    2    0    0  0.00000000000E+00  0.00000000000E+00 -0.13119775408E+04  0.35029681598E+04  0.32479995167E+04 0.  0.
        3    1    3    3  502    0 -0.21567346403E+01 -0.66316020060E+03 -0.22547863430E+04  0.23502866986E+04  0.10100000352E+00 0. -1.
       -3    1    3    3    0  502  0.21567346403E+01  0.66316020060E+03  0.94280880216E+03  0.11526814611E+04  0.10100000352E+00 0.  1.
</event>
<event>
 5   0  0.1108153E-05  0.3000738E+04  0.7818609E-02  0.8243520E-01
        2   -1    0    0  501    0  0.00000000000E+00  0.00000000000E+00  0.17897947767E+04  0.17897947767E+04  0.25500000920E-02 0. -1.
       -2   -1    0    0    0  501  0.00000000000E+00  0.00000000000E+00 -0.12577463404E+04  0.12577463404E+04  0.25500000920E-02 0.  1.
    10030    2    1    2    0    0  0.00000000000E+00  0.00000000000E+00  0.53204843626E+03  0.30475411171E+04  0.30007384628E+04 0.  0.
        4    1    3    3  502    0  0.10542590648E+04  0.41012783975E+03 -0.73496463276E+03  0.13490150648E+04  0.12699999809E+01 0.  1.
       -4    1    3    3    0  502 -0.10542590648E+04 -0.41012783975E+03  0.12670130690E+04  0.16985260524E+04  0.12699999809E+01 0. -1.
</event>
<event>
 5   0  0.4250961E-06  0.2941342E+04  0.7818609E-02  0.8260682E-01
        1   -1    0    0  501    0  0.00000000000E+00  0.00000000000E+00  0.16691082980E+04  0.16691082980E+04  0.50400001928E-02 0. -1.
       -1   -1    0    0    0  501  0.00000000000E+00  0.00000000000E+00 -0.12958255155E+04  0.12958255155E+04  0.50400001928E-02 0.  1.
    10030    2    1    2    0    0  0.00000000000E+00  0.00000000000E+00  0.37328278248E+03  0.29649338135E+04  0.29413419527E+04 0.  0.
        1    1    3    3  502    0  0.28890052193E+03 -0.58986244045E+03 -0.11397668478E+04  0.13154731763E+04  0.50400001928E-02 0.  1.
       -1    1    3    3    0  502 -0.28890052193E+03  0.58986244045E+03  0.15130496302E+04  0.16494606372E+04  0.50400001928E-02 0. -1.
</event>
<event>
 5   0  0.1001961E-05  0.3145935E+04  0.7818609E-02  0.8203243E-01
       -2   -1    0    0    0  501  0.00000000000E+00  0.00000000000E+00  0.18449894541E+04  0.18449894541E+04  0.25500000920E-02 0.  1.
        2   -1    0    0  501    0  0.00000000000E+00  0.00000000000E+00 -0.13410521727E+04  0.13410521727E+04  0.25500000920E-02 0. -1.
    10030    2    1    2    0    0  0.00000000000E+00  0.00000000000E+00  0.50393728137E+03  0.31860416267E+04  0.31459352288E+04 0.  0.
        5    1    3    3  502    0 -0.65964513563E+03  0.79286728105E+03 -0.95078914185E+03  0.14027802082E+04  0.46999998093E+01 0. -1.
       -5    1    3    3    0  502  0.65964513563E+03 -0.79286728105E+03  0.14547264232E+04  0.17832614185E+04  0.46999998093E+01 0.  1.
</event>
<event>
 5   0  0.9797278E-06  0.2053222E+04  0.7818609E-02  0.8582134E-01
       -2   -1    0    0    0  501  0.00000000000E+00  0.00000000000E+00  0.74677933450E+03  0.74677933450E+03  0.25500000920E-02 0.  1.
        2   -1    0    0  501    0  0.00000000000E+00  0.00000000000E+00 -0.14113000970E+04  0.14113000970E+04  0.25500000920E-02 0. -1.
    10030    2    1    2    0    0  0.00000000000E+00  0.00000000000E+00 -0.66452076253E+03  0.21580794315E+04  0.20532216122E+04 0.  0.
        1    1    3    3  502    0  0.28135851884E+03  0.62822270237E+03 -0.11328026944E+04  0.13255445388E+04  0.50400001928E-02 0. -1.
       -1    1    3    3    0  502 -0.28135851884E+03 -0.62822270237E+03  0.46828193185E+03  0.83253489274E+03  0.50400001928E-02 0.  1.
</event>
<event>
 5   0  0.1007567E-05  0.3091815E+04  0.7818609E-02  0.8217988E-01
        2   -1    0    0  501    0  0.00000000000E+00  0.00000000000E+00  0.19212609880E+04  0.19212609880E+04  0.25500000920E-02 0.  1.
       -2   -1    0    0    0  501  0.00000000000E+00  0.00000000000E+00 -0.12438862462E+04  0.12438862462E+04  0.25500000920E-02 0. -1.
    10030    2    1    2    0    0  0.00000000000E+00  0.00000000000E+00  0.67737474178E+03  0.31651472342E+04  0.30918150775E+04 0.  0.
        3    1    3    3  502    0  0.11676018197E+04 -0.33646362547E+03 -0.63966177504E+03  0.13731966274E+04  0.10100000352E+00 0. -1.
       -3    1    3    3    0  502 -0.11676018197E+04  0.33646362547E+03  0.13170365168E+04  0.17919506069E+04  0.10100000352E+00 0.  1.
</event>
<event>
 5   0  0.4250961E-06  0.3087831E+04  0.7818609E-02  0.8219086E-01
       -1   -1    0    0    0  501  0.00000000000E+00  0.00000000000E+00  0.88556477354E+03  0.88556477356E+03  0.50400001928E-02 0. -1.
        1   -1    0    0  501    0  0.00000000000E+00  0.00000000000E+00 -0.26917002061E+04  0.26917002061E+04  0.50400001928E-02 0.  1.
    10030    2    1    2    0    0  0.00000000000E+00  0.00000000000E+00 -0.18061354326E+04  0.35772649797E+04  0.30878308785E+04 0.  0.
        1    1    3    3  502    0 -0.89388566231E+03 -0.66277325306E+03  0.33678883158E+03  0.11626378109E+04  0.50400001928E-02 0. -1.
       -1    1    3    3    0  502  0.89388566231E+03  0.66277325306E+03 -0.21429242641E+04  0.24146271688E+04  0.50400001928E-02 0.  1.
</event>
<event>
 5   0  0.3848286E-06  0.3089280E+04  0.7818609E-02  0.8218686E-01
        1   -1    0    0  501    0  0.00000000000E+00  0.00000000000E+00  0.16365761800E+04  0.16365761800E+04  0.50400001928E-02 0.  1.
       -1   -1    0    0    0  501  0.00000000000E+00  0.00000000000E+00 -0.14578687854E+04  0.14578687854E+04  0.50400001928E-02 0. -1.
    10030    2    1    2    0    0  0.00000000000E+00  0.00000000000E+00  0.17870739466E+03  0.30944449654E+04  0.30892803872E+04 0.  0.
        2    1    3    3  502    0  0.68291823908E+03 -0.28432947872E+03  0.14476046497E+04  0.16256628789E+04  0.25500000920E-02 0.  1.
       -2    1    3    3    0  502 -0.68291823908E+03  0.28432947872E+03 -0.12688972551E+04  0.14687820865E+04  0.25500000920E-02 0. -1.
</event>
<event>
 5   0  0.9797278E-06  0.3130443E+04  0.7818609E-02  0.8207432E-01
        2   -1    0    0  501    0  0.00000000000E+00  0.00000000000E+00  0.20386415989E+04  0.20386415989E+04  0.25500000920E-02 0.  1.
       -2   -1    0    0    0  501  0.00000000000E+00  0.00000000000E+00 -0.12017408351E+04  0.12017408351E+04  0.25500000920E-02 0. -1.
    10030    2    1    2    0    0  0.00000000000E+00  0.00000000000E+00  0.83690076381E+03  0.32403824340E+04  0.31304433280E+04 0.  0.
        1    1    3    3  502    0 -0.79229766642E+03 -0.81396807640E+03  0.15331346551E+04  0.19080831984E+04  0.50400001928E-02 0.  1.
       -1    1    3    3    0  502  0.79229766642E+03  0.81396807640E+03 -0.69623389125E+03  0.13322992355E+04  0.50400001928E-02 0. -1.
</event>
<event>
 5   0  0.1007567E-05  0.3126207E+04  0.7818609E-02  0.8208582E-01
       -2   -1    0    0    0  501  0.00000000000E+00  0.00000000000E+00  0.12022318827E+04  0.12022318827E+04  0.25500000920E-02 0. -1.
        2   -1    0    0  501    0  0.00000000000E+00  0.00000000000E+00 -0.20322967738E+04  0.20322967738E+04  0.25500000920E-02 0.  1.
    10030    2    1    2    0    0  0.00000000000E+00  0.00000000000E+00 -0.83006489107E+03  0.32345286565E+04  0.31262066321E+04 0.  0.
        3    1    3    3  502    0 -0.15044278299E+04  0.15051105363E+03 -0.82543154671E+03  0.17225835019E+04  0.10100000352E+00 0.  1.
       -3    1    3    3    0  502  0.15044278299E+04 -0.15051105363E+03 -0.46333443650E+01  0.15119451546E+04  0.10100000352E+00 0. -1.
</event>
<event>
 5   0  0.4139628E-06  0.2992509E+04  0.7818609E-02  0.8245873E-01
        1   -1    0    0  501    0  0.00000000000E+00  0.00000000000E+00  0.11165920500E+04  0.11165920500E+04  0.50400001928E-02 0.  1.
       -1   -1    0    0    0  501  0.00000000000E+00  0.00000000000E+00 -0.20050092524E+04  0.20050092525E+04  0.50400001928E-02 0. -1.
    10030    2    1    2    0    0  0.00000000000E+00  0.00000000000E+00 -0.88841720248E+03  0.31216013024E+04  0.29925089082E+04 0.  0.
        5    1    3    3  502    0  0.71778033236E+03  0.66215591512E+03 -0.16267321766E+04  0.18973504489E+04  0.46999998093E+01 0. -1.
       -5    1    3    3    0  502 -0.71778033236E+03 -0.66215591512E+03  0.73831497411E+03  0.12242508536E+04  0.46999998093E+01 0.  1.
</event>
<event>
 5   0  0.1007567E-05  0.3087320E+04  0.7818609E-02  0.8219226E-01
        2   -1    0    0  501    0  0.00000000000E+00  0.00000000000E+00  0.16805469278E+04  0.16805469278E+04  0.25500000920E-02 0. -1.
       -2   -1    0    0    0  501  0.00000000000E+00  0.00000000000E+00 -0.14179233363E+04  0.14179233363E+04  0.25500000920E-02 0.  1.
    10030    2    1    2    0    0  0.00000000000E+00  0.00000000000E+00  0.26262359157E+03  0.30984702641E+04  0.30873203311E+04 0.  0.
        3    1    3    3  502    0 -0.51181882434E+03 -0.30920605717E+03  0.15595888006E+04  0.16702946243E+04  0.10100000352E+00 0. -1.
       -3    1    3    3    0  502  0.51181882434E+03  0.30920605717E+03 -0.12969652090E+04  0.14281756399E+04  0.10100000352E+00 0.  1.
</event>
<event>
 5   0  0.3807334E-06  0.2832732E+04  0.7818609E-02  0.8293178E-01
       -1   -1    0    0    0  501  0.00000000000E+00  0.00000000000E+00  0.17212539171E+04  0.17212539171E+04  0.50400001928E-02 0.  1.
        1   -1    0    0  501    0  0.00000000000E+00  0.00000000000E+00 -0.11654833051E+04  0.11654833051E+04  0.50400001928E-02 0. -1.
    10030    2    1    2    0    0  0.00000000000E+00  0.00000000000E+00  0.55577061203E+03  0.28867372222E+04  0.28327320411E+04 0.  0.
        4    1    3    3  502    0  0.29499411392E+03  0.35004141376E+03  0.16437896055E+04  0.17063400595E+04  0.12699999809E+01 0.  1.
       -4    1    3    3    0  502 -0.29499411392E+03 -0.35004141376E+03 -0.10880189935E+04  0.11803971627E+04  0.12699999809E+01 0. -1.
</event>
<event>
 5   0  0.3807334E-06  0.3120826E+04  0.7818609E-02  0.8210046E-01
        1   -1    0    0  501    0  0.00000000000E+00  0.00000000000E+00  0.11282868984E+04  0.11282868984E+04  0.50400001928E-02 0.  1.
       -1   -1    0    0    0  501  0.00000000000E+00  0.00000000000E+00 -0.21580404358E+04  0.21580404359E+04  0.50400001928E-02 0. -1.
    10030    2    1    2    0    0  0.00000000000E+00  0.00000000000E+00 -0.10297535374E+04  0.32863273343E+04  0.31208260125E+04 0.  0.
        4    1    3    3  502    0 -0.12934347839E+03  0.20165435048E+03 -0.21385584035E+04  0.21519358426E+04  0.12699999809E+01 0. -1.
       -4    1    3    3    0  502  0.12934347839E+03 -0.20165435048E+03  0.11088048661E+04  0.11343914917E+04  0.12699999809E+01 0.  1.
</event>
<event>
 5   0  0.1007567E-05  0.3624145E+04  0.7818609E-02  0.8084983E-01
       -2   -1    0    0    0  501  0.00000000000E+00  0.00000000000E+00  0.15328443554E+04  0.15328443554E+04  0.25500000920E-02 0. -1.
        2   -1    0    0  501    0  0.00000000000E+00  0.00000000000E+00 -0.21421658838E+04  0.21421658838E+04  0.25500000920E-02 0.  1.
    10030    2    1    2    0    0  0.00000000000E+00  0.00000000000E+00 -0.60932152844E+03  0.36750102392E+04  0.36241450762E+04 0.  0.
        3    1    3    3  502    0  0.16436623707E+04 -0.75813603208E+03 -0.39076805385E+03  0.18517818214E+04  0.10100000352E+00 0.  1.
       -3    1    3    3    0  502 -0.16436623707E+04  0.75813603208E+03 -0.21855347459E+03  0.18232284178E+04  0.10100000352E+00 0. -1.
</event>
<event>
 5   0  0.3838525E-06  0.3085829E+04  0.7818609E-02  0.8219638E-01
       -1   -1    0    0    0  501  0.00000000000E+00  0.00000000000E+00  0.14383647520E+04  0.14383647520E+04  0.50400001928E-02 0. -1.
        1   -1    0    0  501    0  0.00000000000E+00  0.00000000000E+00 -0.16550638105E+04  0.16550638105E+04  0.50400001928E-02 0.  1.
    10030    2    1    2    0    0  0.00000000000E+00  0.00000000000E+00 -0.21669905844E+03  0.30934285625E+04  0.30858291899E+04 0.  0.
        3    1    3    3  502    0 -0.13150039298E+04 -0.80375624501E+03 -0.18150870576E+03  0.15518391853E+04  0.10100000352E+00 0.  1.
       -3    1    3    3    0  502  0.13150039298E+04  0.80375624501E+03 -0.35190352680E+02  0.15415893772E+04  0.10100000352E+00 0. -1.
</event>
<event>
 5   0  0.4250961E-06  0.3115284E+04  0.7818609E-02  0.8211556E-01
        1   -1    0    0  501    0  0.00000000000E+00  0.00000000000E+00  0.20531654172E+04  0.20531654172E+04  0.50400001928E-02 0.  1.
       -1   -1    0    0    0  501  0.00000000000E+00  0.00000000000E+00 -0.11817114648E+04  0.11817114648E+04  0.50400001928E-02 0. -1.
    10030    2    1    2    0    0  0.00000000000E+00  0.00000000000E+00  0.87145395241E+03  0.32348768820E+04  0.31152843290E+04 0.  0.
        1    1    3    3  502    0  0.12181543561E+04  0.51651651575E+03 -0.41775028362E+03  0.13875174398E+04  0.50400001928E-02 0. -1.
       -1    1    3    3    0  502 -0.12181543561E+04 -0.51651651575E+03  0.12892042360E+04  0.18473594422E+04  0.50400001928E-02 0.  1.
</event>
<event>
 5   0  0.3807334E-06  0.3110515E+04  0.7818609E-02  0.8212858E-01
       -1   -1    0    0    0  501  0.00000000000E+00  0.00000000000E+00  0.14521687218E+04  0.14521687218E+04  0.50400001928E-02 0.  1.
        1   -1    0    0  501    0  0.00000000000E+00  0.00000000000E+00 -0.16656645087E+04  0.16656645087E+04  0.50400001928E-02 0. -1.
    10030    2    1    2    0    0  0.00000000000E+00  0.00000000000E+00 -0.21349578694E+03  0.31178332305E+04  0.31105150060E+04 0.  0.
        4    1    3    3  502    0 -0.37113157497E+03  0.22278346338E+03 -0.16040673544E+04  0.16614466010E+04  0.12699999809E+01 0. -1.
       -4    1    3    3    0  502  0.37113157497E+03 -0.22278346338E+03  0.13905715675E+04  0.14563866295E+04  0.12699999809E+01 0.  1.
</event>
<event>
 5   0  0.1119100E-05  0.1586457E+04  0.7818609E-02  0.8828911E-01
       -2   -1    0    0    0  501  0.00000000000E+00  0.00000000000E+00  0.45956533441E+03  0.45956533442E+03  0.25500000920E-02 0. -1.
        2   -1    0    0  501    0  0.00000000000E+00  0.00000000000E+00 -0.13691445907E+04  0.13691445907E+04  0.25500000920E-02 0.  1.
    10030    2    1    2    0    0  0.00000000000E+00  0.00000000000E+00 -0.90957925627E+03  0.18287099251E+04  0.15864569224E+04 0.  0.
        2    1    3    3  502    0 -0.62674074426E+03 -0.26330474661E+03  0.16378847947E+02  0.68000118880E+03  0.25500000920E-02 0. -1.
       -2    1    3    3    0  502  0.62674074426E+03  0.26330474661E+03 -0.92595810422E+03  0.11487087363E+04  0.25500000920E-02 0.  1.
</event>
<event>
 5   0  0.1119100E-05  0.3143513E+04  0.7818609E-02  0.8203897E-01
        2   -1    0    0  501    0  0.00000000000E+00  0.00000000000E+00  0.16461182898E+04  0.16461182898E+04  0.25500000920E-02 0. -1.
       -2   -1    0    0    0  501  0.00000000000E+00  0.00000000000E+00 -0.15007538388E+04  0.15007538388E+04  0.25500000920E-02 0.  1.
    10030    2    1    2    0    0  0.00000000000E+00  0.00000000000E+00  0.14536445100E+03  0.31468721286E+04  0.31435129028E+04 0.  0.
        2    1    3    3  502    0  0.64575532618E+03  0.11898885641E+03  0.15022348747E+04  0.16394718381E+04  0.25500000920E-02 0. -1.
       -2    1    3    3    0  502 -0.64575532618E+03 -0.11898885641E+03 -0.13568704237E+04  0.15074002905E+04  0.25500000920E-02 0.  1.
</event>
<event>
 5   0  0.1119100E-05  0.3081344E+04  0.7818609E-02  0.8220877E-01
       -2   -1    0    0    0  501  0.00000000000E+00  0.00000000000E+00  0.20504990452E+04  0.20504990452E+04  0.25500000920E-02 0. -1.
        2   -1    0    0  501    0  0.00000000000E+00  0.00000000000E+00 -0.11576062288E+04  0.11576062288E+04  0.25500000920E-02 0.  1.
    10030    2    1    2    0    0  0.00000000000E+00  0.00000000000E+00  0.89289281635E+03  0.32081052740E+04  0.30813441657E+04 0.  0.
        2    1    3    3  502    0 -0.68275326079E+03  0.13301977746E+04  0.83334146818E+03  0.17117348326E+04  0.25500000920E-02 0. -1.
       -2    1    3    3    0  502  0.68275326079E+03 -0.13301977746E+04  0.59551348171E+02  0.14963704413E+04  0.25500000920E-02 0.  1.
</event>
<event>
 5   0  0.3848286E-06  0.3116890E+04  0.7818609E-02  0.8211118E-01
       -1   -1    0    0    0  501  0.00000000000E+00  0.00000000000E+00  0.11030879676E+04  0.11030879676E+04  0.50400001928E-02 0. -1.
        1   -1    0    0  501    0  0.00000000000E+00  0.00000000000E+00 -0.22017749826E+04  0.22017749826E+04  0.50400001928E-02 0.  1.
    10030    2    1    2    0    0  0.00000000000E+00  0.00000000000E+00 -0.10986870151E+04  0.33048629502E+04  0.31168904316E+04 0.  0.
        2    1    3    3  502    0 -0.14634749194E+04  0.53442724482E+03 -0.58873462776E+03  0.16655268781E+04  0.25500000920E-02 0. -1.
       -2    1    3    3    0  502  0.14634749194E+04 -0.53442724482E+03 -0.50995238730E+03  0.16393360721E+04  0.25500000920E-02 0.  1.
</event>
<event>
 5   0  0.3807334E-06  0.3127121E+04  0.7818609E-02  0.8208334E-01
        1   -1    0    0  501    0  0.00000000000E+00  0.00000000000E+00  0.16323439732E+04  0.16323439732E+04  0.50400001928E-02 0.  1.
       -1   -1    0    0    0  501  0.00000000000E+00  0.00000000000E+00 -0.14976752441E+04  0.14976752441E+04  0.50400001928E-02 0. -1.
    10030    2    1    2    0    0  0.00000000000E+00  0.00000000000E+00  0.13466872907E+03  0.31300192173E+04  0.31271208218E+04 0.  0.
        4    1    3    3  502    0  0.77115810260E+03  0.99877343181E+03 -0.85682328301E+03  0.15252478286E+04  0.12699999809E+01 0. -1.
       -4    1    3    3    0  502 -0.77115810260E+03 -0.99877343181E+03  0.99149201208E+03  0.16047713888E+04  0.12699999809E+01 0.  1.
</event>
<event>
 5   0  0.3838525E-06  0.3097562E+04  0.7818609E-02  0.8216407E-01
        1   -1    0    0  501    0  0.00000000000E+00  0.00000000000E+00  0.15926817957E+04  0.15926817957E+04  0.50400001928E-02 0.  1.
       -1   -1    0    0    0  501  0.00000000000E+00  0.00000000000E+00 -0.15060900229E+04  0.15060900229E+04  0.50400001928E-02 0. -1.
    10030    2    1    2    0    0  0.00000000000E+00  0.00000000000E+00  0.86591772726E+02  0.30987718186E+04  0.30975617264E+04 0.  0.
        3    1    3    3  502    0 -0.81187624699E+03 -0.37932385652E+03 -0.12204048346E+04  0.15140731815E+04  0.10100000352E+00 0. -1.
       -3    1    3    3    0  502  0.81187624699E+03  0.37932385652E+03  0.13069966073E+04  0.15846986371E+04  0.10100000352E+00 0.  1.
</event>
<event>
 5   0  0.1001961E-05  0.2760600E+04  0.7818609E-02  0.8315606E-01
        2   -1    0    0  501    0  0.00000000000E+00  0.00000000000E+00  0.15183627787E+04  0.15183627787E+04  0.25500000920E-02 0.  1.
       -2   -1    0    0    0  501  0.00000000000E+00  0.00000000000E+00 -0.12547909782E+04  0.12547909782E+04  0.25500000920E-02 0. -1.
    10030    2    1    2    0    0  0.00000000000E+00  0.00000000000E+00  0.26357180058E+03  0.27731537569E+04  0.27605998742E+04 0.  0.
        5    1    3    3  502    0  0.17979023993E+03 -0.11468725379E+04  0.88188408115E+03  0.14578692573E+04  0.46999998093E+01 0.  1.
       -5    1    3    3    0  502 -0.17979023993E+03  0.11468725379E+04 -0.61831228057E+03  0.13152844996E+04  0.46999998093E+01 0. -1.
</event>
<event>
 5   0  0.3807334E-06  0.3088010E+04  0.7818609E-02  0.8219036E-01
        1   -1    0    0  501    0  0.00000000000E+00  0.00000000000E+00  0.13757645195E+04  0.13757645195E+04  0.50400001928E-02 0.  1.
       -1   -1    0    0    0  501  0.00000000000E+00  0.00000000000E+00 -0.17328195182E+04  0.17328195182E+04  0.50400001928E-02 0. -1.
    10030    2    1    2    0    0  0.00000000000E+00  0.00000000000E+00 -0.35705499871E+03  0.31085840378E+04  0.30880101113E+04 0.  0.
        4    1    3    3  502    0  0.61945504077E+03  0.99393802736E+03 -0.11913683999E+04  0.16706279139E+04  0.12699999809E+01 0. -1.
       -4    1    3    3    0  502 -0.61945504077E+03 -0.99393802736E+03  0.83431340114E+03  0.14379561238E+04  0.12699999809E+01 0.  1.
</event>
<event>
 5   0  0.1001961E-05  0.3139138E+04  0.7818609E-02  0.8205078E-01
       -2   -1    0    0    0  501  0.00000000000E+00  0.00000000000E+00  0.13761282283E+04  0.13761282283E+04  0.25500000920E-02 0.  1.
        2   -1    0    0  501    0  0.00000000000E+00  0.00000000000E+00 -0.17902010484E+04  0.17902010484E+04  0.25500000920E-02 0. -1.
    10030    2    1    2    0    0  0.00000000000E+00  0.00000000000E+00 -0.41407282008E+03  0.31663292767E+04  0.31391375867E+04 0.  0.
        5    1    3    3  502    0 -0.12027879062E+04  0.10083629181E+04 -0.20155007547E+03  0.15824471697E+04  0.46999998093E+01 0.  1.
       -5    1    3    3    0  502  0.12027879062E+04 -0.10083629181E+04 -0.21252274461E+03  0.15838821070E+04  0.46999998093E+01 0. -1.
</event>
<event>
 5   0  0.3807334E-06  0.3109680E+04  0.7818609E-02  0.8213086E-01
        1   -1    0    0  501    0  0.00000000000E+00  0.00000000000E+00  0.16341020731E+04  0.16341020731E+04  0.50400001928E-02 0.  1.
       -1   -1    0    0    0  501  0.00000000000E+00  0.00000000000E+00 -0.14794221720E+04  0.14794221720E+04  0.50400001928E-02 0. -1.
    10030    2    1    2    0    0  0.00000000000E+00  0.00000000000E+00  0.15467990113E+03  0.31135242451E+04  0.31096796223E+04 0.  0.
        4    1    3    3  502    0  0.25848521910E+03  0.13046090138E+04  0.88375855922E+03  0.15968250033E+04  0.12699999809E+01 0.  1.
       -4    1    3    3    0  502 -0.25848521910E+03 -0.13046090138E+04 -0.72907865809E+03  0.15166992418E+04  0.12699999809E+01 0. -1.
</event>
<event>
 5   0  0.4139628E-06  0.2595939E+04  0.7818609E-02  0.8369582E-01
       -1   -1    0    0    0  501  0.00000000000E+00  0.00000000000E+00  0.11131531673E+04  0.11131531674E+04  0.50400001928E-02 0.  1.
        1   -1    0    0  501    0  0.00000000000E+00  0.00000000000E+00 -0.15134702849E+04  0.15134702849E+04  0.50400001928E-02 0. -1.
    10030    2    1    2    0    0  0.00000000000E+00  0.00000000000E+00 -0.40031711756E+03  0.26266234523E+04  0.25959385519E+04 0.  0.
        5    1    3    3  502    0 -0.19381299277E+03  0.63663711632E+03  0.92738884130E+03  0.11414650441E+04  0.46999998093E+01 0.  1.
       -5    1    3    3    0  502  0.19381299277E+03 -0.63663711632E+03 -0.13277059589E+04  0.14851584081E+04  0.46999998093E+01 0. -1.
</event>
<event>
 5   0  0.3838525E-06  0.2403115E+04  0.7818609E-02  0.8438338E-01
       -1   -1    0    0    0  501  0.00000000000E+00  0.00000000000E+00  0.47725317614E+03  0.47725317617E+03  0.50400001928E-02 0. -1.
        1   -1    0    0  501    0  0.00000000000E+00  0.00000000000E+00 -0.30251045287E+04  0.30251045287E+04  0.50400001928E-02 0.  1.
    10030    2    1    2    0    0  0.00000000000E+00  0.00000000000E+00 -0.25478513525E+04  0.35023577048E+04  0.24031152653E+04 0.  0.
        3    1    3    3  502    0  0.53200971190E+03  0.27668804416E+03 -0.27914323508E+04  0.28551156170E+04  0.10100000352E+00 0.  1.
       -3    1    3    3    0  502 -0.53200971190E+03 -0.27668804416E+03  0.24358099826E+03  0.64724208782E+03  0.10100000352E+00 0. -1.
</event>
<event>
 5   0  0.4250961E-06  0.1656919E+04  0.7818609E-02  0.8786324E-01
        1   -1    0    0  501    0  0.00000000000E+00  0.00000000000E+00  0.13592786188E+04  0.13592786188E+04  0.50400001928E-02 0.  1.
       -1   -1    0    0    0  501  0.00000000000E+00  0.00000000000E+00 -0.50493328646E+03  0.50493328649E+03  0.50400001928E-02 0. -1.
    10030    2    1    2    0    0  0.00000000000E+00  0.00000000000E+00  0.85434533237E+03  0.18642119053E+04  0.16569188517E+04 0.  0.
        1    1    3    3  502    0 -0.64388024757E+03 -0.48143627623E+03  0.20220078238E+03  0.82900411199E+03  0.50400001928E-02 0. -1.
       -1    1    3    3    0  502  0.64388024757E+03  0.48143627623E+03  0.65214454999E+03  0.10352077933E+04  0.50400001928E-02 0.  1.
</event>
<event>
 5   0  0.1108153E-05  0.3338808E+04  0.7818609E-02  0.8153090E-01
        2   -1    0    0  501    0  0.00000000000E+00  0.00000000000E+00  0.22658346784E+04  0.22658346784E+04  0.25500000920E-02 0. -1.
       -2   -1    0    0    0  501  0.00000000000E+00  0.00000000000E+00 -0.12299703852E+04  0.12299703852E+04  0.25500000920E-02 0.  1.
    10030    2    1    2    0    0  0.00000000000E+00  0.00000000000E+00  0.10358642932E+04  0.34958050636E+04  0.33388079024E+04 0.  0.
        4    1    3    3  502    0 -0.16333281543E+04 -0.18482840803E+03  0.82316290186E+03  0.18383474035E+04  0.12699999809E+01 0. -1.
       -4    1    3    3    0  502  0.16333281543E+04  0.18482840803E+03  0.21270139133E+03  0.16574576601E+04  0.12699999809E+01 0.  1.
</event>
<event>
 5   0  0.1119100E-05  0.2318136E+04  0.7818609E-02  0.8470805E-01
        2   -1    0    0  501    0  0.00000000000E+00  0.00000000000E+00  0.18596816322E+04  0.18596816322E+04  0.25500000920E-02 0.  1.
       -2   -1    0    0    0  501  0.00000000000E+00  0.00000000000E+00 -0.72240245589E+03  0.72240245590E+03  0.25500000920E-02 0. -1.
    10030    2    1    2    0    0  0.00000000000E+00  0.00000000000E+00  0.11372791763E+04  0.25820840881E+04  0.23181359566E+04 0.  0.
        2    1    3    3  502    0 -0.27700008762E+03  0.68542991863E+03  0.15629732134E+04  0.17289963816E+04  0.25500000920E-02 0.  1.
       -2    1    3    3    0  502  0.27700008762E+03 -0.68542991863E+03 -0.42569403701E+03  0.85308770654E+03  0.25500000920E-02 0. -1.
</event>
<event>
 5   0  0.3838525E-06  0.3098282E+04  0.7818609E-02  0.8216210E-01
        1   -1    0    0  501    0  0.00000000000E+00  0.00000000000E+00  0.22739858219E+04  0.22739858219E+04  0.50400001928E-02 0. -1.
       -1   -1    0    0    0  501  0.00000000000E+00  0.00000000000E+00 -0.10553439856E+04  0.10553439856E+04  0.50400001928E-02 0.  1.
    10030    2    1    2    0    0  0.00000000000E+00  0.00000000000E+00  0.12186418364E+04  0.33293298075E+04  0.30982816273E+04 0.  0.
        3    1    3    3  502    0 -0.14285196655E+04 -0.58940949764E+03  0.49276436814E+03  0.16220014560E+04  0.10100000352E+00 0. -1.
       -3    1    3    3    0  502  0.14285196655E+04  0.58940949764E+03  0.72587746823E+03  0.17073283515E+04  0.10100000352E+00 0.  1.
</event>
<event>
 5   0  0.1007567E-05  0.2820893E+04  0.7818609E-02  0.8296811E-01
       -2   -1    0    0    0  501  0.00000000000E+00  0.00000000000E+00  0.10587504002E+04  0.10587504002E+04  0.25500000920E-02 0. -1.
        2   -1    0    0  501    0  0.00000000000E+00  0.00000000000E+00 -0.18789689766E+04  0.18789689766E+04  0.25500000920E-02 0.  1.
    10030    2    1    2    0    0  0.00000000000E+00  0.00000000000E+00 -0.82021857645E+03  0.29377193768E+04  0.28208928770E+04 0.  0.
        3    1    3    3  502    0 -0.91359017428E+03  0.10617869508E+04 -0.23797439620E+03  0.14207991973E+04  0.10100000352E+00 0.  1.
       -3    1    3    3    0  502  0.91359017428E+03 -0.10617869508E+04 -0.58224418025E+03  0.15169201795E+04  0.10100000352E+00 0. -1.
</event>
<event>
 5   0  0.4250961E-06  0.3099729E+04  0.7818609E-02  0.8215812E-01
        1   -1    0    0  501    0  0.00000000000E+00  0.00000000000E+00  0.16166447037E+04  0.16166447037E+04  0.50400001928E-02 0.  1.
       -1   -1    0    0    0  501  0.00000000000E+00  0.00000000000E+00 -0.14858432535E+04  0.14858432535E+04  0.50400001928E-02 0. -1.
    10030    2    1    2    0    0  0.00000000000E+00  0.00000000000E+00  0.13080145022E+03  0.31024879572E+04  0.30997294245E+04 0.  0.
        1    1    3    3  502    0  0.50928980974E+03  0.14561097822E+04  0.21536335908E+03  0.15575664302E+04  0.50400001928E-02 0.  1.
       -1    1    3    3    0  502 -0.50928980974E+03 -0.14561097822E+04 -0.84561908862E+02  0.15449215270E+04  0.50400001928E-02 0. -1.
</event>
<event>
 5   0  0.3807334E-06  0.3105040E+04  0.7818609E-02  0.8214356E-01
       -1   -1    0    0    0  501  0.00000000000E+00  0.00000000000E+00  0.10642066478E+04  0.10642066478E+04  0.50400001928E-02 0.  1.
        1   -1    0    0  501    0  0.00000000000E+00  0.00000000000E+00 -0.22648973699E+04  0.22648973699E+04  0.50400001928E-02 0. -1.
    10030    2    1    2    0    0  0.00000000000E+00  0.00000000000E+00 -0.12006907221E+04  0.33291040176E+04  0.31050403138E+04 0.  0.
        4    1    3    3  502    0 -0.52109357898E+02 -0.42243370352E+03  0.10004282812E+04  0.10872092613E+04  0.12699999809E+01 0.  1.
       -4    1    3    3    0  502  0.52109357898E+02  0.42243370352E+03 -0.22011190033E+04  0.22418947564E+04  0.12699999809E+01 0. -1.
</event>
<event>
 5   0  0.4139628E-06  0.3154200E+04  0.7818609E-02  0.8201019E-01
        1   -1    0    0  501    0  0.00000000000E+00  0.00000000000E+00  0.14603495048E+04  0.14603495048E+04  0.50400001928E-02 0. -1.
       -1   -1    0    0    0  501  0.00000000000E+00  0.00000000000E+00 -0.17031841548E+04  0.17031841548E+04  0.50400001928E-02 0.  1.
    10030    2    1    2    0    0  0.00000000000E+00  0.00000000000E+00 -0.24283465002E+03  0.31635336596E+04  0.31541998269E+04 0.  0.
        5    1    3    3  502    0 -0.19777621954E+03  0.15100618813E+04 -0.53228763844E+03  0.16133054697E+04  0.46999998093E+01 0. -1.
       -5    1    3    3    0  502  0.19777621954E+03 -0.15100618813E+04  0.28945298842E+03  0.15502281899E+04  0.46999998093E+01 0.  1.
</event>
<event>
 5   0  0.1007567E-05  0.3054861E+04  0.7818609E-02  0.8228236E-01
        2   -1    0    0  501    0  0.00000000000E+00  0.00000000000E+00  0.15618081076E+04  0.15618081076E+04  0.25500000920E-02 0. -1.
       -2   -1    0    0    0  501  0.00000000000E+00  0.00000000000E+00 -0.14938094770E+04  0.14938094770E+04  0.25500000920E-02 0.  1.
    10030    2    1    2    0    0  0.00000000000E+00  0.00000000000E+00  0.67998630638E+02  0.30556175847E+04  0.30548608823E+04 0.  0.
        3    1    3    3  502    0  0.32934178924E+03 -0.83839547977E+03  0.12678650657E+04  0.15552668034E+04  0.10100000352E+00 0. -1.
       -3    1    3    3    0  502 -0.32934178924E+03  0.83839547977E+03 -0.11998664351E+04  0.15003507813E+04  0.10100000352E+00 0.  1.
</event>
<event>
 5   0  0.4250961E-06  0.2973219E+04  0.7818609E-02  0.8251420E-01
       -1   -1    0    0    0  501  0.00000000000E+00  0.00000000000E+00  0.15523561738E+04  0.15523561739E+04  0.50400001928E-02 0.  1.
        1   -1    0    0  501    0  0.00000000000E+00  0.00000000000E+00 -0.14236477997E+04  0.14236477997E+04  0.50400001928E-02 0. -1.
    10030    2    1    2    0    0  0.00000000000E+00  0.00000000000E+00  0.12870837412E+03  0.29760039736E+04  0.29732194344E+04 0.  0.
        1    1    3    3  502    0  0.65805154360E+03  0.71438342077E+03 -0.10621477266E+04  0.14392822166E+04  0.50400001928E-02 0. -1.
       -1    1    3    3    0  502 -0.65805154360E+03 -0.71438342077E+03  0.11908561007E+04  0.15367217570E+04  0.50400001928E-02 0.  1.
</event>
<event>
 5   0  0.9797278E-06  0.3247677E+04  0.7818609E-02  0.8176338E-01
       -2   -1    0    0    0  501  0.00000000000E+00  0.00000000000E+00  0.16304334216E+04  0.16304334216E+04  0.25500000920E-02 0.  1.
        2   -1    0    0  501    0  0.00000000000E+00  0.00000000000E+00 -0.16172706762E+04  0.16172706762E+04  0.25500000920E-02 0. -1.
    10030    2    1    2    0    0  0.00000000000E+00  0.00000000000E+00  0.13162745331E+02  0.32477040978E+04  0.32476774238E+04 0.  0.
        1    1    3    3  502    0 -0.11185274287E+03  0.11522307890E+04  0.11453204277E+04  0.16284672884E+04  0.50400001928E-02 0.  1.
       -1    1    3    3    0  502  0.11185274287E+03 -0.11522307890E+04 -0.11321576823E+04  0.16192368094E+04  0.50400001928E-02 0. -1.
</event>
<event>
 5   0  0.3807334E-06  0.2850136E+04  0.7818609E-02  0.8287870E-01
       -1   -1    0    0    0  501  0.00000000000E+00  0.00000000000E+00  0.13242155624E+04  0.13242155624E+04  0.50400001928E-02 0. -1.
        1   -1    0    0  501    0  0.00000000000E+00  0.00000000000E+00 -0.15336013275E+04  0.15336013275E+04  0.50400001928E-02 0.  1.
    10030    2    1    2    0    0  0.00000000000E+00  0.00000000000E+00 -0.20938576517E+03  0.28578168899E+04  0.28501359577E+04 0.  0.
        4    1    3    3  502    0 -0.11194517463E+04 -0.14651744885E+03  0.76723529533E+03  0.13650242439E+04  0.12699999809E+01 0. -1.
       -4    1    3    3    0  502  0.11194517463E+04  0.14651744885E+03 -0.97662106051E+03  0.14927926460E+04  0.12699999809E+01 0.  1.
</event>
<event>
 5   0  0.4139628E-06  0.3121723E+04  0.7818609E-02  0.8209801E-01
        1   -1    0    0  501    0  0.00000000000E+00  0.00000000000E+00  0.20795767664E+04  0.20795767664E+04  0.50400001928E-02 0.  1.
       -1   -1    0    0    0  501  0.00000000000E+00  0.00000000000E+00 -0.11715309802E+04  0.11715309802E+04  0.50400001928E-02 0. -1.
    10030    2    1    2    0    0  0.00000000000E+00  0.00000000000E+00  0.90804578616E+03  0.32511077466E+04  0.31217229906E+04 0.  0.
        5    1    3    3  502    0  0.25138956554E+03  0.15361672699E+04  0.57394727761E+03  0.16590491741E+04  0.46999998093E+01 0.  1.
       -5    1    3    3    0  502 -0.25138956554E+03 -0.15361672699E+04  0.33409850855E+03  0.15920585724E+04  0.46999998093E+01 0. -1.
</event>
<event>
 5   0  0.3848286E-06  0.2256831E+04  0.7818609E-02  0.8495139E-01
        1   -1    0    0  501    0  0.00000000000E+00  0.00000000000E+00  0.51436657946E+03  0.51436657949E+03  0.50400001928E-02 0. -1.
       -1   -1    0    0    0  501  0.00000000000E+00  0.00000000000E+00 -0.24755137921E+04  0.24755137921E+04  0.50400001928E-02 0.  1.
    10030    2    1    2    0    0  0.00000000000E+00  0.00000000000E+00 -0.19611472127E+04  0.29898803716E+04  0.22568310187E+04 0.  0.
        2    1    3    3  502    0  0.29349353983E+02 -0.28697434476E+03 -0.24258389021E+04  0.24429306249E+04  0.25500000920E-02 0.  1.
       -2    1    3    3    0  502 -0.29349353983E+02  0.28697434476E+03  0.46469168947E+03  0.54694974669E+03  0.25500000920E-02 0. -1.
</event>
<event>
 5   0  0.3848286E-06  0.2955411E+04  0.7818609E-02  0.8256580E-01
       -1   -1    0    0    0  501  0.00000000000E+00  0.00000000000E+00  0.11640457352E+04  0.11640457352E+04  0.50400001928E-02 0. -1.
        1   -1    0    0  501    0  0.00000000000E+00  0.00000000000E+00 -0.18758823656E+04  0.18758823656E+04  0.50400001928E-02 0.  1.
    10030    2    1    2    0    0  0.00000000000E+00  0.00000000000E+00 -0.71183663041E+03  0.30399281008E+04  0.29554105416E+04 0.  0.
        2    1    3    3  502    0 -0.71578198833E+02  0.69450457885E+03 -0.16955270884E+04  0.18336499546E+04  0.25500000920E-02 0.  1.
       -2    1    3    3    0  502  0.71578198833E+02 -0.69450457885E+03  0.98369045802E+03  0.12062781461E+04  0.25500000920E-02 0. -1.
</event>
<event>
 5   0  0.4139628E-06  0.2997094E+04  0.7818609E-02  0.8244561E-01
       -1   -1    0    0    0  501  0.00000000000E+00  0.00000000000E+00  0.11586031671E+04  0.11586031671E+04  0.50400001928E-02 0.  1.
        1   -1    0    0  501    0  0.00000000000E+00  0.00000000000E+00 -0.19382332870E+04  0.19382332870E+04  0.50400001928E-02 0. -1.
    10030    2    1    2    0    0  0.00000000000E+00  0.00000000000E+00 -0.77963011986E+03  0.30968364541E+04  0.29970940759E+04 0.  0.
        5    1    3    3  502    0 -0.13177206904E+04  0.63933578795E+03 -0.62275065517E+02  0.14659598703E+04  0.46999998093E+01 0.  1.
       -5    1    3    3    0  502  0.13177206904E+04 -0.63933578795E+03 -0.71735505435E+03  0.16308765838E+04  0.46999998093E+01 0. -1.
</event>
<event>
 5   0  0.1119100E-05  0.3193046E+04  0.7818609E-02  0.8190656E-01
       -2   -1    0    0    0  501  0.00000000000E+00  0.00000000000E+00  0.15956563860E+04  0.15956563860E+04  0.25500000920E-02 0.  1.
        2   -1    0    0  501    0  0.00000000000E+00  0.00000000000E+00 -0.15973900420E+04  0.15973900420E+04  0.25500000920E-02 0. -1.
    10030    2    1    2    0    0  0.00000000000E+00  0.00000000000E+00 -0.17336560077E+01  0.31930464279E+04  0.31930459573E+04 0.  0.
        2    1    3    3  502    0  0.91547129628E+03 -0.11708419668E+04  0.58216586060E+03  0.15962066579E+04  0.25500000920E-02 0. -1.
       -2    1    3    3    0  502 -0.91547129628E+03  0.11708419668E+04 -0.58389951661E+03  0.15968397700E+04  0.25500000920E-02 0.  1.
</event>
<event>
 5   0  0.3807334E-06  0.3243798E+04  0.7818609E-02  0.8177345E-01
        1   -1    0    0  501    0  0.00000000000E+00  0.00000000000E+00  0.14308497453E+04  0.14308497453E+04  0.50400001928E-02 0. -1.
       -1   -1    0    0    0  501  0.00000000000E+00  0.00000000000E+00 -0.18384579418E+04  0.18384579418E+04  0.50400001928E-02 0.  1.
    10030    2    1    2    0    0  0.00000000000E+00  0.00000000000E+00 -0.40760819657E+03  0.32693076871E+04  0.32437984387E+04 0.  0.
        4    1    3    3  502    0  0.61096366085E+02 -0.10199651915E+04  0.10656620140E+04  0.14763803367E+04  0.12699999809E+01 0.  1.
       -4    1    3    3    0  502 -0.61096366085E+02  0.10199651915E+04 -0.14732702105E+04  0.17929273504E+04  0.12699999809E+01 0. -1.
</event>
<event>
 5   0  0.4250961E-06  0.3059715E+04  0.7818609E-02  0.8226882E-01
        1   -1    0    0  501    0  0.00000000000E+00  0.00000000000E+00  0.99883201108E+03  0.99883201109E+03  0.50400001928E-02 0.  1.
       -1   -1    0    0    0  501  0.00000000000E+00  0.00000000000E+00 -0.23432002286E+04  0.23432002286E+04  0.50400001928E-02 0. -1.
    10030    2    1    2    0    0  0.00000000000E+00  0.00000000000E+00 -0.13443682175E+04  0.33420322397E+04  0.30597146251E+04 0.  0.
        1    1    3    3  502    0 -0.29590993339E+02  0.13033629304E+04  0.20219967159E+03  0.13192858911E+04  0.50400001928E-02 0. -1.
       -1    1    3    3    0  502  0.29590993339E+02 -0.13033629304E+04 -0.15465678891E+04  0.20227463486E+04  0.50400001928E-02 0.  1.
</event>
<event>
 5   0  0.4250961E-06  0.2506015E+04  0.7818609E-02  0.8400846E-01
        1   -1    0    0  501    0  0.00000000000E+00  0.00000000000E+00  0.16019989659E+04  0.16019989659E+04  0.50400001928E-02 0.  1.
       -1   -1    0    0    0  501  0.00000000000E+00  0.00000000000E+00 -0.98004274105E+03  0.98004274106E+03  0.50400001928E-02 0. -1.
    10030    2    1    2    0    0  0.00000000000E+00  0.00000000000E+00  0.62195622489E+03  0.25820417070E+04  0.25060147308E+04 0.  0.
        1    1    3    3  502    0 -0.28432855110E+03 -0.54874649579E+03  0.14340283630E+04  0.15615385962E+04  0.50400001928E-02 0.  1.
       -1    1    3    3    0  502  0.28432855110E+03  0.54874649579E+03 -0.81207213810E+03  0.10205031108E+04  0.50400001928E-02 0. -1.
</event>
<event>
 5   0  0.1108153E-05  0.3157046E+04  0.7818609E-02  0.8200254E-01
       -2   -1    0    0    0  501  0.00000000000E+00  0.00000000000E+00  0.17337511329E+04  0.17337511329E+04  0.25500000920E-02 0.  1.
        2   -1    0    0  501    0  0.00000000000E+00  0.00000000000E+00 -0.14371930600E+04  0.14371930600E+04  0.25500000920E-02 0. -1.
    10030    2    1    2    0    0  0.00000000000E+00  0.00000000000E+00  0.29655807289E+03  0.31709441929E+04  0.31570461486E+04 0.  0.
        4    1    3    3  502    0 -0.26317937747E+03  0.96561676246E+03  0.13743305722E+04  0.17001368331E+04  0.12699999809E+01 0.  1.
       -4    1    3    3    0  502  0.26317937747E+03 -0.96561676246E+03 -0.10777724993E+04  0.14708073599E+04  0.12699999809E+01 0. -1.
</event>
<event>
 5   0  0.3838525E-06  0.1826504E+04  0.7818609E-02  0.8692331E-01
       -1   -1    0    0    0  501  0.00000000000E+00  0.00000000000E+00  0.60662345885E+03  0.60662345887E+03  0.50400001928E-02 0. -1.
        1   -1    0    0  501    0  0.00000000000E+00  0.00000000000E+00 -0.13748708450E+04  0.13748708450E+04  0.50400001928E-02 0.  1.
    10030    2    1    2    0    0  0.00000000000E+00  0.00000000000E+00 -0.76824738612E+03  0.19814943039E+04  0.18265036627E+04 0.  0.
        3    1    3    3  502    0 -0.31992082791E+03 -0.64031596875E+03  0.23116785574E+03  0.75219177322E+03  0.10100000352E+00 0. -1.
       -3    1    3    3    0  502  0.31992082791E+03  0.64031596875E+03 -0.99941524186E+03  0.12293025306E+04  0.10100000352E+00 0.  1.
</event>
<event>
 5   0  0.1108153E-05  0.3087659E+04  0.7818609E-02  0.8219133E-01
       -2   -1    0    0    0  501  0.00000000000E+00  0.00000000000E+00  0.24512645168E+04  0.24512645168E+04  0.25500000920E-02 0.  1.
        2   -1    0    0  501    0  0.00000000000E+00  0.00000000000E+00 -0.97231850657E+03  0.97231850657E+03  0.25500000920E-02 0. -1.
    10030    2    1    2    0    0  0.00000000000E+00  0.00000000000E+00  0.14789460103E+04  0.34235830234E+04  0.30876592132E+04 0.  0.
        4    1    3    3  502    0  0.14105284551E+04 -0.39993770491E+02  0.14338820734E+04  0.20117677395E+04  0.12699999809E+01 0.  1.
       -4    1    3    3    0  502 -0.14105284551E+04  0.39993770491E+02  0.45063936831E+02  0.14118152839E+04  0.12699999809E+01 0. -1.
</event>
<event>
 5   0  0.1007567E-05  0.2744713E+04  0.7818609E-02  0.8320641E-01
        2   -1    0    0  501    0  0.00000000000E+00  0.00000000000E+00  0.12273272903E+04  0.12273272903E+04  0.25500000920E-02 0. -1.
       -2   -1    0    0    0  501  0.00000000000E+00  0.00000000000E+00 -0.15345232329E+04  0.15345232329E+04  0.25500000920E-02 0.  1.
    10030    2    1    2    0    0  0.00000000000E+00  0.00000000000E+00 -0.30719594258E+03  0.27618505232E+04  0.27447129113E+04 0.  0.
        3    1    3    3  502    0  0.81582611678E+02 -0.95877987533E+02  0.12215048356E+04  0.12279749121E+04  0.10100000352E+00 0. -1.
       -3    1    3    3    0  502 -0.81582611678E+02  0.95877987533E+02 -0.15287007782E+04  0.15338756112E+04  0.10100000352E+00 0.  1.
</event>
<event>
 5   0  0.9797278E-06  0.3076024E+04  0.7818609E-02  0.8222349E-01
        2   -1    0    0  501    0  0.00000000000E+00  0.00000000000E+00  0.97475002548E+03  0.97475002548E+03  0.25500000920E-02 0.  1.
       -2   -1    0    0    0  501  0.00000000000E+00  0.00000000000E+00 -0.24267560439E+04  0.24267560439E+04  0.25500000920E-02 0. -1.
    10030    2    1    2    0    0  0.00000000000E+00  0.00000000000E+00 -0.14520060184E+04  0.34015060693E+04  0.30760237422E+04 0.  0.
        1    1    3    3  502    0  0.13914925720E+04 -0.61732438973E+03 -0.48337970432E+03  0.15971840591E+04  0.50400001928E-02 0.  1.
       -1    1    3    3    0  502 -0.13914925720E+04  0.61732438973E+03 -0.96862631407E+03  0.18043220102E+04  0.50400001928E-02 0. -1.
</event>
<event>
 5   0  0.1108153E-05  0.3138094E+04  0.7818609E-02  0.8205360E-01
       -2   -1    0    0    0  501  0.00000000000E+00  0.00000000000E+00  0.14939332529E+04  0.14939332529E+04  0.25500000920E-02 0.  1.
        2   -1    0    0  501    0  0.00000000000E+00  0.00000000000E+00 -0.16479372800E+04  0.16479372800E+04  0.25500000920E-02 0. -1.
    10030    2    1    2    0    0  0.00000000000E+00  0.00000000000E+00 -0.15400402706E+03  0.31418705329E+04  0.31380938808E+04 0.  0.
        4    1    3    3  502    0 -0.99706477221E+03  0.36868873743E+03  0.10784393597E+04  0.15142993794E+04  0.12699999809E+01 0.  1.
       -4    1    3    3    0  502  0.99706477221E+03 -0.36868873743E+03 -0.12324433867E+04  0.16275711534E+04  0.12699999809E+01 0. -1.
</event>
<event>
 5   0  0.3838525E-06  0.3073309E+04  0.7818609E-02  0.8223102E-01
        1   -1    0    0  501    0  0.00000000000E+00  0.00000000000E+00  0.25703026111E+04  0.25703026111E+04  0.50400001928E-02 0. -1.
       -1   -1    0    0    0  501  0.00000000000E+00  0.00000000000E+00 -0.91868807959E+03  0.91868807960E+03  0.50400001928E-02 0.  1.
    10030    2    1    2    0    0  0.00000000000E+00  0.00000000000E+00  0.16516145315E+04  0.34889906907E+04  0.30733085558E+04 0.  0.
        3    1    3    3  502    0  0.27774889933E+03 -0.12279412845E+04  0.18260712307E+04  0.22179991883E+04  0.10100000352E+00 0. -1.
       -3    1    3    3    0  502 -0.27774889933E+03  0.12279412845E+04 -0.17445669919E+03  0.12709915025E+04  0.10100000352E+00 0.  1.
</event>
<event>
 5   0  0.1007567E-05  0.2970841E+04  0.7818609E-02  0.8252107E-01
       -2   -1    0    0    0  501  0.00000000000E+00  0.00000000000E+00  0.12908383697E+04  0.12908383697E+04  0.25500000920E-02 0. -1.
        2   -1    0    0  501    0  0.00000000000E+00  0.00000000000E+00 -0.17093336604E+04  0.17093336604E+04  0.25500000920E-02 0.  1.
    10030    2    1    2    0    0  0.00000000000E+00  0.00000000000E+00 -0.41849529068E+03  0.30001720302E+04  0.29708406053E+04 0.  0.
        3    1    3    3  502    0  0.70667737035E+03 -0.53431095050E+02 -0.15275965388E+04  0.16839830709E+04  0.10100000352E+00 0.  1.
       -3    1    3    3    0  502 -0.70667737035E+03  0.53431095050E+02  0.11091012481E+04  0.13161889592E+04  0.10100000352E+00 0. -1.
</event>
<event>
 5   0  0.3838525E-06  0.2791028E+04  0.7818609E-02  0.8306059E-01
        1   -1    0    0  501    0  0.00000000000E+00  0.00000000000E+00  0.16735391878E+04  0.16735391878E+04  0.50400001928E-02 0.  1.
       -1   -1    0    0    0  501  0.00000000000E+00  0.00000000000E+00 -0.11636773873E+04  0.11636773873E+04  0.50400001928E-02 0. -1.
    10030    2    1    2    0    0  0.00000000000E+00  0.00000000000E+00  0.50986180042E+03  0.28372165751E+04  0.27910282762E+04 0.  0.
        3    1    3    3  502    0  0.22974459441E+03 -0.27120718691E+03  0.16267536000E+04  0.16651315871E+04  0.10100000352E+00 0.  1.
       -3    1    3    3    0  502 -0.22974459441E+03  0.27120718691E+03 -0.11168917996E+04  0.11720849880E+04  0.10100000352E+00 0. -1.
</event>
<event>
 5   0  0.1108153E-05  0.2638282E+04  0.7818609E-02  0.8355313E-01
        2   -1    0    0  501    0  0.00000000000E+00  0.00000000000E+00  0.10839272225E+04  0.10839272225E+04  0.25500000920E-02 0.  1.
       -2   -1    0    0    0  501  0.00000000000E+00  0.00000000000E+00 -0.16053959995E+04  0.16053959995E+04  0.25500000920E-02 0. -1.
    10030    2    1    2    0    0  0.00000000000E+00  0.00000000000E+00 -0.52146877706E+03  0.26893232220E+04  0.26382815822E+04 0.  0.
        4    1    3    3  502    0 -0.34486629154E+03 -0.73038685911E+03  0.80238741868E+03  0.11385187331E+04  0.12699999809E+01 0.  1.
       -4    1    3    3    0  502  0.34486629154E+03  0.73038685911E+03 -0.13238561957E+04  0.15508044889E+04  0.12699999809E+01 0. -1.
</event>
<event>
 5   0  0.1119100E-05  0.1701162E+04  0.7818609E-02  0.8760702E-01
        2   -1    0    0  501    0  0.00000000000E+00  0.00000000000E+00  0.23466517417E+04  0.23466517417E+04  0.25500000920E-02 0.  1.
       -2   -1    0    0    0  501  0.00000000000E+00  0.00000000000E+00 -0.30830638338E+03  0.30830638339E+03  0.25500000920E-02 0. -1.
    10030    2    1    2    0    0  0.00000000000E+00  0.00000000000E+00  0.20383453583E+04  0.26549581251E+04  0.17011616167E+04 0.  0.
        2    1    3    3  502    0 -0.55764259828E+03  0.62741790442E+03  0.12335550374E+04  0.14920712197E+04  0.25500000920E-02 0.  1.
       -2    1    3    3    0  502  0.55764259828E+03 -0.62741790442E+03  0.80479032093E+03  0.11628869055E+04  0.25500000920E-02 0. -1.
</event>
<event>
 5   0  0.9797278E-06  0.3128027E+04  0.7818609E-02  0.8208088E-01
        2   -1    0    0  501    0  0.00000000000E+00  0.00000000000E+00  0.25657991932E+04  0.25657991932E+04  0.25500000920E-02 0.  1.
       -2   -1    0    0    0  501  0.00000000000E+00  0.00000000000E+00 -0.95336307012E+03  0.95336307012E+03  0.25500000920E-02 0. -1.
    10030    2    1    2    0    0  0.00000000000E+00  0.00000000000E+00  0.16124361231E+04  0.35191622633E+04  0.31280269795E+04 0.  0.
        1    1    3    3  502    0 -0.21035627765E+03  0.26353997155E+03  0.25244175579E+04  0.25468386456E+04  0.50400001928E-02 0.  1.
       -1    1    3    3    0  502  0.21035627765E+03 -0.26353997155E+03 -0.91198143480E+03  0.97232361773E+03  0.50400001928E-02 0. -1.
</event>
<event>
 5   0  0.1007567E-05  0.1580874E+04  0.7818609E-02  0.8832384E-01
       -2   -1    0    0    0  501  0.00000000000E+00  0.00000000000E+00  0.30505123801E+03  0.30505123802E+03  0.25500000920E-02 0. -1.
        2   -1    0    0  501    0  0.00000000000E+00  0.00000000000E+00 -0.20481509580E+04  0.20481509580E+04  0.25500000920E-02 0.  1.
    10030    2    1    2    0    0  0.00000000000E+00  0.00000000000E+00 -0.17430997200E+04  0.23532021960E+04  0.15808744231E+04 0.  0.
        3    1    3    3  502    0 -0.13121453800E+03  0.73539454769E+03 -0.48691562205E+03  0.89168897546E+03  0.10100000352E+00 0. -1.
       -3    1    3    3    0  502  0.13121453800E+03 -0.73539454769E+03 -0.12561840979E+04  0.14615132205E+04  0.10100000352E+00 0.  1.
</event>
<event>
 5   0  0.1119100E-05  0.1696297E+04  0.7818609E-02  0.8763479E-01
        2   -1    0    0  501    0  0.00000000000E+00  0.00000000000E+00  0.16506753277E+04  0.16506753277E+04  0.25500000920E-02 0.  1.
       -2   -1    0    0    0  501  0.00000000000E+00  0.00000000000E+00 -0.43579509336E+03  0.43579509336E+03  0.25500000920E-02 0. -1.
    10030    2    1    2    0    0  0.00000000000E+00  0.00000000000E+00  0.12148802344E+04  0.20864704211E+04  0.16962973897E+04 0.  0.
        2    1    3    3  502    0 -0.29917728059E+03 -0.48976230235E+03  0.13755662625E+04  0.14904887455E+04  0.25500000920E-02 0.  1.
       -2    1    3    3    0  502  0.29917728059E+03  0.48976230235E+03 -0.16068602808E+03  0.59598167560E+03  0.25500000920E-02 0. -1.
</event>
<event>
 5   0  0.3848286E-06  0.1650028E+04  0.7818609E-02  0.8790390E-01
        1   -1    0    0  501    0  0.00000000000E+00  0.00000000000E+00  0.15763384133E+04  0.15763384133E+04  0.50400001928E-02 0. -1.
       -1   -1    0    0    0  501  0.00000000000E+00  0.00000000000E+00 -0.43179060728E+03  0.43179060731E+03  0.50400001928E-02 0.  1.
    10030    2    1    2    0    0  0.00000000000E+00  0.00000000000E+00  0.11445478060E+04  0.20081290206E+04  0.16500280250E+04 0.  0.
        2    1    3    3  502    0 -0.32345860795E+03 -0.41993517399E+03  0.13416787614E+04  0.14425924303E+04  0.25500000920E-02 0. -1.
       -2    1    3    3    0  502  0.32345860795E+03  0.41993517399E+03 -0.19713095532E+03  0.56553659030E+03  0.25500000920E-02 0.  1.
</event>
<event>
 5   0  0.3848286E-06  0.2989264E+04  0.7818609E-02  0.8246803E-01
        1   -1    0    0  501    0  0.00000000000E+00  0.00000000000E+00  0.19422640730E+04  0.19422640730E+04  0.50400001928E-02 0. -1.
       -1   -1    0    0    0  501  0.00000000000E+00  0.00000000000E+00 -0.11501654420E+04  0.11501654420E+04  0.50400001928E-02 0.  1.
    10030    2    1    2    0    0  0.00000000000E+00  0.00000000000E+00  0.79209863101E+03  0.30924295150E+04  0.29892641342E+04 0.  0.
        2    1    3    3  502    0  0.14099850358E+04  0.34714199941E+03  0.76233032151E+03  0.16400344168E+04  0.25500000920E-02 0. -1.
       -2    1    3    3    0  502 -0.14099850358E+04 -0.34714199941E+03  0.29768309508E+02  0.14523950982E+04  0.25500000920E-02 0.  1.
</event>
<event>
 5   0  0.3807334E-06  0.3104080E+04  0.7818609E-02  0.8214619E-01
       -1   -1    0    0    0  501  0.00000000000E+00  0.00000000000E+00  0.10953014271E+04  0.10953014271E+04  0.50400001928E-02 0. -1.
        1   -1    0    0  501    0  0.00000000000E+00  0.00000000000E+00 -0.21992378852E+04  0.21992378852E+04  0.50400001928E-02 0.  1.
    10030    2    1    2    0    0  0.00000000000E+00  0.00000000000E+00 -0.11039364581E+04  0.32945393123E+04  0.31040801498E+04 0.  0.
        4    1    3    3  502    0  0.78345391104E+03  0.60511213984E+03 -0.18206640991E+04  0.20723851252E+04  0.12699999809E+01 0. -1.
       -4    1    3    3    0  502 -0.78345391104E+03 -0.60511213984E+03  0.71672764108E+03  0.12221541870E+04  0.12699999809E+01 0.  1.
</event>
<event>
 5   0  0.4139628E-06  0.2851362E+04  0.7818609E-02  0.8287497E-01
       -1   -1    0    0    0  501  0.00000000000E+00  0.00000000000E+00  0.95581607241E+03  0.95581607242E+03  0.50400001928E-02 0. -1.
        1   -1    0    0  501    0  0.00000000000E+00  0.00000000000E+00 -0.21265250539E+04  0.21265250539E+04  0.50400001928E-02 0.  1.
    10030    2    1    2    0    0  0.00000000000E+00  0.00000000000E+00 -0.11707089815E+04  0.30823411263E+04  0.28513623585E+04 0.  0.
        5    1    3    3  502    0  0.57253689874E+03 -0.99967292446E+03 -0.14932713951E+04  0.18860079549E+04  0.46999998093E+01 0.  1.
       -5    1    3    3    0  502 -0.57253689874E+03  0.99967292446E+03  0.32256241368E+03  0.11963331714E+04  0.46999998093E+01 0. -1.
</event>
<event>
 5   0  0.4139628E-06  0.1770469E+04  0.7818609E-02  0.8722164E-01
       -1   -1    0    0    0  501  0.00000000000E+00  0.00000000000E+00  0.56007043594E+03  0.56007043596E+03  0.50400001928E-02 0.  1.
        1   -1    0    0  501    0  0.00000000000E+00  0.00000000000E+00 -0.13991806415E+04  0.13991806415E+04  0.50400001928E-02 0. -1.
    10030    2    1    2    0    0  0.00000000000E+00  0.00000000000E+00 -0.83911020555E+03  0.19592510775E+04  0.17704685390E+04 0.  0.
        5    1    3    3  502    0  0.22254599151E+03  0.85567860347E+03 -0.46785574612E+03  0.10003117914E+04  0.46999998093E+01 0. -1.
       -5    1    3    3    0  502 -0.22254599151E+03 -0.85567860347E+03 -0.37125445944E+03  0.95893928610E+03  0.46999998093E+01 0.  1.
</event>
<event>
 5   0  0.1007567E-05  0.2821530E+04  0.7818609E-02  0.8296615E-01
        2   -1    0    0  501    0  0.00000000000E+00  0.00000000000E+00  0.21302260113E+04  0.21302260113E+04  0.25500000920E-02 0.  1.
       -2   -1    0    0    0  501  0.00000000000E+00  0.00000000000E+00 -0.93429452715E+03  0.93429452715E+03  0.25500000920E-02 0. -1.
    10030    2    1    2    0    0  0.00000000000E+00  0.00000000000E+00  0.11959314841E+04  0.30645205384E+04  0.28215304386E+04 0.  0.
        3    1    3    3  502    0  0.97854422359E+03 -0.48274178868E+03  0.15692206247E+04  0.19112932301E+04  0.10100000352E+00 0.  1.
       -3    1    3    3    0  502 -0.97854422359E+03  0.48274178868E+03 -0.37328914059E+03  0.11532273084E+04  0.10100000352E+00 0. -1.
</event>
<event>
 5   0  0.1007567E-05  0.3062925E+04  0.7818609E-02  0.8225987E-01
        2   -1    0    0  501    0  0.00000000000E+00  0.00000000000E+00  0.20116343154E+04  0.20116343154E+04  0.25500000920E-02 0. -1.
       -2   -1    0    0    0  501  0.00000000000E+00  0.00000000000E+00 -0.11659062015E+04  0.11659062015E+04  0.25500000920E-02 0.  1.
    10030    2    1    2    0    0  0.00000000000E+00  0.00000000000E+00  0.84572811385E+03  0.31775405169E+04  0.30629246961E+04 0.  0.
        3    1    3    3  502    0  0.18092264053E+00 -0.60328828702E+03  0.18831673417E+04  0.19774417911E+04  0.10100000352E+00 0. -1.
       -3    1    3    3    0  502 -0.18092264053E+00  0.60328828702E+03 -0.10374392278E+04  0.12000987258E+04  0.10100000352E+00 0.  1.
</event>
<event>
 5   0  0.4139628E-06  0.1652855E+04  0.7818609E-02  0.8788719E-01
       -1   -1    0    0    0  501  0.00000000000E+00  0.00000000000E+00  0.13098630593E+04  0.13098630593E+04  0.50400001928E-02 0.  1.
        1   -1    0    0  501    0  0.00000000000E+00  0.00000000000E+00 -0.52141536104E+03  0.52141536107E+03  0.50400001928E-02 0. -1.
    10030    2    1    2    0    0  0.00000000000E+00  0.00000000000E+00  0.78844769825E+03  0.18312784204E+04  0.16528553718E+04 0.  0.
        5    1    3    3  502    0 -0.60786970842E+03 -0.64523691646E+01  0.10144903329E+04  0.11826918200E+04  0.46999998093E+01 0.  1.
       -5    1    3    3    0  502  0.60786970842E+03  0.64523691646E+01 -0.22604263468E+03  0.64858660037E+03  0.46999998093E+01 0. -1.
</event>
<event>
 5   0  0.9797278E-06  0.2932377E+04  0.7818609E-02  0.8263309E-01
       -2   -1    0    0    0  501  0.00000000000E+00  0.00000000000E+00  0.10234498997E+04  0.10234498998E+04  0.25500000920E-02 0.  1.
        2   -1    0    0  501    0  0.00000000000E+00  0.00000000000E+00 -0.21004534731E+04  0.21004534731E+04  0.25500000920E-02 0. -1.
    10030    2    1    2    0    0  0.00000000000E+00  0.00000000000E+00 -0.10770035734E+04  0.31239033729E+04  0.29323771221E+04 0.  0.
        1    1    3    3  502    0 -0.12678747237E+02 -0.31108691924E+03  0.98782751182E+03  0.10357311500E+04  0.50400001928E-02 0.  1.
       -1    1    3    3    0  502  0.12678747237E+02  0.31108691924E+03 -0.20648310852E+04  0.20881722229E+04  0.50400001928E-02 0. -1.
</event>
<event>
 5   0  0.3848286E-06  0.3161204E+04  0.7818609E-02  0.8199139E-01
        1   -1    0    0  501    0  0.00000000000E+00  0.00000000000E+00  0.14127159443E+04  0.14127159443E+04  0.50400001928E-02 0.  1.
       -1   -1    0    0    0  501  0.00000000000E+00  0.00000000000E+00 -0.17684399741E+04  0.17684399741E+04  0.50400001928E-02 0. -1.
    10030    2    1    2    0    0  0.00000000000E+00  0.00000000000E+00 -0.35572402985E+03  0.31811559185E+04  0.31612044211E+04 0.  0.
        2    1    3    3  502    0 -0.34682473496E+02  0.72553012996E+03 -0.15905405624E+04  0.17485468607E+04  0.25500000920E-02 0. -1.
       -2    1    3    3    0  502  0.34682473496E+02 -0.72553012996E+03  0.12348165325E+04  0.14326090578E+04  0.25500000920E-02 0.  1.
</event>
<event>
 5   0  0.1007567E-05  0.1780687E+04  0.7818609E-02  0.8716638E-01
        2   -1    0    0  501    0  0.00000000000E+00  0.00000000000E+00  0.15866455599E+04  0.15866455599E+04  0.25500000920E-02 0. -1.
       -2   -1    0    0    0  501  0.00000000000E+00  0.00000000000E+00 -0.49961463550E+03  0.49961463551E+03  0.25500000920E-02 0.  1.
    10030    2    1    2    0    0  0.00000000000E+00  0.00000000000E+00  0.10870309244E+04  0.20862601954E+04  0.17806867699E+04 0.  0.
        3    1    3    3  502    0  0.86220914859E+03  0.14411753877E+03  0.34559806470E+03  0.94000665605E+03  0.10100000352E+00 0.  1.
       -3    1    3    3    0  502 -0.86220914859E+03 -0.14411753877E+03  0.74143285972E+03  0.11462535394E+04  0.10100000352E+00 0. -1.
</event>
<event>
 5   0  0.1108153E-05  0.3369922E+04  0.7818609E-02  0.8145328E-01
       -2   -1    0    0    0  501  0.00000000000E+00  0.00000000000E+00  0.27592809815E+04  0.27592809815E+04  0.25500000920E-02 0. -1.
        2   -1    0    0  501    0  0.00000000000E+00  0.00000000000E+00 -0.10289251200E+04  0.10289251200E+04  0.25500000920E-02 0.  1.
    10030    2    1    2    0    0  0.00000000000E+00  0.00000000000E+00  0.17303558615E+04  0.37882061015E+04  0.33699219665E+04 0.  0.
        4    1    3    3  502    0  0.77801929834E+03 -0.21081321761E+03  0.25284754136E+04  0.26538548889E+04  0.12699999809E+01 0. -1.
       -4    1    3    3    0  502 -0.77801929834E+03  0.21081321761E+03 -0.79811955209E+03  0.11343512126E+04  0.12699999809E+01 0.  1.
</event>
<event>
 5   0  0.1001961E-05  0.3087479E+04  0.7818609E-02  0.8219183E-01
       -2   -1    0    0    0  501  0.00000000000E+00  0.00000000000E+00  0.11150938824E+04  0.11150938824E+04  0.25500000920E-02 0. -1.
        2   -1    0    0  501    0  0.00000000000E+00  0.00000000000E+00 -0.21371576381E+04  0.21371576381E+04  0.25500000920E-02 0.  1.
    10030    2    1    2    0    0  0.00000000000E+00  0.00000000000E+00 -0.10220637557E+04  0.32522515204E+04  0.30874788471E+04 0.  0.
        5    1    3    3  502    0  0.54916110800E+03  0.62947918547E+03  0.85643594211E+03  0.11963806169E+04  0.46999998093E+01 0. -1.
       -5    1    3    3    0  502 -0.54916110800E+03 -0.62947918547E+03 -0.18784996978E+04  0.20558709036E+04  0.46999998093E+01 0.  1.
</event>
<event>
 5   0  0.4250961E-06  0.2098967E+04  0.7818609E-02  0.8561699E-01
        1   -1    0    0  501    0  0.00000000000E+00  0.00000000000E+00  0.11241406241E+04  0.11241406241E+04  0.50400001928E-02 0. -1.
       -1   -1    0    0    0  501  0.00000000000E+00  0.00000000000E+00 -0.97978413041E+03  0.97978413042E+03  0.50400001928E-02 0.  1.
    10030    2    1    2    0    0  0.00000000000E+00  0.00000000000E+00  0.14435649367E+03  0.21039247545E+04  0.20989665494E+04 0.  0.
        1    1    3    3  502    0 -0.41267237933E+03  0.74826033590E+02  0.10364890989E+04  0.11181265940E+04  0.50400001928E-02 0. -1.
       -1    1    3    3    0  502  0.41267237933E+03 -0.74826033590E+02 -0.89213260523E+03  0.98579816054E+03  0.50400001928E-02 0.  1.
</event>
<event>
 5   0  0.3838525E-06  0.3233095E+04  0.7818609E-02  0.8180131E-01
        1   -1    0    0  501    0  0.00000000000E+00  0.00000000000E+00  0.23856796035E+04  0.23856796035E+04  0.50400001928E-02 0.  1.
       -1   -1    0    0    0  501  0.00000000000E+00  0.00000000000E+00 -0.10953798158E+04  0.10953798158E+04  0.50400001928E-02 0. -1.
    10030    2    1    2    0    0  0.00000000000E+00  0.00000000000E+00  0.12902997876E+04  0.34810594193E+04  0.32330946690E+04 0.  0.
        3    1    3    3  502    0  0.94960484354E+03 -0.35089751102E+03 -0.71180586459E+03  0.12375564719E+04  0.10100000352E+00 0. -1.
       -3    1    3    3    0  502 -0.94960484354E+03  0.35089751102E+03  0.20021056522E+04  0.22435029474E+04  0.10100000352E+00 0.  1.
</event>
<event>
 5   0  0.3807334E-06  0.3115315E+04  0.7818609E-02  0.8211547E-01
       -1   -1    0    0    0  501  0.00000000000E+00  0.00000000000E+00  0.16569769691E+04  0.16569769691E+04  0.50400001928E-02 0. -1.
        1   -1    0    0  501    0  0.00000000000E+00  0.00000000000E+00 -0.14642914116E+04  0.14642914116E+04  0.50400001928E-02 0.  1.
    10030    2    1    2    0    0  0.00000000000E+00  0.00000000000E+00  0.19268555746E+03  0.31212683807E+04  0.31153151655E+04 0.  0.
        4    1    3    3  502    0  0.13936562337E+04  0.59909769834E+03  0.45071314739E+03  0.15825105700E+04  0.12699999809E+01 0. -1.
       -4    1    3    3    0  502 -0.13936562337E+04 -0.59909769834E+03 -0.25802758993E+03  0.15387578107E+04  0.12699999809E+01 0.  1.
</event>
<event>
 5   0  0.4139628E-06  0.3125278E+04  0.7818609E-02  0.8208835E-01
       -1   -1    0    0    0  501  0.00000000000E+00  0.00000000000E+00  0.12749689887E+04  0.12749689887E+04  0.50400001928E-02 0. -1.
        1   -1    0    0  501    0  0.00000000000E+00  0.00000000000E+00 -0.19152154945E+04  0.19152154945E+04  0.50400001928E-02 0.  1.
    10030    2    1    2    0    0  0.00000000000E+00  0.00000000000E+00 -0.64024650587E+03  0.31901844832E+04  0.31252778194E+04 0.  0.
        5    1    3    3  502    0  0.71291312671E+03 -0.43800534115E+03 -0.16672761673E+04  0.18654558995E+04  0.46999998093E+01 0.  1.
       -5    1    3    3    0  502 -0.71291312671E+03  0.43800534115E+03  0.10270296614E+04  0.13247285837E+04  0.46999998093E+01 0. -1.
</event>
<event>
 5   0  0.1007567E-05  0.3080830E+04  0.7818609E-02  0.8221019E-01
        2   -1    0    0  501    0  0.00000000000E+00  0.00000000000E+00  0.16210325490E+04  0.16210325490E+04  0.25500000920E-02 0.  1.
       -2   -1    0    0    0  501  0.00000000000E+00  0.00000000000E+00 -0.14638065956E+04  0.14638065956E+04  0.25500000920E-02 0. -1.
    10030    2    1    2    0    0  0.00000000000E+00  0.00000000000E+00  0.15722595341E+03  0.30848391446E+04  0.30808298473E+04 0.  0.
        3    1    3    3  502    0  0.96665302201E+03  0.75906697746E+03 -0.85118438212E+03  0.14950303020E+04  0.10100000352E+00 0.  1.
       -3    1    3    3    0  502 -0.96665302201E+03 -0.75906697746E+03  0.10084103355E+04  0.15898088427E+04  0.10100000352E+00 0. -1.
</event>
<event>
 5   0  0.3848286E-06  0.3197470E+04  0.7818609E-02  0.8189486E-01
        1   -1    0    0  501    0  0.00000000000E+00  0.00000000000E+00  0.22765134567E+04  0.22765134567E+04  0.50400001928E-02 0.  1.
       -1   -1    0    0    0  501  0.00000000000E+00  0.00000000000E+00 -0.11227491789E+04  0.11227491789E+04  0.50400001928E-02 0. -1.
    10030    2    1    2    0    0  0.00000000000E+00  0.00000000000E+00  0.11537642778E+04  0.33992626356E+04  0.31974700088E+04 0.  0.
        2    1    3    3  502    0  0.98968570381E+03 -0.90602573874E+03 -0.34722485341E+03  0.13859745778E+04  0.25500000920E-02 0. -1.
       -2    1    3    3    0  502 -0.98968570381E+03  0.90602573874E+03  0.15009891312E+04  0.20132880577E+04  0.25500000920E-02 0.  1.
</event>
<event>
 5   0  0.3807334E-06  0.3074243E+04  0.7818609E-02  0.8222843E-01
       -1   -1    0    0    0  501  0.00000000000E+00  0.00000000000E+00  0.21877400271E+04  0.21877400271E+04  0.50400001928E-02 0. -1.
        1   -1    0    0  501    0  0.00000000000E+00  0.00000000000E+00 -0.10799920279E+04  0.10799920279E+04  0.50400001928E-02 0.  1.
    10030    2    1    2    0    0  0.00000000000E+00  0.00000000000E+00  0.11077479991E+04  0.32677320550E+04  0.30742425333E+04 0.  0.
        4    1    3    3  502    0 -0.20854449913E+03 -0.10404678199E+04 -0.62817721176E+03  0.12331554300E+04  0.12699999809E+01 0.  1.
       -4    1    3    3    0  502  0.20854449913E+03  0.10404678199E+04  0.17359252109E+04  0.20345766250E+04  0.12699999809E+01 0. -1.
</event>
<event>
 5   0  0.3838525E-06  0.2933687E+04  0.7818609E-02  0.8262925E-01
        1   -1    0    0  501    0  0.00000000000E+00  0.00000000000E+00  0.19741529216E+04  0.19741529216E+04  0.50400001928E-02 0. -1.
       -1   -1    0    0    0  501  0.00000000000E+00  0.00000000000E+00 -0.10899003887E+04  0.10899003887E+04  0.50400001928E-02 0.  1.
    10030    2    1    2    0    0  0.00000000000E+00  0.00000000000E+00  0.88425253286E+03  0.30640533103E+04  0.29336871248E+04 0.  0.
        3    1    3    3  502    0  0.11950514724E+04 -0.42072715770E+03 -0.32996021524E+03  0.13092108756E+04  0.10100000352E+00 0.  1.
       -3    1    3    3    0  502 -0.11950514724E+04  0.42072715770E+03  0.12142127481E+04  0.17548424347E+04  0.10100000352E+00 0. -1.
</event>
<event>
 5   0  0.3807334E-06  0.3136416E+04  0.7818609E-02  0.8205814E-01
       -1   -1    0    0    0  501  0.00000000000E+00  0.00000000000E+00  0.10195323009E+04  0.10195323009E+04  0.50400001928E-02 0.  1.
        1   -1    0    0  501    0  0.00000000000E+00  0.00000000000E+00 -0.24121618337E+04  0.24121618337E+04  0.50400001928E-02 0. -1.
    10030    2    1    2    0    0  0.00000000000E+00  0.00000000000E+00 -0.13926295328E+04  0.34316941346E+04  0.31364163655E+04 0.  0.
        4    1    3    3  502    0  0.84115040995E+03 -0.95624563811E+03 -0.16975234981E+04  0.21221515902E+04  0.12699999809E+01 0. -1.
       -4    1    3    3    0  502 -0.84115040995E+03  0.95624563811E+03  0.30489396531E+03  0.13095425444E+04  0.12699999809E+01 0.  1.
</event>
<event>
 5   0  0.1119100E-05  0.3057474E+04  0.7818609E-02  0.8227507E-01
       -2   -1    0    0    0  501  0.00000000000E+00  0.00000000000E+00  0.88633990672E+03  0.88633990672E+03  0.25500000920E-02 0.  1.
        2   -1    0    0  501    0  0.00000000000E+00  0.00000000000E+00 -0.26367282902E+04  0.26367282902E+04  0.25500000920E-02 0. -1.
    10030    2    1    2    0    0  0.00000000000E+00  0.00000000000E+00 -0.17503883835E+04  0.35230681969E+04  0.30574744524E+04 0.  0.
        2    1    3    3  502    0  0.16981379843E+03 -0.12618887335E+03 -0.26197777520E+04  0.26283066465E+04  0.25500000920E-02 0. -1.
       -2    1    3    3    0  502 -0.16981379843E+03  0.12618887335E+03  0.86938936858E+03  0.89476155041E+03  0.25500000920E-02 0.  1.
</event>
<event>
 5   0  0.1001961E-05  0.3405744E+04  0.7818609E-02  0.8136498E-01
        2   -1    0    0  501    0  0.00000000000E+00  0.00000000000E+00  0.11353987044E+04  0.11353987044E+04  0.25500000920E-02 0.  1.
       -2   -1    0    0    0  501  0.00000000000E+00  0.00000000000E+00 -0.25539687742E+04  0.25539687742E+04  0.25500000920E-02 0. -1.
    10030    2    1    2    0    0  0.00000000000E+00  0.00000000000E+00 -0.14185700699E+04  0.36893674786E+04  0.34057438760E+04 0.  0.
        5    1    3    3  502    0  0.60227449284E+03 -0.15131669147E+04 -0.12480370741E+04  0.20518351067E+04  0.46999998093E+01 0. -1.
       -5    1    3    3    0  502 -0.60227449284E+03  0.15131669147E+04 -0.17053299574E+03  0.16375323720E+04  0.46999998093E+01 0.  1.
</event>
<event>
 5   0  0.1007567E-05  0.3152375E+04  0.7818609E-02  0.8201509E-01
        2   -1    0    0  501    0  0.00000000000E+00  0.00000000000E+00  0.26310420991E+04  0.26310420991E+04  0.25500000920E-02 0. -1.
       -2   -1    0    0    0  501  0.00000000000E+00  0.00000000000E+00 -0.94425187165E+03  0.94425187165E+03  0.25500000920E-02 0.  1.
    10030    2    1    2    0    0  0.00000000000E+00  0.00000000000E+00  0.16867902275E+04  0.35752939708E+04  0.31523746138E+04 0.  0.
        3    1    3    3  502    0  0.13870059137E+04  0.51489802115E+03  0.14598822880E+04  0.20784998634E+04  0.10100000352E+00 0. -1.
       -3    1    3    3    0  502 -0.13870059137E+04 -0.51489802115E+03  0.22690793947E+03  0.14967941074E+04  0.10100000352E+00 0.  1.
</event>
<event>
 5   0  0.1001961E-05  0.3059257E+04  0.7818609E-02  0.8227009E-01
       -2   -1    0    0    0  501  0.00000000000E+00  0.00000000000E+00  0.20303545690E+04  0.20303545690E+04  0.25500000920E-02 0. -1.
        2   -1    0    0  501    0  0.00000000000E+00  0.00000000000E+00 -0.11523917736E+04  0.11523917736E+04  0.25500000920E-02 0.  1.
    10030    2    1    2    0    0  0.00000000000E+00  0.00000000000E+00  0.87796279540E+03  0.31827463426E+04  0.30592573627E+04 0.  0.
        5    1    3    3  502    0  0.99720071876E+02  0.15097832460E+04  0.67243229190E+03  0.16557707631E+04  0.46999998093E+01 0.  1.
       -5    1    3    3    0  502 -0.99720071876E+02 -0.15097832460E+04  0.20553050350E+03  0.15269755795E+04  0.46999998093E+01 0. -1.
</event>
<event>
 5   0  0.3807334E-06  0.3228095E+04  0.7818609E-02  0.8181436E-01
        1   -1    0    0  501    0  0.00000000000E+00  0.00000000000E+00  0.20741912237E+04  0.20741912237E+04  0.50400001928E-02 0. -1.
       -1   -1    0    0    0  501  0.00000000000E+00  0.00000000000E+00 -0.12559833318E+04  0.12559833318E+04  0.50400001928E-02 0.  1.
    10030    2    1    2    0    0  0.00000000000E+00  0.00000000000E+00  0.81820789183E+03  0.33301745555E+04  0.32280951683E+04 0.  0.
        4    1    3    3  502    0  0.16083034140E+04 -0.12000731394E+03  0.34299664965E+03  0.16488450326E+04  0.12699999809E+01 0. -1.
       -4    1    3    3    0  502 -0.16083034140E+04  0.12000731394E+03  0.47521124218E+03  0.16813295229E+04  0.12699999809E+01 0.  1.
</event>
<event>
 5   0  0.3838525E-06  0.3132435E+04  0.7818609E-02  0.8206892E-01
        1   -1    0    0  501    0  0.00000000000E+00  0.00000000000E+00  0.13773003860E+04  0.13773003860E+04  0.50400001928E-02 0.  1.
       -1   -1    0    0    0  501  0.00000000000E+00  0.00000000000E+00 -0.17810474458E+04  0.17810474458E+04  0.50400001928E-02 0. -1.
    10030    2    1    2    0    0  0.00000000000E+00  0.00000000000E+00 -0.40374705973E+03  0.31583478318E+04  0.31324350493E+04 0.  0.
        3    1    3    3  502    0  0.36418503643E+02 -0.83273888088E+03  0.11350884500E+04  0.14082635232E+04  0.10100000352E+00 0.  1.
       -3    1    3    3    0  502 -0.36418503643E+02  0.83273888088E+03 -0.15388355097E+04  0.17500843086E+04  0.10100000352E+00 0. -1.
</event>
<event>
 5   0  0.3838525E-06  0.2021716E+04  0.7818609E-02  0.8596534E-01
        1   -1    0    0  501    0  0.00000000000E+00  0.00000000000E+00  0.23739946557E+04  0.23739946557E+04  0.50400001928E-02 0. -1.
       -1   -1    0    0    0  501  0.00000000000E+00  0.00000000000E+00 -0.43042812563E+03  0.43042812566E+03  0.50400001928E-02 0.  1.
    10030    2    1    2    0    0  0.00000000000E+00  0.00000000000E+00  0.19435665300E+04  0.28044227813E+04  0.20217161719E+04 0.  0.
        3    1    3    3  502    0  0.57637961748E+03  0.28571008963E+02 -0.17947092585E+03  0.60435055177E+03  0.10100000352E+00 0.  1.
       -3    1    3    3    0  502 -0.57637961748E+03 -0.28571008963E+02  0.21230374559E+04  0.22000722296E+04  0.10100000352E+00 0. -1.
</event>
<event>
 5   0  0.4139628E-06  0.3120662E+04  0.7818609E-02  0.8210090E-01
       -1   -1    0    0    0  501  0.00000000000E+00  0.00000000000E+00  0.13195618985E+04  0.13195618985E+04  0.50400001928E-02 0.  1.
        1   -1    0    0  501    0  0.00000000000E+00  0.00000000000E+00 -0.18450312259E+04  0.18450312259E+04  0.50400001928E-02 0. -1.
    10030    2    1    2    0    0  0.00000000000E+00  0.00000000000E+00 -0.52546932744E+03  0.31645931244E+04  0.31206620497E+04 0.  0.
        5    1    3    3  502    0  0.13360078573E+04  0.79693467685E+03 -0.14024962152E+03  0.15619583606E+04  0.46999998093E+01 0. -1.
       -5    1    3    3    0  502 -0.13360078573E+04 -0.79693467685E+03 -0.38521970592E+03  0.16026347637E+04  0.46999998093E+01 0.  1.
</event>
<event>
 5   0  0.1119100E-05  0.3090345E+04  0.7818609E-02  0.8218393E-01
       -2   -1    0    0    0  501  0.00000000000E+00  0.00000000000E+00  0.19511010984E+04  0.19511010984E+04  0.25500000920E-02 0. -1.
        2   -1    0    0  501    0  0.00000000000E+00  0.00000000000E+00 -0.12236975892E+04  0.12236975892E+04  0.25500000920E-02 0.  1.
    10030    2    1    2    0    0  0.00000000000E+00  0.00000000000E+00  0.72740350927E+03  0.31747986876E+04  0.30903447771E+04 0.  0.
        2    1    3    3  502    0 -0.10320597385E+04 -0.54123952942E+03 -0.67865441848E+03  0.13485767875E+04  0.25500000920E-02 0.  1.
       -2    1    3    3    0  502  0.10320597385E+04  0.54123952942E+03  0.14060579278E+04  0.18262219001E+04  0.25500000920E-02 0. -1.
</event>
<event>
 5   0  0.1007567E-05  0.3138527E+04  0.7818609E-02  0.8205243E-01
        2   -1    0    0  501    0  0.00000000000E+00  0.00000000000E+00  0.23389073547E+04  0.23389073547E+04  0.25500000920E-02 0. -1.
       -2   -1    0    0    0  501  0.00000000000E+00  0.00000000000E+00 -0.10528793502E+04  0.10528793502E+04  0.25500000920E-02 0.  1.
    10030    2    1    2    0    0  0.00000000000E+00  0.00000000000E+00  0.12860280046E+04  0.33917867049E+04  0.31385265688E+04 0.  0.
        3    1    3    3  502    0 -0.21854047988E+03  0.52864003814E+03  0.22222207424E+04  0.22946645222E+04  0.10100000352E+00 0. -1.
       -3    1    3    3    0  502  0.21854047988E+03 -0.52864003814E+03 -0.93619273781E+03  0.10971221827E+04  0.10100000352E+00 0.  1.
</event>
<event>
 5   0  0.1007567E-05  0.2823675E+04  0.7818609E-02  0.8295956E-01
        2   -1    0    0  501    0  0.00000000000E+00  0.00000000000E+00  0.14752945547E+04  0.14752945547E+04  0.25500000920E-02 0.  1.
       -2   -1    0    0    0  501  0.00000000000E+00  0.00000000000E+00 -0.13511095632E+04  0.13511095632E+04  0.25500000920E-02 0. -1.
    10030    2    1    2    0    0  0.00000000000E+00  0.00000000000E+00  0.12418499147E+03  0.28264041179E+04  0.28236746140E+04 0.  0.
        3    1    3    3  502    0  0.22250899351E+03  0.27600194835E+03 -0.13058291441E+04  0.13530990694E+04  0.10100000352E+00 0. -1.
       -3    1    3    3    0  502 -0.22250899351E+03 -0.27600194835E+03  0.14300141356E+04  0.14733050485E+04  0.10100000352E+00 0.  1.
</event>
<event>
 5   0  0.3848286E-06  0.1978303E+04  0.7818609E-02  0.8616832E-01
       -1   -1    0    0    0  501  0.00000000000E+00  0.00000000000E+00  0.95747738533E+03  0.95747738535E+03  0.50400001928E-02 0.  1.
        1   -1    0    0  501    0  0.00000000000E+00  0.00000000000E+00 -0.10218735293E+04  0.10218735293E+04  0.50400001928E-02 0. -1.
    10030    2    1    2    0    0  0.00000000000E+00  0.00000000000E+00 -0.64396143965E+02  0.19793509147E+04  0.19783031062E+04 0.  0.
        2    1    3    3  502    0  0.51331788248E+03 -0.66857693730E+02 -0.87552978631E+03  0.10171123863E+04  0.25500000920E-02 0. -1.
       -2    1    3    3    0  502 -0.51331788248E+03  0.66857693730E+02  0.81113364234E+03  0.96223852834E+03  0.25500000920E-02 0.  1.
</event>
<event>
 5   0  0.1108153E-05  0.3131119E+04  0.7818609E-02  0.8207249E-01
       -2   -1    0    0    0  501  0.00000000000E+00  0.00000000000E+00  0.13954457150E+04  0.13954457150E+04  0.25500000920E-02 0. -1.
        2   -1    0    0  501    0  0.00000000000E+00  0.00000000000E+00 -0.17564112319E+04  0.17564112319E+04  0.25500000920E-02 0.  1.
    10030    2    1    2    0    0  0.00000000000E+00  0.00000000000E+00 -0.36096551694E+03  0.31518569469E+04  0.31311189868E+04 0.  0.
        4    1    3    3  502    0 -0.74099012186E+03  0.32375577525E+03 -0.15299176364E+04  0.17304721176E+04  0.12699999809E+01 0.  1.
       -4    1    3    3    0  502  0.74099012186E+03 -0.32375577525E+03  0.11689521194E+04  0.14213848293E+04  0.12699999809E+01 0. -1.
</event>
<event>
 5   0  0.1007567E-05  0.2995434E+04  0.7818609E-02  0.8245036E-01
       -2   -1    0    0    0  501  0.00000000000E+00  0.00000000000E+00  0.10463250180E+04  0.10463250180E+04  0.25500000920E-02 0. -1.
        2   -1    0    0  501    0  0.00000000000E+00  0.00000000000E+00 -0.21438429176E+04  0.21438429176E+04  0.25500000920E-02 0.  1.
    10030    2    1    2    0    0  0.00000000000E+00  0.00000000000E+00 -0.10975178996E+04  0.31901679357E+04  0.29954341785E+04 0.  0.
        3    1    3    3  502    0  0.13860497311E+03  0.14879663166E+04 -0.44278443495E+03  0.15586254085E+04  0.10100000352E+00 0.  1.
       -3    1    3    3    0  502 -0.13860497311E+03 -0.14879663166E+04 -0.65473346467E+03  0.16315425272E+04  0.10100000352E+00 0. -1.
</event>
<event>
 5   0  0.1007567E-05  0.3027870E+04  0.7818609E-02  0.8235817E-01
        2   -1    0    0  501    0  0.00000000000E+00  0.00000000000E+00  0.15374032314E+04  0.15374032314E+04  0.25500000920E-02 0. -1.
       -2   -1    0    0    0  501  0.00000000000E+00  0.00000000000E+00 -0.14908248872E+04  0.14908248872E+04  0.25500000920E-02 0.  1.
    10030    2    1    2    0    0  0.00000000000E+00  0.00000000000E+00  0.46578344150E+02  0.30282281186E+04  0.30278698777E+04 0.  0.
        3    1    3    3  502    0 -0.66345491499E+03  0.12932230098E+04  0.44689661474E+03  0.15206297287E+04  0.10100000352E+00 0. -1.
       -3    1    3    3    0  502  0.66345491499E+03 -0.12932230098E+04 -0.40031827059E+03  0.15075983899E+04  0.10100000352E+00 0.  1.
</event>
<event>
 5   0  0.1007567E-05  0.1953564E+04  0.7818609E-02  0.8628644E-01
       -2   -1    0    0    0  501  0.00000000000E+00  0.00000000000E+00  0.51853367593E+03  0.51853367593E+03  0.25500000920E-02 0. -1.
        2   -1    0    0  501    0  0.00000000000E+00  0.00000000000E+00 -0.18400024873E+04  0.18400024873E+04  0.25500000920E-02 0.  1.
    10030    2    1    2    0    0  0.00000000000E+00  0.00000000000E+00 -0.13214688114E+04  0.23585361632E+04  0.19535641822E+04 0.  0.
        3    1    3    3  502    0  0.61685812286E+03  0.70584761502E+03 -0.32929081143E+03  0.99356290594E+03  0.10100000352E+00 0. -1.
       -3    1    3    3    0  502 -0.61685812286E+03 -0.70584761502E+03 -0.99217799995E+03  0.13649732573E+04  0.10100000352E+00 0.  1.
</event>
<event>
 5   0  0.1001961E-05  0.3079082E+04  0.7818609E-02  0.8221502E-01
       -2   -1    0    0    0  501  0.00000000000E+00  0.00000000000E+00  0.11069525096E+04  0.11069525096E+04  0.25500000920E-02 0. -1.
        2   -1    0    0  501    0  0.00000000000E+00  0.00000000000E+00 -0.21411810759E+04  0.21411810759E+04  0.25500000920E-02 0.  1.
    10030    2    1    2    0    0  0.00000000000E+00  0.00000000000E+00 -0.10342285663E+04  0.32481335855E+04  0.30790815290E+04 0.  0.
        5    1    3    3  502    0  0.47107028977E+03 -0.13597005115E+04  0.60170437807E+02  0.14402552796E+04  0.46999998093E+01 0. -1.
       -5    1    3    3    0  502 -0.47107028977E+03  0.13597005115E+04 -0.10943990041E+04  0.18078783059E+04  0.46999998093E+01 0.  1.
</event>
<event>
 5   0  0.3838525E-06  0.2949544E+04  0.7818609E-02  0.8258287E-01
       -1   -1    0    0    0  501  0.00000000000E+00  0.00000000000E+00  0.17739796631E+04  0.17739796632E+04  0.50400001928E-02 0.  1.
        1   -1    0    0  501    0  0.00000000000E+00  0.00000000000E+00 -0.12260302127E+04  0.12260302127E+04  0.50400001928E-02 0. -1.
    10030    2    1    2    0    0  0.00000000000E+00  0.00000000000E+00  0.54794945043E+03  0.30000098759E+04  0.29495441436E+04 0.  0.
        3    1    3    3  502    0 -0.64487020128E+02 -0.28062928709E+03  0.17451110161E+04  0.17687068274E+04  0.10100000352E+00 0.  1.
       -3    1    3    3    0  502  0.64487020128E+02  0.28062928709E+03 -0.11971615657E+04  0.12313030485E+04  0.10100000352E+00 0. -1.
</event>
<event>
 5   0  0.3848286E-06  0.3104361E+04  0.7818609E-02  0.8214542E-01
       -1   -1    0    0    0  501  0.00000000000E+00  0.00000000000E+00  0.10302455172E+04  0.10302455172E+04  0.50400001928E-02 0.  1.
        1   -1    0    0  501    0  0.00000000000E+00  0.00000000000E+00 -0.23385334260E+04  0.23385334260E+04  0.50400001928E-02 0. -1.
    10030    2    1    2    0    0  0.00000000000E+00  0.00000000000E+00 -0.13082879088E+04  0.33687789432E+04  0.31043605325E+04 0.  0.
        2    1    3    3  502    0  0.26056892847E+03  0.13989921031E+04 -0.13267682425E+04  0.19456076275E+04  0.25500000920E-02 0. -1.
       -2    1    3    3    0  502 -0.26056892847E+03 -0.13989921031E+04  0.18480333695E+02  0.14231713157E+04  0.25500000920E-02 0.  1.
</event>
<event>
 5   0  0.3807334E-06  0.3239830E+04  0.7818609E-02  0.8178377E-01
        1   -1    0    0  501    0  0.00000000000E+00  0.00000000000E+00  0.14846049757E+04  0.14846049757E+04  0.50400001928E-02 0. -1.
       -1   -1    0    0    0  501  0.00000000000E+00  0.00000000000E+00 -0.17675575464E+04  0.17675575464E+04  0.50400001928E-02 0.  1.
    10030    2    1    2    0    0  0.00000000000E+00  0.00000000000E+00 -0.28295257074E+03  0.32521625221E+04  0.32398300747E+04 0.  0.
        4    1    3    3  502    0 -0.54361754506E+03  0.79941033389E+03  0.11632969630E+04  0.15125601986E+04  0.12699999809E+01 0. -1.
       -4    1    3    3    0  502  0.54361754506E+03 -0.79941033389E+03 -0.14462495338E+04  0.17396023236E+04  0.12699999809E+01 0.  1.
</event>
<event>
 5   0  0.1007567E-05  0.2933143E+04  0.7818609E-02  0.8263084E-01
       -2   -1    0    0    0  501  0.00000000000E+00  0.00000000000E+00  0.95149865774E+03  0.95149865775E+03  0.25500000920E-02 0. -1.
        2   -1    0    0  501    0  0.00000000000E+00  0.00000000000E+00 -0.22604683425E+04  0.22604683425E+04  0.25500000920E-02 0.  1.
    10030    2    1    2    0    0  0.00000000000E+00  0.00000000000E+00 -0.13089696848E+04  0.32119670003E+04  0.29331434290E+04 0.  0.
        3    1    3    3  502    0  0.25121053389E+03 -0.69791778042E+03  0.73094375904E+03  0.10413811740E+04  0.10100000352E+00 0. -1.
       -3    1    3    3    0  502 -0.25121053389E+03  0.69791778042E+03 -0.20399134438E+04  0.21705858262E+04  0.10100000352E+00 0.  1.
</event>
<event>
 5   0  0.1007567E-05  0.3103428E+04  0.7818609E-02  0.8214798E-01
       -2   -1    0    0    0  501  0.00000000000E+00  0.00000000000E+00  0.82450799835E+03  0.82450799835E+03  0.25500000920E-02 0. -1.
        2   -1    0    0  501    0  0.00000000000E+00  0.00000000000E+00 -0.29203061690E+04  0.29203061690E+04  0.25500000920E-02 0.  1.
    10030    2    1    2    0    0  0.00000000000E+00  0.00000000000E+00 -0.20957981706E+04  0.37448141674E+04  0.31034276495E+04 0.  0.
        3    1    3    3  502    0 -0.10816032522E+03 -0.13608592203E+04 -0.15775633515E+03  0.13742356220E+04  0.10100000352E+00 0. -1.
       -3    1    3    3    0  502  0.10816032522E+03  0.13608592203E+04 -0.19380418355E+04  0.23705785453E+04  0.10100000352E+00 0.  1.
</event>
<event>
 5   0  0.9797278E-06  0.1760475E+04  0.7818609E-02  0.8727605E-01
        2   -1    0    0  501    0  0.00000000000E+00  0.00000000000E+00  0.15038237164E+04  0.15038237164E+04  0.25500000920E-02 0.  1.
       -2   -1    0    0    0  501  0.00000000000E+00  0.00000000000E+00 -0.51523218721E+03  0.51523218722E+03  0.25500000920E-02 0. -1.
    10030    2    1    2    0    0  0.00000000000E+00  0.00000000000E+00  0.98859152915E+03  0.20190559036E+04  0.17604753705E+04 0.  0.
        1    1    3    3  502    0  0.52182911839E+02 -0.84866603267E+03  0.75547584611E+03  0.11374097087E+04  0.50400001928E-02 0.  1.
       -1    1    3    3    0  502 -0.52182911839E+02  0.84866603267E+03  0.23311568304E+03  0.88164619491E+03  0.50400001928E-02 0. -1.
</event>
<event>
 5   0  0.4250961E-06  0.3120283E+04  0.7818609E-02  0.8210193E-01
       -1   -1    0    0    0  501  0.00000000000E+00  0.00000000000E+00  0.23643848483E+04  0.23643848483E+04  0.50400001928E-02 0. -1.
        1   -1    0    0  501    0  0.00000000000E+00  0.00000000000E+00 -0.10294610964E+04  0.10294610964E+04  0.50400001928E-02 0.  1.
    10030    2    1    2    0    0  0.00000000000E+00  0.00000000000E+00  0.13349237519E+04  0.33938459447E+04  0.31202834603E+04 0.  0.
        1    1    3    3  502    0 -0.15418628372E+03  0.23789559806E+03 -0.10012112668E+04  0.10405727877E+04  0.50400001928E-02 0.  1.
       -1    1    3    3    0  502  0.15418628372E+03 -0.23789559806E+03  0.23361350187E+04  0.23532731570E+04  0.50400001928E-02 0. -1.
</event>
<event>
 5   0  0.1119100E-05  0.3088354E+04  0.7818609E-02  0.8218941E-01
       -2   -1    0    0    0  501  0.00000000000E+00  0.00000000000E+00  0.11775043450E+04  0.11775043450E+04  0.25500000920E-02 0. -1.
        2   -1    0    0  501    0  0.00000000000E+00  0.00000000000E+00 -0.20250307560E+04  0.20250307560E+04  0.25500000920E-02 0.  1.
    10030    2    1    2    0    0  0.00000000000E+00  0.00000000000E+00 -0.84752641107E+03  0.32025351010E+04  0.30883539395E+04 0.  0.
        2    1    3    3  502    0 -0.11206523166E+04  0.86196143066E+03  0.22019810936E+03  0.14308481156E+04  0.25500000920E-02 0. -1.
       -2    1    3    3    0  502  0.11206523166E+04 -0.86196143066E+03 -0.10677245204E+04  0.17716869854E+04  0.25500000920E-02 0.  1.
</event>
<event>
 5   0  0.1007567E-05  0.3123250E+04  0.7818609E-02  0.8209386E-01
       -2   -1    0    0    0  501  0.00000000000E+00  0.00000000000E+00  0.11530084626E+04  0.11530084626E+04  0.25500000920E-02 0. -1.
        2   -1    0    0  501    0  0.00000000000E+00  0.00000000000E+00 -0.21150523590E+04  0.21150523590E+04  0.25500000920E-02 0.  1.
    10030    2    1    2    0    0  0.00000000000E+00  0.00000000000E+00 -0.96204389643E+03  0.32680608217E+04  0.31232504023E+04 0.  0.
        3    1    3    3  502    0  0.63637887261E+03  0.38331410618E+03 -0.19183049438E+04  0.20571343274E+04  0.10100000352E+00 0.  1.
       -3    1    3    3    0  502 -0.63637887261E+03 -0.38331410618E+03  0.95626104738E+03  0.12109264942E+04  0.10100000352E+00 0. -1.
</event>
<event>
 5   0  0.4250961E-06  0.1768100E+04  0.7818609E-02  0.8723450E-01
       -1   -1    0    0    0  501  0.00000000000E+00  0.00000000000E+00  0.50628225855E+03  0.50628225858E+03  0.50400001928E-02 0.  1.
        1   -1    0    0  501    0  0.00000000000E+00  0.00000000000E+00 -0.15436928121E+04  0.15436928121E+04  0.50400001928E-02 0. -1.
    10030    2    1    2    0    0  0.00000000000E+00  0.00000000000E+00 -0.10374105535E+04  0.20499750707E+04  0.17680998653E+04 0.  0.
        1    1    3    3  502    0  0.32406095989E+03  0.35836977576E+03 -0.13770695689E+04  0.14593714399E+04  0.50400001928E-02 0. -1.
       -1    1    3    3    0  502 -0.32406095989E+03 -0.35836977576E+03  0.33965901540E+03  0.59060363077E+03  0.50400001928E-02 0.  1.
</event>
<event>
 5   0  0.9797278E-06  0.3151455E+04  0.7818609E-02  0.8201757E-01
       -2   -1    0    0    0  501  0.00000000000E+00  0.00000000000E+00  0.13106277878E+04  0.13106277878E+04  0.25500000920E-02 0. -1.
        2   -1    0    0  501    0  0.00000000000E+00  0.00000000000E+00 -0.18944491162E+04  0.18944491162E+04  0.25500000920E-02 0.  1.
    10030    2    1    2    0    0  0.00000000000E+00  0.00000000000E+00 -0.58382132838E+03  0.32050769040E+04  0.31514553173E+04 0.  0.
        1    1    3    3  502    0 -0.14885236887E+04  0.19099237274E+03 -0.78043446740E+03  0.16915255884E+04  0.50400001928E-02 0.  1.
       -1    1    3    3    0  502  0.14885236887E+04 -0.19099237274E+03  0.19661313902E+03  0.15135513156E+04  0.50400001928E-02 0. -1.
</event>
<event>
 5   0  0.4139628E-06  0.2267483E+04  0.7818609E-02  0.8490853E-01
       -1   -1    0    0    0  501  0.00000000000E+00  0.00000000000E+00  0.90420043261E+03  0.90420043262E+03  0.50400001928E-02 0. -1.
        1   -1    0    0  501    0  0.00000000000E+00  0.00000000000E+00 -0.14215544965E+04  0.14215544965E+04  0.50400001928E-02 0.  1.
    10030    2    1    2    0    0  0.00000000000E+00  0.00000000000E+00 -0.51735406390E+03  0.23257549291E+04  0.22674833545E+04 0.  0.
        5    1    3    3  502    0 -0.92475565941E+03  0.28871398207E+03  0.34537100314E+03  0.10285096076E+04  0.46999998093E+01 0. -1.
       -5    1    3    3    0  502  0.92475565941E+03 -0.28871398207E+03 -0.86272506704E+03  0.12972453216E+04  0.46999998093E+01 0.  1.
</event>
<event>
 5   0  0.1001961E-05  0.3045030E+04  0.7818609E-02  0.8230988E-01
        2   -1    0    0  501    0  0.00000000000E+00  0.00000000000E+00  0.15887239488E+04  0.15887239488E+04  0.25500000920E-02 0. -1.
       -2   -1    0    0    0  501  0.00000000000E+00  0.00000000000E+00 -0.14590653039E+04  0.14590653039E+04  0.25500000920E-02 0.  1.
    10030    2    1    2    0    0  0.00000000000E+00  0.00000000000E+00  0.12965864487E+03  0.30477892527E+04  0.30450300433E+04 0.  0.
        5    1    3    3  502    0 -0.19736481565E+03 -0.80379712617E+03  0.13438711382E+04  0.15783074531E+04  0.46999998093E+01 0. -1.
       -5    1    3    3    0  502  0.19736481565E+03  0.80379712617E+03 -0.12142124933E+04  0.14694817996E+04  0.46999998093E+01 0.  1.
</event>
<event>
 5   0  0.1108153E-05  0.3097042E+04  0.7818609E-02  0.8216550E-01
       -2   -1    0    0    0  501  0.00000000000E+00  0.00000000000E+00  0.14330716039E+04  0.14330716039E+04  0.25500000920E-02 0.  1.
        2   -1    0    0  501    0  0.00000000000E+00  0.00000000000E+00 -0.16732712678E+04  0.16732712678E+04  0.25500000920E-02 0. -1.
    10030    2    1    2    0    0  0.00000000000E+00  0.00000000000E+00 -0.24019966395E+03  0.31063428717E+04  0.30970421628E+04 0.  0.
        4    1    3    3  502    0  0.13800031070E+04 -0.45875925753E+03  0.41351977315E+03  0.15119090076E+04  0.12699999809E+01 0. -1.
       -4    1    3    3    0  502 -0.13800031070E+04  0.45875925753E+03 -0.65371943710E+03  0.15944338641E+04  0.12699999809E+01 0.  1.
</event>
<event>
 5   0  0.1007567E-05  0.3121782E+04  0.7818609E-02  0.8209785E-01
        2   -1    0    0  501    0  0.00000000000E+00  0.00000000000E+00  0.95049947359E+03  0.95049947359E+03  0.25500000920E-02 0. -1.
       -2   -1    0    0    0  501  0.00000000000E+00  0.00000000000E+00 -0.25632634667E+04  0.25632634667E+04  0.25500000920E-02 0.  1.
    10030    2    1    2    0    0  0.00000000000E+00  0.00000000000E+00 -0.16127639932E+04  0.35137629403E+04  0.31217819115E+04 0.  0.
        3    1    3    3  502    0  0.66823723882E+03 -0.13647934396E+04 -0.12077813051E+04  0.19411176758E+04  0.10100000352E+00 0.  1.
       -3    1    3    3    0  502 -0.66823723882E+03  0.13647934396E+04 -0.40498268805E+03  0.15726452645E+04  0.10100000352E+00 0. -1.
</event>
<event>
 5   0  0.1007567E-05  0.2957760E+04  0.7818609E-02  0.8255897E-01
       -2   -1    0    0    0  501  0.00000000000E+00  0.00000000000E+00  0.16208205364E+04  0.16208205364E+04  0.25500000920E-02 0.  1.
        2   -1    0    0  501    0  0.00000000000E+00  0.00000000000E+00 -0.13493700998E+04  0.13493700998E+04  0.25500000920E-02 0. -1.
    10030    2    1    2    0    0  0.00000000000E+00  0.00000000000E+00  0.27145043655E+03  0.29701906362E+04  0.29577604832E+04 0.  0.
        3    1    3    3  502    0  0.79368716457E+03  0.10717223589E+04 -0.50614690712E+03  0.14264336058E+04  0.10100000352E+00 0. -1.
       -3    1    3    3    0  502 -0.79368716457E+03 -0.10717223589E+04  0.77759734367E+03  0.15437570304E+04  0.10100000352E+00 0.  1.
</event>
<event>
 5   0  0.1108153E-05  0.3179733E+04  0.7818609E-02  0.8194190E-01
       -2   -1    0    0    0  501  0.00000000000E+00  0.00000000000E+00  0.10939698434E+04  0.10939698434E+04  0.25500000920E-02 0.  1.
        2   -1    0    0  501    0  0.00000000000E+00  0.00000000000E+00 -0.23105529563E+04  0.23105529563E+04  0.25500000920E-02 0. -1.
    10030    2    1    2    0    0  0.00000000000E+00  0.00000000000E+00 -0.12165831129E+04  0.34045227997E+04  0.31797328541E+04 0.  0.
        4    1    3    3  502    0  0.29375485392E+03 -0.51050995592E+03  0.97284609244E+03  0.11372525937E+04  0.12699999809E+01 0.  1.
       -4    1    3    3    0  502 -0.29375485392E+03  0.51050995592E+03 -0.21894292054E+04  0.22672702061E+04  0.12699999809E+01 0. -1.
</event>
<event>
 5   0  0.1007567E-05  0.3141443E+04  0.7818609E-02  0.8204455E-01
       -2   -1    0    0    0  501  0.00000000000E+00  0.00000000000E+00  0.12424445231E+04  0.12424445231E+04  0.25500000920E-02 0. -1.
        2   -1    0    0  501    0  0.00000000000E+00  0.00000000000E+00 -0.19857355197E+04  0.19857355197E+04  0.25500000920E-02 0.  1.
    10030    2    1    2    0    0  0.00000000000E+00  0.00000000000E+00 -0.74329099663E+03  0.32281800428E+04  0.31414431211E+04 0.  0.
        3    1    3    3  502    0 -0.46759265709E+03 -0.31108153589E+03  0.11357409770E+04  0.12670130986E+04  0.10100000352E+00 0. -1.
       -3    1    3    3    0  502  0.46759265709E+03  0.31108153589E+03 -0.18790319736E+04  0.19611669442E+04  0.10100000352E+00 0.  1.
</event>
<event>
 5   0  0.4139628E-06  0.3102669E+04  0.7818609E-02  0.8215006E-01
       -1   -1    0    0    0  501  0.00000000000E+00  0.00000000000E+00  0.90595539480E+03  0.90595539481E+03  0.50400001928E-02 0.  1.
        1   -1    0    0  501    0  0.00000000000E+00  0.00000000000E+00 -0.26564641158E+04  0.26564641158E+04  0.50400001928E-02 0. -1.
    10030    2    1    2    0    0  0.00000000000E+00  0.00000000000E+00 -0.17505087210E+04  0.35624195107E+04  0.31026685268E+04 0.  0.
        5    1    3    3  502    0  0.15110660991E+04  0.15494945651E+03 -0.51346708590E+03  0.16034340112E+04  0.46999998093E+01 0. -1.
       -5    1    3    3    0  502 -0.15110660991E+04 -0.15494945651E+03 -0.12370416352E+04  0.19589854995E+04  0.46999998093E+01 0.  1.
</event>
<event>
 5   0  0.9797278E-06  0.3088224E+04  0.7818609E-02  0.8218977E-01
       -2   -1    0    0    0  501  0.00000000000E+00  0.00000000000E+00  0.13214048977E+04  0.13214048977E+04  0.25500000920E-02 0.  1.
        2   -1    0    0  501    0  0.00000000000E+00  0.00000000000E+00 -0.18043542876E+04  0.18043542876E+04  0.25500000920E-02 0. -1.
    10030    2    1    2    0    0  0.00000000000E+00  0.00000000000E+00 -0.48294938990E+03  0.31257591854E+04  0.30882244691E+04 0.  0.
        1    1    3    3  502    0 -0.15315590707E+04 -0.17817269122E+03 -0.32533029487E+03  0.15758358086E+04  0.50400001928E-02 0.  1.
       -1    1    3    3    0  502  0.15315590707E+04  0.17817269122E+03 -0.15761909503E+03  0.15499233768E+04  0.50400001928E-02 0. -1.
</event>
<event>
 5   0  0.3838525E-06  0.3075367E+04  0.7818609E-02  0.8222531E-01
        1   -1    0    0  501    0  0.00000000000E+00  0.00000000000E+00  0.23389767157E+04  0.23389767157E+04  0.50400001928E-02 0.  1.
       -1   -1    0    0    0  501  0.00000000000E+00  0.00000000000E+00 -0.10108998218E+04  0.10108998218E+04  0.50400001928E-02 0. -1.
    10030    2    1    2    0    0  0.00000000000E+00  0.00000000000E+00  0.13280768939E+04  0.33498765375E+04  0.30753673895E+04 0.  0.
        3    1    3    3  502    0 -0.48028459850E+03 -0.17752524541E+03 -0.91530777845E+03  0.10487978107E+04  0.10100000352E+00 0. -1.
       -3    1    3    3    0  502  0.48028459850E+03  0.17752524541E+03  0.22433846724E+04  0.23010787268E+04  0.10100000352E+00 0.  1.
</event>
<event>
 5   0  0.1108153E-05  0.3084397E+04  0.7818609E-02  0.8220033E-01
        2   -1    0    0  501    0  0.00000000000E+00  0.00000000000E+00  0.18300545324E+04  0.18300545324E+04  0.25500000920E-02 0. -1.
       -2   -1    0    0    0  501  0.00000000000E+00  0.00000000000E+00 -0.12996208125E+04  0.12996208125E+04  0.25500000920E-02 0.  1.
    10030    2    1    2    0    0  0.00000000000E+00  0.00000000000E+00  0.53043371992E+03  0.31296753448E+04  0.30843974829E+04 0.  0.
        4    1    3    3  502    0 -0.14913303427E+04  0.63532702682E+02 -0.12812400239E+03  0.14981722091E+04  0.12699999809E+01 0.  1.
       -4    1    3    3    0  502  0.14913303427E+04 -0.63532702682E+02  0.65855772231E+03  0.16315031357E+04  0.12699999809E+01 0. -1.
</event>
<event>
 5   0  0.9797278E-06  0.3145854E+04  0.7818609E-02  0.8203265E-01
        2   -1    0    0  501    0  0.00000000000E+00  0.00000000000E+00  0.20120081968E+04  0.20120081968E+04  0.25500000920E-02 0.  1.
       -2   -1    0    0    0  501  0.00000000000E+00  0.00000000000E+00 -0.12296668518E+04  0.12296668518E+04  0.25500000920E-02 0. -1.
    10030    2    1    2    0    0  0.00000000000E+00  0.00000000000E+00  0.78234134503E+03  0.32416750485E+04  0.31458542783E+04 0.  0.
        1    1    3    3  502    0 -0.13315075753E+04  0.78948233555E+03  0.67878701106E+03  0.16902504512E+04  0.50400001928E-02 0.  1.
       -1    1    3    3    0  502  0.13315075753E+04 -0.78948233555E+03  0.10355433397E+03  0.15514245974E+04  0.50400001928E-02 0. -1.
</event>
<event>
 5   0  0.3493125E-06  0.3131755E+04  0.7818609E-02  0.8207077E-01
       -3   -1    0    0    0  501  0.00000000000E+00  0.00000000000E+00  0.11498738425E+04  0.11498738470E+04  0.10100000352E+00 0. -1.
        3   -1    0    0  501    0  0.00000000000E+00  0.00000000000E+00 -0.21323832843E+04  0.21323832867E+04  0.10100000352E+00 0.  1.
    10030    2    1    2    0    0  0.00000000000E+00  0.00000000000E+00 -0.98250944179E+03  0.32822571337E+04  0.31317546341E+04 0.  0.
        3    1    3    3  502    0 -0.34595369236E+02  0.10058801702E+04  0.76596808920E+03  0.12647920304E+04  0.10100000352E+00 0. -1.
       -3    1    3    3    0  502  0.34595369236E+02 -0.10058801702E+04 -0.17484775310E+04  0.20174651033E+04  0.10100000352E+00 0.  1.
</event>
<event>
 5   0  0.1108153E-05  0.3231406E+04  0.7818609E-02  0.8180572E-01
       -2   -1    0    0    0  501  0.00000000000E+00  0.00000000000E+00  0.11790495860E+04  0.11790495861E+04  0.25500000920E-02 0. -1.
        2   -1    0    0  501    0  0.00000000000E+00  0.00000000000E+00 -0.22140675768E+04  0.22140675768E+04  0.25500000920E-02 0.  1.
    10030    2    1    2    0    0  0.00000000000E+00  0.00000000000E+00 -0.10350179908E+04  0.33931171629E+04  0.32314055517E+04 0.  0.
        4    1    3    3  502    0  0.40415829467E+03 -0.13140036326E+04  0.37381942567E+03  0.14246726113E+04  0.12699999809E+01 0. -1.
       -4    1    3    3    0  502 -0.40415829467E+03  0.13140036326E+04 -0.14088374164E+04  0.19684445515E+04  0.12699999809E+01 0.  1.
</event>
<event>
 5   0  0.9797278E-06  0.2434087E+04  0.7818609E-02  0.8426851E-01
        2   -1    0    0  501    0  0.00000000000E+00  0.00000000000E+00  0.15469302781E+04  0.15469302781E+04  0.25500000920E-02 0.  1.
       -2   -1    0    0    0  501  0.00000000000E+00  0.00000000000E+00 -0.95750571285E+03  0.95750571286E+03  0.25500000920E-02 0. -1.
    10030    2    1    2    0    0  0.00000000000E+00  0.00000000000E+00  0.58942456521E+03  0.25044359909E+04  0.24340867516E+04 0.  0.
        1    1    3    3  502    0  0.75497846167E+03 -0.56968210986E+02  0.12751194067E+04  0.14829589866E+04  0.50400001928E-02 0.  1.
       -1    1    3    3    0  502 -0.75497846167E+03  0.56968210986E+02 -0.68569484149E+03  0.10214770043E+04  0.50400001928E-02 0. -1.
</event>
<event>
 5   0  0.3807334E-06  0.2148235E+04  0.7818609E-02  0.8540288E-01
        1   -1    0    0  501    0  0.00000000000E+00  0.00000000000E+00  0.12515001882E+04  0.12515001882E+04  0.50400001928E-02 0. -1.
       -1   -1    0    0    0  501  0.00000000000E+00  0.00000000000E+00 -0.92187669543E+03  0.92187669545E+03  0.50400001928E-02 0.  1.
    10030    2    1    2    0    0  0.00000000000E+00  0.00000000000E+00  0.32962349275E+03  0.21733768836E+04  0.21482354227E+04 0.  0.
        4    1    3    3  502    0  0.38246602024E+03  0.37174211913E+03 -0.77843803911E+03  0.94363120625E+03  0.12699999809E+01 0.  1.
       -4    1    3    3    0  502 -0.38246602024E+03 -0.37174211913E+03  0.11080615319E+04  0.12297456774E+04  0.12699999809E+01 0. -1.
</event>
<event>
 5   0  0.4139628E-06  0.3093644E+04  0.7818609E-02  0.8217484E-01
        1   -1    0    0  501    0  0.00000000000E+00  0.00000000000E+00  0.16627961694E+04  0.16627961694E+04  0.50400001928E-02 0. -1.
       -1   -1    0    0    0  501  0.00000000000E+00  0.00000000000E+00 -0.14389369440E+04  0.14389369440E+04  0.50400001928E-02 0.  1.
    10030    2    1    2    0    0  0.00000000000E+00  0.00000000000E+00  0.22385922536E+03  0.31017331135E+04  0.30936443484E+04 0.  0.
        5    1    3    3  502    0  0.74662303603E+03  0.32704216166E+03 -0.12061308750E+04  0.14557390944E+04  0.46999998093E+01 0.  1.
       -5    1    3    3    0  502 -0.74662303603E+03 -0.32704216166E+03  0.14299901004E+04  0.16459940190E+04  0.46999998093E+01 0. -1.
</event>
<event>
 5   0  0.9797278E-06  0.1684394E+04  0.7818609E-02  0.8770316E-01
       -2   -1    0    0    0  501  0.00000000000E+00  0.00000000000E+00  0.10417375472E+04  0.10417375472E+04  0.25500000920E-02 0. -1.
        2   -1    0    0  501    0  0.00000000000E+00  0.00000000000E+00 -0.68087739479E+03  0.68087739480E+03  0.25500000920E-02 0.  1.
    10030    2    1    2    0    0  0.00000000000E+00  0.00000000000E+00  0.36086015243E+03  0.17226149420E+04  0.16843937155E+04 0.  0.
        1    1    3    3  502    0  0.13371483694E+03  0.12217766885E+03 -0.66072255709E+03  0.68509950946E+03  0.50400001928E-02 0.  1.
       -1    1    3    3    0  502 -0.13371483694E+03 -0.12217766885E+03  0.10215827095E+04  0.10375154326E+04  0.50400001928E-02 0. -1.
</event>
<event>
 5   0  0.9797278E-06  0.3120999E+04  0.7818609E-02  0.8209999E-01
        2   -1    0    0  501    0  0.00000000000E+00  0.00000000000E+00  0.21761037805E+04  0.21761037805E+04  0.25500000920E-02 0.  1.
       -2   -1    0    0    0  501  0.00000000000E+00  0.00000000000E+00 -0.11190450374E+04  0.11190450374E+04  0.25500000920E-02 0. -1.
    10030    2    1    2    0    0  0.00000000000E+00  0.00000000000E+00  0.10570587431E+04  0.32951488179E+04  0.31209986456E+04 0.  0.
        1    1    3    3  502    0 -0.66783308639E+03  0.49959835533E+03 -0.86398915953E+03  0.12008650281E+04  0.50400001928E-02 0. -1.
       -1    1    3    3    0  502  0.66783308639E+03 -0.49959835533E+03  0.19210479026E+04  0.20942837898E+04  0.50400001928E-02 0.  1.
</event>
<event>
 5   0  0.1108153E-05  0.3077398E+04  0.7818609E-02  0.8221968E-01
        2   -1    0    0  501    0  0.00000000000E+00  0.00000000000E+00  0.21286746852E+04  0.21286746852E+04  0.25500000920E-02 0. -1.
       -2   -1    0    0    0  501  0.00000000000E+00  0.00000000000E+00 -0.11122384625E+04  0.11122384625E+04  0.25500000920E-02 0.  1.
    10030    2    1    2    0    0  0.00000000000E+00  0.00000000000E+00  0.10164362227E+04  0.32409131478E+04  0.30773975103E+04 0.  0.
        4    1    3    3  502    0  0.96498408800E+03 -0.24889736906E+03 -0.72644354305E+03  0.12332339699E+04  0.12699999809E+01 0.  1.
       -4    1    3    3    0  502 -0.96498408800E+03  0.24889736906E+03  0.17428797657E+04  0.20076791778E+04  0.12699999809E+01 0. -1.
</event>
<event>
 5   0  0.1001961E-05  0.3201626E+04  0.7818609E-02  0.8188388E-01
       -2   -1    0    0    0  501  0.00000000000E+00  0.00000000000E+00  0.10935486694E+04  0.10935486694E+04  0.25500000920E-02 0.  1.
        2   -1    0    0  501    0  0.00000000000E+00  0.00000000000E+00 -0.23433821648E+04  0.23433821648E+04  0.25500000920E-02 0. -1.
    10030    2    1    2    0    0  0.00000000000E+00  0.00000000000E+00 -0.12498334955E+04  0.34369308342E+04  0.32016261169E+04 0.  0.
        5    1    3    3  502    0 -0.76917134971E+03 -0.74362066092E+03  0.65339229093E+03  0.12536107165E+04  0.46999998093E+01 0.  1.
       -5    1    3    3    0  502  0.76917134971E+03  0.74362066092E+03 -0.19032257864E+04  0.21833201178E+04  0.46999998093E+01 0. -1.
</event>
<event>
 5   0  0.1119100E-05  0.3143759E+04  0.7818609E-02  0.8203830E-01
       -2   -1    0    0    0  501  0.00000000000E+00  0.00000000000E+00  0.18077393971E+04  0.18077393971E+04  0.25500000920E-02 0. -1.
        2   -1    0    0  501    0  0.00000000000E+00  0.00000000000E+00 -0.13667926265E+04  0.13667926265E+04  0.25500000920E-02 0.  1.
    10030    2    1    2    0    0  0.00000000000E+00  0.00000000000E+00  0.44094677059E+03  0.31745320237E+04  0.31437588194E+04 0.  0.
        2    1    3    3  502    0  0.13590302123E+04  0.43779976304E+03  0.88430720096E+03  0.16794734223E+04  0.25500000920E-02 0. -1.
       -2    1    3    3    0  502 -0.13590302123E+04 -0.43779976304E+03 -0.44336043037E+03  0.14950586014E+04  0.25500000920E-02 0.  1.
</event>
<event>
 5   0  0.3838525E-06  0.3004391E+04  0.7818609E-02  0.8242478E-01
        1   -1    0    0  501    0  0.00000000000E+00  0.00000000000E+00  0.20373973239E+04  0.20373973239E+04  0.50400001928E-02 0. -1.
       -1   -1    0    0    0  501  0.00000000000E+00  0.00000000000E+00 -0.11075852532E+04  0.11075852532E+04  0.50400001928E-02 0.  1.
    10030    2    1    2    0    0  0.00000000000E+00  0.00000000000E+00  0.92981207076E+03  0.31449825771E+04  0.30043909405E+04 0.  0.
        3    1    3    3  502    0 -0.61886478752E+03  0.12838771955E+03  0.18914366754E+04  0.19942441523E+04  0.10100000352E+00 0. -1.
       -3    1    3    3    0  502  0.61886478752E+03 -0.12838771955E+03 -0.96162460467E+03  0.11507384248E+04  0.10100000352E+00 0.  1.
</event>
<event>
 5   0  0.9797278E-06  0.3142093E+04  0.7818609E-02  0.8204280E-01
        2   -1    0    0  501    0  0.00000000000E+00  0.00000000000E+00  0.18977329564E+04  0.18977329564E+04  0.25500000920E-02 0. -1.
       -2   -1    0    0    0  501  0.00000000000E+00  0.00000000000E+00 -0.13005977635E+04  0.13005977635E+04  0.25500000920E-02 0.  1.
    10030    2    1    2    0    0  0.00000000000E+00  0.00000000000E+00  0.59713519294E+03  0.31983307199E+04  0.31420930850E+04 0.  0.
        1    1    3    3  502    0 -0.32370929713E+03  0.15255262491E+04  0.49215350062E+03  0.16353082627E+04  0.50400001928E-02 0.  1.
       -1    1    3    3    0  502  0.32370929713E+03 -0.15255262491E+04  0.10498169232E+03  0.15630224572E+04  0.50400001928E-02 0. -1.
</event>
<event>
 5   0  0.3848286E-06  0.2828547E+04  0.7818609E-02  0.8294460E-01
        1   -1    0    0  501    0  0.00000000000E+00  0.00000000000E+00  0.21597348791E+04  0.21597348791E+04  0.50400001928E-02 0. -1.
       -1   -1    0    0    0  501  0.00000000000E+00  0.00000000000E+00 -0.92611800445E+03  0.92611800447E+03  0.50400001928E-02 0.  1.
    10030    2    1    2    0    0  0.00000000000E+00  0.00000000000E+00  0.12336168746E+04  0.30858528835E+04  0.28285468753E+04 0.  0.
        2    1    3    3  502    0 -0.12868096835E+04  0.58195503133E+02 -0.20174139393E+02  0.12882829169E+04  0.25500000920E-02 0. -1.
       -2    1    3    3    0  502  0.12868096835E+04 -0.58195503133E+02  0.12537910140E+04  0.17975699666E+04  0.25500000920E-02 0.  1.
</event>
<event>
 5   0  0.3807334E-06  0.2160258E+04  0.7818609E-02  0.8535154E-01
       -1   -1    0    0    0  501  0.00000000000E+00  0.00000000000E+00  0.96315618839E+03  0.96315618841E+03  0.50400001928E-02 0.  1.
        1   -1    0    0  501    0  0.00000000000E+00  0.00000000000E+00 -0.12113073987E+04  0.12113073988E+04  0.50400001928E-02 0. -1.
    10030    2    1    2    0    0  0.00000000000E+00  0.00000000000E+00 -0.24815121035E+03  0.21744635872E+04  0.21602575931E+04 0.  0.
        4    1    3    3  502    0  0.16256021266E+03  0.98013241331E+03  0.30249327259E+03  0.10385514736E+04  0.12699999809E+01 0.  1.
       -4    1    3    3    0  502 -0.16256021266E+03 -0.98013241331E+03 -0.55064448294E+03  0.11359121136E+04  0.12699999809E+01 0. -1.
</event>
<event>
 5   0  0.1007567E-05  0.3118513E+04  0.7818609E-02  0.8210675E-01
       -2   -1    0    0    0  501  0.00000000000E+00  0.00000000000E+00  0.11375068554E+04  0.11375068554E+04  0.25500000920E-02 0.  1.
        2   -1    0    0  501    0  0.00000000000E+00  0.00000000000E+00 -0.21373774311E+04  0.21373774311E+04  0.25500000920E-02 0. -1.
    10030    2    1    2    0    0  0.00000000000E+00  0.00000000000E+00 -0.99987057564E+03  0.32748842865E+04  0.31185134154E+04 0.  0.
        3    1    3    3  502    0  0.12863495301E+04 -0.77704908767E+03 -0.63423048954E+02  0.15041685051E+04  0.10100000352E+00 0. -1.
       -3    1    3    3    0  502 -0.12863495301E+04  0.77704908767E+03 -0.93644752668E+03  0.17707157815E+04  0.10100000352E+00 0.  1.
</event>
<event>
 5   0  0.1001961E-05  0.2414188E+04  0.7818609E-02  0.8434211E-01
       -2   -1    0    0    0  501  0.00000000000E+00  0.00000000000E+00  0.89596087142E+03  0.89596087143E+03  0.25500000920E-02 0.  1.
        2   -1    0    0  501    0  0.00000000000E+00  0.00000000000E+00 -0.16262722836E+04  0.16262722836E+04  0.25500000920E-02 0. -1.
    10030    2    1    2    0    0  0.00000000000E+00  0.00000000000E+00 -0.73031141221E+03  0.25222331551E+04  0.24141883377E+04 0.  0.
        5    1    3    3  502    0  0.89591446167E+03  0.11481128138E+03 -0.12017486332E+04  0.15033516623E+04  0.46999998093E+01 0. -1.
       -5    1    3    3    0  502 -0.89591446167E+03 -0.11481128138E+03  0.47143722103E+03  0.10188814928E+04  0.46999998093E+01 0.  1.
</event>
<event>
 5   0  0.3493125E-06  0.3150586E+04  0.7818609E-02  0.8201990E-01
        3   -1    0    0  501    0  0.00000000000E+00  0.00000000000E+00  0.13390392047E+04  0.13390392085E+04  0.10100000352E+00 0. -1.
       -3   -1    0    0    0  501  0.00000000000E+00  0.00000000000E+00 -0.18532305763E+04  0.18532305791E+04  0.10100000352E+00 0.  1.
    10030    2    1    2    0    0  0.00000000000E+00  0.00000000000E+00 -0.51419137162E+03  0.31922697876E+04  0.31505862359E+04 0.  0.
        5    1    3    3  502    0  0.32797554839E+03  0.61342897840E+03  0.11749911610E+04  0.13654630681E+04  0.46999998093E+01 0. -1.
       -5    1    3    3    0  502 -0.32797554839E+03 -0.61342897840E+03 -0.16891825326E+04  0.18268067195E+04  0.46999998093E+01 0.  1.
</event>
<event>
 5   0  0.1001961E-05  0.3172494E+04  0.7818609E-02  0.8196119E-01
       -2   -1    0    0    0  501  0.00000000000E+00  0.00000000000E+00  0.12774571343E+04  0.12774571343E+04  0.25500000920E-02 0. -1.
        2   -1    0    0  501    0  0.00000000000E+00  0.00000000000E+00 -0.19696781831E+04  0.19696781831E+04  0.25500000920E-02 0.  1.
    10030    2    1    2    0    0  0.00000000000E+00  0.00000000000E+00 -0.69222104873E+03  0.32471353174E+04  0.31724939384E+04 0.  0.
        5    1    3    3  502    0  0.77633886542E+03  0.11898025818E+04 -0.10682781219E+04  0.17775186225E+04  0.46999998093E+01 0.  1.
       -5    1    3    3    0  502 -0.77633886542E+03 -0.11898025818E+04  0.37605707313E+03  0.14696166949E+04  0.46999998093E+01 0. -1.
</event>
<event>
 5   0  0.9797278E-06  0.3282234E+04  0.7818609E-02  0.8167431E-01
       -2   -1    0    0    0  501  0.00000000000E+00  0.00000000000E+00  0.16497735653E+04  0.16497735653E+04  0.25500000920E-02 0.  1.
        2   -1    0    0  501    0  0.00000000000E+00  0.00000000000E+00 -0.16325056345E+04  0.16325056345E+04  0.25500000920E-02 0. -1.
    10030    2    1    2    0    0  0.00000000000E+00  0.00000000000E+00  0.17267930727E+02  0.32822791998E+04  0.32822337765E+04 0.  0.
        1    1    3    3  502    0 -0.13208181083E+03  0.11713283582E+04  0.11504942900E+04  0.16471468783E+04  0.50400001928E-02 0.  1.
       -1    1    3    3    0  502  0.13208181083E+03 -0.11713283582E+04 -0.11332263593E+04  0.16351323215E+04  0.50400001928E-02 0. -1.
</event>
<event>
 5   0  0.3807334E-06  0.2484136E+04  0.7818609E-02  0.8408659E-01
        1   -1    0    0  501    0  0.00000000000E+00  0.00000000000E+00  0.77293603321E+03  0.77293603322E+03  0.50400001928E-02 0.  1.
       -1   -1    0    0    0  501  0.00000000000E+00  0.00000000000E+00 -0.19959390217E+04  0.19959390217E+04  0.50400001928E-02 0. -1.
    10030    2    1    2    0    0  0.00000000000E+00  0.00000000000E+00 -0.12230029885E+04  0.27688750549E+04  0.24841362201E+04 0.  0.
        4    1    3    3  502    0  0.34141239991E+03 -0.82802144902E+03  0.34768937574E+03  0.96076608066E+03  0.12699999809E+01 0.  1.
       -4    1    3    3    0  502 -0.34141239991E+03  0.82802144902E+03 -0.15706923642E+04  0.18081089742E+04  0.12699999809E+01 0. -1.
</event>
<event>
 5   0  0.4139628E-06  0.3059053E+04  0.7818609E-02  0.8227066E-01
        1   -1    0    0  501    0  0.00000000000E+00  0.00000000000E+00  0.21830928836E+04  0.21830928836E+04  0.50400001928E-02 0. -1.
       -1   -1    0    0    0  501  0.00000000000E+00  0.00000000000E+00 -0.10716225446E+04  0.10716225446E+04  0.50400001928E-02 0.  1.
    10030    2    1    2    0    0  0.00000000000E+00  0.00000000000E+00  0.11114703389E+04  0.32547154282E+04  0.30590531549E+04 0.  0.
        5    1    3    3  502    0 -0.37764184701E+03 -0.69331364639E+03  0.19495381210E+04  0.21033350071E+04  0.46999998093E+01 0. -1.
       -5    1    3    3    0  502  0.37764184701E+03  0.69331364639E+03 -0.83806778203E+03  0.11513804211E+04  0.46999998093E+01 0.  1.
</event>
<event>
 5   0  0.1001961E-05  0.2921741E+04  0.7818609E-02  0.8266438E-01
       -2   -1    0    0    0  501  0.00000000000E+00  0.00000000000E+00  0.12700626710E+04  0.12700626711E+04  0.25500000920E-02 0. -1.
        2   -1    0    0  501    0  0.00000000000E+00  0.00000000000E+00 -0.16803446835E+04  0.16803446835E+04  0.25500000920E-02 0.  1.
    10030    2    1    2    0    0  0.00000000000E+00  0.00000000000E+00 -0.41028201242E+03  0.29504073545E+04  0.29217413006E+04 0.  0.
        5    1    3    3  502    0 -0.42640552802E+03  0.55440064534E+03 -0.15002763334E+04  0.16553044785E+04  0.46999998093E+01 0.  1.
       -5    1    3    3    0  502  0.42640552802E+03 -0.55440064534E+03  0.10899943210E+04  0.12951028761E+04  0.46999998093E+01 0. -1.
</event>
<event>
 5   0  0.1119100E-05  0.3068690E+04  0.7818609E-02  0.8224384E-01
        2   -1    0    0  501    0  0.00000000000E+00  0.00000000000E+00  0.17479242998E+04  0.17479242998E+04  0.25500000920E-02 0. -1.
       -2   -1    0    0    0  501  0.00000000000E+00  0.00000000000E+00 -0.13468627994E+04  0.13468627994E+04  0.25500000920E-02 0.  1.
    10030    2    1    2    0    0  0.00000000000E+00  0.00000000000E+00  0.40106150046E+03  0.30947870992E+04  0.30686897631E+04 0.  0.
        2    1    3    3  502    0 -0.92012966503E+03  0.64270827789E+03  0.12556122559E+04  0.16841243030E+04  0.25500000920E-02 0. -1.
       -2    1    3    3    0  502  0.92012966503E+03 -0.64270827789E+03 -0.85455075539E+03  0.14106627962E+04  0.25500000920E-02 0.  1.
</event>
<event>
 5   0  0.1007567E-05  0.2998434E+04  0.7818609E-02  0.8244178E-01
       -2   -1    0    0    0  501  0.00000000000E+00  0.00000000000E+00  0.14281278983E+04  0.14281278983E+04  0.25500000920E-02 0.  1.
        2   -1    0    0  501    0  0.00000000000E+00  0.00000000000E+00 -0.15738446030E+04  0.15738446030E+04  0.25500000920E-02 0. -1.
    10030    2    1    2    0    0  0.00000000000E+00  0.00000000000E+00 -0.14571670471E+03  0.30019725012E+04  0.29984338479E+04 0.  0.
        3    1    3    3  502    0 -0.14280982540E+04  0.45603909849E+03 -0.87541690394E+02  0.15016989845E+04  0.10100000352E+00 0.  1.
       -3    1    3    3    0  502  0.14280982540E+04 -0.45603909849E+03 -0.58175014313E+02  0.15002735167E+04  0.10100000352E+00 0. -1.
</event>
<event>
 5   0  0.4250961E-06  0.3189665E+04  0.7818609E-02  0.8191552E-01
       -1   -1    0    0    0  501  0.00000000000E+00  0.00000000000E+00  0.86580733314E+03  0.86580733316E+03  0.50400001928E-02 0.  1.
        1   -1    0    0  501    0  0.00000000000E+00  0.00000000000E+00 -0.29377098853E+04  0.29377098853E+04  0.50400001928E-02 0. -1.
    10030    2    1    2    0    0  0.00000000000E+00  0.00000000000E+00 -0.20719025522E+04  0.38035172185E+04  0.31896650366E+04 0.  0.
        1    1    3    3  502    0 -0.53306824829E+03 -0.14169533325E+04 -0.16340483563E+04  0.22275620159E+04  0.50400001928E-02 0.  1.
       -1    1    3    3    0  502  0.53306824829E+03  0.14169533325E+04 -0.43785419582E+03  0.15759552026E+04  0.50400001928E-02 0. -1.
</event>
<event>
 5   0  0.1007567E-05  0.3116110E+04  0.7818609E-02  0.8211331E-01
        2   -1    0    0  501    0  0.00000000000E+00  0.00000000000E+00  0.30617497779E+04  0.30617497779E+04  0.25500000920E-02 0.  1.
       -2   -1    0    0    0  501  0.00000000000E+00  0.00000000000E+00 -0.79285879297E+03  0.79285879297E+03  0.25500000920E-02 0. -1.
    10030    2    1    2    0    0  0.00000000000E+00  0.00000000000E+00  0.22688909849E+04  0.38546085708E+04  0.31161099039E+04 0.  0.
        3    1    3    3  502    0 -0.14417936061E+03  0.11409276628E+04 -0.16588834959E+03  0.11619047183E+04  0.10100000352E+00 0. -1.
       -3    1    3    3    0  502  0.14417936061E+03 -0.11409276628E+04  0.24347793345E+04  0.26927038525E+04  0.10100000352E+00 0.  1.
</event>
<event>
 5   0  0.1001961E-05  0.3101018E+04  0.7818609E-02  0.8215459E-01
        2   -1    0    0  501    0  0.00000000000E+00  0.00000000000E+00  0.16261438430E+04  0.16261438430E+04  0.25500000920E-02 0.  1.
       -2   -1    0    0    0  501  0.00000000000E+00  0.00000000000E+00 -0.14783917851E+04  0.14783917851E+04  0.25500000920E-02 0. -1.
    10030    2    1    2    0    0  0.00000000000E+00  0.00000000000E+00  0.14775205792E+03  0.31045356280E+04  0.31010177031E+04 0.  0.
        5    1    3    3  502    0 -0.10944128167E+04 -0.14465775147E+03 -0.10161154248E+04  0.15003925902E+04  0.46999998093E+01 0. -1.
       -5    1    3    3    0  502  0.10944128167E+04  0.14465775147E+03  0.11638674827E+04  0.16041430378E+04  0.46999998093E+01 0.  1.
</event>
<event>
 5   0  0.4250961E-06  0.2093138E+04  0.7818609E-02  0.8564272E-01
        1   -1    0    0  501    0  0.00000000000E+00  0.00000000000E+00  0.51765012226E+03  0.51765012228E+03  0.50400001928E-02 0. -1.
       -1   -1    0    0    0  501  0.00000000000E+00  0.00000000000E+00 -0.21159207772E+04  0.21159207772E+04  0.50400001928E-02 0.  1.
    10030    2    1    2    0    0  0.00000000000E+00  0.00000000000E+00 -0.15982706549E+04  0.26335708995E+04  0.20931379783E+04 0.  0.
        1    1    3    3  502    0 -0.10439355753E+04  0.44106821139E+02 -0.87420370415E+03  0.13623432069E+04  0.50400001928E-02 0. -1.
       -1    1    3    3    0  502  0.10439355753E+04 -0.44106821139E+02 -0.72406695078E+03  0.12712276926E+04  0.50400001928E-02 0.  1.
</event>
<event>
 5   0  0.3848286E-06  0.1906665E+04  0.7818609E-02  0.8651546E-01
       -1   -1    0    0    0  501  0.00000000000E+00  0.00000000000E+00  0.92823152557E+03  0.92823152559E+03  0.50400001928E-02 0.  1.
        1   -1    0    0  501    0  0.00000000000E+00  0.00000000000E+00 -0.97911187925E+03  0.97911187927E+03  0.50400001928E-02 0. -1.
    10030    2    1    2    0    0  0.00000000000E+00  0.00000000000E+00 -0.50880353683E+02  0.19073434049E+04  0.19066646411E+04 0.  0.
        2    1    3    3  502    0  0.88201402471E+02 -0.70760768691E+03 -0.65840106566E+03  0.97055658734E+03  0.25500000920E-02 0. -1.
       -2    1    3    3    0  502 -0.88201402471E+02  0.70760768691E+03  0.60752071198E+03  0.93678681751E+03  0.25500000920E-02 0.  1.
</event>
<event>
 5   0  0.1108153E-05  0.2738437E+04  0.7818609E-02  0.8322640E-01
       -2   -1    0    0    0  501  0.00000000000E+00  0.00000000000E+00  0.10378793445E+04  0.10378793445E+04  0.25500000920E-02 0. -1.
        2   -1    0    0  501    0  0.00000000000E+00  0.00000000000E+00 -0.18063364161E+04  0.18063364161E+04  0.25500000920E-02 0.  1.
    10030    2    1    2    0    0  0.00000000000E+00  0.00000000000E+00 -0.76845707159E+03  0.28442157605E+04  0.27384369669E+04 0.  0.
        4    1    3    3  502    0 -0.69029397494E+03  0.97548352781E+03  0.30993192102E+03  0.12345579344E+04  0.12699999809E+01 0. -1.
       -4    1    3    3    0  502  0.69029397494E+03 -0.97548352781E+03 -0.10783889926E+04  0.16096578261E+04  0.12699999809E+01 0.  1.
</event>
<event>
 5   0  0.1108153E-05  0.3109798E+04  0.7818609E-02  0.8213054E-01
       -2   -1    0    0    0  501  0.00000000000E+00  0.00000000000E+00  0.13113489910E+04  0.13113489910E+04  0.25500000920E-02 0. -1.
        2   -1    0    0  501    0  0.00000000000E+00  0.00000000000E+00 -0.18436828628E+04  0.18436828628E+04  0.25500000920E-02 0.  1.
    10030    2    1    2    0    0  0.00000000000E+00  0.00000000000E+00 -0.53233387175E+03  0.31550318538E+04  0.31097984899E+04 0.  0.
        4    1    3    3  502    0  0.10299559827E+04  0.46541768737E+03 -0.13495414265E+04  0.17603086732E+04  0.12699999809E+01 0.  1.
       -4    1    3    3    0  502 -0.10299559827E+04 -0.46541768737E+03  0.81720755479E+03  0.13947231806E+04  0.12699999809E+01 0. -1.
</event>
<event>
 5   0  0.1119100E-05  0.2995099E+04  0.7818609E-02  0.8245132E-01
       -2   -1    0    0    0  501  0.00000000000E+00  0.00000000000E+00  0.13728448401E+04  0.13728448401E+04  0.25500000920E-02 0. -1.
        2   -1    0    0  501    0  0.00000000000E+00  0.00000000000E+00 -0.16335821863E+04  0.16335821863E+04  0.25500000920E-02 0.  1.
    10030    2    1    2    0    0  0.00000000000E+00  0.00000000000E+00 -0.26073734625E+03  0.30064270264E+04  0.29950992473E+04 0.  0.
        2    1    3    3  502    0  0.21883623951E+03 -0.13380980255E+04 -0.76858723611E+03  0.15585640715E+04  0.25500000920E-02 0.  1.
       -2    1    3    3    0  502 -0.21883623951E+03  0.13380980255E+04  0.50784988986E+03  0.14478629549E+04  0.25500000920E-02 0. -1.
</event>
<event>
 5   0  0.9797278E-06  0.3049853E+04  0.7818609E-02  0.8229637E-01
       -2   -1    0    0    0  501  0.00000000000E+00  0.00000000000E+00  0.85480765541E+03  0.85480765541E+03  0.25500000920E-02 0.  1.
        2   -1    0    0  501    0  0.00000000000E+00  0.00000000000E+00 -0.27203788815E+04  0.27203788815E+04  0.25500000920E-02 0. -1.
    10030    2    1    2    0    0  0.00000000000E+00  0.00000000000E+00 -0.18655712261E+04  0.35751865370E+04  0.30498529103E+04 0.  0.
        1    1    3    3  502    0  0.12300543205E+04 -0.47330992763E+02  0.12232094385E+03  0.12370271895E+04  0.50400001928E-02 0.  1.
       -1    1    3    3    0  502 -0.12300543205E+04  0.47330992763E+02 -0.19878921700E+04  0.23381593474E+04  0.50400001928E-02 0. -1.
</event>
<event>
 5   0  0.1108153E-05  0.2769816E+04  0.7818609E-02  0.8312701E-01
       -2   -1    0    0    0  501  0.00000000000E+00  0.00000000000E+00  0.65831750667E+03  0.65831750667E+03  0.25500000920E-02 0. -1.
        2   -1    0    0  501    0  0.00000000000E+00  0.00000000000E+00 -0.29134415740E+04  0.29134415740E+04  0.25500000920E-02 0.  1.
    10030    2    1    2    0    0  0.00000000000E+00  0.00000000000E+00 -0.22551240673E+04  0.35717590807E+04  0.27698155844E+04 0.  0.
        4    1    3    3  502    0  0.24376128626E+03 -0.11927666566E+04 -0.19789017146E+04  0.23233952464E+04  0.12699999809E+01 0.  1.
       -4    1    3    3    0  502 -0.24376128626E+03  0.11927666566E+04 -0.27622235273E+03  0.12483638343E+04  0.12699999809E+01 0. -1.
</event>
<event>
 5   0  0.1007567E-05  0.3067930E+04  0.7818609E-02  0.8224595E-01
        2   -1    0    0  501    0  0.00000000000E+00  0.00000000000E+00  0.20251456141E+04  0.20251456141E+04  0.25500000920E-02 0. -1.
       -2   -1    0    0    0  501  0.00000000000E+00  0.00000000000E+00 -0.11619154523E+04  0.11619154523E+04  0.25500000920E-02 0.  1.
    10030    2    1    2    0    0  0.00000000000E+00  0.00000000000E+00  0.86323016177E+03  0.31870610664E+04  0.30679295834E+04 0.  0.
        3    1    3    3  502    0 -0.67065676849E+03  0.13631894367E+04  0.65194045985E+03  0.16532066764E+04  0.10100000352E+00 0. -1.
       -3    1    3    3    0  502  0.67065676849E+03 -0.13631894367E+04  0.21128970193E+03  0.15338543900E+04  0.10100000352E+00 0.  1.
</event>
<event>
 5   0  0.3838525E-06  0.3036627E+04  0.7818609E-02  0.8233349E-01
        1   -1    0    0  501    0  0.00000000000E+00  0.00000000000E+00  0.24547629645E+04  0.24547629645E+04  0.50400001928E-02 0. -1.
       -1   -1    0    0    0  501  0.00000000000E+00  0.00000000000E+00 -0.93910295212E+03  0.93910295214E+03  0.50400001928E-02 0.  1.
    10030    2    1    2    0    0  0.00000000000E+00  0.00000000000E+00  0.15156600124E+04  0.33938659167E+04  0.30366265143E+04 0.  0.
        3    1    3    3  502    0  0.10906138837E+04 -0.50384702015E+03 -0.27981918871E+03  0.12335312123E+04  0.10100000352E+00 0.  1.
       -3    1    3    3    0  502 -0.10906138837E+04  0.50384702015E+03  0.17954792011E+04  0.21603347044E+04  0.10100000352E+00 0. -1.
</event>
<event>
 5   0  0.3838525E-06  0.2933948E+04  0.7818609E-02  0.8262848E-01
        1   -1    0    0  501    0  0.00000000000E+00  0.00000000000E+00  0.17415263083E+04  0.17415263083E+04  0.50400001928E-02 0.  1.
       -1   -1    0    0    0  501  0.00000000000E+00  0.00000000000E+00 -0.12357052134E+04  0.12357052134E+04  0.50400001928E-02 0. -1.
    10030    2    1    2    0    0  0.00000000000E+00  0.00000000000E+00  0.50582109493E+03  0.29772315217E+04  0.29339482875E+04 0.  0.
        3    1    3    3  502    0 -0.10292043632E+04 -0.41224450317E+03  0.12277101712E+04  0.16542307657E+04  0.10100000352E+00 0.  1.
       -3    1    3    3    0  502  0.10292043632E+04  0.41224450317E+03 -0.72188907625E+03  0.13230007560E+04  0.10100000352E+00 0. -1.
</event>
<event>
 5   0  0.3807334E-06  0.2326203E+04  0.7818609E-02  0.8467661E-01
       -1   -1    0    0    0  501  0.00000000000E+00  0.00000000000E+00  0.10016255323E+04  0.10016255323E+04  0.50400001928E-02 0.  1.
        1   -1    0    0  501    0  0.00000000000E+00  0.00000000000E+00 -0.13506093354E+04  0.13506093354E+04  0.50400001928E-02 0. -1.
    10030    2    1    2    0    0  0.00000000000E+00  0.00000000000E+00 -0.34898380311E+03  0.23522348677E+04  0.23262027380E+04 0.  0.
        4    1    3    3  502    0 -0.94163784445E+03 -0.59071633277E+03 -0.52063179073E+03  0.12274716658E+04  0.12699999809E+01 0.  1.
       -4    1    3    3    0  502  0.94163784445E+03  0.59071633277E+03  0.17164798762E+03  0.11247632020E+04  0.12699999809E+01 0. -1.
</event>
<event>
 5   0  0.4250961E-06  0.3076556E+04  0.7818609E-02  0.8222201E-01
       -1   -1    0    0    0  501  0.00000000000E+00  0.00000000000E+00  0.16313128186E+04  0.16313128186E+04  0.50400001928E-02 0. -1.
        1   -1    0    0  501    0  0.00000000000E+00  0.00000000000E+00 -0.14505490464E+04  0.14505490464E+04  0.50400001928E-02 0.  1.
    10030    2    1    2    0    0  0.00000000000E+00  0.00000000000E+00  0.18076377215E+03  0.30818618650E+04  0.30765560313E+04 0.  0.
        1    1    3    3  502    0  0.44034400203E+03  0.13861794224E+04 -0.41138417883E+03  0.15115003056E+04  0.50400001928E-02 0.  1.
       -1    1    3    3    0  502 -0.44034400203E+03 -0.13861794224E+04  0.59214795098E+03  0.15703615594E+04  0.50400001928E-02 0. -1.
</event>
<event>
 5   0  0.9797278E-06  0.3094130E+04  0.7818609E-02  0.8217351E-01
       -2   -1    0    0    0  501  0.00000000000E+00  0.00000000000E+00  0.14931095619E+04  0.14931095619E+04  0.25500000920E-02 0. -1.
        2   -1    0    0  501    0  0.00000000000E+00  0.00000000000E+00 -0.16029706519E+04  0.16029706519E+04  0.25500000920E-02 0.  1.
    10030    2    1    2    0    0  0.00000000000E+00  0.00000000000E+00 -0.10986109005E+03  0.30960802138E+04  0.30941304483E+04 0.  0.
        1    1    3    3  502    0  0.10986452132E+04  0.10637400852E+04 -0.28927149137E+03  0.15563554444E+04  0.50400001928E-02 0. -1.
       -1    1    3    3    0  502 -0.10986452132E+04 -0.10637400852E+04  0.17941040133E+03  0.15397247694E+04  0.50400001928E-02 0.  1.
</event>
<event>
 5   0  0.1108153E-05  0.3141984E+04  0.7818609E-02  0.8204309E-01
       -2   -1    0    0    0  501  0.00000000000E+00  0.00000000000E+00  0.19369608701E+04  0.19369608701E+04  0.25500000920E-02 0.  1.
        2   -1    0    0  501    0  0.00000000000E+00  0.00000000000E+00 -0.12741688359E+04  0.12741688359E+04  0.25500000920E-02 0. -1.
    10030    2    1    2    0    0  0.00000000000E+00  0.00000000000E+00  0.66279203417E+03  0.32111297060E+04  0.31419835627E+04 0.  0.
        4    1    3    3  502    0 -0.14299786370E+03  0.13908934645E+04  0.10633847346E+04  0.17566507123E+04  0.12699999809E+01 0.  1.
       -4    1    3    3    0  502  0.14299786370E+03 -0.13908934645E+04 -0.40059270039E+03  0.14544789937E+04  0.12699999809E+01 0. -1.
</event>
<event>
 5   0  0.1119100E-05  0.3062647E+04  0.7818609E-02  0.8226064E-01
       -2   -1    0    0    0  501  0.00000000000E+00  0.00000000000E+00  0.89972952633E+03  0.89972952634E+03  0.25500000920E-02 0.  1.
        2   -1    0    0  501    0  0.00000000000E+00  0.00000000000E+00 -0.26062856554E+04  0.26062856554E+04  0.25500000920E-02 0. -1.
    10030    2    1    2    0    0  0.00000000000E+00  0.00000000000E+00 -0.17065561290E+04  0.35060151817E+04  0.30626473243E+04 0.  0.
        2    1    3    3  502    0  0.14017403451E+04  0.58732271316E+03 -0.63872006418E+03  0.16485712860E+04  0.25500000920E-02 0.  1.
       -2    1    3    3    0  502 -0.14017403451E+04 -0.58732271316E+03 -0.10678360648E+04  0.18574438957E+04  0.25500000920E-02 0. -1.
</event>
<event>
 5   0  0.4139628E-06  0.3016562E+04  0.7818609E-02  0.8239017E-01
        1   -1    0    0  501    0  0.00000000000E+00  0.00000000000E+00  0.26425411133E+04  0.26425411133E+04  0.50400001928E-02 0. -1.
       -1   -1    0    0    0  501  0.00000000000E+00  0.00000000000E+00 -0.86088037213E+03  0.86088037214E+03  0.50400001928E-02 0.  1.
    10030    2    1    2    0    0  0.00000000000E+00  0.00000000000E+00  0.17816607412E+04  0.35034214854E+04  0.30165621339E+04 0.  0.
        5    1    3    3  502    0 -0.20642599084E+03  0.12570935368E+04  0.18286122986E+04  0.22286186032E+04  0.46999998093E+01 0. -1.
       -5    1    3    3    0  502  0.20642599084E+03 -0.12570935368E+04 -0.46951557420E+02  0.12748028823E+04  0.46999998093E+01 0.  1.
</event>
<event>
 5   0  0.3838525E-06  0.1526450E+04  0.7818609E-02  0.8867052E-01
       -1   -1    0    0    0  501  0.00000000000E+00  0.00000000000E+00  0.78965559154E+03  0.78965559156E+03  0.50400001928E-02 0.  1.
        1   -1    0    0  501    0  0.00000000000E+00  0.00000000000E+00 -0.73767864558E+03  0.73767864559E+03  0.50400001928E-02 0. -1.
    10030    2    1    2    0    0  0.00000000000E+00  0.00000000000E+00  0.51976945964E+02  0.15273342371E+04  0.15264495632E+04 0.  0.
        3    1    3    3  502    0  0.28754859958E+03 -0.49473519765E+02  0.73164910272E+03  0.78768156383E+03  0.10100000352E+00 0.  1.
       -3    1    3    3    0  502 -0.28754859958E+03  0.49473519765E+02 -0.67967215676E+03  0.73965267332E+03  0.10100000352E+00 0. -1.
</event>
<event>
 5   0  0.9797278E-06  0.3112902E+04  0.7818609E-02  0.8212206E-01
       -2   -1    0    0    0  501  0.00000000000E+00  0.00000000000E+00  0.15556181659E+04  0.15556181659E+04  0.25500000920E-02 0.  1.
        2   -1    0    0  501    0  0.00000000000E+00  0.00000000000E+00 -0.15572844816E+04  0.15572844816E+04  0.25500000920E-02 0. -1.
    10030    2    1    2    0    0  0.00000000000E+00  0.00000000000E+00 -0.16663156876E+01  0.31129026474E+04  0.31129022014E+04 0.  0.
        1    1    3    3  502    0  0.73526573629E+03  0.28273297707E+03 -0.13432142162E+04  0.15571698912E+04  0.50400001928E-02 0. -1.
       -1    1    3    3    0  502 -0.73526573629E+03 -0.28273297707E+03  0.13415479006E+04  0.15557327562E+04  0.50400001928E-02 0.  1.
</event>
<event>
 5   0  0.3807334E-06  0.3086996E+04  0.7818609E-02  0.8219316E-01
        1   -1    0    0  501    0  0.00000000000E+00  0.00000000000E+00  0.18692260656E+04  0.18692260656E+04  0.50400001928E-02 0.  1.
       -1   -1    0    0    0  501  0.00000000000E+00  0.00000000000E+00 -0.12745309120E+04  0.12745309120E+04  0.50400001928E-02 0. -1.
    10030    2    1    2    0    0  0.00000000000E+00  0.00000000000E+00  0.59469515357E+03  0.31437569776E+04  0.30869962113E+04 0.  0.
        4    1    3    3  502    0  0.97910629873E+02  0.11005195015E+04  0.13949662230E+04  0.17795117423E+04  0.12699999809E+01 0.  1.
       -4    1    3    3    0  502 -0.97910629873E+02 -0.11005195015E+04 -0.80027106943E+03  0.13642452353E+04  0.12699999809E+01 0. -1.
</event>
<event>
 5   0  0.3838525E-06  0.3122204E+04  0.7818609E-02  0.8209671E-01
       -1   -1    0    0    0  501  0.00000000000E+00  0.00000000000E+00  0.12296517188E+04  0.12296517188E+04  0.50400001928E-02 0.  1.
        1   -1    0    0  501    0  0.00000000000E+00  0.00000000000E+00 -0.19818941534E+04  0.19818941534E+04  0.50400001928E-02 0. -1.
    10030    2    1    2    0    0  0.00000000000E+00  0.00000000000E+00 -0.75224243458E+03  0.32115458722E+04  0.31222040627E+04 0.  0.
        3    1    3    3  502    0 -0.12874868521E+04 -0.16068867117E+03  0.51681867076E+03  0.13966190576E+04  0.10100000352E+00 0.  1.
       -3    1    3    3    0  502  0.12874868521E+04  0.16068867117E+03 -0.12690611053E+04  0.18149268147E+04  0.10100000352E+00 0. -1.
</event>
<event>
 5   0  0.4250961E-06  0.1879935E+04  0.7818609E-02  0.8664909E-01
        1   -1    0    0  501    0  0.00000000000E+00  0.00000000000E+00  0.79212393362E+03  0.79212393363E+03  0.50400001928E-02 0. -1.
       -1   -1    0    0    0  501  0.00000000000E+00  0.00000000000E+00 -0.11154044930E+04  0.11154044930E+04  0.50400001928E-02 0.  1.
    10030    2    1    2    0    0  0.00000000000E+00  0.00000000000E+00 -0.32328055937E+03  0.19075284266E+04  0.18799346740E+04 0.  0.
        1    1    3    3  502    0  0.68861760511E+03 -0.68184054950E+02  0.48385393357E+03  0.84436834408E+03  0.50400001928E-02 0. -1.
       -1    1    3    3    0  502 -0.68861760511E+03  0.68184054950E+02 -0.80713449294E+03  0.10631600826E+04  0.50400001928E-02 0.  1.
</event>
<event>
 5   0  0.4139628E-06  0.2889475E+04  0.7818609E-02  0.8276016E-01
       -1   -1    0    0    0  501  0.00000000000E+00  0.00000000000E+00  0.94421590801E+03  0.94421590802E+03  0.50400001928E-02 0.  1.
        1   -1    0    0  501    0  0.00000000000E+00  0.00000000000E+00 -0.22105820447E+04  0.22105820447E+04  0.50400001928E-02 0. -1.
    10030    2    1    2    0    0  0.00000000000E+00  0.00000000000E+00 -0.12663661367E+04  0.31547979527E+04  0.28894751998E+04 0.  0.
        5    1    3    3  502    0 -0.33246267754E+03  0.23329577011E+03 -0.21469590623E+04  0.21850431697E+04  0.46999998093E+01 0. -1.
       -5    1    3    3    0  502  0.33246267754E+03 -0.23329577011E+03  0.88059292567E+03  0.96975478295E+03  0.46999998093E+01 0.  1.
</event>
<event>
 5   0  0.3838525E-06  0.3167818E+04  0.7818609E-02  0.8197368E-01
       -1   -1    0    0    0  501  0.00000000000E+00  0.00000000000E+00  0.12153029452E+04  0.12153029452E+04  0.50400001928E-02 0. -1.
        1   -1    0    0  501    0  0.00000000000E+00  0.00000000000E+00 -0.20643151791E+04  0.20643151791E+04  0.50400001928E-02 0.  1.
    10030    2    1    2    0    0  0.00000000000E+00  0.00000000000E+00 -0.84901223383E+03  0.32796181243E+04  0.31678183767E+04 0.  0.
        3    1    3    3  502    0 -0.17081814400E+03 -0.39519925863E+03 -0.20025738943E+04  0.20483318834E+04  0.10100000352E+00 0.  1.
       -3    1    3    3    0  502  0.17081814400E+03  0.39519925863E+03  0.11535616604E+04  0.12312862409E+04  0.10100000352E+00 0. -1.
</event>
<event>
 5   0  0.1108153E-05  0.3018577E+04  0.7818609E-02  0.8238446E-01
        2   -1    0    0  501    0  0.00000000000E+00  0.00000000000E+00  0.23199253297E+04  0.23199253297E+04  0.25500000920E-02 0. -1.
       -2   -1    0    0    0  501  0.00000000000E+00  0.00000000000E+00 -0.98190715833E+03  0.98190715833E+03  0.25500000920E-02 0.  1.
    10030    2    1    2    0    0  0.00000000000E+00  0.00000000000E+00  0.13380181714E+04  0.33018324881E+04  0.30185766766E+04 0.  0.
        4    1    3    3  502    0  0.66752595167E+03  0.65234728548E+03 -0.62837713693E+03  0.11251699055E+04  0.12699999809E+01 0.  1.
       -4    1    3    3    0  502 -0.66752595167E+03 -0.65234728548E+03  0.19663953083E+04  0.21766625826E+04  0.12699999809E+01 0. -1.
</event>
<event>
 5   0  0.9797278E-06  0.2349243E+04  0.7818609E-02  0.8458754E-01
        2   -1    0    0  501    0  0.00000000000E+00  0.00000000000E+00  0.16381882984E+04  0.16381882984E+04  0.25500000920E-02 0.  1.
       -2   -1    0    0    0  501  0.00000000000E+00  0.00000000000E+00 -0.84223285126E+03  0.84223285126E+03  0.25500000920E-02 0. -1.
    10030    2    1    2    0    0  0.00000000000E+00  0.00000000000E+00  0.79595544718E+03  0.24804211497E+04  0.23492432837E+04 0.  0.
        1    1    3    3  502    0 -0.75780220664E+03 -0.15478182435E+03  0.13313737018E+04  0.15397329416E+04  0.50400001928E-02 0.  1.
       -1    1    3    3    0  502  0.75780220664E+03  0.15478182435E+03 -0.53541825460E+03  0.94068820813E+03  0.50400001928E-02 0. -1.
</event>
<event>
 5   0  0.3807334E-06  0.2689367E+04  0.7818609E-02  0.8338463E-01
        1   -1    0    0  501    0  0.00000000000E+00  0.00000000000E+00  0.11935383000E+04  0.11935383000E+04  0.50400001928E-02 0.  1.
       -1   -1    0    0    0  501  0.00000000000E+00  0.00000000000E+00 -0.15149688899E+04  0.15149688900E+04  0.50400001928E-02 0. -1.
    10030    2    1    2    0    0  0.00000000000E+00  0.00000000000E+00 -0.32143058994E+03  0.27085071900E+04  0.26893667608E+04 0.  0.
        4    1    3    3  502    0 -0.17818329043E+03  0.12255919700E+04 -0.68822435630E+03  0.14168554405E+04  0.12699999809E+01 0. -1.
       -4    1    3    3    0  502  0.17818329043E+03 -0.12255919700E+04  0.36679376636E+03  0.12916517494E+04  0.12699999809E+01 0.  1.
</event>
<event>
 5   0  0.1001961E-05  0.3101780E+04  0.7818609E-02  0.8215250E-01
       -2   -1    0    0    0  501  0.00000000000E+00  0.00000000000E+00  0.10093639095E+04  0.10093639095E+04  0.25500000920E-02 0.  1.
        2   -1    0    0  501    0  0.00000000000E+00  0.00000000000E+00 -0.23829458247E+04  0.23829458247E+04  0.25500000920E-02 0. -1.
    10030    2    1    2    0    0  0.00000000000E+00  0.00000000000E+00 -0.13735819153E+04  0.33923097342E+04  0.31017798205E+04 0.  0.
        5    1    3    3  502    0  0.14657960981E+03  0.95155432488E+03  0.64294454413E+03  0.11577309670E+04  0.46999998093E+01 0.  1.
       -5    1    3    3    0  502 -0.14657960981E+03 -0.95155432488E+03 -0.20165264594E+04  0.22345787672E+04  0.46999998093E+01 0. -1.
</event>
<event>
 5   0  0.3807334E-06  0.3068357E+04  0.7818609E-02  0.8224476E-01
        1   -1    0    0  501    0  0.00000000000E+00  0.00000000000E+00  0.81062507823E+03  0.81062507825E+03  0.50400001928E-02 0.  1.
       -1   -1    0    0    0  501  0.00000000000E+00  0.00000000000E+00 -0.29035667557E+04  0.29035667558E+04  0.50400001928E-02 0. -1.
    10030    2    1    2    0    0  0.00000000000E+00  0.00000000000E+00 -0.20929416775E+04  0.37141918340E+04  0.30683572338E+04 0.  0.
        4    1    3    3  502    0 -0.55303324682E+03  0.12726187295E+04 -0.25427685295E+03  0.14106957622E+04  0.12699999809E+01 0.  1.
       -4    1    3    3    0  502  0.55303324682E+03 -0.12726187295E+04 -0.18386648246E+04  0.23034960718E+04  0.12699999809E+01 0. -1.
</event>
<event>
 5   0  0.4250961E-06  0.1793370E+04  0.7818609E-02  0.8709833E-01
        1   -1    0    0  501    0  0.00000000000E+00  0.00000000000E+00  0.87697548232E+03  0.87697548234E+03  0.50400001928E-02 0. -1.
       -1   -1    0    0    0  501  0.00000000000E+00  0.00000000000E+00 -0.91683697732E+03  0.91683697734E+03  0.50400001928E-02 0.  1.
    10030    2    1    2    0    0  0.00000000000E+00  0.00000000000E+00 -0.39861495000E+02  0.17938124597E+04  0.17933695106E+04 0.  0.
        1    1    3    3  502    0  0.20706530896E+03  0.33249540358E+03  0.78687514513E+03  0.87897766162E+03  0.50400001928E-02 0. -1.
       -1    1    3    3    0  502 -0.20706530896E+03 -0.33249540358E+03 -0.82673664013E+03  0.91483479806E+03  0.50400001928E-02 0.  1.
</event>
<event>
 5   0  0.4250961E-06  0.3125378E+04  0.7818609E-02  0.8208807E-01
       -1   -1    0    0    0  501  0.00000000000E+00  0.00000000000E+00  0.16744805579E+04  0.16744805579E+04  0.50400001928E-02 0.  1.
        1   -1    0    0  501    0  0.00000000000E+00  0.00000000000E+00 -0.14583607936E+04  0.14583607936E+04  0.50400001928E-02 0. -1.
    10030    2    1    2    0    0  0.00000000000E+00  0.00000000000E+00  0.21611976428E+03  0.31328413516E+04  0.31253779262E+04 0.  0.
        1    1    3    3  502    0 -0.12737857165E+04  0.90220398972E+03  0.33756591624E+02  0.15612948466E+04  0.50400001928E-02 0. -1.
       -1    1    3    3    0  502  0.12737857165E+04 -0.90220398972E+03  0.18236317265E+03  0.15715465050E+04  0.50400001928E-02 0.  1.
</event>
<event>
 5   0  0.3838525E-06  0.3004456E+04  0.7818609E-02  0.8242460E-01
        1   -1    0    0  501    0  0.00000000000E+00  0.00000000000E+00  0.17534001695E+04  0.17534001695E+04  0.50400001928E-02 0. -1.
       -1   -1    0    0    0  501  0.00000000000E+00  0.00000000000E+00 -0.12870360119E+04  0.12870360119E+04  0.50400001928E-02 0.  1.
    10030    2    1    2    0    0  0.00000000000E+00  0.00000000000E+00  0.46636415758E+03  0.30404361814E+04  0.30044561314E+04 0.  0.
        3    1    3    3  502    0  0.12920503308E+04 -0.75081596396E+03  0.77816696634E+02  0.14963870213E+04  0.10100000352E+00 0.  1.
       -3    1    3    3    0  502 -0.12920503308E+04  0.75081596396E+03  0.38854746095E+03  0.15440491601E+04  0.10100000352E+00 0. -1.
</event>
<event>
 5   0  0.1001961E-05  0.3109302E+04  0.7818609E-02  0.8213190E-01
       -2   -1    0    0    0  501  0.00000000000E+00  0.00000000000E+00  0.18128956709E+04  0.18128956710E+04  0.25500000920E-02 0.  1.
        2   -1    0    0  501    0  0.00000000000E+00  0.00000000000E+00 -0.13331931769E+04  0.13331931769E+04  0.25500000920E-02 0. -1.
    10030    2    1    2    0    0  0.00000000000E+00  0.00000000000E+00  0.47970249401E+03  0.31460888479E+04  0.31093022619E+04 0.  0.
        5    1    3    3  502    0  0.62725069115E+02  0.13002556169E+04  0.10997999453E+04  0.17041658116E+04  0.46999998093E+01 0.  1.
       -5    1    3    3    0  502 -0.62725069115E+02 -0.13002556169E+04 -0.62009745126E+03  0.14419230363E+04  0.46999998093E+01 0. -1.
</event>
<event>
 5   0  0.9797278E-06  0.3054535E+04  0.7818609E-02  0.8228327E-01
        2   -1    0    0  501    0  0.00000000000E+00  0.00000000000E+00  0.14307097358E+04  0.14307097358E+04  0.25500000920E-02 0. -1.
       -2   -1    0    0    0  501  0.00000000000E+00  0.00000000000E+00 -0.16303419352E+04  0.16303419352E+04  0.25500000920E-02 0.  1.
    10030    2    1    2    0    0  0.00000000000E+00  0.00000000000E+00 -0.19963219938E+03  0.30610516710E+04  0.30545350411E+04 0.  0.
        1    1    3    3  502    0  0.69244967292E+03  0.12570564985E+04  0.42366648994E+03  0.14963859411E+04  0.50400001928E-02 0. -1.
       -1    1    3    3    0  502 -0.69244967292E+03 -0.12570564985E+04 -0.62329868932E+03  0.15646657299E+04  0.50400001928E-02 0.  1.
</event>
<event>
 5   0  0.3807334E-06  0.3038142E+04  0.7818609E-02  0.8232922E-01
        1   -1    0    0  501    0  0.00000000000E+00  0.00000000000E+00  0.15034980529E+04  0.15034980529E+04  0.50400001928E-02 0. -1.
       -1   -1    0    0    0  501  0.00000000000E+00  0.00000000000E+00 -0.15348052484E+04  0.15348052485E+04  0.50400001928E-02 0.  1.
    10030    2    1    2    0    0  0.00000000000E+00  0.00000000000E+00 -0.31307195556E+02  0.30383033013E+04  0.30381419997E+04 0.  0.
        4    1    3    3  502    0  0.11943948925E+04 -0.11385399667E+03 -0.94738605503E+03  0.15287523809E+04  0.12699999809E+01 0. -1.
       -4    1    3    3    0  502 -0.11943948925E+04  0.11385399667E+03  0.91607885948E+03  0.15095509205E+04  0.12699999809E+01 0.  1.
</event>
<event>
 5   0  0.3838525E-06  0.2813953E+04  0.7818609E-02  0.8298950E-01
       -1   -1    0    0    0  501  0.00000000000E+00  0.00000000000E+00  0.14339341701E+04  0.14339341701E+04  0.50400001928E-02 0.  1.
        1   -1    0    0  501    0  0.00000000000E+00  0.00000000000E+00 -0.13805258524E+04  0.13805258525E+04  0.50400001928E-02 0. -1.
    10030    2    1    2    0    0  0.00000000000E+00  0.00000000000E+00  0.53408317652E+02  0.28144600226E+04  0.28139532281E+04 0.  0.
        3    1    3    3  502    0  0.69663274988E+03  0.75625965711E+03 -0.93386316788E+03  0.13890019020E+04  0.10100000352E+00 0. -1.
       -3    1    3    3    0  502 -0.69663274988E+03 -0.75625965711E+03  0.98727148554E+03  0.14254581206E+04  0.10100000352E+00 0.  1.
</event>
<event>
 5   0  0.1001961E-05  0.1771924E+04  0.7818609E-02  0.8721374E-01
       -2   -1    0    0    0  501  0.00000000000E+00  0.00000000000E+00  0.74697870420E+03  0.74697870421E+03  0.25500000920E-02 0.  1.
        2   -1    0    0  501    0  0.00000000000E+00  0.00000000000E+00 -0.10508046443E+04  0.10508046443E+04  0.25500000920E-02 0. -1.
    10030    2    1    2    0    0  0.00000000000E+00  0.00000000000E+00 -0.30382594013E+03  0.17977833485E+04  0.17719240295E+04 0.  0.
        5    1    3    3  502    0 -0.19156803557E+03 -0.14198934687E+03  0.71379628011E+03  0.75258654411E+03  0.46999998093E+01 0.  1.
       -5    1    3    3    0  502  0.19156803557E+03  0.14198934687E+03 -0.10176222202E+04  0.10451968044E+04  0.46999998093E+01 0. -1.
</event>
<event>
 5   0  0.3838525E-06  0.2958510E+04  0.7818609E-02  0.8255679E-01
       -1   -1    0    0    0  501  0.00000000000E+00  0.00000000000E+00  0.17270319671E+04  0.17270319671E+04  0.50400001928E-02 0. -1.
        1   -1    0    0  501    0  0.00000000000E+00  0.00000000000E+00 -0.12670268057E+04  0.12670268057E+04  0.50400001928E-02 0.  1.
    10030    2    1    2    0    0  0.00000000000E+00  0.00000000000E+00  0.46000516140E+03  0.29940587728E+04  0.29585102985E+04 0.  0.
        3    1    3    3  502    0  0.47270870686E+03 -0.43809280196E+03  0.15774728292E+04  0.17040538025E+04  0.10100000352E+00 0. -1.
       -3    1    3    3    0  502 -0.47270870686E+03  0.43809280196E+03 -0.11174676678E+04  0.12900049703E+04  0.10100000352E+00 0.  1.
</event>
<event>
 5   0  0.3838525E-06  0.1833601E+04  0.7818609E-02  0.8688632E-01
        1   -1    0    0  501    0  0.00000000000E+00  0.00000000000E+00  0.11147216035E+04  0.11147216035E+04  0.50400001928E-02 0. -1.
       -1   -1    0    0    0  501  0.00000000000E+00  0.00000000000E+00 -0.75402082647E+03  0.75402082649E+03  0.50400001928E-02 0.  1.
    10030    2    1    2    0    0  0.00000000000E+00  0.00000000000E+00  0.36070077706E+03  0.18687424300E+04  0.18336011614E+04 0.  0.
        3    1    3    3  502    0 -0.20535217575E+02 -0.25790918806E+03  0.10767433479E+04  0.11073911196E+04  0.10100000352E+00 0. -1.
       -3    1    3    3    0  502  0.20535217575E+02  0.25790918806E+03 -0.71604257081E+03  0.76135131041E+03  0.10100000352E+00 0.  1.
</event>
<event>
 5   0  0.1108153E-05  0.1939423E+04  0.7818609E-02  0.8635478E-01
        2   -1    0    0  501    0  0.00000000000E+00  0.00000000000E+00  0.14031420123E+04  0.14031420123E+04  0.25500000920E-02 0. -1.
       -2   -1    0    0    0  501  0.00000000000E+00  0.00000000000E+00 -0.67016792584E+03  0.67016792585E+03  0.25500000920E-02 0.  1.
    10030    2    1    2    0    0  0.00000000000E+00  0.00000000000E+00  0.73297408646E+03  0.20733099382E+04  0.19394233907E+04 0.  0.
        4    1    3    3  502    0 -0.10080758328E+02 -0.79995814493E+03  0.95231827775E+03  0.12437629880E+04  0.12699999809E+01 0. -1.
       -4    1    3    3    0  502  0.10080758328E+02  0.79995814493E+03 -0.21934419129E+03  0.82954695014E+03  0.12699999809E+01 0.  1.
</event>
<event>
 5   0  0.1119100E-05  0.3017508E+04  0.7818609E-02  0.8238749E-01
       -2   -1    0    0    0  501  0.00000000000E+00  0.00000000000E+00  0.13487134731E+04  0.13487134731E+04  0.25500000920E-02 0.  1.
        2   -1    0    0  501    0  0.00000000000E+00  0.00000000000E+00 -0.16877854942E+04  0.16877854942E+04  0.25500000920E-02 0. -1.
    10030    2    1    2    0    0  0.00000000000E+00  0.00000000000E+00 -0.33907202113E+03  0.30364989672E+04  0.30175082672E+04 0.  0.
        2    1    3    3  502    0  0.10511601700E+04  0.24048062006E+02 -0.12583916282E+04  0.16398370353E+04  0.25500000920E-02 0. -1.
       -2    1    3    3    0  502 -0.10511601700E+04 -0.24048062006E+02  0.91931960708E+03  0.13966619320E+04  0.25500000920E-02 0.  1.
</event>
<event>
 5   0  0.3848286E-06  0.3152702E+04  0.7818609E-02  0.8201421E-01
       -1   -1    0    0    0  501  0.00000000000E+00  0.00000000000E+00  0.16023652080E+04  0.16023652080E+04  0.50400001928E-02 0. -1.
        1   -1    0    0  501    0  0.00000000000E+00  0.00000000000E+00 -0.15507595842E+04  0.15507595842E+04  0.50400001928E-02 0.  1.
    10030    2    1    2    0    0  0.00000000000E+00  0.00000000000E+00  0.51605623836E+02  0.31531247922E+04  0.31527024621E+04 0.  0.
        2    1    3    3  502    0  0.19161430825E+03  0.10188804549E+04 -0.11618114266E+04  0.15571253050E+04  0.25500000920E-02 0.  1.
       -2    1    3    3    0  502 -0.19161430825E+03 -0.10188804549E+04  0.12134170504E+04  0.15959994871E+04  0.25500000920E-02 0. -1.
</event>
<event>
 5   0  0.1119100E-05  0.1945243E+04  0.7818609E-02  0.8632658E-01
        2   -1    0    0  501    0  0.00000000000E+00  0.00000000000E+00  0.12425653402E+04  0.12425653402E+04  0.25500000920E-02 0.  1.
       -2   -1    0    0    0  501  0.00000000000E+00  0.00000000000E+00 -0.76132199825E+03  0.76132199825E+03  0.25500000920E-02 0. -1.
    10030    2    1    2    0    0  0.00000000000E+00  0.00000000000E+00  0.48124334199E+03  0.20038873385E+04  0.19452427384E+04 0.  0.
        2    1    3    3  502    0  0.72126622369E+03 -0.23338443593E+03 -0.38709176930E+03  0.85119521746E+03  0.25500000920E-02 0. -1.
       -2    1    3    3    0  502 -0.72126622369E+03  0.23338443593E+03  0.86833511129E+03  0.11526921210E+04  0.25500000920E-02 0.  1.
</event>
<event>
 5   0  0.3848286E-06  0.2085260E+04  0.7818609E-02  0.8567764E-01
        1   -1    0    0  501    0  0.00000000000E+00  0.00000000000E+00  0.20229453148E+04  0.20229453148E+04  0.50400001928E-02 0. -1.
       -1   -1    0    0    0  501  0.00000000000E+00  0.00000000000E+00 -0.53737359137E+03  0.53737359139E+03  0.50400001928E-02 0.  1.
    10030    2    1    2    0    0  0.00000000000E+00  0.00000000000E+00  0.14855717234E+04  0.25603189062E+04  0.20852600692E+04 0.  0.
        2    1    3    3  502    0  0.91411345132E+03  0.46270340278E+03  0.98016954268E+03  0.14178963902E+04  0.25500000920E-02 0. -1.
       -2    1    3    3    0  502 -0.91411345132E+03 -0.46270340278E+03  0.50540218074E+03  0.11424225160E+04  0.25500000920E-02 0.  1.
</event>
<event>
 5   0  0.3493125E-06  0.3106660E+04  0.7818609E-02  0.8213913E-01
        3   -1    0    0  501    0  0.00000000000E+00  0.00000000000E+00  0.12265064213E+04  0.12265064254E+04  0.10100000352E+00 0. -1.
       -3   -1    0    0    0  501  0.00000000000E+00  0.00000000000E+00 -0.19672407927E+04  0.19672407953E+04  0.10100000352E+00 0.  1.
    10030    2    1    2    0    0  0.00000000000E+00  0.00000000000E+00 -0.74073437146E+03  0.31937472208E+04  0.31066596050E+04 0.  0.
        3    1    3    3  502    0 -0.74747307181E+03 -0.10265446509E+04 -0.12900533814E+04  0.18101789001E+04  0.10100000352E+00 0.  1.
       -3    1    3    3    0  502  0.74747307181E+03  0.10265446509E+04  0.54931900989E+03  0.13835683207E+04  0.10100000352E+00 0. -1.
</event>
<event>
 5   0  0.4250961E-06  0.3129969E+04  0.7818609E-02  0.8207561E-01
       -1   -1    0    0    0  501  0.00000000000E+00  0.00000000000E+00  0.11182408677E+04  0.11182408677E+04  0.50400001928E-02 0. -1.
        1   -1    0    0  501    0  0.00000000000E+00  0.00000000000E+00 -0.21902042955E+04  0.21902042955E+04  0.50400001928E-02 0.  1.
    10030    2    1    2    0    0  0.00000000000E+00  0.00000000000E+00 -0.10719634278E+04  0.33084451632E+04  0.31299686592E+04 0.  0.
        1    1    3    3  502    0 -0.12892630863E+04  0.85430225592E+01 -0.14736403009E+04  0.19580316712E+04  0.50400001928E-02 0.  1.
       -1    1    3    3    0  502  0.12892630863E+04 -0.85430225592E+01  0.40167687312E+03  0.13504134920E+04  0.50400001928E-02 0. -1.
</event>
<event>
 5   0  0.1119100E-05  0.3094336E+04  0.7818609E-02  0.8217294E-01
       -2   -1    0    0    0  501  0.00000000000E+00  0.00000000000E+00  0.12439121135E+04  0.12439121135E+04  0.25500000920E-02 0. -1.
        2   -1    0    0  501    0  0.00000000000E+00  0.00000000000E+00 -0.19243556121E+04  0.19243556121E+04  0.25500000920E-02 0.  1.
    10030    2    1    2    0    0  0.00000000000E+00  0.00000000000E+00 -0.68044349868E+03  0.31682677256E+04  0.30943362820E+04 0.  0.
        2    1    3    3  502    0  0.61892378714E+03 -0.54947515353E+03 -0.16786414275E+04  0.18715839925E+04  0.25500000920E-02 0.  1.
       -2    1    3    3    0  502 -0.61892378714E+03  0.54947515353E+03  0.99819792885E+03  0.12966837331E+04  0.25500000920E-02 0. -1.
</event>
<event>
 5   0  0.1108153E-05  0.3161515E+04  0.7818609E-02  0.8199055E-01
       -2   -1    0    0    0  501  0.00000000000E+00  0.00000000000E+00  0.14485556616E+04  0.14485556616E+04  0.25500000920E-02 0.  1.
        2   -1    0    0  501    0  0.00000000000E+00  0.00000000000E+00 -0.17250249586E+04  0.17250249586E+04  0.25500000920E-02 0. -1.
    10030    2    1    2    0    0  0.00000000000E+00  0.00000000000E+00 -0.27646929701E+03  0.31735806202E+04  0.31615152507E+04 0.  0.
        4    1    3    3  502    0 -0.48586668076E+03 -0.14828088366E+04  0.11572211265E+03  0.15646666411E+04  0.12699999809E+01 0. -1.
       -4    1    3    3    0  502  0.48586668076E+03  0.14828088366E+04 -0.39219140966E+03  0.16089139791E+04  0.12699999809E+01 0.  1.
</event>
<event>
 5   0  0.9797278E-06  0.3075387E+04  0.7818609E-02  0.8222525E-01
        2   -1    0    0  501    0  0.00000000000E+00  0.00000000000E+00  0.26512861255E+04  0.26512861255E+04  0.25500000920E-02 0.  1.
       -2   -1    0    0    0  501  0.00000000000E+00  0.00000000000E+00 -0.89183199321E+03  0.89183199321E+03  0.25500000920E-02 0. -1.
    10030    2    1    2    0    0  0.00000000000E+00  0.00000000000E+00  0.17594541323E+04  0.35431181187E+04  0.30753873186E+04 0.  0.
        1    1    3    3  502    0 -0.12706740951E+04 -0.37631315791E+03  0.17782655915E+04  0.22177584997E+04  0.50400001928E-02 0.  1.
       -1    1    3    3    0  502  0.12706740951E+04  0.37631315791E+03 -0.18811459175E+02  0.13253596191E+04  0.50400001928E-02 0. -1.
</event>
<event>
 5   0  0.9797278E-06  0.3132544E+04  0.7818609E-02  0.8206863E-01
       -2   -1    0    0    0  501  0.00000000000E+00  0.00000000000E+00  0.84303480772E+03  0.84303480772E+03  0.25500000920E-02 0.  1.
        2   -1    0    0  501    0  0.00000000000E+00  0.00000000000E+00 -0.29099722605E+04  0.29099722605E+04  0.25500000920E-02 0. -1.
    10030    2    1    2    0    0  0.00000000000E+00  0.00000000000E+00 -0.20669374528E+04  0.37530070682E+04  0.31325439535E+04 0.  0.
        1    1    3    3  502    0 -0.10673396469E+04  0.10999523464E+04 -0.14200182212E+04  0.20893924559E+04  0.50400001928E-02 0.  1.
       -1    1    3    3    0  502  0.10673396469E+04 -0.10999523464E+04 -0.64691923158E+03  0.16636146123E+04  0.50400001928E-02 0. -1.
</event>
<event>
 5   0  0.3848286E-06  0.2002658E+04  0.7818609E-02  0.8605379E-01
        1   -1    0    0  501    0  0.00000000000E+00  0.00000000000E+00  0.88324003159E+03  0.88324003161E+03  0.50400001928E-02 0.  1.
       -1   -1    0    0    0  501  0.00000000000E+00  0.00000000000E+00 -0.11352061011E+04  0.11352061011E+04  0.50400001928E-02 0. -1.
    10030    2    1    2    0    0  0.00000000000E+00  0.00000000000E+00 -0.25196606950E+03  0.20184461327E+04  0.20026577068E+04 0.  0.
        2    1    3    3  502    0  0.57386801939E+03  0.78519589985E+03 -0.36619445841E+03  0.10392090676E+04  0.25500000920E-02 0. -1.
       -2    1    3    3    0  502 -0.57386801939E+03 -0.78519589985E+03  0.11422838891E+03  0.97923706510E+03  0.25500000920E-02 0.  1.
</event>
<event>
 5   0  0.3493125E-06  0.3382784E+04  0.7818609E-02  0.8142145E-01
        4   -1    0    0  501    0  0.00000000000E+00  0.00000000000E+00  0.12435637932E+04  0.12435644417E+04  0.12699999809E+01 0.  1.
       -4   -1    0    0    0  501  0.00000000000E+00  0.00000000000E+00 -0.23004898301E+04  0.23004901807E+04  0.12699999809E+01 0. -1.
    10030    2    1    2    0    0  0.00000000000E+00  0.00000000000E+00 -0.10569260369E+04  0.35440546223E+04  0.33827844328E+04 0.  0.
        4    1    3    3  502    0 -0.59322191958E+03  0.15284320330E+04 -0.96395934416E+03  0.19019032456E+04  0.12699999809E+01 0.  1.
       -4    1    3    3    0  502  0.59322191958E+03 -0.15284320330E+04 -0.92966692781E+02  0.16421513768E+04  0.12699999809E+01 0. -1.
</event>
<event>
 5   0  0.9797278E-06  0.2994098E+04  0.7818609E-02  0.8245418E-01
       -2   -1    0    0    0  501  0.00000000000E+00  0.00000000000E+00  0.10830206336E+04  0.10830206336E+04  0.25500000920E-02 0. -1.
        2   -1    0    0  501    0  0.00000000000E+00  0.00000000000E+00 -0.20693560747E+04  0.20693560747E+04  0.25500000920E-02 0.  1.
    10030    2    1    2    0    0  0.00000000000E+00  0.00000000000E+00 -0.98633544110E+03  0.31523767083E+04  0.29940977454E+04 0.  0.
        1    1    3    3  502    0 -0.17023979022E+03  0.11607808620E+04  0.48591709854E+03  0.12698461412E+04  0.50400001928E-02 0.  1.
       -1    1    3    3    0  502  0.17023979022E+03 -0.11607808620E+04 -0.14722525396E+04  0.18825305671E+04  0.50400001928E-02 0. -1.
</event>
<event>
 5   0  0.1001961E-05  0.2804556E+04  0.7818609E-02  0.8301855E-01
        2   -1    0    0  501    0  0.00000000000E+00  0.00000000000E+00  0.16408813615E+04  0.16408813615E+04  0.25500000920E-02 0.  1.
       -2   -1    0    0    0  501  0.00000000000E+00  0.00000000000E+00 -0.11983706837E+04  0.11983706837E+04  0.25500000920E-02 0. -1.
    10030    2    1    2    0    0  0.00000000000E+00  0.00000000000E+00  0.44251067780E+03  0.28392520451E+04  0.28045563777E+04 0.  0.
        5    1    3    3  502    0 -0.32869048983E+03 -0.99064258867E+03  0.11692974910E+04  0.15673828151E+04  0.46999998093E+01 0.  1.
       -5    1    3    3    0  502  0.32869048983E+03  0.99064258867E+03 -0.72678681317E+03  0.12718692301E+04  0.46999998093E+01 0. -1.
</event>
<event>
 5   0  0.9797278E-06  0.2978342E+04  0.7818609E-02  0.8249943E-01
        2   -1    0    0  501    0  0.00000000000E+00  0.00000000000E+00  0.11646350758E+04  0.11646350758E+04  0.25500000920E-02 0.  1.
       -2   -1    0    0    0  501  0.00000000000E+00  0.00000000000E+00 -0.19041420528E+04  0.19041420528E+04  0.25500000920E-02 0. -1.
    10030    2    1    2    0    0  0.00000000000E+00  0.00000000000E+00 -0.73950697698E+03  0.30687771287E+04  0.29783422396E+04 0.  0.
        1    1    3    3  502    0 -0.87570075787E+03  0.96141717583E+03 -0.11173576563E+04  0.17145445271E+04  0.50400001928E-02 0. -1.
       -1    1    3    3    0  502  0.87570075787E+03 -0.96141717583E+03  0.37785067929E+03  0.13542326016E+04  0.50400001928E-02 0.  1.
</event>
<event>
 5   0  0.4250961E-06  0.3067705E+04  0.7818609E-02  0.8224657E-01
       -1   -1    0    0    0  501  0.00000000000E+00  0.00000000000E+00  0.10197960873E+04  0.10197960873E+04  0.50400001928E-02 0.  1.
        1   -1    0    0  501    0  0.00000000000E+00  0.00000000000E+00 -0.23070337399E+04  0.23070337399E+04  0.50400001928E-02 0. -1.
    10030    2    1    2    0    0  0.00000000000E+00  0.00000000000E+00 -0.12872376526E+04  0.33268298272E+04  0.30677053191E+04 0.  0.
        1    1    3    3  502    0 -0.13443978010E+04 -0.22393597280E+03  0.11948893613E+03  0.13681485201E+04  0.50400001928E-02 0.  1.
       -1    1    3    3    0  502  0.13443978010E+04  0.22393597280E+03 -0.14067265887E+04  0.19586813071E+04  0.50400001928E-02 0. -1.
</event>
<event>
 5   0  0.1007567E-05  0.2756309E+04  0.7818609E-02  0.8316963E-01
        2   -1    0    0  501    0  0.00000000000E+00  0.00000000000E+00  0.12183691623E+04  0.12183691623E+04  0.25500000920E-02 0. -1.
       -2   -1    0    0    0  501  0.00000000000E+00  0.00000000000E+00 -0.15588949088E+04  0.15588949088E+04  0.25500000920E-02 0.  1.
    10030    2    1    2    0    0  0.00000000000E+00  0.00000000000E+00 -0.34052574655E+03  0.27772640711E+04  0.27563087521E+04 0.  0.
        3    1    3    3  502    0 -0.11711882544E+04 -0.50252394378E+03  0.35822183140E+03  0.13238334986E+04  0.10100000352E+00 0. -1.
       -3    1    3    3    0  502  0.11711882544E+04  0.50252394378E+03 -0.69874757795E+03  0.14534305725E+04  0.10100000352E+00 0.  1.
</event>
<event>
 5   0  0.9797278E-06  0.3116477E+04  0.7818609E-02  0.8211231E-01
        2   -1    0    0  501    0  0.00000000000E+00  0.00000000000E+00  0.15690127525E+04  0.15690127525E+04  0.25500000920E-02 0.  1.
       -2   -1    0    0    0  501  0.00000000000E+00  0.00000000000E+00 -0.15475379945E+04  0.15475379945E+04  0.25500000920E-02 0. -1.
    10030    2    1    2    0    0  0.00000000000E+00  0.00000000000E+00  0.21474757973E+02  0.31165507470E+04  0.31164767596E+04 0.  0.
        1    1    3    3  502    0 -0.85298333160E+02  0.13720121184E+04  0.74452164877E+03  0.15633315529E+04  0.50400001928E-02 0.  1.
       -1    1    3    3    0  502  0.85298333160E+02 -0.13720121184E+04 -0.72304689080E+03  0.15532191941E+04  0.50400001928E-02 0. -1.
</event>
<event>
 5   0  0.3807334E-06  0.1979240E+04  0.7818609E-02  0.8616388E-01
        1   -1    0    0  501    0  0.00000000000E+00  0.00000000000E+00  0.92123190165E+03  0.92123190167E+03  0.50400001928E-02 0.  1.
       -1   -1    0    0    0  501  0.00000000000E+00  0.00000000000E+00 -0.10630854430E+04  0.10630854430E+04  0.50400001928E-02 0. -1.
    10030    2    1    2    0    0  0.00000000000E+00  0.00000000000E+00 -0.14185354132E+03  0.19843173447E+04  0.19792404849E+04 0.  0.
        4    1    3    3  502    0  0.10619099615E+03 -0.15440426012E+03 -0.10451339460E+04  0.10618021385E+04  0.12699999809E+01 0. -1.
       -4    1    3    3    0  502 -0.10619099615E+03  0.15440426012E+03  0.90328040471E+03  0.92251520619E+03  0.12699999809E+01 0.  1.
</event>
<event>
 5   0  0.1007567E-05  0.3014236E+04  0.7818609E-02  0.8239677E-01
       -2   -1    0    0    0  501  0.00000000000E+00  0.00000000000E+00  0.19782725725E+04  0.19782725725E+04  0.25500000920E-02 0. -1.
        2   -1    0    0  501    0  0.00000000000E+00  0.00000000000E+00 -0.11481756223E+04  0.11481756223E+04  0.25500000920E-02 0.  1.
    10030    2    1    2    0    0  0.00000000000E+00  0.00000000000E+00  0.83009695027E+03  0.31264481948E+04  0.30142357850E+04 0.  0.
        3    1    3    3  502    0 -0.56828907083E+03  0.13214630535E+04  0.88144028027E+03  0.16870548443E+04  0.10100000352E+00 0. -1.
       -3    1    3    3    0  502  0.56828907083E+03 -0.13214630535E+04 -0.51343330000E+02  0.14393933505E+04  0.10100000352E+00 0.  1.
</event>
<event>
 5   0  0.9797278E-06  0.1637176E+04  0.7818609E-02  0.8798029E-01
        2   -1    0    0  501    0  0.00000000000E+00  0.00000000000E+00  0.14006934332E+04  0.14006934332E+04  0.25500000920E-02 0.  1.
       -2   -1    0    0    0  501  0.00000000000E+00  0.00000000000E+00 -0.47839605574E+03  0.47839605575E+03  0.25500000920E-02 0. -1.
    10030    2    1    2    0    0  0.00000000000E+00  0.00000000000E+00  0.92229737743E+03  0.18790894889E+04  0.16371758778E+04 0.  0.
        1    1    3    3  502    0  0.46836863942E+03  0.29428022969E+03  0.11537321455E+04  0.12794795425E+04  0.50400001928E-02 0.  1.
       -1    1    3    3    0  502 -0.46836863942E+03 -0.29428022969E+03 -0.23143476809E+03  0.59960994645E+03  0.50400001928E-02 0. -1.
</event>
<event>
 5   0  0.3848286E-06  0.2905796E+04  0.7818609E-02  0.8271155E-01
       -1   -1    0    0    0  501  0.00000000000E+00  0.00000000000E+00  0.16333067012E+04  0.16333067012E+04  0.50400001928E-02 0.  1.
        1   -1    0    0  501    0  0.00000000000E+00  0.00000000000E+00 -0.12924168371E+04  0.12924168371E+04  0.50400001928E-02 0. -1.
    10030    2    1    2    0    0  0.00000000000E+00  0.00000000000E+00  0.34088986412E+03  0.29257235383E+04  0.29057963320E+04 0.  0.
        2    1    3    3  502    0 -0.13206263293E+04 -0.30925176932E+01 -0.43938979084E+03  0.13918070461E+04  0.25500000920E-02 0. -1.
       -2    1    3    3    0  502  0.13206263293E+04  0.30925176932E+01  0.78027965496E+03  0.15339164922E+04  0.25500000920E-02 0.  1.
</event>
<event>
 5   0  0.1001961E-05  0.2946860E+04  0.7818609E-02  0.8259070E-01
        2   -1    0    0  501    0  0.00000000000E+00  0.00000000000E+00  0.21404932804E+04  0.21404932804E+04  0.25500000920E-02 0. -1.
       -2   -1    0    0    0  501  0.00000000000E+00  0.00000000000E+00 -0.10142502133E+04  0.10142502133E+04  0.25500000920E-02 0.  1.
    10030    2    1    2    0    0  0.00000000000E+00  0.00000000000E+00  0.11262430671E+04  0.31547434937E+04  0.29468598652E+04 0.  0.
        5    1    3    3  502    0  0.92789963398E+03  0.11436501761E+04  0.51476634251E+03  0.15601089492E+04  0.46999998093E+01 0.  1.
       -5    1    3    3    0  502 -0.92789963398E+03 -0.11436501761E+04  0.61147672460E+03  0.15946345445E+04  0.46999998093E+01 0. -1.
</event>
<event>
 5   0  0.4250961E-06  0.3235256E+04  0.7818609E-02  0.8179568E-01
        1   -1    0    0  501    0  0.00000000000E+00  0.00000000000E+00  0.20120346423E+04  0.20120346423E+04  0.50400001928E-02 0.  1.
       -1   -1    0    0    0  501  0.00000000000E+00  0.00000000000E+00 -0.13005341798E+04  0.13005341798E+04  0.50400001928E-02 0. -1.
    10030    2    1    2    0    0  0.00000000000E+00  0.00000000000E+00  0.71150046257E+03  0.33125688221E+04  0.32352556766E+04 0.  0.
        1    1    3    3  502    0 -0.15032907144E+04 -0.32343704270E+03 -0.15847176741E+03  0.15458356296E+04  0.50400001928E-02 0.  1.
       -1    1    3    3    0  502  0.15032907144E+04  0.32343704270E+03  0.86997222998E+03  0.17667331925E+04  0.50400001928E-02 0. -1.
</event>
<event>
 5   0  0.9797278E-06  0.3053730E+04  0.7818609E-02  0.8228552E-01
        2   -1    0    0  501    0  0.00000000000E+00  0.00000000000E+00  0.26866501183E+04  0.26866501183E+04  0.25500000920E-02 0. -1.
       -2   -1    0    0    0  501  0.00000000000E+00  0.00000000000E+00 -0.86774123303E+03  0.86774123303E+03  0.25500000920E-02 0.  1.
    10030    2    1    2    0    0  0.00000000000E+00  0.00000000000E+00  0.18189088853E+04  0.35543913514E+04  0.30537302346E+04 0.  0.
        1    1    3    3  502    0 -0.10416533521E+04 -0.12554409481E+03  0.22006079068E+04  0.24379249753E+04  0.50400001928E-02 0. -1.
       -1    1    3    3    0  502  0.10416533521E+04  0.12554409481E+03 -0.38169902155E+03  0.11164663760E+04  0.50400001928E-02 0.  1.
</event>
<event>
 5   0  0.1119100E-05  0.3030158E+04  0.7818609E-02  0.8235171E-01
       -2   -1    0    0    0  501  0.00000000000E+00  0.00000000000E+00  0.19495558159E+04  0.19495558159E+04  0.25500000920E-02 0.  1.
        2   -1    0    0  501    0  0.00000000000E+00  0.00000000000E+00 -0.11774292375E+04  0.11774292375E+04  0.25500000920E-02 0. -1.
    10030    2    1    2    0    0  0.00000000000E+00  0.00000000000E+00  0.77212657844E+03  0.31269850534E+04  0.30301577633E+04 0.  0.
        2    1    3    3  502    0 -0.61685460953E+02 -0.15136516933E+04  0.40953822604E+03  0.15692890439E+04  0.25500000920E-02 0.  1.
       -2    1    3    3    0  502  0.61685460953E+02  0.15136516933E+04  0.36258835241E+03  0.15576960095E+04  0.25500000920E-02 0. -1.
</event>
<event>
 5   0  0.4139628E-06  0.2396372E+04  0.7818609E-02  0.8440863E-01
        1   -1    0    0  501    0  0.00000000000E+00  0.00000000000E+00  0.12236134906E+04  0.12236134906E+04  0.50400001928E-02 0. -1.
       -1   -1    0    0    0  501  0.00000000000E+00  0.00000000000E+00 -0.11732869469E+04  0.11732869469E+04  0.50400001928E-02 0.  1.
    10030    2    1    2    0    0  0.00000000000E+00  0.00000000000E+00  0.50326543633E+02  0.23969004375E+04  0.23963720384E+04 0.  0.
        5    1    3    3  502    0 -0.88201317583E+03  0.62719481919E+03  0.53938465907E+03  0.12092470732E+04  0.46999998093E+01 0.  1.
       -5    1    3    3    0  502  0.88201317583E+03 -0.62719481919E+03 -0.48905811544E+03  0.11876533643E+04  0.46999998093E+01 0. -1.
</event>
<event>
 5   0  0.3838525E-06  0.1807420E+04  0.7818609E-02  0.8702363E-01
        1   -1    0    0  501    0  0.00000000000E+00  0.00000000000E+00  0.19005762059E+04  0.19005762059E+04  0.50400001928E-02 0. -1.
       -1   -1    0    0    0  501  0.00000000000E+00  0.00000000000E+00 -0.42970753706E+03  0.42970753709E+03  0.50400001928E-02 0.  1.
    10030    2    1    2    0    0  0.00000000000E+00  0.00000000000E+00  0.14708686688E+04  0.23302837430E+04  0.18074201730E+04 0.  0.
        3    1    3    3  502    0  0.84946269120E+03  0.28735306267E+03  0.59109597254E+03  0.10740358957E+04  0.10100000352E+00 0. -1.
       -3    1    3    3    0  502 -0.84946269120E+03 -0.28735306267E+03  0.87977269626E+03  0.12562478472E+04  0.10100000352E+00 0.  1.
</event>
<event>
 5   0  0.1007567E-05  0.3270888E+04  0.7818609E-02  0.8170343E-01
       -2   -1    0    0    0  501  0.00000000000E+00  0.00000000000E+00  0.10108854547E+04  0.10108854547E+04  0.25500000920E-02 0. -1.
        2   -1    0    0  501    0  0.00000000000E+00  0.00000000000E+00 -0.26458747891E+04  0.26458747891E+04  0.25500000920E-02 0.  1.
    10030    2    1    2    0    0  0.00000000000E+00  0.00000000000E+00 -0.16349893344E+04  0.36567602438E+04  0.32708875488E+04 0.  0.
        3    1    3    3  502    0 -0.85858651665E+03 -0.10068821649E+04 -0.18919661513E+04  0.23087915516E+04  0.10100000352E+00 0.  1.
       -3    1    3    3    0  502  0.85858651665E+03  0.10068821649E+04  0.25697681690E+03  0.13479686922E+04  0.10100000352E+00 0. -1.
</event>
<event>
 5   0  0.1001961E-05  0.2943597E+04  0.7818609E-02  0.8260023E-01
        2   -1    0    0  501    0  0.00000000000E+00  0.00000000000E+00  0.11125378539E+04  0.11125378539E+04  0.25500000920E-02 0. -1.
       -2   -1    0    0    0  501  0.00000000000E+00  0.00000000000E+00 -0.19470709746E+04  0.19470709746E+04  0.25500000920E-02 0.  1.
    10030    2    1    2    0    0  0.00000000000E+00  0.00000000000E+00 -0.83453312072E+03  0.30596088285E+04  0.29435965508E+04 0.  0.
        5    1    3    3  502    0 -0.38735669776E+02  0.39197768382E+03  0.10567281857E+04  0.11277603935E+04  0.46999998093E+01 0. -1.
       -5    1    3    3    0  502  0.38735669776E+02 -0.39197768382E+03 -0.18912613064E+04  0.19318484350E+04  0.46999998093E+01 0.  1.
</event>
<event>
 5   0  0.4139628E-06  0.2960942E+04  0.7818609E-02  0.8254973E-01
       -1   -1    0    0    0  501  0.00000000000E+00  0.00000000000E+00  0.16171535352E+04  0.16171535352E+04  0.50400001928E-02 0.  1.
        1   -1    0    0  501    0  0.00000000000E+00  0.00000000000E+00 -0.13553412864E+04  0.13553412864E+04  0.50400001928E-02 0. -1.
    10030    2    1    2    0    0  0.00000000000E+00  0.00000000000E+00  0.26181224878E+03  0.29724948217E+04  0.29609423857E+04 0.  0.
        5    1    3    3  502    0 -0.45140224927E+03  0.33430269434E+03  0.15060133675E+04  0.16073644998E+04  0.46999998093E+01 0.  1.
       -5    1    3    3    0  502  0.45140224927E+03 -0.33430269434E+03 -0.12442011187E+04  0.13651303219E+04  0.46999998093E+01 0. -1.
</event>
<event>
 5   0  0.9797278E-06  0.3118971E+04  0.7818609E-02  0.8210551E-01
        2   -1    0    0  501    0  0.00000000000E+00  0.00000000000E+00  0.14601443622E+04  0.14601443622E+04  0.25500000920E-02 0. -1.
       -2   -1    0    0    0  501  0.00000000000E+00  0.00000000000E+00 -0.16655857793E+04  0.16655857793E+04  0.25500000920E-02 0.  1.
    10030    2    1    2    0    0  0.00000000000E+00  0.00000000000E+00 -0.20544141711E+03  0.31257301415E+04  0.31189714237E+04 0.  0.
        1    1    3    3  502    0  0.45815679300E+03  0.12352267720E+04  0.73353515225E+03  0.15079014043E+04  0.50400001928E-02 0. -1.
       -1    1    3    3    0  502 -0.45815679300E+03 -0.12352267720E+04 -0.93897656937E+03  0.16178287373E+04  0.50400001928E-02 0.  1.
</event>
<event>
 5   0  0.4250961E-06  0.1707705E+04  0.7818609E-02  0.8756982E-01
       -1   -1    0    0    0  501  0.00000000000E+00  0.00000000000E+00  0.66724614336E+03  0.66724614337E+03  0.50400001928E-02 0.  1.
        1   -1    0    0  501    0  0.00000000000E+00  0.00000000000E+00 -0.10926461083E+04  0.10926461084E+04  0.50400001928E-02 0. -1.
    10030    2    1    2    0    0  0.00000000000E+00  0.00000000000E+00 -0.42539996499E+03  0.17598922517E+04  0.17077047776E+04 0.  0.
        1    1    3    3  502    0  0.33520972165E+03  0.22762017907E+03  0.56185852610E+03  0.69272036695E+03  0.50400001928E-02 0.  1.
       -1    1    3    3    0  502 -0.33520972165E+03 -0.22762017907E+03 -0.98725849110E+03  0.10671718848E+04  0.50400001928E-02 0. -1.
</event>
<event>
 5   0  0.1007567E-05  0.2543140E+04  0.7818609E-02  0.8387776E-01
       -2   -1    0    0    0  501  0.00000000000E+00  0.00000000000E+00  0.11004104148E+04  0.11004104148E+04  0.25500000920E-02 0.  1.
        2   -1    0    0  501    0  0.00000000000E+00  0.00000000000E+00 -0.14693525438E+04  0.14693525438E+04  0.25500000920E-02 0. -1.
    10030    2    1    2    0    0  0.00000000000E+00  0.00000000000E+00 -0.36894212898E+03  0.25697629586E+04  0.25431404540E+04 0.  0.
        3    1    3    3  502    0  0.11087390474E+04  0.77873509843E+02  0.43967150612E+03  0.11952730242E+04  0.10100000352E+00 0.  1.
       -3    1    3    3    0  502 -0.11087390474E+04 -0.77873509843E+02 -0.80861363510E+03  0.13744899344E+04  0.10100000352E+00 0. -1.
</event>
<event>
 5   0  0.1108153E-05  0.3372471E+04  0.7818609E-02  0.8144696E-01
       -2   -1    0    0    0  501  0.00000000000E+00  0.00000000000E+00  0.13667844939E+04  0.13667844939E+04  0.25500000920E-02 0. -1.
        2   -1    0    0  501    0  0.00000000000E+00  0.00000000000E+00 -0.20803497178E+04  0.20803497178E+04  0.25500000920E-02 0.  1.
    10030    2    1    2    0    0  0.00000000000E+00  0.00000000000E+00 -0.71356522392E+03  0.34471342118E+04  0.33724707479E+04 0.  0.
        4    1    3    3  502    0  0.69884064680E+02 -0.22774477279E+03  0.13494968935E+04  0.13703630696E+04  0.12699999809E+01 0. -1.
       -4    1    3    3    0  502 -0.69884064680E+02  0.22774477279E+03 -0.20630621174E+04  0.20767711422E+04  0.12699999809E+01 0.  1.
</event>
<event>
 5   0  0.1119100E-05  0.2992414E+04  0.7818609E-02  0.8245900E-01
        2   -1    0    0  501    0  0.00000000000E+00  0.00000000000E+00  0.29245861593E+04  0.29245861593E+04  0.25500000920E-02 0.  1.
       -2   -1    0    0    0  501  0.00000000000E+00  0.00000000000E+00 -0.76545374416E+03  0.76545374417E+03  0.25500000920E-02 0. -1.
    10030    2    1    2    0    0  0.00000000000E+00  0.00000000000E+00  0.21591324152E+04  0.36900399035E+04  0.29924140260E+04 0.  0.
        2    1    3    3  502    0  0.12738346073E+04 -0.30473752379E+03  0.18768230645E+03  0.13231569118E+04  0.25500000920E-02 0. -1.
       -2    1    3    3    0  502 -0.12738346073E+04  0.30473752379E+03  0.19714501087E+04  0.23668829917E+04  0.25500000920E-02 0.  1.
</event>
<event>
 5   0  0.1108153E-05  0.3055075E+04  0.7818609E-02  0.8228176E-01
        2   -1    0    0  501    0  0.00000000000E+00  0.00000000000E+00  0.22483417422E+04  0.22483417422E+04  0.25500000920E-02 0. -1.
       -2   -1    0    0    0  501  0.00000000000E+00  0.00000000000E+00 -0.10378187877E+04  0.10378187877E+04  0.25500000920E-02 0.  1.
    10030    2    1    2    0    0  0.00000000000E+00  0.00000000000E+00  0.12105229545E+04  0.32861605299E+04  0.30550753190E+04 0.  0.
        4    1    3    3  502    0 -0.97908551668E+03 -0.10799841453E+04  0.11422810830E+03  0.14621983028E+04  0.12699999809E+01 0. -1.
       -4    1    3    3    0  502  0.97908551668E+03  0.10799841453E+04  0.10962948462E+04  0.18239622271E+04  0.12699999809E+01 0.  1.
</event>
<event>
 5   0  0.9797278E-06  0.2881742E+04  0.7818609E-02  0.8278331E-01
       -2   -1    0    0    0  501  0.00000000000E+00  0.00000000000E+00  0.77814785352E+03  0.77814785353E+03  0.25500000920E-02 0. -1.
        2   -1    0    0  501    0  0.00000000000E+00  0.00000000000E+00 -0.26680132436E+04  0.26680132436E+04  0.25500000920E-02 0.  1.
    10030    2    1    2    0    0  0.00000000000E+00  0.00000000000E+00 -0.18898653901E+04  0.34461610971E+04  0.28817416808E+04 0.  0.
        1    1    3    3  502    0  0.47611795912E+03 -0.12435010455E+04 -0.16033357657E+04  0.20841470051E+04  0.50400001928E-02 0.  1.
       -1    1    3    3    0  502 -0.47611795912E+03  0.12435010455E+04 -0.28652962439E+03  0.13620140920E+04  0.50400001928E-02 0. -1.
</event>
<event>
 5   0  0.4139628E-06  0.3193698E+04  0.7818609E-02  0.8190484E-01
       -1   -1    0    0    0  501  0.00000000000E+00  0.00000000000E+00  0.19709817348E+04  0.19709817348E+04  0.50400001928E-02 0.  1.
        1   -1    0    0  501    0  0.00000000000E+00  0.00000000000E+00 -0.12937343027E+04  0.12937343027E+04  0.50400001928E-02 0. -1.
    10030    2    1    2    0    0  0.00000000000E+00  0.00000000000E+00  0.67724743210E+03  0.32647160375E+04  0.31936979696E+04 0.  0.
        5    1    3    3  502    0 -0.35324326121E+03  0.19100674073E+03  0.19185140435E+04  0.19600976001E+04  0.46999998093E+01 0.  1.
       -5    1    3    3    0  502  0.35324326121E+03 -0.19100674073E+03 -0.12412666114E+04  0.13046184374E+04  0.46999998093E+01 0. -1.
</event>
<event>
 5   0  0.4250961E-06  0.1795665E+04  0.7818609E-02  0.8708608E-01
        1   -1    0    0  501    0  0.00000000000E+00  0.00000000000E+00  0.10339049109E+04  0.10339049109E+04  0.50400001928E-02 0.  1.
       -1   -1    0    0    0  501  0.00000000000E+00  0.00000000000E+00 -0.77966825989E+03  0.77966825991E+03  0.50400001928E-02 0. -1.
    10030    2    1    2    0    0  0.00000000000E+00  0.00000000000E+00  0.25423665103E+03  0.18135731708E+04  0.17956646043E+04 0.  0.
        1    1    3    3  502    0  0.45732994807E+03  0.50317790244E+03 -0.46504316162E+03  0.82377413476E+03  0.50400001928E-02 0. -1.
       -1    1    3    3    0  502 -0.45732994807E+03 -0.50317790244E+03  0.71927981266E+03  0.98979903608E+03  0.50400001928E-02 0.  1.
</event>
<event>
 5   0  0.9797278E-06  0.3165105E+04  0.7818609E-02  0.8198094E-01
        2   -1    0    0  501    0  0.00000000000E+00  0.00000000000E+00  0.26178389583E+04  0.26178389583E+04  0.25500000920E-02 0. -1.
       -2   -1    0    0    0  501  0.00000000000E+00  0.00000000000E+00 -0.95669433644E+03  0.95669433644E+03  0.25500000920E-02 0.  1.
    10030    2    1    2    0    0  0.00000000000E+00  0.00000000000E+00  0.16611446219E+04  0.35745332948E+04  0.31651045513E+04 0.  0.
        1    1    3    3  502    0  0.15316675203E+04  0.36333625712E+03  0.10142554878E+04  0.18726272515E+04  0.50400001928E-02 0. -1.
       -1    1    3    3    0  502 -0.15316675203E+04 -0.36333625712E+03  0.64688913411E+03  0.17019060433E+04  0.50400001928E-02 0.  1.
</event>
<event>
 5   0  0.3848286E-06  0.2466530E+04  0.7818609E-02  0.8415007E-01
        1   -1    0    0  501    0  0.00000000000E+00  0.00000000000E+00  0.10501912452E+04  0.10501912452E+04  0.50400001928E-02 0.  1.
       -1   -1    0    0    0  501  0.00000000000E+00  0.00000000000E+00 -0.14482532643E+04  0.14482532643E+04  0.50400001928E-02 0. -1.
    10030    2    1    2    0    0  0.00000000000E+00  0.00000000000E+00 -0.39806201905E+03  0.24984445095E+04  0.24665302747E+04 0.  0.
        2    1    3    3  502    0 -0.40444449568E+03 -0.11649620496E+04 -0.21442541493E+03  0.12516749520E+04  0.25500000920E-02 0. -1.
       -2    1    3    3    0  502  0.40444449568E+03  0.11649620496E+04 -0.18363660412E+03  0.12467695575E+04  0.25500000920E-02 0.  1.
</event>
<event>
 5   0  0.3838525E-06  0.3021766E+04  0.7818609E-02  0.8237543E-01
        1   -1    0    0  501    0  0.00000000000E+00  0.00000000000E+00  0.25466653313E+04  0.25466653313E+04  0.50400001928E-02 0.  1.
       -1   -1    0    0    0  501  0.00000000000E+00  0.00000000000E+00 -0.89637538074E+03  0.89637538075E+03  0.50400001928E-02 0. -1.
    10030    2    1    2    0    0  0.00000000000E+00  0.00000000000E+00  0.16502899506E+04  0.34430407121E+04  0.30217664410E+04 0.  0.
        3    1    3    3  502    0 -0.10180137356E+02  0.13328186031E+04  0.14431005732E+02  0.13329356053E+04  0.10100000352E+00 0. -1.
       -3    1    3    3    0  502  0.10180137356E+02 -0.13328186031E+04  0.16358589448E+04  0.21101051067E+04  0.10100000352E+00 0.  1.
</event>
<event>
 5   0  0.3807334E-06  0.3086305E+04  0.7818609E-02  0.8219506E-01
        1   -1    0    0  501    0  0.00000000000E+00  0.00000000000E+00  0.11389916241E+04  0.11389916241E+04  0.50400001928E-02 0.  1.
       -1   -1    0    0    0  501  0.00000000000E+00  0.00000000000E+00 -0.20907268332E+04  0.20907268332E+04  0.50400001928E-02 0. -1.
    10030    2    1    2    0    0  0.00000000000E+00  0.00000000000E+00 -0.95173520903E+03  0.32297184573E+04  0.30863054621E+04 0.  0.
        4    1    3    3  502    0 -0.10895177095E+04  0.10745500787E+04 -0.26759157286E+03  0.15534843332E+04  0.12699999809E+01 0.  1.
       -4    1    3    3    0  502  0.10895177095E+04 -0.10745500787E+04 -0.68414363616E+03  0.16762341241E+04  0.12699999809E+01 0. -1.
</event>
<event>
 5   0  0.9797278E-06  0.2038341E+04  0.7818609E-02  0.8588902E-01
        2   -1    0    0  501    0  0.00000000000E+00  0.00000000000E+00  0.17324448267E+04  0.17324448267E+04  0.25500000920E-02 0.  1.
       -2   -1    0    0    0  501  0.00000000000E+00  0.00000000000E+00 -0.59956228653E+03  0.59956228654E+03  0.25500000920E-02 0. -1.
    10030    2    1    2    0    0  0.00000000000E+00  0.00000000000E+00  0.11328825402E+04  0.23320071132E+04  0.20383410721E+04 0.  0.
        1    1    3    3  502    0 -0.27440584064E+03  0.11631942598E+03 -0.54859076015E+03  0.62432411165E+03  0.50400001928E-02 0. -1.
       -1    1    3    3    0  502  0.27440584064E+03 -0.11631942598E+03  0.16814733003E+04  0.17076830016E+04  0.50400001928E-02 0.  1.
</event>
<event>
 5   0  0.3848286E-06  0.3000085E+04  0.7818609E-02  0.8243707E-01
       -1   -1    0    0    0  501  0.00000000000E+00  0.00000000000E+00  0.11213857633E+04  0.11213857633E+04  0.50400001928E-02 0. -1.
        1   -1    0    0  501    0  0.00000000000E+00  0.00000000000E+00 -0.20065594049E+04  0.20065594049E+04  0.50400001928E-02 0.  1.
    10030    2    1    2    0    0  0.00000000000E+00  0.00000000000E+00 -0.88517364155E+03  0.31279451682E+04  0.30000847654E+04 0.  0.
        2    1    3    3  502    0  0.72073079695E+03 -0.68614543158E+03  0.72769369713E+03  0.12327962329E+04  0.25500000920E-02 0. -1.
       -2    1    3    3    0  502 -0.72073079695E+03  0.68614543158E+03 -0.16128673387E+04  0.18951489353E+04  0.25500000920E-02 0.  1.
</event>
<event>
 5   0  0.3838525E-06  0.2140679E+04  0.7818609E-02  0.8543533E-01
       -1   -1    0    0    0  501  0.00000000000E+00  0.00000000000E+00  0.62903270767E+03  0.62903270769E+03  0.50400001928E-02 0. -1.
        1   -1    0    0  501    0  0.00000000000E+00  0.00000000000E+00 -0.18212510320E+04  0.18212510320E+04  0.50400001928E-02 0.  1.
    10030    2    1    2    0    0  0.00000000000E+00  0.00000000000E+00 -0.11922183243E+04  0.24502837397E+04  0.21406788344E+04 0.  0.
        3    1    3    3  502    0  0.54850888636E+03  0.20400715193E+03 -0.16219074959E+04  0.17242577684E+04  0.10100000352E+00 0.  1.
       -3    1    3    3    0  502 -0.54850888636E+03 -0.20400715193E+03  0.42968917165E+03  0.72602597122E+03  0.10100000352E+00 0. -1.
</event>
<event>
 5   0  0.4139628E-06  0.3079005E+04  0.7818609E-02  0.8221523E-01
        1   -1    0    0  501    0  0.00000000000E+00  0.00000000000E+00  0.16354738611E+04  0.16354738611E+04  0.50400001928E-02 0. -1.
       -1   -1    0    0    0  501  0.00000000000E+00  0.00000000000E+00 -0.14491632272E+04  0.14491632272E+04  0.50400001928E-02 0.  1.
    10030    2    1    2    0    0  0.00000000000E+00  0.00000000000E+00  0.18631063391E+03  0.30846370883E+04  0.30790054099E+04 0.  0.
        5    1    3    3  502    0  0.13244926387E+04 -0.78076829559E+03  0.14483936694E+02  0.15375668297E+04  0.46999998093E+01 0.  1.
       -5    1    3    3    0  502 -0.13244926387E+04  0.78076829559E+03  0.17182669722E+03  0.15470702586E+04  0.46999998093E+01 0. -1.
</event>
<event>
 5   0  0.9797278E-06  0.2691243E+04  0.7818609E-02  0.8337852E-01
        2   -1    0    0  501    0  0.00000000000E+00  0.00000000000E+00  0.14451629274E+04  0.14451629274E+04  0.25500000920E-02 0. -1.
       -2   -1    0    0    0  501  0.00000000000E+00  0.00000000000E+00 -0.12529368026E+04  0.12529368026E+04  0.25500000920E-02 0.  1.
    10030    2    1    2    0    0  0.00000000000E+00  0.00000000000E+00  0.19222612477E+03  0.26980997300E+04  0.26912434431E+04 0.  0.
        1    1    3    3  502    0 -0.35179654323E+03 -0.12973341558E+04  0.15840909814E+03  0.13534881463E+04  0.50400001928E-02 0.  1.
       -1    1    3    3    0  502  0.35179654323E+03  0.12973341558E+04  0.33817026627E+02  0.13446115837E+04  0.50400001928E-02 0. -1.
</event>
<event>
 5   0  0.4139628E-06  0.2711429E+04  0.7818609E-02  0.8331306E-01
       -1   -1    0    0    0  501  0.00000000000E+00  0.00000000000E+00  0.10902628475E+04  0.10902628475E+04  0.50400001928E-02 0.  1.
        1   -1    0    0  501    0  0.00000000000E+00  0.00000000000E+00 -0.16857975484E+04  0.16857975484E+04  0.50400001928E-02 0. -1.
    10030    2    1    2    0    0  0.00000000000E+00  0.00000000000E+00 -0.59553470092E+03  0.27760603959E+04  0.27114294646E+04 0.  0.
        5    1    3    3  502    0 -0.86059105361E+03 -0.43626163473E+03 -0.12728334199E+04  0.15972063675E+04  0.46999998093E+01 0. -1.
       -5    1    3    3    0  502  0.86059105361E+03  0.43626163473E+03  0.67729871901E+03  0.11788540284E+04  0.46999998093E+01 0.  1.
</event>
<event>
 5   0  0.1119100E-05  0.2704823E+04  0.7818609E-02  0.8333442E-01
        2   -1    0    0  501    0  0.00000000000E+00  0.00000000000E+00  0.12369787737E+04  0.12369787737E+04  0.25500000920E-02 0.  1.
       -2   -1    0    0    0  501  0.00000000000E+00  0.00000000000E+00 -0.14786160653E+04  0.14786160653E+04  0.25500000920E-02 0. -1.
    10030    2    1    2    0    0  0.00000000000E+00  0.00000000000E+00 -0.24163729156E+03  0.27155948390E+04  0.27048228683E+04 0.  0.
        2    1    3    3  502    0 -0.28758369325E+03 -0.91809974276E+02  0.12027194368E+04  0.12400272157E+04  0.25500000920E-02 0.  1.
       -2    1    3    3    0  502  0.28758369325E+03  0.91809974276E+02 -0.14443567284E+04  0.14755676233E+04  0.25500000920E-02 0. -1.
</event>
<event>
 5   0  0.3848286E-06  0.3142201E+04  0.7818609E-02  0.8204251E-01
       -1   -1    0    0    0  501  0.00000000000E+00  0.00000000000E+00  0.22602288425E+04  0.22602288425E+04  0.50400001928E-02 0. -1.
        1   -1    0    0  501    0  0.00000000000E+00  0.00000000000E+00 -0.10920828595E+04  0.10920828596E+04  0.50400001928E-02 0.  1.
    10030    2    1    2    0    0  0.00000000000E+00  0.00000000000E+00  0.11681459830E+04  0.33523117021E+04  0.31422012524E+04 0.  0.
        2    1    3    3  502    0 -0.21145536579E+03  0.14350727748E+02  0.22449074240E+04  0.22548899436E+04  0.25500000920E-02 0. -1.
       -2    1    3    3    0  502  0.21145536579E+03 -0.14350727748E+02 -0.10767614411E+04  0.10974217585E+04  0.25500000920E-02 0.  1.
</event>
<event>
 5   0  0.1001961E-05  0.2566546E+04  0.7818609E-02  0.8379654E-01
        2   -1    0    0  501    0  0.00000000000E+00  0.00000000000E+00  0.19534139009E+04  0.19534139009E+04  0.25500000920E-02 0. -1.
       -2   -1    0    0    0  501  0.00000000000E+00  0.00000000000E+00 -0.84303152914E+03  0.84303152914E+03  0.25500000920E-02 0.  1.
    10030    2    1    2    0    0  0.00000000000E+00  0.00000000000E+00  0.11103823717E+04  0.27964454300E+04  0.25665459341E+04 0.  0.
        5    1    3    3  502    0  0.97246845121E+03 -0.73012417053E+03  0.10017725602E+04  0.15755464276E+04  0.46999998093E+01 0. -1.
       -5    1    3    3    0  502 -0.97246845121E+03  0.73012417053E+03  0.10860981148E+03  0.12208990024E+04  0.46999998093E+01 0.  1.
</event>
<event>
 5   0  0.1108153E-05  0.3071933E+04  0.7818609E-02  0.8223483E-01
       -2   -1    0    0    0  501  0.00000000000E+00  0.00000000000E+00  0.23187361820E+04  0.23187361820E+04  0.25500000920E-02 0. -1.
        2   -1    0    0  501    0  0.00000000000E+00  0.00000000000E+00 -0.10174477202E+04  0.10174477202E+04  0.25500000920E-02 0.  1.
    10030    2    1    2    0    0  0.00000000000E+00  0.00000000000E+00  0.13012884618E+04  0.33361839023E+04  0.30719328393E+04 0.  0.
        4    1    3    3  502    0 -0.33112404617E+03 -0.12818671813E+04 -0.19503408365E+03  0.13382326072E+04  0.12699999809E+01 0.  1.
       -4    1    3    3    0  502  0.33112404617E+03  0.12818671813E+04  0.14963225455E+04  0.19979512950E+04  0.12699999809E+01 0. -1.
</event>
<event>
 5   0  0.1108153E-05  0.3109729E+04  0.7818609E-02  0.8213073E-01
        2   -1    0    0  501    0  0.00000000000E+00  0.00000000000E+00  0.16365517123E+04  0.16365517123E+04  0.25500000920E-02 0.  1.
       -2   -1    0    0    0  501  0.00000000000E+00  0.00000000000E+00 -0.14772550130E+04  0.14772550130E+04  0.25500000920E-02 0. -1.
    10030    2    1    2    0    0  0.00000000000E+00  0.00000000000E+00  0.15929669929E+03  0.31138067253E+04  0.31097293908E+04 0.  0.
        4    1    3    3  502    0 -0.13117450935E+04  0.43088859122E+03  0.79561204026E+03  0.15935307653E+04  0.12699999809E+01 0.  1.
       -4    1    3    3    0  502  0.13117450935E+04 -0.43088859122E+03 -0.63631534097E+03  0.15202759600E+04  0.12699999809E+01 0. -1.
</event>
<event>
 5   0  0.4139628E-06  0.2573694E+04  0.7818609E-02  0.8377192E-01
        1   -1    0    0  501    0  0.00000000000E+00  0.00000000000E+00  0.15449213922E+04  0.15449213922E+04  0.50400001928E-02 0. -1.
       -1   -1    0    0    0  501  0.00000000000E+00  0.00000000000E+00 -0.10718830528E+04  0.10718830529E+04  0.50400001928E-02 0.  1.
    10030    2    1    2    0    0  0.00000000000E+00  0.00000000000E+00  0.47303833932E+03  0.26168044450E+04  0.25736938888E+04 0.  0.
        5    1    3    3  502    0  0.87760123187E+02  0.12744701665E+04  0.79080609893E+02  0.12799421383E+04  0.46999998093E+01 0. -1.
       -5    1    3    3    0  502 -0.87760123187E+02 -0.12744701665E+04  0.39395772942E+03  0.13368623067E+04  0.46999998093E+01 0.  1.
</event>
<event>
 5   0  0.3493125E-06  0.1547940E+04  0.7818609E-02  0.8853184E-01
       -3   -1    0    0    0  501  0.00000000000E+00  0.00000000000E+00  0.11805745668E+04  0.11805745712E+04  0.10100000352E+00 0. -1.
        3   -1    0    0  501    0  0.00000000000E+00  0.00000000000E+00 -0.50740532603E+03  0.50740533609E+03  0.10100000352E+00 0.  1.
    10030    2    1    2    0    0  0.00000000000E+00  0.00000000000E+00  0.67316924080E+03  0.16879799072E+04  0.15479403543E+04 0.  0.
        2    1    3    3  502    0 -0.34954289709E+03 -0.22096879212E+03  0.10500062872E+04  0.11285037205E+04  0.25500000920E-02 0. -1.
       -2    1    3    3    0  502  0.34954289709E+03  0.22096879212E+03 -0.37683704640E+03  0.55947618675E+03  0.25500000920E-02 0.  1.
</event>
<event>
 5   0  0.4139628E-06  0.3006989E+04  0.7818609E-02  0.8241738E-01
        1   -1    0    0  501    0  0.00000000000E+00  0.00000000000E+00  0.18235154329E+04  0.18235154329E+04  0.50400001928E-02 0.  1.
       -1   -1    0    0    0  501  0.00000000000E+00  0.00000000000E+00 -0.12396364958E+04  0.12396364958E+04  0.50400001928E-02 0. -1.
    10030    2    1    2    0    0  0.00000000000E+00  0.00000000000E+00  0.58387893710E+03  0.30631519288E+04  0.30069893790E+04 0.  0.
        5    1    3    3  502    0  0.17726046827E+03  0.12869174991E+04 -0.47909650392E+03  0.13846058909E+04  0.46999998093E+01 0. -1.
       -5    1    3    3    0  502 -0.17726046827E+03 -0.12869174991E+04  0.10629754410E+04  0.16785460379E+04  0.46999998093E+01 0.  1.
</event>
<event>
 5   0  0.9797278E-06  0.3024199E+04  0.7818609E-02  0.8236854E-01
        2   -1    0    0  501    0  0.00000000000E+00  0.00000000000E+00  0.18697838194E+04  0.18697838194E+04  0.25500000920E-02 0. -1.
       -2   -1    0    0    0  501  0.00000000000E+00  0.00000000000E+00 -0.12228390224E+04  0.12228390224E+04  0.25500000920E-02 0.  1.
    10030    2    1    2    0    0  0.00000000000E+00  0.00000000000E+00  0.64694479700E+03  0.30926228418E+04  0.30241988148E+04 0.  0.
        1    1    3    3  502    0  0.10896753130E+04 -0.36900824545E+03  0.13269412269E+04  0.17562267487E+04  0.50400001928E-02 0. -1.
       -1    1    3    3    0  502 -0.10896753130E+04  0.36900824545E+03 -0.67999642989E+03  0.13363960931E+04  0.50400001928E-02 0.  1.
</event>
<event>
 5   0  0.1001961E-05  0.3118364E+04  0.7818609E-02  0.8210716E-01
        2   -1    0    0  501    0  0.00000000000E+00  0.00000000000E+00  0.17037835358E+04  0.17037835358E+04  0.25500000920E-02 0. -1.
       -2   -1    0    0    0  501  0.00000000000E+00  0.00000000000E+00 -0.14268529505E+04  0.14268529505E+04  0.25500000920E-02 0.  1.
    10030    2    1    2    0    0  0.00000000000E+00  0.00000000000E+00  0.27693058529E+03  0.31306364862E+04  0.31183640358E+04 0.  0.
        5    1    3    3  502    0  0.11715093090E+04  0.10256690643E+04  0.56933708138E+02  0.15581061029E+04  0.46999998093E+01 0. -1.
       -5    1    3    3    0  502 -0.11715093090E+04 -0.10256690643E+04  0.21999687715E+03  0.15725303834E+04  0.46999998093E+01 0.  1.
</event>
<event>
 5   0  0.3838525E-06  0.1922245E+04  0.7818609E-02  0.8643862E-01
        1   -1    0    0  501    0  0.00000000000E+00  0.00000000000E+00  0.74289518120E+03  0.74289518122E+03  0.50400001928E-02 0. -1.
       -1   -1    0    0    0  501  0.00000000000E+00  0.00000000000E+00 -0.12434551079E+04  0.12434551079E+04  0.50400001928E-02 0.  1.
    10030    2    1    2    0    0  0.00000000000E+00  0.00000000000E+00 -0.50055992671E+03  0.19863502891E+04  0.19222453618E+04 0.  0.
        3    1    3    3  502    0 -0.84418990469E+03  0.34547819452E+03  0.62715660035E+02  0.91430030202E+03  0.10100000352E+00 0. -1.
       -3    1    3    3    0  502  0.84418990469E+03 -0.34547819452E+03 -0.56327558674E+03  0.10720499871E+04  0.10100000352E+00 0.  1.
</event>
<event>
 5   0  0.1108153E-05  0.3117809E+04  0.7818609E-02  0.8210867E-01
       -2   -1    0    0    0  501  0.00000000000E+00  0.00000000000E+00  0.95484599143E+03  0.95484599144E+03  0.25500000920E-02 0. -1.
        2   -1    0    0  501    0  0.00000000000E+00  0.00000000000E+00 -0.25451044376E+04  0.25451044376E+04  0.25500000920E-02 0.  1.
    10030    2    1    2    0    0  0.00000000000E+00  0.00000000000E+00 -0.15902584462E+04  0.34999504291E+04  0.31178086985E+04 0.  0.
        4    1    3    3  502    0 -0.55967276925E+03 -0.60289693574E+03  0.69135639410E+03  0.10745667035E+04  0.12699999809E+01 0. -1.
       -4    1    3    3    0  502  0.55967276925E+03  0.60289693574E+03 -0.22816148403E+04  0.24253837256E+04  0.12699999809E+01 0.  1.
</event>
<event>
 5   0  0.9797278E-06  0.3141691E+04  0.7818609E-02  0.8204389E-01
        2   -1    0    0  501    0  0.00000000000E+00  0.00000000000E+00  0.21107480197E+04  0.21107480197E+04  0.25500000920E-02 0.  1.
       -2   -1    0    0    0  501  0.00000000000E+00  0.00000000000E+00 -0.11690429621E+04  0.11690429621E+04  0.25500000920E-02 0. -1.
    10030    2    1    2    0    0  0.00000000000E+00  0.00000000000E+00  0.94170505752E+03  0.32797909818E+04  0.31416907023E+04 0.  0.
        1    1    3    3  502    0  0.12011881385E+04 -0.40306323240E+03 -0.49853488973E+03  0.13615615849E+04  0.50400001928E-02 0. -1.
       -1    1    3    3    0  502 -0.12011881385E+04  0.40306323240E+03  0.14402399472E+04  0.19182293969E+04  0.50400001928E-02 0.  1.
</event>
<event>
 5   0  0.3838525E-06  0.1952394E+04  0.7818609E-02  0.8629207E-01
       -1   -1    0    0    0  501  0.00000000000E+00  0.00000000000E+00  0.48851208635E+03  0.48851208638E+03  0.50400001928E-02 0.  1.
        1   -1    0    0  501    0  0.00000000000E+00  0.00000000000E+00 -0.19507403171E+04  0.19507403171E+04  0.50400001928E-02 0. -1.
    10030    2    1    2    0    0  0.00000000000E+00  0.00000000000E+00 -0.14622282308E+04  0.24392524035E+04  0.19523936307E+04 0.  0.
        3    1    3    3  502    0  0.60798175875E+03  0.25718427433E+03  0.16736496705E+03  0.68102614659E+03  0.10100000352E+00 0.  1.
       -3    1    3    3    0  502 -0.60798175875E+03 -0.25718427433E+03 -0.16295931978E+04  0.17582262569E+04  0.10100000352E+00 0. -1.
</event>
<event>
 5   0  0.1007567E-05  0.3127174E+04  0.7818609E-02  0.8208320E-01
        2   -1    0    0  501    0  0.00000000000E+00  0.00000000000E+00  0.17718957313E+04  0.17718957313E+04  0.25500000920E-02 0. -1.
       -2   -1    0    0    0  501  0.00000000000E+00  0.00000000000E+00 -0.13797674395E+04  0.13797674395E+04  0.25500000920E-02 0.  1.
    10030    2    1    2    0    0  0.00000000000E+00  0.00000000000E+00  0.39212829183E+03  0.31516631708E+04  0.31271738271E+04 0.  0.
        3    1    3    3  502    0 -0.83019072333E+03 -0.12575384514E+04 -0.22455829826E+03  0.15234979597E+04  0.10100000352E+00 0.  1.
       -3    1    3    3    0  502  0.83019072333E+03  0.12575384514E+04  0.61668659009E+03  0.16281652110E+04  0.10100000352E+00 0. -1.
</event>
<event>
 5   0  0.3838525E-06  0.1897223E+04  0.7818609E-02  0.8656240E-01
        1   -1    0    0  501    0  0.00000000000E+00  0.00000000000E+00  0.13651501003E+04  0.13651501003E+04  0.50400001928E-02 0.  1.
       -1   -1    0    0    0  501  0.00000000000E+00  0.00000000000E+00 -0.65916864078E+03  0.65916864080E+03  0.50400001928E-02 0. -1.
    10030    2    1    2    0    0  0.00000000000E+00  0.00000000000E+00  0.70598145949E+03  0.20243187411E+04  0.18972233776E+04 0.  0.
        3    1    3    3  502    0 -0.65543023108E+03 -0.45296044566E+03  0.90236342696E+03  0.12037531797E+04  0.10100000352E+00 0.  1.
       -3    1    3    3    0  502  0.65543023108E+03  0.45296044566E+03 -0.19638196748E+03  0.82056556136E+03  0.10100000352E+00 0. -1.
</event>
<event>
 5   0  0.4139628E-06  0.2805340E+04  0.7818609E-02  0.8301612E-01
       -1   -1    0    0    0  501  0.00000000000E+00  0.00000000000E+00  0.16849918088E+04  0.16849918088E+04  0.50400001928E-02 0.  1.
        1   -1    0    0  501    0  0.00000000000E+00  0.00000000000E+00 -0.11676516553E+04  0.11676516553E+04  0.50400001928E-02 0. -1.
    10030    2    1    2    0    0  0.00000000000E+00  0.00000000000E+00  0.51734015351E+03  0.28526434641E+04  0.28053402465E+04 0.  0.
        5    1    3    3  502    0 -0.85937538383E+02  0.19685030890E+03 -0.11508215221E+04  0.11707038782E+04  0.46999998093E+01 0. -1.
       -5    1    3    3    0  502  0.85937538383E+02 -0.19685030890E+03  0.16681616756E+04  0.16819395859E+04  0.46999998093E+01 0.  1.
</event>
<event>
 5   0  0.4250961E-06  0.2197980E+04  0.7818609E-02  0.8519269E-01
        1   -1    0    0  501    0  0.00000000000E+00  0.00000000000E+00  0.10011585132E+04  0.10011585132E+04  0.50400001928E-02 0. -1.
       -1   -1    0    0    0  501  0.00000000000E+00  0.00000000000E+00 -0.12063818025E+04  0.12063818025E+04  0.50400001928E-02 0.  1.
    10030    2    1    2    0    0  0.00000000000E+00  0.00000000000E+00 -0.20522328924E+03  0.22075403157E+04  0.21979803564E+04 0.  0.
        1    1    3    3  502    0  0.39381436431E+03 -0.99646304199E+03 -0.34811512827E+03  0.11265933118E+04  0.50400001928E-02 0.  1.
       -1    1    3    3    0  502 -0.39381436431E+03  0.99646304199E+03  0.14289183902E+03  0.10809470039E+04  0.50400001928E-02 0. -1.
</event>
<event>
 5   0  0.4250961E-06  0.3100897E+04  0.7818609E-02  0.8215492E-01
       -1   -1    0    0    0  501  0.00000000000E+00  0.00000000000E+00  0.16058684563E+04  0.16058684563E+04  0.50400001928E-02 0. -1.
        1   -1    0    0  501    0  0.00000000000E+00  0.00000000000E+00 -0.14969415228E+04  0.14969415228E+04  0.50400001928E-02 0.  1.
    10030    2    1    2    0    0  0.00000000000E+00  0.00000000000E+00  0.10892693345E+03  0.31028099791E+04  0.31008974007E+04 0.  0.
        1    1    3    3  502    0 -0.10496554120E+04  0.16563409027E+03  0.11841771125E+04  0.15910646026E+04  0.50400001928E-02 0. -1.
       -1    1    3    3    0  502  0.10496554120E+04 -0.16563409027E+03 -0.10752501790E+04  0.15117453765E+04  0.50400001928E-02 0.  1.
</event>
<event>
 5   0  0.1007567E-05  0.2693648E+04  0.7818609E-02  0.8337069E-01
       -2   -1    0    0    0  501  0.00000000000E+00  0.00000000000E+00  0.10340487000E+04  0.10340487000E+04  0.25500000920E-02 0.  1.
        2   -1    0    0  501    0  0.00000000000E+00  0.00000000000E+00 -0.17542058941E+04  0.17542058941E+04  0.25500000920E-02 0. -1.
    10030    2    1    2    0    0  0.00000000000E+00  0.00000000000E+00 -0.72015719404E+03  0.27882545941E+04  0.26936475823E+04 0.  0.
        3    1    3    3  502    0  0.18978353975E+03  0.61772385530E+03 -0.15832470474E+04  0.17100502264E+04  0.10100000352E+00 0. -1.
       -3    1    3    3    0  502 -0.18978353975E+03 -0.61772385530E+03  0.86308985338E+03  0.10782043677E+04  0.10100000352E+00 0.  1.
</event>
<event>
 5   0  0.4250961E-06  0.3040817E+04  0.7818609E-02  0.8232170E-01
        1   -1    0    0  501    0  0.00000000000E+00  0.00000000000E+00  0.11905306428E+04  0.11905306429E+04  0.50400001928E-02 0.  1.
       -1   -1    0    0    0  501  0.00000000000E+00  0.00000000000E+00 -0.19416909635E+04  0.19416909635E+04  0.50400001928E-02 0. -1.
    10030    2    1    2    0    0  0.00000000000E+00  0.00000000000E+00 -0.75116032062E+03  0.31322216063E+04  0.30408173842E+04 0.  0.
        1    1    3    3  502    0 -0.51849801051E+03  0.85646888538E+03 -0.15542052018E+04  0.18487652495E+04  0.50400001928E-02 0. -1.
       -1    1    3    3    0  502  0.51849801051E+03 -0.85646888538E+03  0.80304488120E+03  0.12834563568E+04  0.50400001928E-02 0.  1.
</event>
<event>
 5   0  0.3848286E-06  0.2980299E+04  0.7818609E-02  0.8249379E-01
        1   -1    0    0  501    0  0.00000000000E+00  0.00000000000E+00  0.28889277014E+04  0.28889277014E+04  0.50400001928E-02 0.  1.
       -1   -1    0    0    0  501  0.00000000000E+00  0.00000000000E+00 -0.76864020740E+03  0.76864020741E+03  0.50400001928E-02 0. -1.
    10030    2    1    2    0    0  0.00000000000E+00  0.00000000000E+00  0.21202874940E+04  0.36575679088E+04  0.29802993055E+04 0.  0.
        2    1    3    3  502    0  0.55706444503E+03 -0.10613747018E+04 -0.26306681419E+02  0.11989700142E+04  0.25500000920E-02 0. -1.
       -2    1    3    3    0  502 -0.55706444503E+03  0.10613747018E+04  0.21465941754E+04  0.24585978946E+04  0.25500000920E-02 0.  1.
</event>
<event>
 5   0  0.4139628E-06  0.3027843E+04  0.7818609E-02  0.8235825E-01
        1   -1    0    0  501    0  0.00000000000E+00  0.00000000000E+00  0.16415521563E+04  0.16415521563E+04  0.50400001928E-02 0.  1.
       -1   -1    0    0    0  501  0.00000000000E+00  0.00000000000E+00 -0.13962139349E+04  0.13962139349E+04  0.50400001928E-02 0. -1.
    10030    2    1    2    0    0  0.00000000000E+00  0.00000000000E+00  0.24533822139E+03  0.30377660912E+04  0.30278427935E+04 0.  0.
        5    1    3    3  502    0 -0.47181086183E+03  0.61167523312E+02  0.15645950619E+04  0.16353368928E+04  0.46999998093E+01 0.  1.
       -5    1    3    3    0  502  0.47181086183E+03 -0.61167523312E+02 -0.13192568405E+04  0.14024291984E+04  0.46999998093E+01 0. -1.
</event>
<event>
 5   0  0.9797278E-06  0.2815966E+04  0.7818609E-02  0.8298329E-01
        2   -1    0    0  501    0  0.00000000000E+00  0.00000000000E+00  0.25309265747E+04  0.25309265747E+04  0.25500000920E-02 0. -1.
       -2   -1    0    0    0  501  0.00000000000E+00  0.00000000000E+00 -0.78327699208E+03  0.78327699208E+03  0.25500000920E-02 0.  1.
    10030    2    1    2    0    0  0.00000000000E+00  0.00000000000E+00  0.17476495826E+04  0.33142035668E+04  0.28159663028E+04 0.  0.
        1    1    3    3  502    0 -0.20696155288E+02  0.12589155851E+04  0.13215176790E+03  0.12660019237E+04  0.50400001928E-02 0.  1.
       -1    1    3    3    0  502  0.20696155288E+02 -0.12589155851E+04  0.16154978147E+04  0.20482016430E+04  0.50400001928E-02 0. -1.
</event>
<event>
 5   0  0.1007567E-05  0.3144773E+04  0.7818609E-02  0.8203557E-01
       -2   -1    0    0    0  501  0.00000000000E+00  0.00000000000E+00  0.13343852543E+04  0.13343852543E+04  0.25500000920E-02 0.  1.
        2   -1    0    0  501    0  0.00000000000E+00  0.00000000000E+00 -0.18528375791E+04  0.18528375791E+04  0.25500000920E-02 0. -1.
    10030    2    1    2    0    0  0.00000000000E+00  0.00000000000E+00 -0.51845232478E+03  0.31872228334E+04  0.31447728974E+04 0.  0.
        3    1    3    3  502    0  0.52556227374E+03  0.51859727994E+03 -0.16662163654E+04  0.18224806799E+04  0.10100000352E+00 0. -1.
       -3    1    3    3    0  502 -0.52556227374E+03 -0.51859727994E+03  0.11477640406E+04  0.13647421534E+04  0.10100000352E+00 0.  1.
</event>
<event>
 5   0  0.3807334E-06  0.2060882E+04  0.7818609E-02  0.8578674E-01
        1   -1    0    0  501    0  0.00000000000E+00  0.00000000000E+00  0.63547720924E+03  0.63547720926E+03  0.50400001928E-02 0. -1.
       -1   -1    0    0    0  501  0.00000000000E+00  0.00000000000E+00 -0.16708836787E+04  0.16708836787E+04  0.50400001928E-02 0.  1.
    10030    2    1    2    0    0  0.00000000000E+00  0.00000000000E+00 -0.10354064695E+04  0.23063608880E+04  0.20608818473E+04 0.  0.
        4    1    3    3  502    0 -0.63541511001E+03  0.48713576008E+03 -0.12436218314E+04  0.14790708175E+04  0.12699999809E+01 0.  1.
       -4    1    3    3    0  502  0.63541511001E+03 -0.48713576008E+03  0.20821536196E+03  0.82729007044E+03  0.12699999809E+01 0. -1.
</event>
<event>
 5   0  0.3848286E-06  0.3104276E+04  0.7818609E-02  0.8214565E-01
        1   -1    0    0  501    0  0.00000000000E+00  0.00000000000E+00  0.11620088255E+04  0.11620088255E+04  0.50400001928E-02 0.  1.
       -1   -1    0    0    0  501  0.00000000000E+00  0.00000000000E+00 -0.20732479890E+04  0.20732479890E+04  0.50400001928E-02 0. -1.
    10030    2    1    2    0    0  0.00000000000E+00  0.00000000000E+00 -0.91123916355E+03  0.32352568145E+04  0.31042760577E+04 0.  0.
        2    1    3    3  502    0  0.15481526906E+04  0.47972512150E+02 -0.56012175507E+03  0.16470623837E+04  0.25500000920E-02 0. -1.
       -2    1    3    3    0  502 -0.15481526906E+04 -0.47972512150E+02 -0.35111740848E+03  0.15881944308E+04  0.25500000920E-02 0.  1.
</event>
<event>
 5   0  0.3807334E-06  0.1527167E+04  0.7818609E-02  0.8866586E-01
       -1   -1    0    0    0  501  0.00000000000E+00  0.00000000000E+00  0.25799730819E+03  0.25799730824E+03  0.50400001928E-02 0.  1.
        1   -1    0    0  501    0  0.00000000000E+00  0.00000000000E+00 -0.22599440512E+04  0.22599440512E+04  0.50400001928E-02 0. -1.
    10030    2    1    2    0    0  0.00000000000E+00  0.00000000000E+00 -0.20019467430E+04  0.25179413595E+04  0.15271666339E+04 0.  0.
        4    1    3    3  502    0  0.33236767431E+03  0.34398962294E+02 -0.21330006188E+04  0.21590147781E+04  0.12699999809E+01 0. -1.
       -4    1    3    3    0  502 -0.33236767431E+03 -0.34398962294E+02  0.13105387576E+03  0.35892658133E+03  0.12699999809E+01 0.  1.
</event>
<event>
 5   0  0.4250961E-06  0.3046957E+04  0.7818609E-02  0.8230448E-01
        1   -1    0    0  501    0  0.00000000000E+00  0.00000000000E+00  0.18216942638E+04  0.18216942638E+04  0.50400001928E-02 0. -1.
       -1   -1    0    0    0  501  0.00000000000E+00  0.00000000000E+00 -0.12740811462E+04  0.12740811462E+04  0.50400001928E-02 0.  1.
    10030    2    1    2    0    0  0.00000000000E+00  0.00000000000E+00  0.54761311757E+03  0.30957754101E+04  0.30469567216E+04 0.  0.
        1    1    3    3  502    0 -0.70265354646E+03  0.44072203601E+03 -0.10245680955E+04  0.13182176231E+04  0.50400001928E-02 0.  1.
       -1    1    3    3    0  502  0.70265354646E+03 -0.44072203601E+03  0.15721812131E+04  0.17775577870E+04  0.50400001928E-02 0. -1.
</event>
<event>
 5   0  0.3493125E-06  0.3134007E+04  0.7818609E-02  0.8206466E-01
        3   -1    0    0  501    0  0.00000000000E+00  0.00000000000E+00  0.20471881597E+04  0.20471881622E+04  0.10100000352E+00 0. -1.
       -3   -1    0    0    0  501  0.00000000000E+00  0.00000000000E+00 -0.11994503336E+04  0.11994503378E+04  0.10100000352E+00 0.  1.
    10030    2    1    2    0    0  0.00000000000E+00  0.00000000000E+00  0.84773782615E+03  0.32466385000E+04  0.31340073592E+04 0.  0.
        3    1    3    3  502    0  0.10572202276E+04  0.57398809426E+03 -0.61637188834E+03  0.13516993959E+04  0.10100000352E+00 0.  1.
       -3    1    3    3    0  502 -0.10572202276E+04 -0.57398809426E+03  0.14641097145E+04  0.18949391041E+04  0.10100000352E+00 0. -1.
</event>
<event>
 5   0  0.3807334E-06  0.2974181E+04  0.7818609E-02  0.8251142E-01
        1   -1    0    0  501    0  0.00000000000E+00  0.00000000000E+00  0.22630121378E+04  0.22630121378E+04  0.50400001928E-02 0.  1.
       -1   -1    0    0    0  501  0.00000000000E+00  0.00000000000E+00 -0.97720992115E+03  0.97720992116E+03  0.50400001928E-02 0. -1.
    10030    2    1    2    0    0  0.00000000000E+00  0.00000000000E+00  0.12858022167E+04  0.32402220590E+04  0.29741808370E+04 0.  0.
        4    1    3    3  502    0  0.85836035220E+03  0.11218847487E+04  0.11492651344E+04  0.18210491057E+04  0.12699999809E+01 0.  1.
       -4    1    3    3    0  502 -0.85836035220E+03 -0.11218847487E+04  0.13653708231E+03  0.14191729533E+04  0.12699999809E+01 0. -1.
</event>
<event>
 5   0  0.1108153E-05  0.3157906E+04  0.7818609E-02  0.8200023E-01
        2   -1    0    0  501    0  0.00000000000E+00  0.00000000000E+00  0.12063965564E+04  0.12063965564E+04  0.25500000920E-02 0.  1.
       -2   -1    0    0    0  501  0.00000000000E+00  0.00000000000E+00 -0.20665615855E+04  0.20665615855E+04  0.25500000920E-02 0. -1.
    10030    2    1    2    0    0  0.00000000000E+00  0.00000000000E+00 -0.86016502906E+03  0.32729581419E+04  0.31579061293E+04 0.  0.
        4    1    3    3  502    0  0.25742776175E+03 -0.91493817410E+02 -0.20418777992E+04  0.20600744479E+04  0.12699999809E+01 0. -1.
       -4    1    3    3    0  502 -0.25742776175E+03  0.91493817410E+02  0.11817127702E+04  0.12128836940E+04  0.12699999809E+01 0.  1.
</event>
<event>
 5   0  0.1108153E-05  0.3327641E+04  0.7818609E-02  0.8155897E-01
        2   -1    0    0  501    0  0.00000000000E+00  0.00000000000E+00  0.20052501704E+04  0.20052501704E+04  0.25500000920E-02 0. -1.
       -2   -1    0    0    0  501  0.00000000000E+00  0.00000000000E+00 -0.13805256108E+04  0.13805256108E+04  0.25500000920E-02 0.  1.
    10030    2    1    2    0    0  0.00000000000E+00  0.00000000000E+00  0.62472455953E+03  0.33857757812E+04  0.33276413366E+04 0.  0.
        4    1    3    3  502    0 -0.96774443048E+03 -0.13524537028E+04  0.36461412774E+03  0.17025291116E+04  0.12699999809E+01 0.  1.
       -4    1    3    3    0  502  0.96774443048E+03  0.13524537028E+04  0.26011043179E+03  0.16832466696E+04  0.12699999809E+01 0. -1.
</event>
<event>
 5   0  0.4250961E-06  0.2063507E+04  0.7818609E-02  0.8577491E-01
       -1   -1    0    0    0  501  0.00000000000E+00  0.00000000000E+00  0.46814387456E+03  0.46814387458E+03  0.50400001928E-02 0. -1.
        1   -1    0    0  501    0  0.00000000000E+00  0.00000000000E+00 -0.22739072710E+04  0.22739072710E+04  0.50400001928E-02 0.  1.
    10030    2    1    2    0    0  0.00000000000E+00  0.00000000000E+00 -0.18057633965E+04  0.27420511456E+04  0.20635074609E+04 0.  0.
        1    1    3    3  502    0 -0.12111066863E+03 -0.35951254291E+03  0.37210215790E+03  0.53139164323E+03  0.50400001928E-02 0. -1.
       -1    1    3    3    0  502  0.12111066863E+03  0.35951254291E+03 -0.21778655544E+04  0.22106595024E+04  0.50400001928E-02 0.  1.
</event>
<event>
 5   0  0.3807334E-06  0.3107966E+04  0.7818609E-02  0.8213555E-01
       -1   -1    0    0    0  501  0.00000000000E+00  0.00000000000E+00  0.15132584069E+04  0.15132584069E+04  0.50400001928E-02 0. -1.
        1   -1    0    0  501    0  0.00000000000E+00  0.00000000000E+00 -0.15958036246E+04  0.15958036246E+04  0.50400001928E-02 0.  1.
    10030    2    1    2    0    0  0.00000000000E+00  0.00000000000E+00 -0.82545217749E+02  0.31090620315E+04  0.31079660556E+04 0.  0.
        4    1    3    3  502    0 -0.51922252520E+03 -0.14139876427E+04  0.34084187180E+03  0.15443859229E+04  0.12699999809E+01 0.  1.
       -4    1    3    3    0  502  0.51922252520E+03  0.14139876427E+04 -0.42338708955E+03  0.15646761086E+04  0.12699999809E+01 0. -1.
</event>
<event>
 5   0  0.1108153E-05  0.2760138E+04  0.7818609E-02  0.8315752E-01
       -2   -1    0    0    0  501  0.00000000000E+00  0.00000000000E+00  0.88078780479E+03  0.88078780479E+03  0.25500000920E-02 0. -1.
        2   -1    0    0  501    0  0.00000000000E+00  0.00000000000E+00 -0.21623720611E+04  0.21623720611E+04  0.25500000920E-02 0.  1.
    10030    2    1    2    0    0  0.00000000000E+00  0.00000000000E+00 -0.12815842563E+04  0.30431598659E+04  0.27601383594E+04 0.  0.
        4    1    3    3  502    0  0.76587605823E+03 -0.11071070484E+04 -0.30576327856E+03  0.13804872142E+04  0.12699999809E+01 0. -1.
       -4    1    3    3    0  502 -0.76587605823E+03  0.11071070484E+04 -0.97582097774E+03  0.16626726517E+04  0.12699999809E+01 0.  1.
</event>
<event>
 5   0  0.9797278E-06  0.2865603E+04  0.7818609E-02  0.8283186E-01
        2   -1    0    0  501    0  0.00000000000E+00  0.00000000000E+00  0.10359802701E+04  0.10359802701E+04  0.25500000920E-02 0. -1.
       -2   -1    0    0    0  501  0.00000000000E+00  0.00000000000E+00 -0.19816207857E+04  0.19816207857E+04  0.25500000920E-02 0.  1.
    10030    2    1    2    0    0  0.00000000000E+00  0.00000000000E+00 -0.94564051561E+03  0.30176010558E+04  0.28656029291E+04 0.  0.
        1    1    3    3  502    0  0.75581496087E+03  0.59039152475E+03  0.64811425912E+03  0.11575277536E+04  0.50400001928E-02 0. -1.
       -1    1    3    3    0  502 -0.75581496087E+03 -0.59039152475E+03 -0.15937547747E+04  0.18600733022E+04  0.50400001928E-02 0.  1.
</event>
<event>
 5   0  0.1001961E-05  0.3140240E+04  0.7818609E-02  0.8204780E-01
        2   -1    0    0  501    0  0.00000000000E+00  0.00000000000E+00  0.16596910592E+04  0.16596910592E+04  0.25500000920E-02 0.  1.
       -2   -1    0    0    0  501  0.00000000000E+00  0.00000000000E+00 -0.14853828065E+04  0.14853828065E+04  0.25500000920E-02 0. -1.
    10030    2    1    2    0    0  0.00000000000E+00  0.00000000000E+00  0.17430825272E+03  0.31450738657E+04  0.31402398402E+04 0.  0.
        5    1    3    3  502    0 -0.17334472773E+03  0.15138775791E+04  0.46639353529E+03  0.15935553768E+04  0.46999998093E+01 0.  1.
       -5    1    3    3    0  502  0.17334472773E+03 -0.15138775791E+04 -0.29208528257E+03  0.15515184889E+04  0.46999998093E+01 0. -1.
</event>
<event>
 5   0  0.9797278E-06  0.3085650E+04  0.7818609E-02  0.8219687E-01
       -2   -1    0    0    0  501  0.00000000000E+00  0.00000000000E+00  0.14476533943E+04  0.14476533943E+04  0.25500000920E-02 0.  1.
        2   -1    0    0  501    0  0.00000000000E+00  0.00000000000E+00 -0.16442532857E+04  0.16442532857E+04  0.25500000920E-02 0. -1.
    10030    2    1    2    0    0  0.00000000000E+00  0.00000000000E+00 -0.19659989137E+03  0.30919066800E+04  0.30856499154E+04 0.  0.
        1    1    3    3  502    0 -0.15247346587E+04 -0.32619006477E+02 -0.33207339627E+03  0.15608179008E+04  0.50400001928E-02 0. -1.
       -1    1    3    3    0  502  0.15247346587E+04  0.32619006477E+02  0.13547350489E+03  0.15310887791E+04  0.50400001928E-02 0.  1.
</event>
<event>
 5   0  0.4139628E-06  0.2943486E+04  0.7818609E-02  0.8260055E-01
       -1   -1    0    0    0  501  0.00000000000E+00  0.00000000000E+00  0.10839071204E+04  0.10839071204E+04  0.50400001928E-02 0. -1.
        1   -1    0    0  501    0  0.00000000000E+00  0.00000000000E+00 -0.19983513737E+04  0.19983513737E+04  0.50400001928E-02 0.  1.
    10030    2    1    2    0    0  0.00000000000E+00  0.00000000000E+00 -0.91444425329E+03  0.30822584942E+04  0.29434858811E+04 0.  0.
        5    1    3    3  502    0  0.11503596583E+04  0.39635188847E+03 -0.13242581279E+04  0.17983614326E+04  0.46999998093E+01 0.  1.
       -5    1    3    3    0  502 -0.11503596583E+04 -0.39635188847E+03  0.40981387459E+03  0.12838970616E+04  0.46999998093E+01 0. -1.
</event>
<event>
 5   0  0.1001961E-05  0.3088677E+04  0.7818609E-02  0.8218852E-01
        2   -1    0    0  501    0  0.00000000000E+00  0.00000000000E+00  0.20923897045E+04  0.20923897045E+04  0.25500000920E-02 0. -1.
       -2   -1    0    0    0  501  0.00000000000E+00  0.00000000000E+00 -0.11398363643E+04  0.11398363643E+04  0.25500000920E-02 0.  1.
    10030    2    1    2    0    0  0.00000000000E+00  0.00000000000E+00  0.95255334013E+03  0.32322260688E+04  0.30886773050E+04 0.  0.
        5    1    3    3  502    0  0.79338171787E+03 -0.91408254978E+03 -0.52744492640E+03  0.13203112127E+04  0.46999998093E+01 0.  1.
       -5    1    3    3    0  502 -0.79338171787E+03  0.91408254978E+03  0.14799982665E+04  0.19119148561E+04  0.46999998093E+01 0. -1.
</event>
<event>
 5   0  0.3848286E-06  0.3152928E+04  0.7818609E-02  0.8201361E-01
        1   -1    0    0  501    0  0.00000000000E+00  0.00000000000E+00  0.18826561232E+04  0.18826561232E+04  0.50400001928E-02 0.  1.
       -1   -1    0    0    0  501  0.00000000000E+00  0.00000000000E+00 -0.13200701062E+04  0.13200701062E+04  0.50400001928E-02 0. -1.
    10030    2    1    2    0    0  0.00000000000E+00  0.00000000000E+00  0.56258601696E+03  0.32027262294E+04  0.31529275720E+04 0.  0.
        2    1    3    3  502    0  0.88940627690E+03  0.45165477297E+02  0.16026672743E+04  0.18334737080E+04  0.25500000920E-02 0.  1.
       -2    1    3    3    0  502 -0.88940627690E+03 -0.45165477297E+02 -0.10400812573E+04  0.13692525215E+04  0.25500000920E-02 0. -1.
</event>
<event>
 5   0  0.1001961E-05  0.3102731E+04  0.7818609E-02  0.8214989E-01
        2   -1    0    0  501    0  0.00000000000E+00  0.00000000000E+00  0.13792350050E+04  0.13792350050E+04  0.25500000920E-02 0. -1.
       -2   -1    0    0    0  501  0.00000000000E+00  0.00000000000E+00 -0.17449777029E+04  0.17449777029E+04  0.25500000920E-02 0.  1.
    10030    2    1    2    0    0  0.00000000000E+00  0.00000000000E+00 -0.36574269782E+03  0.31242127079E+04  0.31027306237E+04 0.  0.
        5    1    3    3  502    0  0.62686301318E+03  0.10829012489E+04 -0.11063250935E+04  0.16702124579E+04  0.46999998093E+01 0.  1.
       -5    1    3    3    0  502 -0.62686301318E+03 -0.10829012489E+04  0.74058239567E+03  0.14540002500E+04  0.46999998093E+01 0. -1.
</event>
<event>
 5   0  0.3838525E-06  0.3101669E+04  0.7818609E-02  0.8215280E-01
       -1   -1    0    0    0  501  0.00000000000E+00  0.00000000000E+00  0.17747793178E+04  0.17747793178E+04  0.50400001928E-02 0. -1.
        1   -1    0    0  501    0  0.00000000000E+00  0.00000000000E+00 -0.13551470927E+04  0.13551470927E+04  0.50400001928E-02 0.  1.
    10030    2    1    2    0    0  0.00000000000E+00  0.00000000000E+00  0.41963222504E+03  0.31299264105E+04  0.31016686043E+04 0.  0.
        3    1    3    3  502    0 -0.13418454085E+04 -0.29776429316E+03 -0.51497139483E+03  0.14677902515E+04  0.10100000352E+00 0.  1.
       -3    1    3    3    0  502  0.13418454085E+04  0.29776429316E+03  0.93460361987E+03  0.16621361590E+04  0.10100000352E+00 0. -1.
</event>
<event>
 5   0  0.3807334E-06  0.3068427E+04  0.7818609E-02  0.8224457E-01
       -1   -1    0    0    0  501  0.00000000000E+00  0.00000000000E+00  0.79829279917E+03  0.79829279919E+03  0.50400001928E-02 0. -1.
        1   -1    0    0  501    0  0.00000000000E+00  0.00000000000E+00 -0.29485562264E+04  0.29485562264E+04  0.50400001928E-02 0.  1.
    10030    2    1    2    0    0  0.00000000000E+00  0.00000000000E+00 -0.21502634272E+04  0.37468490255E+04  0.30684270912E+04 0.  0.
        4    1    3    3  502    0 -0.25509274605E+03  0.97672174846E+03 -0.24858836684E+04  0.26830350182E+04  0.12699999809E+01 0.  1.
       -4    1    3    3    0  502  0.25509274605E+03 -0.97672174846E+03  0.33562024125E+03  0.10638140074E+04  0.12699999809E+01 0. -1.
</event>
<event>
 5   0  0.3838525E-06  0.3234823E+04  0.7818609E-02  0.8179681E-01
       -1   -1    0    0    0  501  0.00000000000E+00  0.00000000000E+00  0.18263332083E+04  0.18263332083E+04  0.50400001928E-02 0.  1.
        1   -1    0    0  501    0  0.00000000000E+00  0.00000000000E+00 -0.14323888153E+04  0.14323888153E+04  0.50400001928E-02 0. -1.
    10030    2    1    2    0    0  0.00000000000E+00  0.00000000000E+00  0.39394439297E+03  0.32587220236E+04  0.32348225673E+04 0.  0.
        3    1    3    3  502    0  0.29387929914E+01  0.53098955310E+03  0.17360228915E+04  0.18154156637E+04  0.10100000352E+00 0.  1.
       -3    1    3    3    0  502 -0.29387929914E+01 -0.53098955310E+03 -0.13420784985E+04  0.14433063599E+04  0.10100000352E+00 0. -1.
</event>
<event>
 5   0  0.3838525E-06  0.3169843E+04  0.7818609E-02  0.8196827E-01
       -1   -1    0    0    0  501  0.00000000000E+00  0.00000000000E+00  0.15923168955E+04  0.15923168955E+04  0.50400001928E-02 0.  1.
        1   -1    0    0  501    0  0.00000000000E+00  0.00000000000E+00 -0.15775599900E+04  0.15775599900E+04  0.50400001928E-02 0. -1.
    10030    2    1    2    0    0  0.00000000000E+00  0.00000000000E+00  0.14756905537E+02  0.31698768855E+04  0.31698425360E+04 0.  0.
        3    1    3    3  502    0 -0.20667741078E+03 -0.11974935753E+04  0.10248711741E+04  0.15896752337E+04  0.10100000352E+00 0.  1.
       -3    1    3    3    0  502  0.20667741078E+03  0.11974935753E+04 -0.10101142685E+04  0.15802016519E+04  0.10100000352E+00 0. -1.
</event>
<event>
 5   0  0.1119100E-05  0.2689141E+04  0.7818609E-02  0.8338537E-01
       -2   -1    0    0    0  501  0.00000000000E+00  0.00000000000E+00  0.59994465834E+03  0.59994465834E+03  0.25500000920E-02 0.  1.
        2   -1    0    0  501    0  0.00000000000E+00  0.00000000000E+00 -0.30133946723E+04  0.30133946723E+04  0.25500000920E-02 0. -1.
    10030    2    1    2    0    0  0.00000000000E+00  0.00000000000E+00 -0.24134500139E+04  0.36133393306E+04  0.26891411544E+04 0.  0.
        2    1    3    3  502    0 -0.12231029408E+04 -0.37034746289E+03 -0.17683951786E+04  0.21818248222E+04  0.25500000920E-02 0. -1.
       -2    1    3    3    0  502  0.12231029408E+04  0.37034746289E+03 -0.64505483532E+03  0.14315145084E+04  0.25500000920E-02 0.  1.
</event>
<event>
 5   0  0.4139628E-06  0.2104177E+04  0.7818609E-02  0.8559405E-01
        1   -1    0    0  501    0  0.00000000000E+00  0.00000000000E+00  0.16594604201E+04  0.16594604201E+04  0.50400001928E-02 0.  1.
       -1   -1    0    0    0  501  0.00000000000E+00  0.00000000000E+00 -0.66701832471E+03  0.66701832473E+03  0.50400001928E-02 0. -1.
    10030    2    1    2    0    0  0.00000000000E+00  0.00000000000E+00  0.99244209538E+03  0.23264787448E+04  0.21041772828E+04 0.  0.
        5    1    3    3  502    0 -0.10335068575E+04 -0.10418256550E+03  0.31161434149E+03  0.10844888286E+04  0.46999998093E+01 0. -1.
       -5    1    3    3    0  502  0.10335068575E+04  0.10418256550E+03  0.68082775390E+03  0.12419899162E+04  0.46999998093E+01 0.  1.
</event>
<event>
 5   0  0.3848286E-06  0.2763068E+04  0.7818609E-02  0.8314827E-01
        1   -1    0    0  501    0  0.00000000000E+00  0.00000000000E+00  0.11233106040E+04  0.11233106040E+04  0.50400001928E-02 0.  1.
       -1   -1    0    0    0  501  0.00000000000E+00  0.00000000000E+00 -0.16991173005E+04  0.16991173005E+04  0.50400001928E-02 0. -1.
    10030    2    1    2    0    0  0.00000000000E+00  0.00000000000E+00 -0.57580669650E+03  0.28224279046E+04  0.27630682085E+04 0.  0.
        2    1    3    3  502    0  0.10161099998E+04  0.91186737567E+03 -0.72046658084E+02  0.13671767857E+04  0.25500000920E-02 0.  1.
       -2    1    3    3    0  502 -0.10161099998E+04 -0.91186737567E+03 -0.50376003842E+03  0.14552511188E+04  0.25500000920E-02 0. -1.
</event>
<event>
 5   0  0.3838525E-06  0.1957854E+04  0.7818609E-02  0.8626583E-01
       -1   -1    0    0    0  501  0.00000000000E+00  0.00000000000E+00  0.57608709392E+03  0.57608709395E+03  0.50400001928E-02 0. -1.
        1   -1    0    0  501    0  0.00000000000E+00  0.00000000000E+00 -0.16634600809E+04  0.16634600809E+04  0.50400001928E-02 0.  1.
    10030    2    1    2    0    0  0.00000000000E+00  0.00000000000E+00 -0.10873729869E+04  0.22395471748E+04  0.19578538085E+04 0.  0.
        3    1    3    3  502    0 -0.45612064937E+03 -0.23062050974E+03 -0.14987162583E+04  0.15834715973E+04  0.10100000352E+00 0.  1.
       -3    1    3    3    0  502  0.45612064937E+03  0.23062050974E+03  0.41134327138E+03  0.65607557751E+03  0.10100000352E+00 0. -1.
</event>
<event>
 5   0  0.9797278E-06  0.3004321E+04  0.7818609E-02  0.8242498E-01
       -2   -1    0    0    0  501  0.00000000000E+00  0.00000000000E+00  0.15792531739E+04  0.15792531739E+04  0.25500000920E-02 0. -1.
        2   -1    0    0  501    0  0.00000000000E+00  0.00000000000E+00 -0.14288311750E+04  0.14288311750E+04  0.25500000920E-02 0.  1.
    10030    2    1    2    0    0  0.00000000000E+00  0.00000000000E+00  0.15042199892E+03  0.30080843489E+04  0.30043210002E+04 0.  0.
        1    1    3    3  502    0 -0.42960514544E+03  0.12271622259E+04  0.82848209081E+03  0.15417101818E+04  0.50400001928E-02 0. -1.
       -1    1    3    3    0  502  0.42960514544E+03 -0.12271622259E+04 -0.67806009189E+03  0.14663741671E+04  0.50400001928E-02 0.  1.
</event>
<event>
 5   0  0.1119100E-05  0.3035169E+04  0.7818609E-02  0.8233759E-01
        2   -1    0    0  501    0  0.00000000000E+00  0.00000000000E+00  0.19293230510E+04  0.19293230510E+04  0.25500000920E-02 0.  1.
       -2   -1    0    0    0  501  0.00000000000E+00  0.00000000000E+00 -0.11937153882E+04  0.11937153882E+04  0.25500000920E-02 0. -1.
    10030    2    1    2    0    0  0.00000000000E+00  0.00000000000E+00  0.73560766286E+03  0.31230384392E+04  0.30351689342E+04 0.  0.
        2    1    3    3  502    0 -0.27383483343E+03 -0.10761660077E+04  0.14321305117E+04  0.18122131758E+04  0.25500000920E-02 0.  1.
       -2    1    3    3    0  502  0.27383483343E+03  0.10761660077E+04 -0.69652284884E+03  0.13108252634E+04  0.25500000920E-02 0. -1.
</event>
<event>
 5   0  0.3838525E-06  0.1828064E+04  0.7818609E-02  0.8691516E-01
       -1   -1    0    0    0  501  0.00000000000E+00  0.00000000000E+00  0.78414661387E+03  0.78414661389E+03  0.50400001928E-02 0. -1.
        1   -1    0    0  501    0  0.00000000000E+00  0.00000000000E+00 -0.10654315496E+04  0.10654315496E+04  0.50400001928E-02 0.  1.
    10030    2    1    2    0    0  0.00000000000E+00  0.00000000000E+00 -0.28128493574E+03  0.18495781635E+04  0.18280640492E+04 0.  0.
        3    1    3    3  502    0 -0.11818357337E+03 -0.90618307881E+03 -0.15872463121E+03  0.92753902779E+03  0.10100000352E+00 0. -1.
       -3    1    3    3    0  502  0.11818357337E+03  0.90618307881E+03 -0.12256030453E+03  0.92203913571E+03  0.10100000352E+00 0.  1.
</event>
<event>
 5   0  0.9797278E-06  0.3130761E+04  0.7818609E-02  0.8207346E-01
       -2   -1    0    0    0  501  0.00000000000E+00  0.00000000000E+00  0.10659882027E+04  0.10659882027E+04  0.25500000920E-02 0. -1.
        2   -1    0    0  501    0  0.00000000000E+00  0.00000000000E+00 -0.22987276881E+04  0.22987276881E+04  0.25500000920E-02 0.  1.
    10030    2    1    2    0    0  0.00000000000E+00  0.00000000000E+00 -0.12327394854E+04  0.33647158908E+04  0.31307613111E+04 0.  0.
        1    1    3    3  502    0 -0.59628933329E+03  0.13651505676E+04 -0.99583764239E+02  0.14930217572E+04  0.50400001928E-02 0.  1.
       -1    1    3    3    0  502  0.59628933329E+03 -0.13651505676E+04 -0.11331557211E+04  0.18716941336E+04  0.50400001928E-02 0. -1.
</event>
<event>
 5   0  0.4250961E-06  0.3197817E+04  0.7818609E-02  0.8189394E-01
       -1   -1    0    0    0  501  0.00000000000E+00  0.00000000000E+00  0.13536571231E+04  0.13536571231E+04  0.50400001928E-02 0.  1.
        1   -1    0    0  501    0  0.00000000000E+00  0.00000000000E+00 -0.18885933778E+04  0.18885933778E+04  0.50400001928E-02 0. -1.
    10030    2    1    2    0    0  0.00000000000E+00  0.00000000000E+00 -0.53493625465E+03  0.32422505009E+04  0.31978166792E+04 0.  0.
        1    1    3    3  502    0 -0.59818997371E+03  0.59716815857E+03 -0.16435544969E+04  0.18481646135E+04  0.50400001928E-02 0. -1.
       -1    1    3    3    0  502  0.59818997371E+03 -0.59716815857E+03  0.11086182423E+04  0.13940858874E+04  0.50400001928E-02 0.  1.
</event>
<event>
 5   0  0.3838525E-06  0.3162638E+04  0.7818609E-02  0.8198755E-01
       -1   -1    0    0    0  501  0.00000000000E+00  0.00000000000E+00  0.18913252152E+04  0.18913252152E+04  0.50400001928E-02 0.  1.
        1   -1    0    0  501    0  0.00000000000E+00  0.00000000000E+00 -0.13221254622E+04  0.13221254622E+04  0.50400001928E-02 0. -1.
    10030    2    1    2    0    0  0.00000000000E+00  0.00000000000E+00  0.56919975306E+03  0.32134506774E+04  0.31626376488E+04 0.  0.
        3    1    3    3  502    0 -0.46942026343E+02  0.88654217327E+03 -0.10450151250E+04  0.13712101227E+04  0.10100000352E+00 0. -1.
       -3    1    3    3    0  502  0.46942026343E+02 -0.88654217327E+03  0.16142148781E+04  0.18422405548E+04  0.10100000352E+00 0.  1.
</event>
<event>
 5   0  0.9797278E-06  0.3098798E+04  0.7818609E-02  0.8216068E-01
        2   -1    0    0  501    0  0.00000000000E+00  0.00000000000E+00  0.25044211489E+04  0.25044211489E+04  0.25500000920E-02 0. -1.
       -2   -1    0    0    0  501  0.00000000000E+00  0.00000000000E+00 -0.95855989423E+03  0.95855989423E+03  0.25500000920E-02 0.  1.
    10030    2    1    2    0    0  0.00000000000E+00  0.00000000000E+00  0.15458612547E+04  0.34629810431E+04  0.30987982649E+04 0.  0.
        1    1    3    3  502    0  0.82124701613E+03  0.99517069282E+03  0.17315461649E+04  0.21594127652E+04  0.50400001928E-02 0. -1.
       -1    1    3    3    0  502 -0.82124701613E+03 -0.99517069282E+03 -0.18568491020E+03  0.13035682779E+04  0.50400001928E-02 0.  1.
</event>
<event>
 5   0  0.1001961E-05  0.3048130E+04  0.7818609E-02  0.8230119E-01
        2   -1    0    0  501    0  0.00000000000E+00  0.00000000000E+00  0.10712355459E+04  0.10712355459E+04  0.25500000920E-02 0.  1.
       -2   -1    0    0    0  501  0.00000000000E+00  0.00000000000E+00 -0.21683129901E+04  0.21683129901E+04  0.25500000920E-02 0. -1.
    10030    2    1    2    0    0  0.00000000000E+00  0.00000000000E+00 -0.10970774442E+04  0.32395485360E+04  0.30481298854E+04 0.  0.
        5    1    3    3  502    0 -0.48097652812E+03  0.80771135093E+03 -0.18234612793E+04  0.20515284971E+04  0.46999998093E+01 0. -1.
       -5    1    3    3    0  502  0.48097652812E+03 -0.80771135093E+03  0.72638383510E+03  0.11880200389E+04  0.46999998093E+01 0.  1.
</event>
<event>
 5   0  0.9797278E-06  0.3045269E+04  0.7818609E-02  0.8230921E-01
        2   -1    0    0  501    0  0.00000000000E+00  0.00000000000E+00  0.12554118489E+04  0.12554118489E+04  0.25500000920E-02 0.  1.
       -2   -1    0    0    0  501  0.00000000000E+00  0.00000000000E+00 -0.18467367873E+04  0.18467367873E+04  0.25500000920E-02 0. -1.
    10030    2    1    2    0    0  0.00000000000E+00  0.00000000000E+00 -0.59132493841E+03  0.31021486362E+04  0.30452686217E+04 0.  0.
        1    1    3    3  502    0 -0.13913205556E+04 -0.78263936673E+02 -0.92073347543E+03  0.16702240164E+04  0.50400001928E-02 0. -1.
       -1    1    3    3    0  502  0.13913205556E+04  0.78263936673E+02  0.32940853703E+03  0.14319246197E+04  0.50400001928E-02 0.  1.
</event>
<event>
 5   0  0.1001961E-05  0.3157022E+04  0.7818609E-02  0.8200261E-01
       -2   -1    0    0    0  501  0.00000000000E+00  0.00000000000E+00  0.14246806963E+04  0.14246806963E+04  0.25500000920E-02 0. -1.
        2   -1    0    0  501    0  0.00000000000E+00  0.00000000000E+00 -0.17489517065E+04  0.17489517065E+04  0.25500000920E-02 0.  1.
    10030    2    1    2    0    0  0.00000000000E+00  0.00000000000E+00 -0.32427101018E+03  0.31736324028E+04  0.31570224801E+04 0.  0.
        5    1    3    3  502    0  0.10309303486E+04  0.94863624442E+03  0.56897874178E+03  0.15121134238E+04  0.46999998093E+01 0.  1.
       -5    1    3    3    0  502 -0.10309303486E+04 -0.94863624442E+03 -0.89324975197E+03  0.16615189789E+04  0.46999998093E+01 0. -1.
</event>
<event>
 5   0  0.1108153E-05  0.2976065E+04  0.7818609E-02  0.8250599E-01
        2   -1    0    0  501    0  0.00000000000E+00  0.00000000000E+00  0.19836615773E+04  0.19836615773E+04  0.25500000920E-02 0. -1.
       -2   -1    0    0    0  501  0.00000000000E+00  0.00000000000E+00 -0.11162388866E+04  0.11162388866E+04  0.25500000920E-02 0.  1.
    10030    2    1    2    0    0  0.00000000000E+00  0.00000000000E+00  0.86742269071E+03  0.30999004639E+04  0.29760646435E+04 0.  0.
        4    1    3    3  502    0  0.49376064305E+03 -0.89788388878E+03  0.15576103972E+04  0.18644427620E+04  0.12699999809E+01 0. -1.
       -4    1    3    3    0  502 -0.49376064305E+03  0.89788388878E+03 -0.69018770645E+03  0.12354577020E+04  0.12699999809E+01 0.  1.
</event>
<event>
 5   0  0.3838525E-06  0.3080826E+04  0.7818609E-02  0.8221020E-01
        1   -1    0    0  501    0  0.00000000000E+00  0.00000000000E+00  0.14777640351E+04  0.14777640351E+04  0.50400001928E-02 0.  1.
       -1   -1    0    0    0  501  0.00000000000E+00  0.00000000000E+00 -0.16057178441E+04  0.16057178441E+04  0.50400001928E-02 0. -1.
    10030    2    1    2    0    0  0.00000000000E+00  0.00000000000E+00 -0.12795380902E+03  0.30834818792E+04  0.30808259156E+04 0.  0.
        3    1    3    3  502    0  0.13871135631E+04  0.64166815285E+03 -0.25662664851E+03  0.15497352361E+04  0.10100000352E+00 0. -1.
       -3    1    3    3    0  502 -0.13871135631E+04 -0.64166815285E+03  0.12867283949E+03  0.15337466430E+04  0.10100000352E+00 0.  1.
</event>
<event>
 5   0  0.3838525E-06  0.3183031E+04  0.7818609E-02  0.8193313E-01
       -1   -1    0    0    0  501  0.00000000000E+00  0.00000000000E+00  0.16530526872E+04  0.16530526872E+04  0.50400001928E-02 0. -1.
        1   -1    0    0  501    0  0.00000000000E+00  0.00000000000E+00 -0.15322687308E+04  0.15322687308E+04  0.50400001928E-02 0.  1.
    10030    2    1    2    0    0  0.00000000000E+00  0.00000000000E+00  0.12078395644E+03  0.31853214180E+04  0.31830305955E+04 0.  0.
        3    1    3    3  502    0 -0.35055529228E+02 -0.86411973820E+03  0.13973883707E+04  0.16433581718E+04  0.10100000352E+00 0. -1.
       -3    1    3    3    0  502  0.35055529228E+02  0.86411973820E+03 -0.12766044142E+04  0.15419632462E+04  0.10100000352E+00 0.  1.
</event>
<event>
 5   0  0.1007567E-05  0.3055105E+04  0.7818609E-02  0.8228168E-01
        2   -1    0    0  501    0  0.00000000000E+00  0.00000000000E+00  0.18871468398E+04  0.18871468398E+04  0.25500000920E-02 0. -1.
       -2   -1    0    0    0  501  0.00000000000E+00  0.00000000000E+00 -0.12364783971E+04  0.12364783971E+04  0.25500000920E-02 0.  1.
    10030    2    1    2    0    0  0.00000000000E+00  0.00000000000E+00  0.65066844275E+03  0.31236252369E+04  0.30551047769E+04 0.  0.
        3    1    3    3  502    0  0.12322099912E+04  0.46694596601E+03  0.11153452959E+04  0.17263763022E+04  0.10100000352E+00 0. -1.
       -3    1    3    3    0  502 -0.12322099912E+04 -0.46694596601E+03 -0.46467685310E+03  0.13972489347E+04  0.10100000352E+00 0.  1.
</event>
<event>
 5   0  0.1108153E-05  0.2411548E+04  0.7818609E-02  0.8435193E-01
        2   -1    0    0  501    0  0.00000000000E+00  0.00000000000E+00  0.14792018080E+04  0.14792018080E+04  0.25500000920E-02 0. -1.
       -2   -1    0    0    0  501  0.00000000000E+00  0.00000000000E+00 -0.98288907159E+03  0.98288907159E+03  0.25500000920E-02 0.  1.
    10030    2    1    2    0    0  0.00000000000E+00  0.00000000000E+00  0.49631273641E+03  0.24620908796E+04  0.24115482925E+04 0.  0.
        4    1    3    3  502    0 -0.86554943987E+03 -0.21342968589E+03  0.10770600538E+04  0.13981373452E+04  0.12699999809E+01 0. -1.
       -4    1    3    3    0  502  0.86554943987E+03  0.21342968589E+03 -0.58074731742E+03  0.10639535344E+04  0.12699999809E+01 0.  1.
</event>
<event>
 5   0  0.3848286E-06  0.3063623E+04  0.7818609E-02  0.8225793E-01
       -1   -1    0    0    0  501  0.00000000000E+00  0.00000000000E+00  0.18811219779E+04  0.18811219779E+04  0.50400001928E-02 0. -1.
        1   -1    0    0  501    0  0.00000000000E+00  0.00000000000E+00 -0.12473656961E+04  0.12473656961E+04  0.50400001928E-02 0.  1.
    10030    2    1    2    0    0  0.00000000000E+00  0.00000000000E+00  0.63375628185E+03  0.31284876740E+04  0.30636233616E+04 0.  0.
        2    1    3    3  502    0  0.94072901116E+03  0.92324276958E+03 -0.48009360785E+03  0.14027965484E+04  0.25500000920E-02 0.  1.
       -2    1    3    3    0  502 -0.94072901116E+03 -0.92324276958E+03  0.11138498897E+04  0.17256911256E+04  0.25500000920E-02 0. -1.
</event>
<event>
 5   0  0.4250961E-06  0.1919051E+04  0.7818609E-02  0.8645431E-01
       -1   -1    0    0    0  501  0.00000000000E+00  0.00000000000E+00  0.86823021393E+03  0.86823021394E+03  0.50400001928E-02 0. -1.
        1   -1    0    0  501    0  0.00000000000E+00  0.00000000000E+00 -0.10604206126E+04  0.10604206126E+04  0.50400001928E-02 0.  1.
    10030    2    1    2    0    0  0.00000000000E+00  0.00000000000E+00 -0.19219039868E+03  0.19286508266E+04  0.19190510315E+04 0.  0.
        1    1    3    3  502    0  0.10824227494E+03 -0.39770009287E+03  0.77473077429E+03  0.87754744977E+03  0.50400001928E-02 0. -1.
       -1    1    3    3    0  502 -0.10824227494E+03  0.39770009287E+03 -0.96692117297E+03  0.10511033768E+04  0.50400001928E-02 0.  1.
</event>
<event>
 5   0  0.3848286E-06  0.2901736E+04  0.7818609E-02  0.8272361E-01
       -1   -1    0    0    0  501  0.00000000000E+00  0.00000000000E+00  0.23732225564E+04  0.23732225564E+04  0.50400001928E-02 0.  1.
        1   -1    0    0  501    0  0.00000000000E+00  0.00000000000E+00 -0.88698737951E+03  0.88698737953E+03  0.50400001928E-02 0. -1.
    10030    2    1    2    0    0  0.00000000000E+00  0.00000000000E+00  0.14862351768E+04  0.32602099359E+04  0.29017363466E+04 0.  0.
        2    1    3    3  502    0  0.13650667018E+03  0.13433075087E+04  0.13396613878E+04  0.19020519887E+04  0.25500000920E-02 0. -1.
       -2    1    3    3    0  502 -0.13650667018E+03 -0.13433075087E+04  0.14657378905E+03  0.13581579472E+04  0.25500000920E-02 0.  1.
</event>
<event>
 5   0  0.1108153E-05  0.3054243E+04  0.7818609E-02  0.8228409E-01
       -2   -1    0    0    0  501  0.00000000000E+00  0.00000000000E+00  0.15247473346E+04  0.15247473346E+04  0.25500000920E-02 0.  1.
        2   -1    0    0  501    0  0.00000000000E+00  0.00000000000E+00 -0.15294991265E+04  0.15294991266E+04  0.25500000920E-02 0. -1.
    10030    2    1    2    0    0  0.00000000000E+00  0.00000000000E+00 -0.47517919321E+01  0.30542464612E+04  0.30542427648E+04 0.  0.
        4    1    3    3  502    0  0.38219793558E+03 -0.34120945135E+03 -0.14409877135E+04  0.15293614206E+04  0.12699999809E+01 0. -1.
       -4    1    3    3    0  502 -0.38219793558E+03  0.34120945135E+03  0.14362359215E+04  0.15248850405E+04  0.12699999809E+01 0.  1.
</event>
<event>
 5   0  0.1108153E-05  0.2318930E+04  0.7818609E-02  0.8470494E-01
        2   -1    0    0  501    0  0.00000000000E+00  0.00000000000E+00  0.12389577625E+04  0.12389577625E+04  0.25500000920E-02 0.  1.
       -2   -1    0    0    0  501  0.00000000000E+00  0.00000000000E+00 -0.10850728477E+04  0.10850728477E+04  0.25500000920E-02 0. -1.
    10030    2    1    2    0    0  0.00000000000E+00  0.00000000000E+00  0.15388491485E+03  0.23240306102E+04  0.23189302944E+04 0.  0.
        4    1    3    3  502    0  0.82088418102E+03 -0.75953973145E+03  0.38356696035E+03  0.11823183447E+04  0.12699999809E+01 0. -1.
       -4    1    3    3    0  502 -0.82088418102E+03  0.75953973145E+03 -0.22968204550E+03  0.11417122655E+04  0.12699999809E+01 0.  1.
</event>
<event>
 5   0  0.1001961E-05  0.3006672E+04  0.7818609E-02  0.8241828E-01
        2   -1    0    0  501    0  0.00000000000E+00  0.00000000000E+00  0.18489250623E+04  0.18489250623E+04  0.25500000920E-02 0.  1.
       -2   -1    0    0    0  501  0.00000000000E+00  0.00000000000E+00 -0.12223418495E+04  0.12223418495E+04  0.25500000920E-02 0. -1.
    10030    2    1    2    0    0  0.00000000000E+00  0.00000000000E+00  0.62658321284E+03  0.30712669118E+04  0.30066715685E+04 0.  0.
        5    1    3    3  502    0 -0.39322203169E+03 -0.14460955849E+04  0.19165184607E+03  0.15108171719E+04  0.46999998093E+01 0.  1.
       -5    1    3    3    0  502  0.39322203169E+03  0.14460955849E+04  0.43493136677E+03  0.15604497399E+04  0.46999998093E+01 0. -1.
</event>
<event>
 5   0  0.3838525E-06  0.3084567E+04  0.7818609E-02  0.8219986E-01
       -1   -1    0    0    0  501  0.00000000000E+00  0.00000000000E+00  0.10885354833E+04  0.10885354833E+04  0.50400001928E-02 0. -1.
        1   -1    0    0  501    0  0.00000000000E+00  0.00000000000E+00 -0.21851727090E+04  0.21851727090E+04  0.50400001928E-02 0.  1.
    10030    2    1    2    0    0  0.00000000000E+00  0.00000000000E+00 -0.10966372257E+04  0.32737081922E+04  0.30845667642E+04 0.  0.
        3    1    3    3  502    0 -0.45772847811E+03  0.37467285645E+03 -0.20599966317E+04  0.21432408268E+04  0.10100000352E+00 0.  1.
       -3    1    3    3    0  502  0.45772847811E+03 -0.37467285645E+03  0.96335940596E+03  0.11304673654E+04  0.10100000352E+00 0. -1.
</event>
<event>
 5   0  0.3848286E-06  0.1946614E+04  0.7818609E-02  0.8631995E-01
        1   -1    0    0  501    0  0.00000000000E+00  0.00000000000E+00  0.14937759797E+04  0.14937759797E+04  0.50400001928E-02 0. -1.
       -1   -1    0    0    0  501  0.00000000000E+00  0.00000000000E+00 -0.63418231381E+03  0.63418231383E+03  0.50400001928E-02 0.  1.
    10030    2    1    2    0    0  0.00000000000E+00  0.00000000000E+00  0.85959366584E+03  0.21279582935E+04  0.19466137851E+04 0.  0.
        2    1    3    3  502    0 -0.52366557028E+02 -0.96346234353E+03  0.29012737594E+03  0.10075593471E+04  0.25500000920E-02 0.  1.
       -2    1    3    3    0  502  0.52366557028E+02  0.96346234353E+03  0.56946628990E+03  0.11203989464E+04  0.25500000920E-02 0. -1.
</event>
<event>
 5   0  0.9797278E-06  0.3663231E+04  0.7818609E-02  0.8076160E-01
        2   -1    0    0  501    0  0.00000000000E+00  0.00000000000E+00  0.12144990913E+04  0.12144990913E+04  0.25500000920E-02 0. -1.
       -2   -1    0    0    0  501  0.00000000000E+00  0.00000000000E+00 -0.27623032406E+04  0.27623032406E+04  0.25500000920E-02 0.  1.
    10030    2    1    2    0    0  0.00000000000E+00  0.00000000000E+00 -0.15478041493E+04  0.39768023319E+04  0.36632306920E+04 0.  0.
        1    1    3    3  502    0 -0.39836031712E+02  0.72317493009E+03 -0.26002428673E+04  0.26992280115E+04  0.50400001928E-02 0.  1.
       -1    1    3    3    0  502  0.39836031712E+02 -0.72317493009E+03  0.10524387181E+04  0.12775743204E+04  0.50400001928E-02 0. -1.
</event>
<event>
 5   0  0.3807334E-06  0.1829023E+04  0.7818609E-02  0.8691016E-01
        1   -1    0    0  501    0  0.00000000000E+00  0.00000000000E+00  0.14143075408E+04  0.14143075408E+04  0.50400001928E-02 0. -1.
       -1   -1    0    0    0  501  0.00000000000E+00  0.00000000000E+00 -0.59133604773E+03  0.59133604775E+03  0.50400001928E-02 0.  1.
    10030    2    1    2    0    0  0.00000000000E+00  0.00000000000E+00  0.82297149304E+03  0.20056435885E+04  0.18290227243E+04 0.  0.
        4    1    3    3  502    0  0.65542323484E+03  0.37263975273E+03  0.97904660426E+03  0.12357078410E+04  0.12699999809E+01 0. -1.
       -4    1    3    3    0  502 -0.65542323484E+03 -0.37263975273E+03 -0.15607511122E+03  0.76993574753E+03  0.12699999809E+01 0.  1.
</event>
<event>
 5   0  0.9797278E-06  0.3320211E+04  0.7818609E-02  0.8157772E-01
       -2   -1    0    0    0  501  0.00000000000E+00  0.00000000000E+00  0.15642719230E+04  0.15642719230E+04  0.25500000920E-02 0. -1.
        2   -1    0    0  501    0  0.00000000000E+00  0.00000000000E+00 -0.17618107044E+04  0.17618107044E+04  0.25500000920E-02 0.  1.
    10030    2    1    2    0    0  0.00000000000E+00  0.00000000000E+00 -0.19753878137E+03  0.33260826273E+04  0.33202114502E+04 0.  0.
        1    1    3    3  502    0 -0.92806093236E+03  0.88819266035E+03  0.95464499578E+03  0.16004781673E+04  0.50400001928E-02 0. -1.
       -1    1    3    3    0  502  0.92806093236E+03 -0.88819266035E+03 -0.11521837772E+04  0.17256044600E+04  0.50400001928E-02 0.  1.
</event>
<event>
 5   0  0.3493125E-06  0.3070689E+04  0.7818609E-02  0.8223828E-01
        3   -1    0    0  501    0  0.00000000000E+00  0.00000000000E+00  0.18218109339E+04  0.18218109367E+04  0.10100000352E+00 0.  1.
       -3   -1    0    0    0  501  0.00000000000E+00  0.00000000000E+00 -0.12939226075E+04  0.12939226115E+04  0.10100000352E+00 0. -1.
    10030    2    1    2    0    0  0.00000000000E+00  0.00000000000E+00  0.52788832638E+03  0.31157335482E+04  0.30706887596E+04 0.  0.
        5    1    3    3  502    0  0.13257020145E+04 -0.55374895081E+02 -0.51985620815E+03  0.14250700956E+04  0.46999998093E+01 0. -1.
       -5    1    3    3    0  502 -0.13257020145E+04  0.55374895081E+02  0.10477445345E+04  0.16906634526E+04  0.46999998093E+01 0.  1.
</event>
<event>
 5   0  0.1119100E-05  0.3073989E+04  0.7818609E-02  0.8222913E-01
        2   -1    0    0  501    0  0.00000000000E+00  0.00000000000E+00  0.20149383737E+04  0.20149383737E+04  0.25500000920E-02 0. -1.
       -2   -1    0    0    0  501  0.00000000000E+00  0.00000000000E+00 -0.11724187848E+04  0.11724187848E+04  0.25500000920E-02 0.  1.
    10030    2    1    2    0    0  0.00000000000E+00  0.00000000000E+00  0.84251958888E+03  0.31873571584E+04  0.30739886789E+04 0.  0.
        2    1    3    3  502    0 -0.12016183472E+04  0.53517164617E+03  0.12455997195E+04  0.18115777666E+04  0.25500000920E-02 0.  1.
       -2    1    3    3    0  502  0.12016183472E+04 -0.53517164617E+03 -0.40308013064E+03  0.13757793918E+04  0.25500000920E-02 0. -1.
</event>
<event>
 5   0  0.3807334E-06  0.1578246E+04  0.7818609E-02  0.8834025E-01
        1   -1    0    0  501    0  0.00000000000E+00  0.00000000000E+00  0.75735893942E+03  0.75735893944E+03  0.50400001928E-02 0.  1.
       -1   -1    0    0    0  501  0.00000000000E+00  0.00000000000E+00 -0.82221934849E+03  0.82221934850E+03  0.50400001928E-02 0. -1.
    10030    2    1    2    0    0  0.00000000000E+00  0.00000000000E+00 -0.64860409067E+02  0.15795782879E+04  0.15782460819E+04 0.  0.
        4    1    3    3  502    0  0.14721889060E+03  0.14879734739E+03  0.72906649631E+03  0.75852067954E+03  0.12699999809E+01 0.  1.
       -4    1    3    3    0  502 -0.14721889060E+03 -0.14879734739E+03 -0.79392690538E+03  0.82105760841E+03  0.12699999809E+01 0. -1.
</event>
<event>
 5   0  0.1108153E-05  0.3286159E+04  0.7818609E-02  0.8166426E-01
        2   -1    0    0  501    0  0.00000000000E+00  0.00000000000E+00  0.17813314624E+04  0.17813314624E+04  0.25500000920E-02 0.  1.
       -2   -1    0    0    0  501  0.00000000000E+00  0.00000000000E+00 -0.15155572904E+04  0.15155572904E+04  0.25500000920E-02 0. -1.
    10030    2    1    2    0    0  0.00000000000E+00  0.00000000000E+00  0.26577417199E+03  0.32968887529E+04  0.32861587817E+04 0.  0.
        4    1    3    3  502    0  0.36575958369E+03 -0.20810632156E+03 -0.14605747361E+04  0.15199896338E+04  0.12699999809E+01 0. -1.
       -4    1    3    3    0  502 -0.36575958369E+03  0.20810632156E+03  0.17263489081E+04  0.17768991191E+04  0.12699999809E+01 0.  1.
</event>
<event>
 5   0  0.3838525E-06  0.3128976E+04  0.7818609E-02  0.8207831E-01
       -1   -1    0    0    0  501  0.00000000000E+00  0.00000000000E+00  0.89885771567E+03  0.89885771569E+03  0.50400001928E-02 0. -1.
        1   -1    0    0  501    0  0.00000000000E+00  0.00000000000E+00 -0.27230360440E+04  0.27230360440E+04  0.50400001928E-02 0.  1.
    10030    2    1    2    0    0  0.00000000000E+00  0.00000000000E+00 -0.18241783283E+04  0.36218937597E+04  0.31289755245E+04 0.  0.
        3    1    3    3  502    0  0.39772368350E+03 -0.36221198928E+03  0.78843747386E+03  0.95447122218E+03  0.10100000352E+00 0. -1.
       -3    1    3    3    0  502 -0.39772368350E+03  0.36221198928E+03 -0.26126158022E+04  0.26674225375E+04  0.10100000352E+00 0.  1.
</event>
<event>
 5   0  0.1001961E-05  0.1856918E+04  0.7818609E-02  0.8676603E-01
        2   -1    0    0  501    0  0.00000000000E+00  0.00000000000E+00  0.15158639660E+04  0.15158639660E+04  0.25500000920E-02 0.  1.
       -2   -1    0    0    0  501  0.00000000000E+00  0.00000000000E+00 -0.56867617832E+03  0.56867617832E+03  0.25500000920E-02 0. -1.
    10030    2    1    2    0    0  0.00000000000E+00  0.00000000000E+00  0.94718778772E+03  0.20845401444E+04  0.18569175825E+04 0.  0.
        5    1    3    3  502    0 -0.27509306278E+03  0.74504926164E+03  0.10134129546E+04  0.12875567956E+04  0.46999998093E+01 0.  1.
       -5    1    3    3    0  502  0.27509306278E+03 -0.74504926164E+03 -0.66225166847E+02  0.79698334875E+03  0.46999998093E+01 0. -1.
</event>
<event>
 5   0  0.1001961E-05  0.3184249E+04  0.7818609E-02  0.8192989E-01
        2   -1    0    0  501    0  0.00000000000E+00  0.00000000000E+00  0.17904492089E+04  0.17904492089E+04  0.25500000920E-02 0. -1.
       -2   -1    0    0    0  501  0.00000000000E+00  0.00000000000E+00 -0.14157678999E+04  0.14157678999E+04  0.25500000920E-02 0.  1.
    10030    2    1    2    0    0  0.00000000000E+00  0.00000000000E+00  0.37468130897E+03  0.32062171088E+04  0.31842490584E+04 0.  0.
        5    1    3    3  502    0  0.11777862535E+04  0.72593624337E+03  0.98060486917E+03  0.16958100978E+04  0.46999998093E+01 0. -1.
       -5    1    3    3    0  502 -0.11777862535E+04 -0.72593624337E+03 -0.60592356020E+03  0.15104070111E+04  0.46999998093E+01 0.  1.
</event>
<event>
 5   0  0.9797278E-06  0.1557650E+04  0.7818609E-02  0.8846996E-01
       -2   -1    0    0    0  501  0.00000000000E+00  0.00000000000E+00  0.39411179344E+03  0.39411179345E+03  0.25500000920E-02 0. -1.
        2   -1    0    0  501    0  0.00000000000E+00  0.00000000000E+00 -0.15390778332E+04  0.15390778332E+04  0.25500000920E-02 0.  1.
    10030    2    1    2    0    0  0.00000000000E+00  0.00000000000E+00 -0.11449660398E+04  0.19331896267E+04  0.15576504423E+04 0.  0.
        1    1    3    3  502    0  0.10446338933E+03 -0.95783976293E+02  0.37797213928E+03  0.40367079151E+03  0.50400001928E-02 0. -1.
       -1    1    3    3    0  502 -0.10446338933E+03  0.95783976293E+02 -0.15229381791E+04  0.15295188352E+04  0.50400001928E-02 0.  1.
</event>
<event>
 5   0  0.3848286E-06  0.3084473E+04  0.7818609E-02  0.8220012E-01
       -1   -1    0    0    0  501  0.00000000000E+00  0.00000000000E+00  0.12774176122E+04  0.12774176122E+04  0.50400001928E-02 0.  1.
        1   -1    0    0  501    0  0.00000000000E+00  0.00000000000E+00 -0.18619541266E+04  0.18619541266E+04  0.50400001928E-02 0. -1.
    10030    2    1    2    0    0  0.00000000000E+00  0.00000000000E+00 -0.58453651439E+03  0.31393717389E+04  0.30844727229E+04 0.  0.
        2    1    3    3  502    0  0.12841655622E+03  0.70298249815E+03 -0.16832744521E+04  0.18286847967E+04  0.25500000920E-02 0. -1.
       -2    1    3    3    0  502 -0.12841655622E+03 -0.70298249815E+03  0.10987379377E+04  0.13106869422E+04  0.25500000920E-02 0.  1.
</event>
<event>
 5   0  0.3838525E-06  0.3047075E+04  0.7818609E-02  0.8230415E-01
        1   -1    0    0  501    0  0.00000000000E+00  0.00000000000E+00  0.22584493503E+04  0.22584493503E+04  0.50400001928E-02 0. -1.
       -1   -1    0    0    0  501  0.00000000000E+00  0.00000000000E+00 -0.10277702061E+04  0.10277702061E+04  0.50400001928E-02 0.  1.
    10030    2    1    2    0    0  0.00000000000E+00  0.00000000000E+00  0.12306791442E+04  0.32862195564E+04  0.30470752891E+04 0.  0.
        3    1    3    3  502    0 -0.50070461504E+03  0.90333590437E+03  0.18232629578E+04  0.20954733811E+04  0.10100000352E+00 0. -1.
       -3    1    3    3    0  502  0.50070461504E+03 -0.90333590437E+03 -0.59258381362E+03  0.11907461753E+04  0.10100000352E+00 0.  1.
</event>
<event>
 5   0  0.3838525E-06  0.3102265E+04  0.7818609E-02  0.8215116E-01
       -1   -1    0    0    0  501  0.00000000000E+00  0.00000000000E+00  0.21265012460E+04  0.21265012460E+04  0.50400001928E-02 0.  1.
        1   -1    0    0  501    0  0.00000000000E+00  0.00000000000E+00 -0.11314418497E+04  0.11314418497E+04  0.50400001928E-02 0. -1.
    10030    2    1    2    0    0  0.00000000000E+00  0.00000000000E+00  0.99505939631E+03  0.32579430956E+04  0.31022653033E+04 0.  0.
        3    1    3    3  502    0 -0.14492021655E+04 -0.36233719736E+03  0.93627120757E+03  0.17629744597E+04  0.10100000352E+00 0.  1.
       -3    1    3    3    0  502  0.14492021655E+04  0.36233719736E+03  0.58788188737E+02  0.14949686360E+04  0.10100000352E+00 0. -1.
</event>
<event>
 5   0  0.1108153E-05  0.1812530E+04  0.7818609E-02  0.8699664E-01
       -2   -1    0    0    0  501  0.00000000000E+00  0.00000000000E+00  0.89860790389E+03  0.89860790389E+03  0.25500000920E-02 0. -1.
        2   -1    0    0  501    0  0.00000000000E+00  0.00000000000E+00 -0.91398784428E+03  0.91398784428E+03  0.25500000920E-02 0.  1.
    10030    2    1    2    0    0  0.00000000000E+00  0.00000000000E+00 -0.15379940389E+02  0.18125957482E+04  0.18125304973E+04 0.  0.
        4    1    3    3  502    0 -0.85681240132E+03 -0.21981328604E+03  0.18947116927E+03  0.90462495470E+03  0.12699999809E+01 0. -1.
       -4    1    3    3    0  502  0.85681240132E+03  0.21981328604E+03 -0.20485110966E+03  0.90797079348E+03  0.12699999809E+01 0.  1.
</event>
<event>
 5   0  0.4139628E-06  0.3149289E+04  0.7818609E-02  0.8202340E-01
        1   -1    0    0  501    0  0.00000000000E+00  0.00000000000E+00  0.14269362604E+04  0.14269362604E+04  0.50400001928E-02 0.  1.
       -1   -1    0    0    0  501  0.00000000000E+00  0.00000000000E+00 -0.17376430696E+04  0.17376430696E+04  0.50400001928E-02 0. -1.
    10030    2    1    2    0    0  0.00000000000E+00  0.00000000000E+00 -0.31070680919E+03  0.31645793300E+04  0.31492893825E+04 0.  0.
        5    1    3    3  502    0 -0.15017066120E+04  0.41333904772E+03 -0.38780289085E+03  0.16051121734E+04  0.46999998093E+01 0.  1.
       -5    1    3    3    0  502  0.15017066120E+04 -0.41333904772E+03  0.77096081663E+02  0.15594671567E+04  0.46999998093E+01 0. -1.
</event>
<event>
 5   0  0.3807334E-06  0.3115009E+04  0.7818609E-02  0.8211631E-01
       -1   -1    0    0    0  501  0.00000000000E+00  0.00000000000E+00  0.94933127481E+03  0.94933127482E+03  0.50400001928E-02 0.  1.
        1   -1    0    0  501    0  0.00000000000E+00  0.00000000000E+00 -0.25552931658E+04  0.25552931658E+04  0.50400001928E-02 0. -1.
    10030    2    1    2    0    0  0.00000000000E+00  0.00000000000E+00 -0.16059618910E+04  0.35046244406E+04  0.31150086476E+04 0.  0.
        4    1    3    3  502    0 -0.11499911703E+04  0.93168094358E+03 -0.13487407274E+04  0.20024016168E+04  0.12699999809E+01 0. -1.
       -4    1    3    3    0  502  0.11499911703E+04 -0.93168094358E+03 -0.25722116354E+03  0.15022228238E+04  0.12699999809E+01 0.  1.
</event>
<event>
 5   0  0.3848286E-06  0.2997193E+04  0.7818609E-02  0.8244533E-01
        1   -1    0    0  501    0  0.00000000000E+00  0.00000000000E+00  0.22760111048E+04  0.22760111048E+04  0.50400001928E-02 0. -1.
       -1   -1    0    0    0  501  0.00000000000E+00  0.00000000000E+00 -0.98672236926E+03  0.98672236927E+03  0.50400001928E-02 0.  1.
    10030    2    1    2    0    0  0.00000000000E+00  0.00000000000E+00  0.12892887356E+04  0.32627334741E+04  0.29971927331E+04 0.  0.
        2    1    3    3  502    0 -0.38582496417E+03  0.11356654702E+04  0.16226827957E+04  0.20178444981E+04  0.25500000920E-02 0. -1.
       -2    1    3    3    0  502  0.38582496417E+03 -0.11356654702E+04 -0.33339406014E+03  0.12448889760E+04  0.25500000920E-02 0.  1.
</event>
<event>
 5   0  0.1007567E-05  0.3163931E+04  0.7818609E-02  0.8198408E-01
        2   -1    0    0  501    0  0.00000000000E+00  0.00000000000E+00  0.18714247341E+04  0.18714247341E+04  0.25500000920E-02 0.  1.
       -2   -1    0    0    0  501  0.00000000000E+00  0.00000000000E+00 -0.13372779419E+04  0.13372779419E+04  0.25500000920E-02 0. -1.
    10030    2    1    2    0    0  0.00000000000E+00  0.00000000000E+00  0.53414679221E+03  0.32087026760E+04  0.31639311098E+04 0.  0.
        3    1    3    3  502    0  0.55960465491E+03  0.14796648565E+04  0.25993465894E+03  0.16031629656E+04  0.10100000352E+00 0. -1.
       -3    1    3    3    0  502 -0.55960465491E+03 -0.14796648565E+04  0.27421213328E+03  0.16055397104E+04  0.10100000352E+00 0.  1.
</event>
<event>
 5   0  0.1108153E-05  0.3100197E+04  0.7818609E-02  0.8215684E-01
       -2   -1    0    0    0  501  0.00000000000E+00  0.00000000000E+00  0.91287204996E+03  0.91287204996E+03  0.25500000920E-02 0. -1.
        2   -1    0    0  501    0  0.00000000000E+00  0.00000000000E+00 -0.26321389378E+04  0.26321389378E+04  0.25500000920E-02 0.  1.
    10030    2    1    2    0    0  0.00000000000E+00  0.00000000000E+00 -0.17192668878E+04  0.35450109877E+04  0.31001974569E+04 0.  0.
        4    1    3    3  502    0  0.11297082511E+04 -0.91437563113E+03 -0.24334071877E+03  0.14736145513E+04  0.12699999809E+01 0. -1.
       -4    1    3    3    0  502 -0.11297082511E+04  0.91437563113E+03 -0.14759261690E+04  0.20713964364E+04  0.12699999809E+01 0.  1.
</event>
<event>
 5   0  0.9797278E-06  0.3324967E+04  0.7818609E-02  0.8156571E-01
        2   -1    0    0  501    0  0.00000000000E+00  0.00000000000E+00  0.22654110165E+04  0.22654110166E+04  0.25500000920E-02 0. -1.
       -2   -1    0    0    0  501  0.00000000000E+00  0.00000000000E+00 -0.12200221794E+04  0.12200221794E+04  0.25500000920E-02 0.  1.
    10030    2    1    2    0    0  0.00000000000E+00  0.00000000000E+00  0.10453888371E+04  0.34854331960E+04  0.33249671792E+04 0.  0.
        1    1    3    3  502    0  0.15076670013E+04 -0.10742762623E+03  0.12483841984E+04  0.19603733288E+04  0.50400001928E-02 0. -1.
       -1    1    3    3    0  502 -0.15076670013E+04  0.10742762623E+03 -0.20299536125E+03  0.15250598671E+04  0.50400001928E-02 0.  1.
</event>
<event>
 5   0  0.1007567E-05  0.2520588E+04  0.7818609E-02  0.8395687E-01
       -2   -1    0    0    0  501  0.00000000000E+00  0.00000000000E+00  0.16635211357E+04  0.16635211357E+04  0.25500000920E-02 0. -1.
        2   -1    0    0  501    0  0.00000000000E+00  0.00000000000E+00 -0.95480675657E+03  0.95480675657E+03  0.25500000920E-02 0.  1.
    10030    2    1    2    0    0  0.00000000000E+00  0.00000000000E+00  0.70871437913E+03  0.26183278923E+04  0.25205882013E+04 0.  0.
        3    1    3    3  502    0 -0.13887160775E+03 -0.81702717687E+03 -0.63194594448E+03  0.10421969191E+04  0.10100000352E+00 0.  1.
       -3    1    3    3    0  502  0.13887160775E+03  0.81702717687E+03  0.13406603236E+04  0.15761309732E+04  0.10100000352E+00 0. -1.
</event>
<event>
 5   0  0.4139628E-06  0.3098817E+04  0.7818609E-02  0.8216063E-01
       -1   -1    0    0    0  501  0.00000000000E+00  0.00000000000E+00  0.14633790298E+04  0.14633790298E+04  0.50400001928E-02 0.  1.
        1   -1    0    0  501    0  0.00000000000E+00  0.00000000000E+00 -0.16404956412E+04  0.16404956412E+04  0.50400001928E-02 0. -1.
    10030    2    1    2    0    0  0.00000000000E+00  0.00000000000E+00 -0.17711661139E+03  0.31038746711E+04  0.30988171420E+04 0.  0.
        5    1    3    3  502    0 -0.12272432348E+03 -0.12645607277E+04 -0.97683697834E+03  0.16026252418E+04  0.46999998093E+01 0. -1.
       -5    1    3    3    0  502  0.12272432348E+03  0.12645607277E+04  0.79972036695E+03  0.15012494292E+04  0.46999998093E+01 0.  1.
</event>
<event>
 5   0  0.3807334E-06  0.3083084E+04  0.7818609E-02  0.8220396E-01
        1   -1    0    0  501    0  0.00000000000E+00  0.00000000000E+00  0.15303523507E+04  0.15303523507E+04  0.50400001928E-02 0.  1.
       -1   -1    0    0    0  501  0.00000000000E+00  0.00000000000E+00 -0.15528138225E+04  0.15528138225E+04  0.50400001928E-02 0. -1.
    10030    2    1    2    0    0  0.00000000000E+00  0.00000000000E+00 -0.22461471763E+02  0.30831661732E+04  0.30830843540E+04 0.  0.
        4    1    3    3  502    0 -0.11748566613E+04 -0.32221285602E+03  0.93337962237E+03  0.15347014144E+04  0.12699999809E+01 0.  1.
       -4    1    3    3    0  502  0.11748566613E+04  0.32221285602E+03 -0.95584109413E+03  0.15484647588E+04  0.12699999809E+01 0. -1.
</event>
<event>
 5   0  0.4139628E-06  0.3007953E+04  0.7818609E-02  0.8241464E-01
        1   -1    0    0  501    0  0.00000000000E+00  0.00000000000E+00  0.24582395827E+04  0.24582395827E+04  0.50400001928E-02 0. -1.
       -1   -1    0    0    0  501  0.00000000000E+00  0.00000000000E+00 -0.92014817739E+03  0.92014817741E+03  0.50400001928E-02 0.  1.
    10030    2    1    2    0    0  0.00000000000E+00  0.00000000000E+00  0.15380914053E+04  0.33783877601E+04  0.30079525738E+04 0.  0.
        5    1    3    3  502    0 -0.18788778771E+03 -0.14755484045E+04  0.10186222619E+04  0.18028195465E+04  0.46999998093E+01 0.  1.
       -5    1    3    3    0  502  0.18788778771E+03  0.14755484045E+04  0.51946914339E+03  0.15755682136E+04  0.46999998093E+01 0. -1.
</event>
<event>
 5   0  0.4250961E-06  0.3142568E+04  0.7818609E-02  0.8204152E-01
       -1   -1    0    0    0  501  0.00000000000E+00  0.00000000000E+00  0.18558080319E+04  0.18558080319E+04  0.50400001928E-02 0. -1.
        1   -1    0    0  501    0  0.00000000000E+00  0.00000000000E+00 -0.13303815558E+04  0.13303815559E+04  0.50400001928E-02 0.  1.
    10030    2    1    2    0    0  0.00000000000E+00  0.00000000000E+00  0.52542647602E+03  0.31861895877E+04  0.31425675979E+04 0.  0.
        1    1    3    3  502    0 -0.13416498805E+04  0.10795244503E+03 -0.55925269388E+03  0.14575464685E+04  0.50400001928E-02 0.  1.
       -1    1    3    3    0  502  0.13416498805E+04 -0.10795244503E+03  0.10846791699E+04  0.17286431193E+04  0.50400001928E-02 0. -1.
</event>
<event>
 5   0  0.1108153E-05  0.3071888E+04  0.7818609E-02  0.8223495E-01
        2   -1    0    0  501    0  0.00000000000E+00  0.00000000000E+00  0.14959345742E+04  0.14959345742E+04  0.25500000920E-02 0. -1.
       -2   -1    0    0    0  501  0.00000000000E+00  0.00000000000E+00 -0.15770239148E+04  0.15770239148E+04  0.25500000920E-02 0.  1.
    10030    2    1    2    0    0  0.00000000000E+00  0.00000000000E+00 -0.81089340578E+02  0.30729584890E+04  0.30718884085E+04 0.  0.
        4    1    3    3  502    0 -0.14074057050E+04  0.60704811629E+03 -0.13969908426E+03  0.15390957348E+04  0.12699999809E+01 0. -1.
       -4    1    3    3    0  502  0.14074057050E+04 -0.60704811629E+03  0.58609743684E+02  0.15338627542E+04  0.12699999809E+01 0.  1.
</event>
<event>
 5   0  0.9797278E-06  0.3118876E+04  0.7818609E-02  0.8210577E-01
        2   -1    0    0  501    0  0.00000000000E+00  0.00000000000E+00  0.15945745937E+04  0.15945745937E+04  0.25500000920E-02 0.  1.
       -2   -1    0    0    0  501  0.00000000000E+00  0.00000000000E+00 -0.15250756584E+04  0.15250756584E+04  0.25500000920E-02 0. -1.
    10030    2    1    2    0    0  0.00000000000E+00  0.00000000000E+00  0.69498935278E+02  0.31196502521E+04  0.31188760145E+04 0.  0.
        1    1    3    3  502    0  0.99072101082E+03 -0.70837660038E+03  0.10089118536E+04  0.15815273180E+04  0.50400001928E-02 0.  1.
       -1    1    3    3    0  502 -0.99072101082E+03  0.70837660038E+03 -0.93941291836E+03  0.15381229341E+04  0.50400001928E-02 0. -1.
</event>
<event>
 5   0  0.1108153E-05  0.3173023E+04  0.7818609E-02  0.8195978E-01
       -2   -1    0    0    0  501  0.00000000000E+00  0.00000000000E+00  0.21295023624E+04  0.21295023624E+04  0.25500000920E-02 0. -1.
        2   -1    0    0  501    0  0.00000000000E+00  0.00000000000E+00 -0.11819750971E+04  0.11819750971E+04  0.25500000920E-02 0.  1.
    10030    2    1    2    0    0  0.00000000000E+00  0.00000000000E+00  0.94752726533E+03  0.33114774594E+04  0.31730230138E+04 0.  0.
        4    1    3    3  502    0  0.10464771551E+01 -0.26986090890E+03 -0.11578456379E+04  0.11888793628E+04  0.12699999809E+01 0.  1.
       -4    1    3    3    0  502 -0.10464771551E+01  0.26986090890E+03  0.21053729032E+04  0.21225980966E+04  0.12699999809E+01 0. -1.
</event>
<event>
 5   0  0.3838525E-06  0.3149718E+04  0.7818609E-02  0.8202224E-01
        1   -1    0    0  501    0  0.00000000000E+00  0.00000000000E+00  0.13844457210E+04  0.13844457210E+04  0.50400001928E-02 0.  1.
       -1   -1    0    0    0  501  0.00000000000E+00  0.00000000000E+00 -0.17914610491E+04  0.17914610491E+04  0.50400001928E-02 0. -1.
    10030    2    1    2    0    0  0.00000000000E+00  0.00000000000E+00 -0.40701532813E+03  0.31759067701E+04  0.31497178183E+04 0.  0.
        3    1    3    3  502    0  0.37063812046E+02 -0.15341684269E+04 -0.56019189516E+03  0.16336650384E+04  0.10100000352E+00 0.  1.
       -3    1    3    3    0  502 -0.37063812046E+02  0.15341684269E+04  0.15317656703E+03  0.15422417317E+04  0.10100000352E+00 0. -1.
</event>
<event>
 5   0  0.1007567E-05  0.1639728E+04  0.7818609E-02  0.8796507E-01
        2   -1    0    0  501    0  0.00000000000E+00  0.00000000000E+00  0.16765316052E+04  0.16765316052E+04  0.25500000920E-02 0.  1.
       -2   -1    0    0    0  501  0.00000000000E+00  0.00000000000E+00 -0.40093286132E+03  0.40093286133E+03  0.25500000920E-02 0. -1.
    10030    2    1    2    0    0  0.00000000000E+00  0.00000000000E+00  0.12755987439E+04  0.20774644665E+04  0.16397275549E+04 0.  0.
        3    1    3    3  502    0 -0.22132990918E+02 -0.32637842809E+03 -0.31466578892E+03  0.45390232047E+03  0.10100000352E+00 0. -1.
       -3    1    3    3    0  502  0.22132990918E+02  0.32637842809E+03  0.15902645328E+04  0.16235621460E+04  0.10100000352E+00 0.  1.
</event>
<event>
 5   0  0.1001961E-05  0.3186735E+04  0.7818609E-02  0.8192329E-01
       -2   -1    0    0    0  501  0.00000000000E+00  0.00000000000E+00  0.10215680628E+04  0.10215680628E+04  0.25500000920E-02 0.  1.
        2   -1    0    0  501    0  0.00000000000E+00  0.00000000000E+00 -0.24852185754E+04  0.24852185754E+04  0.25500000920E-02 0. -1.
    10030    2    1    2    0    0  0.00000000000E+00  0.00000000000E+00 -0.14636505127E+04  0.35067866382E+04  0.31867349596E+04 0.  0.
        5    1    3    3  502    0 -0.38796150554E+03  0.15163513862E+03 -0.24242354841E+04  0.24597656631E+04  0.46999998093E+01 0. -1.
       -5    1    3    3    0  502  0.38796150554E+03 -0.15163513862E+03  0.96058497142E+03  0.10470209751E+04  0.46999998093E+01 0.  1.
</event>
<event>
 5   0  0.9797278E-06  0.3107636E+04  0.7818609E-02  0.8213645E-01
       -2   -1    0    0    0  501  0.00000000000E+00  0.00000000000E+00  0.10802652008E+04  0.10802652008E+04  0.25500000920E-02 0. -1.
        2   -1    0    0  501    0  0.00000000000E+00  0.00000000000E+00 -0.22349611397E+04  0.22349611397E+04  0.25500000920E-02 0.  1.
    10030    2    1    2    0    0  0.00000000000E+00  0.00000000000E+00 -0.11546959389E+04  0.33152263405E+04  0.31076362363E+04 0.  0.
        1    1    3    3  502    0 -0.46723608197E+03 -0.11568877740E+04 -0.15653060689E+04  0.20017197524E+04  0.50400001928E-02 0.  1.
       -1    1    3    3    0  502  0.46723608197E+03  0.11568877740E+04  0.41061013004E+03  0.13135065880E+04  0.50400001928E-02 0. -1.
</event>
<event>
 5   0  0.3838525E-06  0.3089503E+04  0.7818609E-02  0.8218625E-01
       -1   -1    0    0    0  501  0.00000000000E+00  0.00000000000E+00  0.15754086492E+04  0.15754086492E+04  0.50400001928E-02 0. -1.
        1   -1    0    0  501    0  0.00000000000E+00  0.00000000000E+00 -0.15146905546E+04  0.15146905546E+04  0.50400001928E-02 0.  1.
    10030    2    1    2    0    0  0.00000000000E+00  0.00000000000E+00  0.60718094551E+02  0.30900992038E+04  0.30895026141E+04 0.  0.
        3    1    3    3  502    0 -0.99472199267E+03  0.11379704359E+03  0.12069513621E+04  0.15681687443E+04  0.10100000352E+00 0. -1.
       -3    1    3    3    0  502  0.99472199267E+03 -0.11379704359E+03 -0.11462332676E+04  0.15219304596E+04  0.10100000352E+00 0.  1.
</event>
<event>
 5   0  0.3807334E-06  0.3098534E+04  0.7818609E-02  0.8216140E-01
       -1   -1    0    0    0  501  0.00000000000E+00  0.00000000000E+00  0.12136815881E+04  0.12136815881E+04  0.50400001928E-02 0. -1.
        1   -1    0    0  501    0  0.00000000000E+00  0.00000000000E+00 -0.19776426831E+04  0.19776426831E+04  0.50400001928E-02 0.  1.
    10030    2    1    2    0    0  0.00000000000E+00  0.00000000000E+00 -0.76396109502E+03  0.31913242712E+04  0.30985341775E+04 0.  0.
        4    1    3    3  502    0  0.13517689094E+04  0.13966648562E+03  0.38423384280E+03  0.14122404790E+04  0.12699999809E+01 0. -1.
       -4    1    3    3    0  502 -0.13517689094E+04 -0.13966648562E+03 -0.11481949378E+04  0.17790837922E+04  0.12699999809E+01 0.  1.
</event>
<event>
 5   0  0.3838525E-06  0.3055829E+04  0.7818609E-02  0.8227966E-01
        1   -1    0    0  501    0  0.00000000000E+00  0.00000000000E+00  0.17074394848E+04  0.17074394848E+04  0.50400001928E-02 0. -1.
       -1   -1    0    0    0  501  0.00000000000E+00  0.00000000000E+00 -0.13672655436E+04  0.13672655436E+04  0.50400001928E-02 0.  1.
    10030    2    1    2    0    0  0.00000000000E+00  0.00000000000E+00  0.34017394125E+03  0.30747050284E+04  0.30558292985E+04 0.  0.
        3    1    3    3  502    0 -0.43673128345E+03 -0.12205886900E+04 -0.64358128071E+03  0.14473312818E+04  0.10100000352E+00 0.  1.
       -3    1    3    3    0  502  0.43673128345E+03  0.12205886900E+04  0.98375522196E+03  0.16273737466E+04  0.10100000352E+00 0. -1.
</event>
<event>
 5   0  0.9797278E-06  0.2696970E+04  0.7818609E-02  0.8335989E-01
        2   -1    0    0  501    0  0.00000000000E+00  0.00000000000E+00  0.16847578083E+04  0.16847578084E+04  0.25500000920E-02 0.  1.
       -2   -1    0    0    0  501  0.00000000000E+00  0.00000000000E+00 -0.10793314187E+04  0.10793314187E+04  0.25500000920E-02 0. -1.
    10030    2    1    2    0    0  0.00000000000E+00  0.00000000000E+00  0.60542638963E+03  0.27640892271E+04  0.26969701782E+04 0.  0.
        1    1    3    3  502    0 -0.92689315416E+03  0.17558178162E+03 -0.68482903940E+03  0.11657404061E+04  0.50400001928E-02 0. -1.
       -1    1    3    3    0  502  0.92689315416E+03 -0.17558178162E+03  0.12902554290E+04  0.15983488209E+04  0.50400001928E-02 0.  1.
</event>
<event>
 5   0  0.1001961E-05  0.3126633E+04  0.7818609E-02  0.8208467E-01
        2   -1    0    0  501    0  0.00000000000E+00  0.00000000000E+00  0.14302268145E+04  0.14302268145E+04  0.25500000920E-02 0.  1.
       -2   -1    0    0    0  501  0.00000000000E+00  0.00000000000E+00 -0.17087907690E+04  0.17087907690E+04  0.25500000920E-02 0. -1.
    10030    2    1    2    0    0  0.00000000000E+00  0.00000000000E+00 -0.27856395442E+03  0.31390175835E+04  0.31266329354E+04 0.  0.
        5    1    3    3  502    0 -0.59172372172E+03 -0.14240304368E+04  0.11851644670E+03  0.15466311409E+04  0.46999998093E+01 0. -1.
       -5    1    3    3    0  502  0.59172372172E+03  0.14240304368E+04 -0.39708040112E+03  0.15923864426E+04  0.46999998093E+01 0.  1.
</event>
<event>
 5   0  0.1119100E-05  0.3147290E+04  0.7818609E-02  0.8202878E-01
       -2   -1    0    0    0  501  0.00000000000E+00  0.00000000000E+00  0.19579045473E+04  0.19579045473E+04  0.25500000920E-02 0.  1.
        2   -1    0    0  501    0  0.00000000000E+00  0.00000000000E+00 -0.12648003294E+04  0.12648003294E+04  0.25500000920E-02 0. -1.
    10030    2    1    2    0    0  0.00000000000E+00  0.00000000000E+00  0.69310421790E+03  0.32227048766E+04  0.31472898286E+04 0.  0.
        2    1    3    3  502    0  0.10442316932E+04 -0.56334008907E+03  0.14050466576E+04  0.18390019018E+04  0.25500000920E-02 0.  1.
       -2    1    3    3    0  502 -0.10442316932E+04  0.56334008907E+03 -0.71194243966E+03  0.13837029748E+04  0.25500000920E-02 0. -1.
</event>
<event>
 5   0  0.1007567E-05  0.3162978E+04  0.7818609E-02  0.8198664E-01
       -2   -1    0    0    0  501  0.00000000000E+00  0.00000000000E+00  0.12181708400E+04  0.12181708400E+04  0.25500000920E-02 0. -1.
        2   -1    0    0  501    0  0.00000000000E+00  0.00000000000E+00 -0.20531666111E+04  0.20531666111E+04  0.25500000920E-02 0.  1.
    10030    2    1    2    0    0  0.00000000000E+00  0.00000000000E+00 -0.83499577114E+03  0.32713374511E+04  0.31629781505E+04 0.  0.
        3    1    3    3  502    0  0.35106109078E+03 -0.19284577309E+03 -0.19998373049E+04  0.20395545195E+04  0.10100000352E+00 0.  1.
       -3    1    3    3    0  502 -0.35106109078E+03  0.19284577309E+03  0.11648415337E+04  0.12317829316E+04  0.10100000352E+00 0. -1.
</event>
<event>
 5   0  0.1119100E-05  0.2027100E+04  0.7818609E-02  0.8594054E-01
       -2   -1    0    0    0  501  0.00000000000E+00  0.00000000000E+00  0.79555782356E+03  0.79555782356E+03  0.25500000920E-02 0. -1.
        2   -1    0    0  501    0  0.00000000000E+00  0.00000000000E+00 -0.12912751122E+04  0.12912751122E+04  0.25500000920E-02 0.  1.
    10030    2    1    2    0    0  0.00000000000E+00  0.00000000000E+00 -0.49571728868E+03  0.20868329358E+04  0.20271004099E+04 0.  0.
        2    1    3    3  502    0  0.68057683098E+03 -0.68846991811E+03  0.61167327104E+02  0.97000881074E+03  0.25500000920E-02 0. -1.
       -2    1    3    3    0  502 -0.68057683098E+03  0.68846991811E+03 -0.55688461579E+03  0.11168241251E+04  0.25500000920E-02 0.  1.
</event>
<event>
 5   0  0.1007567E-05  0.3061913E+04  0.7818609E-02  0.8226269E-01
       -2   -1    0    0    0  501  0.00000000000E+00  0.00000000000E+00  0.11026688194E+04  0.11026688194E+04  0.25500000920E-02 0.  1.
        2   -1    0    0  501    0  0.00000000000E+00  0.00000000000E+00 -0.21255948123E+04  0.21255948123E+04  0.25500000920E-02 0. -1.
    10030    2    1    2    0    0  0.00000000000E+00  0.00000000000E+00 -0.10229259929E+04  0.32282636318E+04  0.30619125541E+04 0.  0.
        3    1    3    3  502    0 -0.94472210210E+03  0.67344992389E+03  0.54170176532E+03  0.12804200338E+04  0.10100000352E+00 0.  1.
       -3    1    3    3    0  502  0.94472210210E+03 -0.67344992389E+03 -0.15646277582E+04  0.19478435980E+04  0.10100000352E+00 0. -1.
</event>
<event>
 5   0  0.1007567E-05  0.2234219E+04  0.7818609E-02  0.8504319E-01
       -2   -1    0    0    0  501  0.00000000000E+00  0.00000000000E+00  0.10294089323E+04  0.10294089323E+04  0.25500000920E-02 0. -1.
        2   -1    0    0  501    0  0.00000000000E+00  0.00000000000E+00 -0.12122814092E+04  0.12122814092E+04  0.25500000920E-02 0.  1.
    10030    2    1    2    0    0  0.00000000000E+00  0.00000000000E+00 -0.18287247693E+03  0.22416903415E+04  0.22342187100E+04 0.  0.
        3    1    3    3  502    0  0.99872119630E+03  0.25160801894E+03 -0.52552921995E+03  0.11562575813E+04  0.10100000352E+00 0. -1.
       -3    1    3    3    0  502 -0.99872119630E+03 -0.25160801894E+03  0.34265674302E+03  0.10854327602E+04  0.10100000352E+00 0.  1.
</event>
<event>
 5   0  0.1108153E-05  0.2984204E+04  0.7818609E-02  0.8248256E-01
       -2   -1    0    0    0  501  0.00000000000E+00  0.00000000000E+00  0.14114579615E+04  0.14114579615E+04  0.25500000920E-02 0. -1.
        2   -1    0    0  501    0  0.00000000000E+00  0.00000000000E+00 -0.15773539959E+04  0.15773539959E+04  0.25500000920E-02 0.  1.
    10030    2    1    2    0    0  0.00000000000E+00  0.00000000000E+00 -0.16589603441E+03  0.29888119574E+04  0.29842043198E+04 0.  0.
        4    1    3    3  502    0 -0.43992619585E+03 -0.77997023406E+03 -0.12783060513E+04  0.15607551369E+04  0.12699999809E+01 0.  1.
       -4    1    3    3    0  502  0.43992619585E+03  0.77997023406E+03  0.11124100169E+04  0.14280568204E+04  0.12699999809E+01 0. -1.
</event>
<event>
 5   0  0.3838525E-06  0.1559775E+04  0.7818609E-02  0.8845648E-01
        1   -1    0    0  501    0  0.00000000000E+00  0.00000000000E+00  0.62990612436E+03  0.62990612438E+03  0.50400001928E-02 0. -1.
       -1   -1    0    0    0  501  0.00000000000E+00  0.00000000000E+00 -0.96558022838E+03  0.96558022840E+03  0.50400001928E-02 0.  1.
    10030    2    1    2    0    0  0.00000000000E+00  0.00000000000E+00 -0.33567410402E+03  0.15954863528E+04  0.15597754960E+04 0.  0.
        3    1    3    3  502    0  0.47037160799E+03  0.39000306300E+03  0.32789567929E+03  0.69344605086E+03  0.10100000352E+00 0. -1.
       -3    1    3    3    0  502 -0.47037160799E+03 -0.39000306300E+03 -0.66356978331E+03  0.90204030192E+03  0.10100000352E+00 0.  1.
</event>
<event>
 5   0  0.3848286E-06  0.2112572E+04  0.7818609E-02  0.8555725E-01
        1   -1    0    0  501    0  0.00000000000E+00  0.00000000000E+00  0.16224880727E+04  0.16224880727E+04  0.50400001928E-02 0.  1.
       -1   -1    0    0    0  501  0.00000000000E+00  0.00000000000E+00 -0.68767245683E+03  0.68767245684E+03  0.50400001928E-02 0. -1.
    10030    2    1    2    0    0  0.00000000000E+00  0.00000000000E+00  0.93481561588E+03  0.23101605296E+04  0.21125722323E+04 0.  0.
        2    1    3    3  502    0 -0.26554486508E+03  0.93899771230E+03  0.90959096274E+03  0.13340114312E+04  0.25500000920E-02 0.  1.
       -2    1    3    3    0  502  0.26554486508E+03 -0.93899771230E+03  0.25224653136E+02  0.97614909835E+03  0.25500000920E-02 0. -1.
</event>
<event>
 5   0  0.3848286E-06  0.3099710E+04  0.7818609E-02  0.8215818E-01
       -1   -1    0    0    0  501  0.00000000000E+00  0.00000000000E+00  0.24282772564E+04  0.24282772564E+04  0.50400001928E-02 0. -1.
        1   -1    0    0  501    0  0.00000000000E+00  0.00000000000E+00 -0.98919924858E+03  0.98919924859E+03  0.50400001928E-02 0.  1.
    10030    2    1    2    0    0  0.00000000000E+00  0.00000000000E+00  0.14390780079E+04  0.34174765050E+04  0.30997096880E+04 0.  0.
        2    1    3    3  502    0 -0.83728799322E+01 -0.18635124118E+03  0.24158554323E+04  0.24230465039E+04  0.25500000920E-02 0. -1.
       -2    1    3    3    0  502  0.83728799322E+01  0.18635124118E+03 -0.97677742446E+03  0.99443000113E+03  0.25500000920E-02 0.  1.
</event>
<event>
 5   0  0.3838525E-06  0.3049262E+04  0.7818609E-02  0.8229802E-01
        1   -1    0    0  501    0  0.00000000000E+00  0.00000000000E+00  0.20286103563E+04  0.20286103563E+04  0.50400001928E-02 0. -1.
       -1   -1    0    0    0  501  0.00000000000E+00  0.00000000000E+00 -0.11458579635E+04  0.11458579635E+04  0.50400001928E-02 0.  1.
    10030    2    1    2    0    0  0.00000000000E+00  0.00000000000E+00  0.88275239274E+03  0.31744683198E+04  0.30492617674E+04 0.  0.
        3    1    3    3  502    0  0.11150993041E+04  0.10129753326E+04  0.68537981325E+03  0.16550863968E+04  0.10100000352E+00 0.  1.
       -3    1    3    3    0  502 -0.11150993041E+04 -0.10129753326E+04  0.19737257949E+03  0.15193819229E+04  0.10100000352E+00 0. -1.
</event>
<event>
 5   0  0.9797278E-06  0.3067345E+04  0.7818609E-02  0.8224757E-01
        2   -1    0    0  501    0  0.00000000000E+00  0.00000000000E+00  0.73523556678E+03  0.73523556678E+03  0.25500000920E-02 0. -1.
       -2   -1    0    0    0  501  0.00000000000E+00  0.00000000000E+00 -0.31991812862E+04  0.31991812862E+04  0.25500000920E-02 0.  1.
    10030    2    1    2    0    0  0.00000000000E+00  0.00000000000E+00 -0.24639457195E+04  0.39344168530E+04  0.30673453449E+04 0.  0.
        1    1    3    3  502    0 -0.59214842624E+03 -0.13557381850E+04 -0.17506034020E+04  0.22920030663E+04  0.50400001928E-02 0. -1.
       -1    1    3    3    0  502  0.59214842624E+03  0.13557381850E+04 -0.71334231746E+03  0.16424137867E+04  0.50400001928E-02 0.  1.
</event>
<event>
 5   0  0.3838525E-06  0.2030361E+04  0.7818609E-02  0.8592556E-01
        1   -1    0    0  501    0  0.00000000000E+00  0.00000000000E+00  0.12997024616E+04  0.12997024616E+04  0.50400001928E-02 0. -1.
       -1   -1    0    0    0  501  0.00000000000E+00  0.00000000000E+00 -0.79294411402E+03  0.79294411403E+03  0.50400001928E-02 0.  1.
    10030    2    1    2    0    0  0.00000000000E+00  0.00000000000E+00  0.50675834760E+03  0.20926465757E+04  0.20303609698E+04 0.  0.
        3    1    3    3  502    0 -0.78750026797E+03  0.32129085287E+03 -0.31788650101E+03  0.90798475863E+03  0.10100000352E+00 0.  1.
       -3    1    3    3    0  502  0.78750026797E+03 -0.32129085287E+03  0.82464484861E+03  0.11846618170E+04  0.10100000352E+00 0. -1.
</event>
<event>
 5   0  0.1007567E-05  0.3113233E+04  0.7818609E-02  0.8212116E-01
       -2   -1    0    0    0  501  0.00000000000E+00  0.00000000000E+00  0.12372577819E+04  0.12372577819E+04  0.25500000920E-02 0. -1.
        2   -1    0    0  501    0  0.00000000000E+00  0.00000000000E+00 -0.19584073506E+04  0.19584073506E+04  0.25500000920E-02 0.  1.
    10030    2    1    2    0    0  0.00000000000E+00  0.00000000000E+00 -0.72114956876E+03  0.31956651325E+04  0.31132328758E+04 0.  0.
        3    1    3    3  502    0  0.12724608932E+04 -0.49363202675E+03  0.40772562113E+03  0.14244541041E+04  0.10100000352E+00 0.  1.
       -3    1    3    3    0  502 -0.12724608932E+04  0.49363202675E+03 -0.11288751899E+04  0.17712110284E+04  0.10100000352E+00 0. -1.
</event>
<event>
 5   0  0.4250961E-06  0.2838387E+04  0.7818609E-02  0.8291449E-01
        1   -1    0    0  501    0  0.00000000000E+00  0.00000000000E+00  0.23808586001E+04  0.23808586001E+04  0.50400001928E-02 0.  1.
       -1   -1    0    0    0  501  0.00000000000E+00  0.00000000000E+00 -0.84595938659E+03  0.84595938661E+03  0.50400001928E-02 0. -1.
    10030    2    1    2    0    0  0.00000000000E+00  0.00000000000E+00  0.15348992135E+04  0.32268179867E+04  0.28383866410E+04 0.  0.
        1    1    3    3  502    0  0.60706069957E+02  0.13968919400E+04  0.10438638627E+04  0.17448908513E+04  0.50400001928E-02 0.  1.
       -1    1    3    3    0  502 -0.60706069957E+02 -0.13968919400E+04  0.49103535074E+03  0.14819271354E+04  0.50400001928E-02 0. -1.
</event>
<event>
 5   0  0.1108153E-05  0.2601059E+04  0.7818609E-02  0.8367842E-01
        2   -1    0    0  501    0  0.00000000000E+00  0.00000000000E+00  0.18738651257E+04  0.18738651257E+04  0.25500000920E-02 0.  1.
       -2   -1    0    0    0  501  0.00000000000E+00  0.00000000000E+00 -0.90261403856E+03  0.90261403857E+03  0.25500000920E-02 0. -1.
    10030    2    1    2    0    0  0.00000000000E+00  0.00000000000E+00  0.97125108715E+03  0.27764791643E+04  0.26010589911E+04 0.  0.
        4    1    3    3  502    0  0.72311753683E+03  0.10002374651E+04  0.48102769759E+02  0.12351880213E+04  0.12699999809E+01 0. -1.
       -4    1    3    3    0  502 -0.72311753683E+03 -0.10002374651E+04  0.92314831739E+03  0.15412911430E+04  0.12699999809E+01 0.  1.
</event>
<event>
 5   0  0.1108153E-05  0.2182695E+04  0.7818609E-02  0.8525666E-01
        2   -1    0    0  501    0  0.00000000000E+00  0.00000000000E+00  0.17730107247E+04  0.17730107247E+04  0.25500000920E-02 0. -1.
       -2   -1    0    0    0  501  0.00000000000E+00  0.00000000000E+00 -0.67176069671E+03  0.67176069672E+03  0.25500000920E-02 0.  1.
    10030    2    1    2    0    0  0.00000000000E+00  0.00000000000E+00  0.11012500280E+04  0.24447714214E+04  0.21826945913E+04 0.  0.
        4    1    3    3  502    0 -0.39156195564E+02  0.83019229037E+03  0.13428599099E+04  0.15792488079E+04  0.12699999809E+01 0. -1.
       -4    1    3    3    0  502  0.39156195564E+02 -0.83019229037E+03 -0.24160988191E+03  0.86552261355E+03  0.12699999809E+01 0.  1.
</event>
<event>
 5   0  0.4139628E-06  0.3109313E+04  0.7818609E-02  0.8213187E-01
       -1   -1    0    0    0  501  0.00000000000E+00  0.00000000000E+00  0.98368342067E+03  0.98368342068E+03  0.50400001928E-02 0.  1.
        1   -1    0    0  501    0  0.00000000000E+00  0.00000000000E+00 -0.24570469536E+04  0.24570469536E+04  0.50400001928E-02 0. -1.
    10030    2    1    2    0    0  0.00000000000E+00  0.00000000000E+00 -0.14733635329E+04  0.34407303743E+04  0.31093126907E+04 0.  0.
        5    1    3    3  502    0 -0.32690825711E+03 -0.12503605037E+04  0.21951838634E+03  0.13109083910E+04  0.46999998093E+01 0.  1.
       -5    1    3    3    0  502  0.32690825711E+03  0.12503605037E+04 -0.16928819192E+04  0.21298219832E+04  0.46999998093E+01 0. -1.
</event>
<event>
 5   0  0.3838525E-06  0.2008113E+04  0.7818609E-02  0.8602837E-01
       -1   -1    0    0    0  501  0.00000000000E+00  0.00000000000E+00  0.12930586167E+04  0.12930586167E+04  0.50400001928E-02 0. -1.
        1   -1    0    0  501    0  0.00000000000E+00  0.00000000000E+00 -0.77964714882E+03  0.77964714884E+03  0.50400001928E-02 0.  1.
    10030    2    1    2    0    0  0.00000000000E+00  0.00000000000E+00  0.51341146790E+03  0.20727057656E+04  0.20081130086E+04 0.  0.
        3    1    3    3  502    0  0.28018365474E+03  0.45830761041E+03  0.11322724855E+04  0.12532317175E+04  0.10100000352E+00 0. -1.
       -3    1    3    3    0  502 -0.28018365474E+03 -0.45830761041E+03 -0.61886101760E+03  0.81947404806E+03  0.10100000352E+00 0.  1.
</event>
<event>
 5   0  0.3848286E-06  0.3228587E+04  0.7818609E-02  0.8181308E-01
        1   -1    0    0  501    0  0.00000000000E+00  0.00000000000E+00  0.19861394348E+04  0.19861394348E+04  0.50400001928E-02 0. -1.
       -1   -1    0    0    0  501  0.00000000000E+00  0.00000000000E+00 -0.13120643749E+04  0.13120643749E+04  0.50400001928E-02 0.  1.
    10030    2    1    2    0    0  0.00000000000E+00  0.00000000000E+00  0.67407505997E+03  0.32982038097E+04  0.32285865613E+04 0.  0.
        2    1    3    3  502    0  0.13885633157E+04 -0.26238447501E+03 -0.46016710402E+03  0.14861720823E+04  0.25500000920E-02 0.  1.
       -2    1    3    3    0  502 -0.13885633157E+04  0.26238447501E+03  0.11342421640E+04  0.18120317274E+04  0.25500000920E-02 0. -1.
</event>
<event>
 5   0  0.1108153E-05  0.3109706E+04  0.7818609E-02  0.8213079E-01
        2   -1    0    0  501    0  0.00000000000E+00  0.00000000000E+00  0.17496728131E+04  0.17496728131E+04  0.25500000920E-02 0.  1.
       -2   -1    0    0    0  501  0.00000000000E+00  0.00000000000E+00 -0.13817258840E+04  0.13817258840E+04  0.25500000920E-02 0. -1.
    10030    2    1    2    0    0  0.00000000000E+00  0.00000000000E+00  0.36794692903E+03  0.31313986971E+04  0.31097062333E+04 0.  0.
        4    1    3    3  502    0 -0.57241346869E+03 -0.67075633678E+03 -0.11055828485E+04  0.14141733593E+04  0.12699999809E+01 0. -1.
       -4    1    3    3    0  502  0.57241346869E+03  0.67075633678E+03  0.14735297775E+04  0.17172253378E+04  0.12699999809E+01 0.  1.
</event>
<event>
 5   0  0.3838525E-06  0.3070436E+04  0.7818609E-02  0.8223899E-01
       -1   -1    0    0    0  501  0.00000000000E+00  0.00000000000E+00  0.27834429235E+04  0.27834429235E+04  0.50400001928E-02 0. -1.
        1   -1    0    0  501    0  0.00000000000E+00  0.00000000000E+00 -0.84675518553E+03  0.84675518554E+03  0.50400001928E-02 0.  1.
    10030    2    1    2    0    0  0.00000000000E+00  0.00000000000E+00  0.19366877380E+04  0.36301981091E+04  0.30704362746E+04 0.  0.
        3    1    3    3  502    0  0.12217464657E+04 -0.11425154068E+02  0.20673805306E+04  0.24014281645E+04  0.10100000352E+00 0. -1.
       -3    1    3    3    0  502 -0.12217464657E+04  0.11425154068E+02 -0.13069279263E+03  0.12287699446E+04  0.10100000352E+00 0.  1.
</event>
<event>
 5   0  0.1119100E-05  0.2725442E+04  0.7818609E-02  0.8326797E-01
        2   -1    0    0  501    0  0.00000000000E+00  0.00000000000E+00  0.13660055052E+04  0.13660055052E+04  0.25500000920E-02 0.  1.
       -2   -1    0    0    0  501  0.00000000000E+00  0.00000000000E+00 -0.13594448046E+04  0.13594448046E+04  0.25500000920E-02 0. -1.
    10030    2    1    2    0    0  0.00000000000E+00  0.00000000000E+00  0.65607006039E+01  0.27254503099E+04  0.27254424134E+04 0.  0.
        2    1    3    3  502    0  0.51808155678E+03  0.11523871320E+04 -0.50721548301E+03  0.13614962900E+04  0.25500000920E-02 0. -1.
       -2    1    3    3    0  502 -0.51808155678E+03 -0.11523871320E+04  0.51377618362E+03  0.13639540199E+04  0.25500000920E-02 0.  1.
</event>
<event>
 5   0  0.1108153E-05  0.3081385E+04  0.7818609E-02  0.8220865E-01
        2   -1    0    0  501    0  0.00000000000E+00  0.00000000000E+00  0.19601753538E+04  0.19601753538E+04  0.25500000920E-02 0. -1.
       -2   -1    0    0    0  501  0.00000000000E+00  0.00000000000E+00 -0.12109802818E+04  0.12109802818E+04  0.25500000920E-02 0.  1.
    10030    2    1    2    0    0  0.00000000000E+00  0.00000000000E+00  0.74919507191E+03  0.31711556356E+04  0.30813852095E+04 0.  0.
        4    1    3    3  502    0  0.14103278200E+04 -0.12200953615E+03  0.10004435155E+04  0.17334358158E+04  0.12699999809E+01 0.  1.
       -4    1    3    3    0  502 -0.14103278200E+04  0.12200953615E+03 -0.25124844363E+03  0.14377198198E+04  0.12699999809E+01 0. -1.
</event>
<event>
 5   0  0.4139628E-06  0.3119043E+04  0.7818609E-02  0.8210531E-01
        1   -1    0    0  501    0  0.00000000000E+00  0.00000000000E+00  0.22641666864E+04  0.22641666864E+04  0.50400001928E-02 0. -1.
       -1   -1    0    0    0  501  0.00000000000E+00  0.00000000000E+00 -0.10741735830E+04  0.10741735830E+04  0.50400001928E-02 0.  1.
    10030    2    1    2    0    0  0.00000000000E+00  0.00000000000E+00  0.11899931034E+04  0.33383402694E+04  0.31190434701E+04 0.  0.
        5    1    3    3  502    0  0.15077194372E+04 -0.24162780210E+03  0.93427615542E+03  0.17901105889E+04  0.46999998093E+01 0. -1.
       -5    1    3    3    0  502 -0.15077194372E+04  0.24162780210E+03  0.25571694794E+03  0.15482296805E+04  0.46999998093E+01 0.  1.
</event>
<event>
 5   0  0.3848286E-06  0.2571764E+04  0.7818609E-02  0.8377856E-01
        1   -1    0    0  501    0  0.00000000000E+00  0.00000000000E+00  0.19116539273E+04  0.19116539273E+04  0.50400001928E-02 0.  1.
       -1   -1    0    0    0  501  0.00000000000E+00  0.00000000000E+00 -0.86495365354E+03  0.86495365355E+03  0.50400001928E-02 0. -1.
    10030    2    1    2    0    0  0.00000000000E+00  0.00000000000E+00  0.10467002738E+04  0.27766075809E+04  0.25717636351E+04 0.  0.
        2    1    3    3  502    0  0.73422888502E+03  0.77236041519E+03  0.13002935309E+04  0.16811888451E+04  0.25500000920E-02 0.  1.
       -2    1    3    3    0  502 -0.73422888502E+03 -0.77236041519E+03 -0.25359325710E+03  0.10954187357E+04  0.25500000920E-02 0. -1.
</event>
<event>
 5   0  0.1119100E-05  0.3058392E+04  0.7818609E-02  0.8227251E-01
       -2   -1    0    0    0  501  0.00000000000E+00  0.00000000000E+00  0.14855585597E+04  0.14855585597E+04  0.25500000920E-02 0. -1.
        2   -1    0    0  501    0  0.00000000000E+00  0.00000000000E+00 -0.15741151439E+04  0.15741151439E+04  0.25500000920E-02 0.  1.
    10030    2    1    2    0    0  0.00000000000E+00  0.00000000000E+00 -0.88556584225E+02  0.30596737036E+04  0.30583918820E+04 0.  0.
        2    1    3    3  502    0  0.28169084664E+03 -0.11004064210E+04 -0.10685219240E+04  0.15594816853E+04  0.25500000920E-02 0.  1.
       -2    1    3    3    0  502 -0.28169084664E+03  0.11004064210E+04  0.97996533982E+03  0.15001920183E+04  0.25500000920E-02 0. -1.
</event>
<event>
 5   0  0.1007567E-05  0.1528805E+04  0.7818609E-02  0.8865521E-01
        2   -1    0    0  501    0  0.00000000000E+00  0.00000000000E+00  0.92613365959E+03  0.92613365960E+03  0.25500000920E-02 0. -1.
       -2   -1    0    0    0  501  0.00000000000E+00  0.00000000000E+00 -0.63091451677E+03  0.63091451678E+03  0.25500000920E-02 0.  1.
    10030    2    1    2    0    0  0.00000000000E+00  0.00000000000E+00  0.29521914282E+03  0.15570481764E+04  0.15288049847E+04 0.  0.
        3    1    3    3  502    0  0.53118333804E+03 -0.43019171107E+03  0.49611601716E+03  0.84460153893E+03  0.10100000352E+00 0. -1.
       -3    1    3    3    0  502 -0.53118333804E+03  0.43019171107E+03 -0.20089687434E+03  0.71244663744E+03  0.10100000352E+00 0.  1.
</event>
<event>
 5   0  0.1001961E-05  0.3132374E+04  0.7818609E-02  0.8206909E-01
        2   -1    0    0  501    0  0.00000000000E+00  0.00000000000E+00  0.16723894506E+04  0.16723894506E+04  0.25500000920E-02 0.  1.
       -2   -1    0    0    0  501  0.00000000000E+00  0.00000000000E+00 -0.14667291810E+04  0.14667291810E+04  0.25500000920E-02 0. -1.
    10030    2    1    2    0    0  0.00000000000E+00  0.00000000000E+00  0.20566026963E+03  0.31391186316E+04  0.31323744407E+04 0.  0.
        5    1    3    3  502    0 -0.11684297062E+04  0.58609580110E+03 -0.76168825635E+03  0.15129201421E+04  0.46999998093E+01 0. -1.
       -5    1    3    3    0  502  0.11684297062E+04 -0.58609580110E+03  0.96734852599E+03  0.16261984895E+04  0.46999998093E+01 0.  1.
</event>
<event>
 5   0  0.3848286E-06  0.3017899E+04  0.7818609E-02  0.8238638E-01
        1   -1    0    0  501    0  0.00000000000E+00  0.00000000000E+00  0.19841117141E+04  0.19841117141E+04  0.50400001928E-02 0. -1.
       -1   -1    0    0    0  501  0.00000000000E+00  0.00000000000E+00 -0.11475805198E+04  0.11475805198E+04  0.50400001928E-02 0.  1.
    10030    2    1    2    0    0  0.00000000000E+00  0.00000000000E+00  0.83653119425E+03  0.31316922339E+04  0.30178985750E+04 0.  0.
        2    1    3    3  502    0  0.32121648344E+03 -0.44696446471E+03  0.18762228318E+04  0.19552926576E+04  0.25500000920E-02 0. -1.
       -2    1    3    3    0  502 -0.32121648344E+03  0.44696446471E+03 -0.10396916376E+04  0.11763995764E+04  0.25500000920E-02 0.  1.
</event>
<event>
 5   0  0.1119100E-05  0.2972171E+04  0.7818609E-02  0.8251723E-01
       -2   -1    0    0    0  501  0.00000000000E+00  0.00000000000E+00  0.93656659614E+03  0.93656659615E+03  0.25500000920E-02 0. -1.
        2   -1    0    0  501    0  0.00000000000E+00  0.00000000000E+00 -0.23580275667E+04  0.23580275667E+04  0.25500000920E-02 0.  1.
    10030    2    1    2    0    0  0.00000000000E+00  0.00000000000E+00 -0.14214609706E+04  0.32945941629E+04  0.29721708240E+04 0.  0.
        2    1    3    3  502    0  0.84314041955E+03  0.87135224487E+03  0.24173082252E+03  0.12363552452E+04  0.25500000920E-02 0.  1.
       -2    1    3    3    0  502 -0.84314041955E+03 -0.87135224487E+03 -0.16631917931E+04  0.20582389177E+04  0.25500000920E-02 0. -1.
</event>
<event>
 5   0  0.3848286E-06  0.3013423E+04  0.7818609E-02  0.8239908E-01
        1   -1    0    0  501    0  0.00000000000E+00  0.00000000000E+00  0.15121795950E+04  0.15121795950E+04  0.50400001928E-02 0.  1.
       -1   -1    0    0    0  501  0.00000000000E+00  0.00000000000E+00 -0.15012629363E+04  0.15012629363E+04  0.50400001928E-02 0. -1.
    10030    2    1    2    0    0  0.00000000000E+00  0.00000000000E+00  0.10916658719E+02  0.30134425312E+04  0.30134227575E+04 0.  0.
        2    1    3    3  502    0 -0.47218445098E+03 -0.20008541219E+03 -0.14113031865E+04  0.15015888293E+04  0.25500000920E-02 0. -1.
       -2    1    3    3    0  502  0.47218445098E+03  0.20008541219E+03  0.14222198452E+04  0.15118537020E+04  0.25500000920E-02 0.  1.
</event>
<event>
 5   0  0.1001961E-05  0.2253843E+04  0.7818609E-02  0.8496346E-01
        2   -1    0    0  501    0  0.00000000000E+00  0.00000000000E+00  0.12761831742E+04  0.12761831742E+04  0.25500000920E-02 0. -1.
       -2   -1    0    0    0  501  0.00000000000E+00  0.00000000000E+00 -0.99511699158E+03  0.99511699158E+03  0.25500000920E-02 0.  1.
    10030    2    1    2    0    0  0.00000000000E+00  0.00000000000E+00  0.28106618259E+03  0.22713001658E+04  0.22538425508E+04 0.  0.
        5    1    3    3  502    0  0.87619274216E+03  0.62693556130E+03 -0.19243126410E+03  0.10944468013E+04  0.46999998093E+01 0.  1.
       -5    1    3    3    0  502 -0.87619274216E+03 -0.62693556130E+03  0.47349744669E+03  0.11768533645E+04  0.46999998093E+01 0. -1.
</event>
<event>
 5   0  0.3807334E-06  0.1767359E+04  0.7818609E-02  0.8723853E-01
       -1   -1    0    0    0  501  0.00000000000E+00  0.00000000000E+00  0.76505338214E+03  0.76505338216E+03  0.50400001928E-02 0.  1.
        1   -1    0    0  501    0  0.00000000000E+00  0.00000000000E+00 -0.10206994976E+04  0.10206994976E+04  0.50400001928E-02 0. -1.
    10030    2    1    2    0    0  0.00000000000E+00  0.00000000000E+00 -0.25564611543E+03  0.17857528797E+04  0.17673591630E+04 0.  0.
        4    1    3    3  502    0  0.33425845518E+03  0.74367063617E+03  0.21647728294E+03  0.84358684016E+03  0.12699999809E+01 0.  1.
       -4    1    3    3    0  502 -0.33425845518E+03 -0.74367063617E+03 -0.47212339836E+03  0.94216603958E+03  0.12699999809E+01 0. -1.
</event>
<event>
 5   0  0.3848286E-06  0.3075685E+04  0.7818609E-02  0.8222443E-01
       -1   -1    0    0    0  501  0.00000000000E+00  0.00000000000E+00  0.15956299027E+04  0.15956299027E+04  0.50400001928E-02 0. -1.
        1   -1    0    0  501    0  0.00000000000E+00  0.00000000000E+00 -0.14821477248E+04  0.14821477248E+04  0.50400001928E-02 0.  1.
    10030    2    1    2    0    0  0.00000000000E+00  0.00000000000E+00  0.11348217783E+03  0.30777776275E+04  0.30756847887E+04 0.  0.
        2    1    3    3  502    0 -0.86857701684E+03  0.58514330527E+03 -0.10701426223E+04  0.14973389576E+04  0.25500000920E-02 0.  1.
       -2    1    3    3    0  502  0.86857701684E+03 -0.58514330527E+03  0.11836248001E+04  0.15804386699E+04  0.25500000920E-02 0. -1.
</event>
<event>
 5   0  0.4250961E-06  0.3094312E+04  0.7818609E-02  0.8217301E-01
       -1   -1    0    0    0  501  0.00000000000E+00  0.00000000000E+00  0.13879796540E+04  0.13879796540E+04  0.50400001928E-02 0. -1.
        1   -1    0    0  501    0  0.00000000000E+00  0.00000000000E+00 -0.17245871922E+04  0.17245871922E+04  0.50400001928E-02 0.  1.
    10030    2    1    2    0    0  0.00000000000E+00  0.00000000000E+00 -0.33660753820E+03  0.31125668462E+04  0.30943121590E+04 0.  0.
        1    1    3    3  502    0 -0.11298886563E+04  0.69798009675E+03  0.63002009065E+03  0.14699489466E+04  0.50400001928E-02 0. -1.
       -1    1    3    3    0  502  0.11298886563E+04 -0.69798009675E+03 -0.96662762885E+03  0.16426178996E+04  0.50400001928E-02 0.  1.
</event>
<event>
 5   0  0.1001961E-05  0.3207262E+04  0.7818609E-02  0.8186902E-01
        2   -1    0    0  501    0  0.00000000000E+00  0.00000000000E+00  0.83958433869E+03  0.83958433870E+03  0.25500000920E-02 0. -1.
       -2   -1    0    0    0  501  0.00000000000E+00  0.00000000000E+00 -0.30629835030E+04  0.30629835030E+04  0.25500000920E-02 0.  1.
    10030    2    1    2    0    0  0.00000000000E+00  0.00000000000E+00 -0.22233991643E+04  0.39025678417E+04  0.32072623708E+04 0.  0.
        5    1    3    3  502    0  0.12587952434E+03  0.12271131905E+03  0.82781602575E+03  0.84628906702E+03  0.46999998093E+01 0. -1.
       -5    1    3    3    0  502 -0.12587952434E+03 -0.12271131905E+03 -0.30512151901E+04  0.30562787747E+04  0.46999998093E+01 0.  1.
</event>
<event>
 5   0  0.4139628E-06  0.2997263E+04  0.7818609E-02  0.8244513E-01
        1   -1    0    0  501    0  0.00000000000E+00  0.00000000000E+00  0.12839467348E+04  0.12839467348E+04  0.50400001928E-02 0. -1.
       -1   -1    0    0    0  501  0.00000000000E+00  0.00000000000E+00 -0.17492125072E+04  0.17492125072E+04  0.50400001928E-02 0.  1.
    10030    2    1    2    0    0  0.00000000000E+00  0.00000000000E+00 -0.46526577243E+03  0.30331592420E+04  0.29972625425E+04 0.  0.
        5    1    3    3  502    0 -0.13328122805E+04  0.97500986227E+01 -0.92595862364E+03  0.16229310220E+04  0.46999998093E+01 0.  1.
       -5    1    3    3    0  502  0.13328122805E+04 -0.97500986227E+01  0.46069285122E+03  0.14102282200E+04  0.46999998093E+01 0. -1.
</event>
<event>
 5   0  0.3838525E-06  0.3154061E+04  0.7818609E-02  0.8201056E-01
        1   -1    0    0  501    0  0.00000000000E+00  0.00000000000E+00  0.18997007728E+04  0.18997007728E+04  0.50400001928E-02 0. -1.
       -1   -1    0    0    0  501  0.00000000000E+00  0.00000000000E+00 -0.13091667429E+04  0.13091667429E+04  0.50400001928E-02 0.  1.
    10030    2    1    2    0    0  0.00000000000E+00  0.00000000000E+00  0.59053402990E+03  0.32088675156E+04  0.31540609208E+04 0.  0.
        3    1    3    3  502    0  0.12108116104E+04 -0.28394789092E+03 -0.69129128884E+03  0.14228755451E+04  0.10100000352E+00 0.  1.
       -3    1    3    3    0  502 -0.12108116104E+04  0.28394789092E+03  0.12818253187E+04  0.17859919705E+04  0.10100000352E+00 0. -1.
</event>
<event>
 5   0  0.9797278E-06  0.2925611E+04  0.7818609E-02  0.8265298E-01
       -2   -1    0    0    0  501  0.00000000000E+00  0.00000000000E+00  0.10756690177E+04  0.10756690177E+04  0.25500000920E-02 0.  1.
        2   -1    0    0  501    0  0.00000000000E+00  0.00000000000E+00 -0.19892735066E+04  0.19892735066E+04  0.25500000920E-02 0. -1.
    10030    2    1    2    0    0  0.00000000000E+00  0.00000000000E+00 -0.91360448894E+03  0.30649425244E+04  0.29256109645E+04 0.  0.
        1    1    3    3  502    0 -0.91952475068E+03 -0.62578069328E+03  0.53853647401E+03  0.12357786117E+04  0.50400001928E-02 0.  1.
       -1    1    3    3    0  502  0.91952475068E+03  0.62578069328E+03 -0.14521409629E+04  0.18291639127E+04  0.50400001928E-02 0. -1.
</event>
<event>
 5   0  0.4250961E-06  0.3134041E+04  0.7818609E-02  0.8206457E-01
       -1   -1    0    0    0  501  0.00000000000E+00  0.00000000000E+00  0.23548273860E+04  0.23548273860E+04  0.50400001928E-02 0. -1.
        1   -1    0    0  501    0  0.00000000000E+00  0.00000000000E+00 -0.10427739950E+04  0.10427739950E+04  0.50400001928E-02 0.  1.
    10030    2    1    2    0    0  0.00000000000E+00  0.00000000000E+00  0.13120533910E+04  0.33976013810E+04  0.31340406894E+04 0.  0.
        1    1    3    3  502    0 -0.76964546431E+03 -0.33325022401E+03  0.20910288610E+04  0.22529561803E+04  0.50400001928E-02 0. -1.
       -1    1    3    3    0  502  0.76964546431E+03  0.33325022401E+03 -0.77897547003E+03  0.11446452007E+04  0.50400001928E-02 0.  1.
</event>
<event>
 5   0  0.1007567E-05  0.2972753E+04  0.7818609E-02  0.8251554E-01
        2   -1    0    0  501    0  0.00000000000E+00  0.00000000000E+00  0.23625307522E+04  0.23625307522E+04  0.25500000920E-02 0. -1.
       -2   -1    0    0    0  501  0.00000000000E+00  0.00000000000E+00 -0.93514789977E+03  0.93514789977E+03  0.25500000920E-02 0.  1.
    10030    2    1    2    0    0  0.00000000000E+00  0.00000000000E+00  0.14273828524E+04  0.32976786520E+04  0.29727533844E+04 0.  0.
        3    1    3    3  502    0  0.14659199339E+04 -0.19303454804E+03  0.88240759853E+03  0.17218672334E+04  0.10100000352E+00 0.  1.
       -3    1    3    3    0  502 -0.14659199339E+04  0.19303454804E+03  0.54497525390E+03  0.15758114186E+04  0.10100000352E+00 0. -1.
</event>
<event>
 5   0  0.4250961E-06  0.3095819E+04  0.7818609E-02  0.8216886E-01
       -1   -1    0    0    0  501  0.00000000000E+00  0.00000000000E+00  0.29766651150E+04  0.29766651150E+04  0.50400001928E-02 0.  1.
        1   -1    0    0  501    0  0.00000000000E+00  0.00000000000E+00 -0.80493580071E+03  0.80493580073E+03  0.50400001928E-02 0. -1.
    10030    2    1    2    0    0  0.00000000000E+00  0.00000000000E+00  0.21717293143E+04  0.37816009157E+04  0.30958193215E+04 0.  0.
        1    1    3    3  502    0  0.58275790592E+03 -0.72566742785E+03 -0.42498367375E+03  0.10231378772E+04  0.50400001928E-02 0. -1.
       -1    1    3    3    0  502 -0.58275790592E+03  0.72566742785E+03  0.25967129880E+04  0.27584630385E+04  0.50400001928E-02 0.  1.
</event>
<event>
 5   0  0.3807334E-06  0.2956785E+04  0.7818609E-02  0.8256180E-01
       -1   -1    0    0    0  501  0.00000000000E+00  0.00000000000E+00  0.17147705760E+04  0.17147705760E+04  0.50400001928E-02 0. -1.
        1   -1    0    0  501    0  0.00000000000E+00  0.00000000000E+00 -0.12745985810E+04  0.12745985811E+04  0.50400001928E-02 0.  1.
    10030    2    1    2    0    0  0.00000000000E+00  0.00000000000E+00  0.44017199498E+03  0.29893691571E+04  0.29567848370E+04 0.  0.
        4    1    3    3  502    0  0.12441770889E+04 -0.40307695059E+03 -0.47685449882E+03  0.13920630311E+04  0.12699999809E+01 0.  1.
       -4    1    3    3    0  502 -0.12441770889E+04  0.40307695059E+03  0.91702649380E+03  0.15973061259E+04  0.12699999809E+01 0. -1.
</event>
<event>
 5   0  0.9797278E-06  0.2767486E+04  0.7818609E-02  0.8313434E-01
       -2   -1    0    0    0  501  0.00000000000E+00  0.00000000000E+00  0.82308956876E+03  0.82308956877E+03  0.25500000920E-02 0. -1.
        2   -1    0    0  501    0  0.00000000000E+00  0.00000000000E+00 -0.23262887843E+04  0.23262887843E+04  0.25500000920E-02 0.  1.
    10030    2    1    2    0    0  0.00000000000E+00  0.00000000000E+00 -0.15031992155E+04  0.31493783530E+04  0.27674855246E+04 0.  0.
        1    1    3    3  502    0 -0.13121957828E+02  0.11503793002E+04  0.12339714277E+03  0.11570529698E+04  0.50400001928E-02 0. -1.
       -1    1    3    3    0  502  0.13121957828E+02 -0.11503793002E+04 -0.16265963583E+04  0.19923253833E+04  0.50400001928E-02 0.  1.
</event>
<event>
 5   0  0.4250961E-06  0.3101061E+04  0.7818609E-02  0.8215447E-01
        1   -1    0    0  501    0  0.00000000000E+00  0.00000000000E+00  0.21352134744E+04  0.21352134744E+04  0.50400001928E-02 0. -1.
       -1   -1    0    0    0  501  0.00000000000E+00  0.00000000000E+00 -0.11259504937E+04  0.11259504938E+04  0.50400001928E-02 0.  1.
    10030    2    1    2    0    0  0.00000000000E+00  0.00000000000E+00  0.10092629806E+04  0.32611639681E+04  0.31010608931E+04 0.  0.
        1    1    3    3  502    0  0.22668815786E+03  0.12608770460E+04 -0.41393226234E+03  0.13463054497E+04  0.50400001928E-02 0.  1.
       -1    1    3    3    0  502 -0.22668815786E+03 -0.12608770460E+04  0.14231952429E+04  0.19148585184E+04  0.50400001928E-02 0. -1.
</event>
<event>
 5   0  0.4250961E-06  0.3079504E+04  0.7818609E-02  0.8221385E-01
       -1   -1    0    0    0  501  0.00000000000E+00  0.00000000000E+00  0.18633500487E+04  0.18633500488E+04  0.50400001928E-02 0.  1.
        1   -1    0    0  501    0  0.00000000000E+00  0.00000000000E+00 -0.12723515715E+04  0.12723515715E+04  0.50400001928E-02 0. -1.
    10030    2    1    2    0    0  0.00000000000E+00  0.00000000000E+00  0.59099847721E+03  0.31357016203E+04  0.30795040918E+04 0.  0.
        1    1    3    3  502    0  0.56856584149E+03 -0.84812251934E+03  0.14690316084E+04  0.17890312436E+04  0.50400001928E-02 0.  1.
       -1    1    3    3    0  502 -0.56856584149E+03  0.84812251934E+03 -0.87803313123E+03  0.13466703767E+04  0.50400001928E-02 0. -1.
</event>
<event>
 5   0  0.1007567E-05  0.3092384E+04  0.7818609E-02  0.8217831E-01
        2   -1    0    0  501    0  0.00000000000E+00  0.00000000000E+00  0.16138766708E+04  0.16138766708E+04  0.25500000920E-02 0. -1.
       -2   -1    0    0    0  501  0.00000000000E+00  0.00000000000E+00 -0.14813464323E+04  0.14813464323E+04  0.25500000920E-02 0.  1.
    10030    2    1    2    0    0  0.00000000000E+00  0.00000000000E+00  0.13253023859E+03  0.30952231031E+04  0.30923844835E+04 0.  0.
        3    1    3    3  502    0  0.14388191724E+04  0.24487979402E+03  0.57716849554E+03  0.15694872433E+04  0.10100000352E+00 0. -1.
       -3    1    3    3    0  502 -0.14388191724E+04 -0.24487979402E+03 -0.44463825695E+03  0.15257358598E+04  0.10100000352E+00 0.  1.
</event>
<event>
 5   0  0.1001961E-05  0.3058886E+04  0.7818609E-02  0.8227113E-01
        2   -1    0    0  501    0  0.00000000000E+00  0.00000000000E+00  0.21410289976E+04  0.21410289976E+04  0.25500000920E-02 0. -1.
       -2   -1    0    0    0  501  0.00000000000E+00  0.00000000000E+00 -0.10925567015E+04  0.10925567015E+04  0.25500000920E-02 0.  1.
    10030    2    1    2    0    0  0.00000000000E+00  0.00000000000E+00  0.10484722962E+04  0.32335856991E+04  0.30588857967E+04 0.  0.
        5    1    3    3  502    0 -0.11917105076E+04  0.31065589738E+03 -0.43447345492E+03  0.13059365580E+04  0.46999998093E+01 0.  1.
       -5    1    3    3    0  502  0.11917105076E+04 -0.31065589738E+03  0.14829457511E+04  0.19276491411E+04  0.46999998093E+01 0. -1.
</event>
<event>
 5   0  0.1108153E-05  0.3079204E+04  0.7818609E-02  0.8221468E-01
        2   -1    0    0  501    0  0.00000000000E+00  0.00000000000E+00  0.17111338989E+04  0.17111338989E+04  0.25500000920E-02 0.  1.
       -2   -1    0    0    0  501  0.00000000000E+00  0.00000000000E+00 -0.13852655336E+04  0.13852655336E+04  0.25500000920E-02 0. -1.
    10030    2    1    2    0    0  0.00000000000E+00  0.00000000000E+00  0.32586836523E+03  0.30963994325E+04  0.30792043216E+04 0.  0.
        4    1    3    3  502    0  0.15014554689E+04 -0.30882853402E+03  0.18501990589E+02  0.15329995189E+04  0.12699999809E+01 0. -1.
       -4    1    3    3    0  502 -0.15014554689E+04  0.30882853402E+03  0.30736637464E+03  0.15633999135E+04  0.12699999809E+01 0.  1.
</event>
<event>
 5   0  0.1119100E-05  0.3083548E+04  0.7818609E-02  0.8220268E-01
       -2   -1    0    0    0  501  0.00000000000E+00  0.00000000000E+00  0.14394160181E+04  0.14394160181E+04  0.25500000920E-02 0.  1.
        2   -1    0    0  501    0  0.00000000000E+00  0.00000000000E+00 -0.16514107972E+04  0.16514107972E+04  0.25500000920E-02 0. -1.
    10030    2    1    2    0    0  0.00000000000E+00  0.00000000000E+00 -0.21199477906E+03  0.30908268153E+04  0.30835480563E+04 0.  0.
        2    1    3    3  502    0 -0.13254210715E+04  0.23956441970E+03 -0.85805842097E+03  0.15969960494E+04  0.25500000920E-02 0. -1.
       -2    1    3    3    0  502  0.13254210715E+04 -0.23956441970E+03  0.64606364191E+03  0.14938307659E+04  0.25500000920E-02 0.  1.
</event>
<event>
 5   0  0.1007567E-05  0.3010290E+04  0.7818609E-02  0.8240799E-01
       -2   -1    0    0    0  501  0.00000000000E+00  0.00000000000E+00  0.16213936355E+04  0.16213936355E+04  0.25500000920E-02 0.  1.
        2   -1    0    0  501    0  0.00000000000E+00  0.00000000000E+00 -0.13972307837E+04  0.13972307837E+04  0.25500000920E-02 0. -1.
    10030    2    1    2    0    0  0.00000000000E+00  0.00000000000E+00  0.22416285176E+03  0.30186244192E+04  0.30102897535E+04 0.  0.
        3    1    3    3  502    0 -0.56179719246E+03 -0.11503355260E+04 -0.68167395419E+03  0.14503679870E+04  0.10100000352E+00 0. -1.
       -3    1    3    3    0  502  0.56179719246E+03  0.11503355260E+04  0.90583680595E+03  0.15682564322E+04  0.10100000352E+00 0.  1.
</event>
<event>
 5   0  0.3848286E-06  0.3270726E+04  0.7818609E-02  0.8170384E-01
        1   -1    0    0  501    0  0.00000000000E+00  0.00000000000E+00  0.18897140435E+04  0.18897140435E+04  0.50400001928E-02 0.  1.
       -1   -1    0    0    0  501  0.00000000000E+00  0.00000000000E+00 -0.14152468594E+04  0.14152468595E+04  0.50400001928E-02 0. -1.
    10030    2    1    2    0    0  0.00000000000E+00  0.00000000000E+00  0.47446718409E+03  0.33049609030E+04  0.32707258310E+04 0.  0.
        2    1    3    3  502    0  0.27381439762E+02  0.68101441812E+03 -0.12648934928E+04  0.14368319071E+04  0.25500000920E-02 0. -1.
       -2    1    3    3    0  502 -0.27381439762E+02 -0.68101441812E+03  0.17393606769E+04  0.18681289959E+04  0.25500000920E-02 0.  1.
</event>
<event>
 5   0  0.9797278E-06  0.3089660E+04  0.7818609E-02  0.8218581E-01
        2   -1    0    0  501    0  0.00000000000E+00  0.00000000000E+00  0.16172943070E+04  0.16172943070E+04  0.25500000920E-02 0. -1.
       -2   -1    0    0    0  501  0.00000000000E+00  0.00000000000E+00 -0.14756125034E+04  0.14756125034E+04  0.25500000920E-02 0.  1.
    10030    2    1    2    0    0  0.00000000000E+00  0.00000000000E+00  0.14168180363E+03  0.30929068103E+04  0.30896599819E+04 0.  0.
        1    1    3    3  502    0 -0.24267291105E+03  0.12091573180E+04 -0.86048516945E+03  0.15037906398E+04  0.50400001928E-02 0.  1.
       -1    1    3    3    0  502  0.24267291105E+03 -0.12091573180E+04  0.10021669731E+04  0.15891161705E+04  0.50400001928E-02 0. -1.
</event>
<event>
 5   0  0.3838525E-06  0.2822133E+04  0.7818609E-02  0.8296430E-01
       -1   -1    0    0    0  501  0.00000000000E+00  0.00000000000E+00  0.12371014259E+04  0.12371014259E+04  0.50400001928E-02 0. -1.
        1   -1    0    0  501    0  0.00000000000E+00  0.00000000000E+00 -0.16094947601E+04  0.16094947601E+04  0.50400001928E-02 0.  1.
    10030    2    1    2    0    0  0.00000000000E+00  0.00000000000E+00 -0.37239333417E+03  0.28465961860E+04  0.28221327132E+04 0.  0.
        3    1    3    3  502    0  0.38046624722E+02  0.30741802773E+03  0.12023829382E+04  0.12416433182E+04  0.10100000352E+00 0. -1.
       -3    1    3    3    0  502 -0.38046624722E+02 -0.30741802773E+03 -0.15747762724E+04  0.16049528678E+04  0.10100000352E+00 0.  1.
</event>
<event>
 5   0  0.3838525E-06  0.3063854E+04  0.7818609E-02  0.8225728E-01
       -1   -1    0    0    0  501  0.00000000000E+00  0.00000000000E+00  0.15035227366E+04  0.15035227366E+04  0.50400001928E-02 0.  1.
        1   -1    0    0  501    0  0.00000000000E+00  0.00000000000E+00 -0.15608682060E+04  0.15608682060E+04  0.50400001928E-02 0. -1.
    10030    2    1    2    0    0  0.00000000000E+00  0.00000000000E+00 -0.57345469341E+02  0.30643909426E+04  0.30638543285E+04 0.  0.
        3    1    3    3  502    0  0.10435437411E+04 -0.14492439375E+03 -0.11409890048E+04  0.15530107980E+04  0.10100000352E+00 0. -1.
       -3    1    3    3    0  502 -0.10435437411E+04  0.14492439375E+03  0.10836435354E+04  0.15113801446E+04  0.10100000352E+00 0.  1.
</event>
<event>
 5   0  0.3807334E-06  0.3161921E+04  0.7818609E-02  0.8198947E-01
        1   -1    0    0  501    0  0.00000000000E+00  0.00000000000E+00  0.21853118104E+04  0.21853118104E+04  0.50400001928E-02 0.  1.
       -1   -1    0    0    0  501  0.00000000000E+00  0.00000000000E+00 -0.11437433369E+04  0.11437433369E+04  0.50400001928E-02 0. -1.
    10030    2    1    2    0    0  0.00000000000E+00  0.00000000000E+00  0.10415684735E+04  0.33290551473E+04  0.31619208227E+04 0.  0.
        4    1    3    3  502    0 -0.29204421887E+03 -0.10292380390E+04  0.17462741681E+04  0.20479491815E+04  0.12699999809E+01 0.  1.
       -4    1    3    3    0  502  0.29204421887E+03  0.10292380390E+04 -0.70470569467E+03  0.12811059658E+04  0.12699999809E+01 0. -1.
</event>
<event>
 5   0  0.1108153E-05  0.3114090E+04  0.7818609E-02  0.8211882E-01
        2   -1    0    0  501    0  0.00000000000E+00  0.00000000000E+00  0.24761641691E+04  0.24761641691E+04  0.25500000920E-02 0.  1.
       -2   -1    0    0    0  501  0.00000000000E+00  0.00000000000E+00 -0.97909081834E+03  0.97909081834E+03  0.25500000920E-02 0. -1.
    10030    2    1    2    0    0  0.00000000000E+00  0.00000000000E+00  0.14970733507E+04  0.34552549874E+04  0.31140903023E+04 0.  0.
        4    1    3    3  502    0 -0.15307916385E+04 -0.15620727346E+03  0.48441537759E+03  0.16131905107E+04  0.12699999809E+01 0.  1.
       -4    1    3    3    0  502  0.15307916385E+04  0.15620727346E+03  0.10126579731E+04  0.18420644767E+04  0.12699999809E+01 0. -1.
</event>
<event>
 5   0  0.3838525E-06  0.3066250E+04  0.7818609E-02  0.8225062E-01
        1   -1    0    0  501    0  0.00000000000E+00  0.00000000000E+00  0.19649509300E+04  0.19649509300E+04  0.50400001928E-02 0.  1.
       -1   -1    0    0    0  501  0.00000000000E+00  0.00000000000E+00 -0.11961986449E+04  0.11961986449E+04  0.50400001928E-02 0. -1.
    10030    2    1    2    0    0  0.00000000000E+00  0.00000000000E+00  0.76875228514E+03  0.31611495749E+04  0.30662495918E+04 0.  0.
        3    1    3    3  502    0 -0.83149256541E+03 -0.12388960634E+04  0.21007211647E+02  0.14922079799E+04  0.10100000352E+00 0.  1.
       -3    1    3    3    0  502  0.83149256541E+03  0.12388960634E+04  0.74774507350E+03  0.16689415950E+04  0.10100000352E+00 0. -1.
</event>
<event>
 5   0  0.1001961E-05  0.2710569E+04  0.7818609E-02  0.8331584E-01
       -2   -1    0    0    0  501  0.00000000000E+00  0.00000000000E+00  0.76945053955E+03  0.76945053956E+03  0.25500000920E-02 0.  1.
        2   -1    0    0  501    0  0.00000000000E+00  0.00000000000E+00 -0.23871522570E+04  0.23871522570E+04  0.25500000920E-02 0. -1.
    10030    2    1    2    0    0  0.00000000000E+00  0.00000000000E+00 -0.16177017175E+04  0.31566027966E+04  0.27105686430E+04 0.  0.
        5    1    3    3  502    0 -0.80486524233E+03  0.10076612082E+04 -0.32365756452E+03  0.13296486295E+04  0.46999998093E+01 0.  1.
       -5    1    3    3    0  502  0.80486524233E+03 -0.10076612082E+04 -0.12940441529E+04  0.18269541671E+04  0.46999998093E+01 0. -1.
</event>
<event>
 5   0  0.3838525E-06  0.3128681E+04  0.7818609E-02  0.8207910E-01
       -1   -1    0    0    0  501  0.00000000000E+00  0.00000000000E+00  0.11496005888E+04  0.11496005888E+04  0.50400001928E-02 0. -1.
        1   -1    0    0  501    0  0.00000000000E+00  0.00000000000E+00 -0.21287054688E+04  0.21287054688E+04  0.50400001928E-02 0.  1.
    10030    2    1    2    0    0  0.00000000000E+00  0.00000000000E+00 -0.97910488003E+03  0.32783060576E+04  0.31286809108E+04 0.  0.
        3    1    3    3  502    0  0.14392301131E+04 -0.30860507982E+03  0.65438780094E+02  0.14733983365E+04  0.10100000352E+00 0. -1.
       -3    1    3    3    0  502 -0.14392301131E+04  0.30860507982E+03 -0.10445436601E+04  0.18049077212E+04  0.10100000352E+00 0.  1.
</event>
<event>
 5   0  0.9797278E-06  0.3113052E+04  0.7818609E-02  0.8212165E-01
        2   -1    0    0  501    0  0.00000000000E+00  0.00000000000E+00  0.17396217966E+04  0.17396217966E+04  0.25500000920E-02 0. -1.
       -2   -1    0    0    0  501  0.00000000000E+00  0.00000000000E+00 -0.13927006952E+04  0.13927006952E+04  0.25500000920E-02 0.  1.
    10030    2    1    2    0    0  0.00000000000E+00  0.00000000000E+00  0.34692110140E+03  0.31323224919E+04  0.31130515483E+04 0.  0.
        1    1    3    3  502    0  0.89729340831E+03  0.12712257087E+04  0.13293439724E+03  0.15616727624E+04  0.50400001928E-02 0. -1.
       -1    1    3    3    0  502 -0.89729340831E+03 -0.12712257087E+04  0.21398670416E+03  0.15706497294E+04  0.50400001928E-02 0.  1.
</event>
<event>
 5   0  0.3838525E-06  0.2959938E+04  0.7818609E-02  0.8255264E-01
       -1   -1    0    0    0  501  0.00000000000E+00  0.00000000000E+00  0.17839148195E+04  0.17839148195E+04  0.50400001928E-02 0. -1.
        1   -1    0    0  501    0  0.00000000000E+00  0.00000000000E+00 -0.12278102705E+04  0.12278102706E+04  0.50400001928E-02 0.  1.
    10030    2    1    2    0    0  0.00000000000E+00  0.00000000000E+00  0.55610454894E+03  0.30117250901E+04  0.29599384704E+04 0.  0.
        3    1    3    3  502    0 -0.35862205920E+03 -0.12835905976E+04 -0.37670793985E+03  0.13849633518E+04  0.10100000352E+00 0.  1.
       -3    1    3    3    0  502  0.35862205920E+03  0.12835905976E+04  0.93281248879E+03  0.16267617383E+04  0.10100000352E+00 0. -1.
</event>
<event>
 5   0  0.1001961E-05  0.3174959E+04  0.7818609E-02  0.8195462E-01
       -2   -1    0    0    0  501  0.00000000000E+00  0.00000000000E+00  0.10665850676E+04  0.10665850676E+04  0.25500000920E-02 0.  1.
        2   -1    0    0  501    0  0.00000000000E+00  0.00000000000E+00 -0.23627665421E+04  0.23627665421E+04  0.25500000920E-02 0. -1.
    10030    2    1    2    0    0  0.00000000000E+00  0.00000000000E+00 -0.12961814745E+04  0.34293516097E+04  0.31749592199E+04 0.  0.
        5    1    3    3  502    0 -0.41692357454E+03 -0.27375704806E+03 -0.22759289245E+04  0.23299447950E+04  0.46999998093E+01 0. -1.
       -5    1    3    3    0  502  0.41692357454E+03  0.27375704806E+03  0.97974745000E+03  0.10994068147E+04  0.46999998093E+01 0.  1.
</event>
<event>
 5   0  0.1007567E-05  0.3091715E+04  0.7818609E-02  0.8218015E-01
       -2   -1    0    0    0  501  0.00000000000E+00  0.00000000000E+00  0.12988165559E+04  0.12988165559E+04  0.25500000920E-02 0.  1.
        2   -1    0    0  501    0  0.00000000000E+00  0.00000000000E+00 -0.18398865806E+04  0.18398865806E+04  0.25500000920E-02 0. -1.
    10030    2    1    2    0    0  0.00000000000E+00  0.00000000000E+00 -0.54107002472E+03  0.31387031366E+04  0.30917148329E+04 0.  0.
        3    1    3    3  502    0  0.12310148043E+04  0.80828246772E+03  0.20666982494E+03  0.14870879002E+04  0.10100000352E+00 0.  1.
       -3    1    3    3    0  502 -0.12310148043E+04 -0.80828246772E+03 -0.74773984966E+03  0.16516152364E+04  0.10100000352E+00 0. -1.
</event>
<event>
 5   0  0.1007567E-05  0.3166745E+04  0.7818609E-02  0.8197655E-01
       -2   -1    0    0    0  501  0.00000000000E+00  0.00000000000E+00  0.13952469702E+04  0.13952469702E+04  0.25500000920E-02 0. -1.
        2   -1    0    0  501    0  0.00000000000E+00  0.00000000000E+00 -0.17968630340E+04  0.17968630340E+04  0.25500000920E-02 0.  1.
    10030    2    1    2    0    0  0.00000000000E+00  0.00000000000E+00 -0.40161606380E+03  0.31921100043E+04  0.31667445139E+04 0.  0.
        3    1    3    3  502    0 -0.46273713069E+03 -0.33715861746E+03  0.12872502965E+04  0.14088345969E+04  0.10100000352E+00 0. -1.
       -3    1    3    3    0  502  0.46273713069E+03  0.33715861746E+03 -0.16888663603E+04  0.17832754074E+04  0.10100000352E+00 0.  1.
</event>
<event>
 5   0  0.4250961E-06  0.3088553E+04  0.7818609E-02  0.8218886E-01
        1   -1    0    0  501    0  0.00000000000E+00  0.00000000000E+00  0.14722673883E+04  0.14722673883E+04  0.50400001928E-02 0.  1.
       -1   -1    0    0    0  501  0.00000000000E+00  0.00000000000E+00 -0.16198080312E+04  0.16198080312E+04  0.50400001928E-02 0. -1.
    10030    2    1    2    0    0  0.00000000000E+00  0.00000000000E+00 -0.14754064295E+03  0.30920754195E+04  0.30885534088E+04 0.  0.
        1    1    3    3  502    0 -0.10546880088E+04 -0.10793486153E+04  0.25436907736E+03  0.15303802981E+04  0.50400001928E-02 0.  1.
       -1    1    3    3    0  502  0.10546880088E+04  0.10793486153E+04 -0.40190972032E+03  0.15616951215E+04  0.50400001928E-02 0. -1.
</event>
<event>
 5   0  0.3807334E-06  0.2782533E+04  0.7818609E-02  0.8308712E-01
        1   -1    0    0  501    0  0.00000000000E+00  0.00000000000E+00  0.94549426532E+03  0.94549426533E+03  0.50400001928E-02 0.  1.
       -1   -1    0    0    0  501  0.00000000000E+00  0.00000000000E+00 -0.20472075758E+04  0.20472075758E+04  0.50400001928E-02 0. -1.
    10030    2    1    2    0    0  0.00000000000E+00  0.00000000000E+00 -0.11017133105E+04  0.29927018412E+04  0.27825333945E+04 0.  0.
        4    1    3    3  502    0  0.93557802179E+03  0.35582667818E+03 -0.15901241358E+04  0.18789399245E+04  0.12699999809E+01 0. -1.
       -4    1    3    3    0  502 -0.93557802179E+03 -0.35582667818E+03  0.48841082532E+03  0.11137619166E+04  0.12699999809E+01 0.  1.
</event>
<event>
 5   0  0.4250961E-06  0.3084385E+04  0.7818609E-02  0.8220036E-01
       -1   -1    0    0    0  501  0.00000000000E+00  0.00000000000E+00  0.92591071206E+03  0.92591071207E+03  0.50400001928E-02 0. -1.
        1   -1    0    0  501    0  0.00000000000E+00  0.00000000000E+00 -0.25686679568E+04  0.25686679568E+04  0.50400001928E-02 0.  1.
    10030    2    1    2    0    0  0.00000000000E+00  0.00000000000E+00 -0.16427572447E+04  0.34945786688E+04  0.30843846562E+04 0.  0.
        1    1    3    3  502    0 -0.10915851318E+04  0.55246693409E+03  0.24241405218E+03  0.12472138493E+04  0.50400001928E-02 0. -1.
       -1    1    3    3    0  502  0.10915851318E+04 -0.55246693409E+03 -0.18851712969E+04  0.22473648195E+04  0.50400001928E-02 0.  1.
</event>
<event>
 5   0  0.3493125E-06  0.3099334E+04  0.7818609E-02  0.8215921E-01
       -3   -1    0    0    0  501  0.00000000000E+00  0.00000000000E+00  0.19838552634E+04  0.19838552659E+04  0.10100000352E+00 0.  1.
        3   -1    0    0  501    0  0.00000000000E+00  0.00000000000E+00 -0.12105057500E+04  0.12105057542E+04  0.10100000352E+00 0. -1.
    10030    2    1    2    0    0  0.00000000000E+00  0.00000000000E+00  0.77334951339E+03  0.31943610201E+04  0.30993342603E+04 0.  0.
        2    1    3    3  502    0  0.53007661588E+03  0.85929050200E+03 -0.82500091191E+03  0.13038358371E+04  0.25500000920E-02 0. -1.
       -2    1    3    3    0  502 -0.53007661588E+03 -0.85929050200E+03  0.15983504253E+04  0.18905251830E+04  0.25500000920E-02 0.  1.
</event>
<event>
 5   0  0.3838525E-06  0.2961881E+04  0.7818609E-02  0.8254700E-01
        1   -1    0    0  501    0  0.00000000000E+00  0.00000000000E+00  0.13833671420E+04  0.13833671420E+04  0.50400001928E-02 0.  1.
       -1   -1    0    0    0  501  0.00000000000E+00  0.00000000000E+00 -0.15853960493E+04  0.15853960493E+04  0.50400001928E-02 0. -1.
    10030    2    1    2    0    0  0.00000000000E+00  0.00000000000E+00 -0.20202890734E+03  0.29687631913E+04  0.29618810251E+04 0.  0.
        3    1    3    3  502    0 -0.10371424639E+04 -0.10407257212E+04 -0.28694554295E+03  0.14970344926E+04  0.10100000352E+00 0. -1.
       -3    1    3    3    0  502  0.10371424639E+04  0.10407257212E+04  0.84916635612E+02  0.14717286987E+04  0.10100000352E+00 0.  1.
</event>
<event>
 5   0  0.3807334E-06  0.3167046E+04  0.7818609E-02  0.8197575E-01
       -1   -1    0    0    0  501  0.00000000000E+00  0.00000000000E+00  0.94537679700E+03  0.94537679701E+03  0.50400001928E-02 0.  1.
        1   -1    0    0  501    0  0.00000000000E+00  0.00000000000E+00 -0.26524293029E+04  0.26524293029E+04  0.50400001928E-02 0. -1.
    10030    2    1    2    0    0  0.00000000000E+00  0.00000000000E+00 -0.17070525059E+04  0.35978060999E+04  0.31670460171E+04 0.  0.
        4    1    3    3  502    0  0.49850112295E+03  0.14126390186E+04 -0.27039490649E+03  0.15222244857E+04  0.12699999809E+01 0.  1.
       -4    1    3    3    0  502 -0.49850112295E+03 -0.14126390186E+04 -0.14366575994E+04  0.20755816142E+04  0.12699999809E+01 0. -1.
</event>
<event>
 5   0  0.3848286E-06  0.3111309E+04  0.7818609E-02  0.8212641E-01
       -1   -1    0    0    0  501  0.00000000000E+00  0.00000000000E+00  0.13526021948E+04  0.13526021949E+04  0.50400001928E-02 0. -1.
        1   -1    0    0  501    0  0.00000000000E+00  0.00000000000E+00 -0.17891888157E+04  0.17891888158E+04  0.50400001928E-02 0.  1.
    10030    2    1    2    0    0  0.00000000000E+00  0.00000000000E+00 -0.43658662091E+03  0.31417910106E+04  0.31113088688E+04 0.  0.
        2    1    3    3  502    0 -0.85139554833E+03  0.63003024122E+03  0.93227666342E+03  0.14110110778E+04  0.25500000920E-02 0. -1.
       -2    1    3    3    0  502  0.85139554833E+03 -0.63003024122E+03 -0.13688632843E+04  0.17307799328E+04  0.25500000920E-02 0.  1.
</event>
<event>
 5   0  0.1119100E-05  0.3088129E+04  0.7818609E-02  0.8219003E-01
       -2   -1    0    0    0  501  0.00000000000E+00  0.00000000000E+00  0.20344394255E+04  0.20344394255E+04  0.25500000920E-02 0.  1.
        2   -1    0    0  501    0  0.00000000000E+00  0.00000000000E+00 -0.11718882634E+04  0.11718882634E+04  0.25500000920E-02 0. -1.
    10030    2    1    2    0    0  0.00000000000E+00  0.00000000000E+00  0.86255116204E+03  0.32063276889E+04  0.30881293272E+04 0.  0.
        2    1    3    3  502    0 -0.14157546227E+04  0.39248477081E+01  0.10711084362E+04  0.17752886633E+04  0.25500000920E-02 0.  1.
       -2    1    3    3    0  502  0.14157546227E+04 -0.39248477081E+01 -0.20855727414E+03  0.14310390256E+04  0.25500000920E-02 0. -1.
</event>
<event>
 5   0  0.4139628E-06  0.3109406E+04  0.7818609E-02  0.8213161E-01
       -1   -1    0    0    0  501  0.00000000000E+00  0.00000000000E+00  0.18437337118E+04  0.18437337118E+04  0.50400001928E-02 0.  1.
        1   -1    0    0  501    0  0.00000000000E+00  0.00000000000E+00 -0.13109817552E+04  0.13109817553E+04  0.50400001928E-02 0. -1.
    10030    2    1    2    0    0  0.00000000000E+00  0.00000000000E+00  0.53275195658E+03  0.31547154671E+04  0.31094058968E+04 0.  0.
        5    1    3    3  502    0  0.11578102905E+03 -0.10760399470E+04  0.13987998714E+04  0.17685955967E+04  0.46999998093E+01 0.  1.
       -5    1    3    3    0  502 -0.11578102905E+03  0.10760399470E+04 -0.86604791485E+03  0.13861198704E+04  0.46999998093E+01 0. -1.
</event>
<event>
 5   0  0.3838525E-06  0.3115080E+04  0.7818609E-02  0.8211611E-01
       -1   -1    0    0    0  501  0.00000000000E+00  0.00000000000E+00  0.16007267581E+04  0.16007267581E+04  0.50400001928E-02 0. -1.
        1   -1    0    0  501    0  0.00000000000E+00  0.00000000000E+00 -0.15155188706E+04  0.15155188706E+04  0.50400001928E-02 0.  1.
    10030    2    1    2    0    0  0.00000000000E+00  0.00000000000E+00  0.85207887422E+02  0.31162456287E+04  0.31150804860E+04 0.  0.
        3    1    3    3  502    0 -0.10544406870E+04  0.11200532540E+04  0.28675904316E+03  0.15647987773E+04  0.10100000352E+00 0. -1.
       -3    1    3    3    0  502  0.10544406870E+04 -0.11200532540E+04 -0.20155115574E+03  0.15514468514E+04  0.10100000352E+00 0.  1.
</event>
<event>
 5   0  0.1119100E-05  0.3119757E+04  0.7818609E-02  0.8210337E-01
        2   -1    0    0  501    0  0.00000000000E+00  0.00000000000E+00  0.14752709033E+04  0.14752709033E+04  0.25500000920E-02 0.  1.
       -2   -1    0    0    0  501  0.00000000000E+00  0.00000000000E+00 -0.16493385545E+04  0.16493385545E+04  0.25500000920E-02 0. -1.
    10030    2    1    2    0    0  0.00000000000E+00  0.00000000000E+00 -0.17406765125E+03  0.31246094578E+04  0.31197571567E+04 0.  0.
        2    1    3    3  502    0  0.53287721983E+01 -0.10779269924E+04 -0.12162918895E+04  0.16252141265E+04  0.25500000920E-02 0. -1.
       -2    1    3    3    0  502 -0.53287721983E+01  0.10779269924E+04  0.10422242382E+04  0.14993953313E+04  0.25500000920E-02 0.  1.
</event>
<event>
 5   0  0.3848286E-06  0.3113891E+04  0.7818609E-02  0.8211936E-01
       -1   -1    0    0    0  501  0.00000000000E+00  0.00000000000E+00  0.11658898037E+04  0.11658898037E+04  0.50400001928E-02 0. -1.
        1   -1    0    0  501    0  0.00000000000E+00  0.00000000000E+00 -0.20791661820E+04  0.20791661820E+04  0.50400001928E-02 0.  1.
    10030    2    1    2    0    0  0.00000000000E+00  0.00000000000E+00 -0.91327637822E+03  0.32450559857E+04  0.31138905901E+04 0.  0.
        2    1    3    3  502    0 -0.11075367397E+04 -0.33463014633E+03  0.62910345182E+03  0.13169609401E+04  0.25500000920E-02 0. -1.
       -2    1    3    3    0  502  0.11075367397E+04  0.33463014633E+03 -0.15423798300E+04  0.19280950456E+04  0.25500000920E-02 0.  1.
</event>
<event>
 5   0  0.4139628E-06  0.2423554E+04  0.7818609E-02  0.8430738E-01
        1   -1    0    0  501    0  0.00000000000E+00  0.00000000000E+00  0.13360548059E+04  0.13360548059E+04  0.50400001928E-02 0. -1.
       -1   -1    0    0    0  501  0.00000000000E+00  0.00000000000E+00 -0.10990590986E+04  0.10990590986E+04  0.50400001928E-02 0.  1.
    10030    2    1    2    0    0  0.00000000000E+00  0.00000000000E+00  0.23699570729E+03  0.24351139044E+04  0.24235537465E+04 0.  0.
        5    1    3    3  502    0 -0.10518107115E+04 -0.25268138217E+03  0.66720476493E+03  0.12709594573E+04  0.46999998093E+01 0. -1.
       -5    1    3    3    0  502  0.10518107115E+04  0.25268138217E+03 -0.43020905764E+03  0.11641544472E+04  0.46999998093E+01 0.  1.
</event>
<event>
 5   0  0.9797278E-06  0.3190810E+04  0.7818609E-02  0.8191248E-01
       -2   -1    0    0    0  501  0.00000000000E+00  0.00000000000E+00  0.15018815656E+04  0.15018815656E+04  0.25500000920E-02 0.  1.
        2   -1    0    0  501    0  0.00000000000E+00  0.00000000000E+00 -0.16947526953E+04  0.16947526953E+04  0.25500000920E-02 0. -1.
    10030    2    1    2    0    0  0.00000000000E+00  0.00000000000E+00 -0.19287112977E+03  0.31966342609E+04  0.31908104496E+04 0.  0.
        1    1    3    3  502    0  0.77870192705E+03 -0.10345996551E+04 -0.10300940100E+04  0.16546500558E+04  0.50400001928E-02 0. -1.
       -1    1    3    3    0  502 -0.77870192705E+03  0.10345996551E+04  0.83722288023E+03  0.15419842051E+04  0.50400001928E-02 0.  1.
</event>
<event>
 5   0  0.1119100E-05  0.3099063E+04  0.7818609E-02  0.8215995E-01
        2   -1    0    0  501    0  0.00000000000E+00  0.00000000000E+00  0.10578807208E+04  0.10578807208E+04  0.25500000920E-02 0. -1.
       -2   -1    0    0    0  501  0.00000000000E+00  0.00000000000E+00 -0.22696780281E+04  0.22696780281E+04  0.25500000920E-02 0.  1.
    10030    2    1    2    0    0  0.00000000000E+00  0.00000000000E+00 -0.12117973073E+04  0.33275587489E+04  0.30990634897E+04 0.  0.
        2    1    3    3  502    0 -0.38690661744E+03  0.87400679889E+02  0.10024452311E+04  0.10780686670E+04  0.25500000920E-02 0. -1.
       -2    1    3    3    0  502  0.38690661744E+03 -0.87400679889E+02 -0.22142425384E+04  0.22494900819E+04  0.25500000920E-02 0.  1.
</event>
<event>
 5   0  0.9797278E-06  0.3047533E+04  0.7818609E-02  0.8230286E-01
       -2   -1    0    0    0  501  0.00000000000E+00  0.00000000000E+00  0.11987000503E+04  0.11987000503E+04  0.25500000920E-02 0.  1.
        2   -1    0    0  501    0  0.00000000000E+00  0.00000000000E+00 -0.19369852912E+04  0.19369852912E+04  0.25500000920E-02 0. -1.
    10030    2    1    2    0    0  0.00000000000E+00  0.00000000000E+00 -0.73828524090E+03  0.31356853415E+04  0.30475330128E+04 0.  0.
        1    1    3    3  502    0  0.63019565437E+03 -0.10441044565E+04  0.57082695973E+03  0.13465303921E+04  0.50400001928E-02 0.  1.
       -1    1    3    3    0  502 -0.63019565437E+03  0.10441044565E+04 -0.13091122006E+04  0.17891549494E+04  0.50400001928E-02 0. -1.
</event>
<event>
 5   0  0.1001961E-05  0.2088045E+04  0.7818609E-02  0.8566528E-01
       -2   -1    0    0    0  501  0.00000000000E+00  0.00000000000E+00  0.19818307912E+04  0.19818307912E+04  0.25500000920E-02 0.  1.
        2   -1    0    0  501    0  0.00000000000E+00  0.00000000000E+00 -0.54998814091E+03  0.54998814091E+03  0.25500000920E-02 0. -1.
    10030    2    1    2    0    0  0.00000000000E+00  0.00000000000E+00  0.14318426503E+04  0.25318189322E+04  0.20880454329E+04 0.  0.
        5    1    3    3  502    0  0.71857407495E+03  0.54447984857E+03  0.13542634980E+04  0.16269169366E+04  0.46999998093E+01 0.  1.
       -5    1    3    3    0  502 -0.71857407495E+03 -0.54447984857E+03  0.77579152382E+02  0.90490199556E+03  0.46999998093E+01 0. -1.
</event>
<event>
 5   0  0.1108153E-05  0.3285742E+04  0.7818609E-02  0.8166533E-01
       -2   -1    0    0    0  501  0.00000000000E+00  0.00000000000E+00  0.11804903349E+04  0.11804903349E+04  0.25500000920E-02 0.  1.
        2   -1    0    0  501    0  0.00000000000E+00  0.00000000000E+00 -0.22863597025E+04  0.22863597025E+04  0.25500000920E-02 0. -1.
    10030    2    1    2    0    0  0.00000000000E+00  0.00000000000E+00 -0.11058693676E+04  0.34668500374E+04  0.32857422485E+04 0.  0.
        4    1    3    3  502    0 -0.11585379519E+03 -0.85421778193E+03 -0.20285610934E+04  0.22041260951E+04  0.12699999809E+01 0. -1.
       -4    1    3    3    0  502  0.11585379519E+03  0.85421778193E+03  0.92269172573E+03  0.12627239423E+04  0.12699999809E+01 0.  1.
</event>
<event>
 5   0  0.9797278E-06  0.3078317E+04  0.7818609E-02  0.8221714E-01
       -2   -1    0    0    0  501  0.00000000000E+00  0.00000000000E+00  0.23360556204E+04  0.23360556204E+04  0.25500000920E-02 0.  1.
        2   -1    0    0  501    0  0.00000000000E+00  0.00000000000E+00 -0.10141065418E+04  0.10141065418E+04  0.25500000920E-02 0. -1.
    10030    2    1    2    0    0  0.00000000000E+00  0.00000000000E+00  0.13219490786E+04  0.33501621622E+04  0.30783172589E+04 0.  0.
        1    1    3    3  502    0 -0.12711276093E+04  0.69223301672E+03  0.12307098931E+04  0.18998944153E+04  0.50400001928E-02 0.  1.
       -1    1    3    3    0  502  0.12711276093E+04 -0.69223301672E+03  0.91239185568E+02  0.14502677468E+04  0.50400001928E-02 0. -1.
</event>
<event>
 5   0  0.3848286E-06  0.3181490E+04  0.7818609E-02  0.8193723E-01
       -1   -1    0    0    0  501  0.00000000000E+00  0.00000000000E+00  0.27473584350E+04  0.27473584350E+04  0.50400001928E-02 0. -1.
        1   -1    0    0  501    0  0.00000000000E+00  0.00000000000E+00 -0.92105573829E+03  0.92105573831E+03  0.50400001928E-02 0.  1.
    10030    2    1    2    0    0  0.00000000000E+00  0.00000000000E+00  0.18263026967E+04  0.36684141733E+04  0.31814903751E+04 0.  0.
        2    1    3    3  502    0  0.12184095583E+04 -0.26944199227E+03  0.20507318370E+04  0.24005461683E+04  0.25500000920E-02 0. -1.
       -2    1    3    3    0  502 -0.12184095583E+04  0.26944199227E+03 -0.22442914034E+03  0.12678680049E+04  0.25500000920E-02 0.  1.
</event>
<event>
 5   0  0.1119100E-05  0.2072636E+04  0.7818609E-02  0.8573394E-01
       -2   -1    0    0    0  501  0.00000000000E+00  0.00000000000E+00  0.75863146172E+03  0.75863146173E+03  0.25500000920E-02 0. -1.
        2   -1    0    0  501    0  0.00000000000E+00  0.00000000000E+00 -0.14156480680E+04  0.14156480680E+04  0.25500000920E-02 0.  1.
    10030    2    1    2    0    0  0.00000000000E+00  0.00000000000E+00 -0.65701660632E+03  0.21742795298E+04  0.20726361602E+04 0.  0.
        2    1    3    3  502    0  0.46016122176E+03 -0.35358909671E+03 -0.12292070096E+04  0.13593099249E+04  0.25500000920E-02 0.  1.
       -2    1    3    3    0  502 -0.46016122176E+03  0.35358909671E+03  0.57219040329E+03  0.81496960492E+03  0.25500000920E-02 0. -1.
</event>
<event>
 5   0  0.1007567E-05  0.3087144E+04  0.7818609E-02  0.8219275E-01
       -2   -1    0    0    0  501  0.00000000000E+00  0.00000000000E+00  0.13379709234E+04  0.13379709234E+04  0.25500000920E-02 0.  1.
        2   -1    0    0  501    0  0.00000000000E+00  0.00000000000E+00 -0.17807665502E+04  0.17807665502E+04  0.25500000920E-02 0. -1.
    10030    2    1    2    0    0  0.00000000000E+00  0.00000000000E+00 -0.44279562679E+03  0.31187374736E+04  0.30871435765E+04 0.  0.
        3    1    3    3  502    0 -0.30653331079E+03  0.13051276042E+04  0.55147619204E+03  0.14496367595E+04  0.10100000352E+00 0.  1.
       -3    1    3    3    0  502  0.30653331079E+03 -0.13051276042E+04 -0.99427181883E+03  0.16691007141E+04  0.10100000352E+00 0. -1.
</event>
<event>
 5   0  0.1001961E-05  0.3133466E+04  0.7818609E-02  0.8206613E-01
        2   -1    0    0  501    0  0.00000000000E+00  0.00000000000E+00  0.20122612512E+04  0.20122612512E+04  0.25500000920E-02 0.  1.
       -2   -1    0    0    0  501  0.00000000000E+00  0.00000000000E+00 -0.12198474812E+04  0.12198474812E+04  0.25500000920E-02 0. -1.
    10030    2    1    2    0    0  0.00000000000E+00  0.00000000000E+00  0.79241377001E+03  0.32321087324E+04  0.31334656971E+04 0.  0.
        5    1    3    3  502    0  0.29572194041E+03  0.10726480732E+04  0.15339277023E+04  0.18949885595E+04  0.46999998093E+01 0.  1.
       -5    1    3    3    0  502 -0.29572194041E+03 -0.10726480732E+04 -0.74151393227E+03  0.13371201729E+04  0.46999998093E+01 0. -1.
</event>
<event>
 5   0  0.9797278E-06  0.3125327E+04  0.7818609E-02  0.8208821E-01
        2   -1    0    0  501    0  0.00000000000E+00  0.00000000000E+00  0.15703731393E+04  0.15703731393E+04  0.25500000920E-02 0. -1.
       -2   -1    0    0    0  501  0.00000000000E+00  0.00000000000E+00 -0.15549919084E+04  0.15549919085E+04  0.25500000920E-02 0.  1.
    10030    2    1    2    0    0  0.00000000000E+00  0.00000000000E+00  0.15381230825E+02  0.31253650477E+04  0.31253271988E+04 0.  0.
        1    1    3    3  502    0 -0.10077372947E+03  0.91042697655E+03  0.12737568554E+04  0.15689133663E+04  0.50400001928E-02 0. -1.
       -1    1    3    3    0  502  0.10077372947E+03 -0.91042697655E+03 -0.12583756246E+04  0.15564516815E+04  0.50400001928E-02 0.  1.
</event>
<event>
 5   0  0.4250961E-06  0.3076608E+04  0.7818609E-02  0.8222187E-01
       -1   -1    0    0    0  501  0.00000000000E+00  0.00000000000E+00  0.12082785644E+04  0.12082785644E+04  0.50400001928E-02 0. -1.
        1   -1    0    0  501    0  0.00000000000E+00  0.00000000000E+00 -0.19584719008E+04  0.19584719008E+04  0.50400001928E-02 0.  1.
    10030    2    1    2    0    0  0.00000000000E+00  0.00000000000E+00 -0.75019333635E+03  0.31667504652E+04  0.30766082732E+04 0.  0.
        1    1    3    3  502    0 -0.11117801220E+04  0.58714266281E+03  0.53720628228E+03  0.13672535010E+04  0.50400001928E-02 0. -1.
       -1    1    3    3    0  502  0.11117801220E+04 -0.58714266281E+03 -0.12873996186E+04  0.17994969642E+04  0.50400001928E-02 0.  1.
</event>
<event>
 5   0  0.1119100E-05  0.3083738E+04  0.7818609E-02  0.8220215E-01
       -2   -1    0    0    0  501  0.00000000000E+00  0.00000000000E+00  0.16377295689E+04  0.16377295689E+04  0.25500000920E-02 0.  1.
        2   -1    0    0  501    0  0.00000000000E+00  0.00000000000E+00 -0.14516194731E+04  0.14516194731E+04  0.25500000920E-02 0. -1.
    10030    2    1    2    0    0  0.00000000000E+00  0.00000000000E+00  0.18611009573E+03  0.30893490420E+04  0.30837380783E+04 0.  0.
        2    1    3    3  502    0  0.12037566947E+04 -0.55175788954E+03  0.88436133449E+03  0.15923447864E+04  0.25500000920E-02 0.  1.
       -2    1    3    3    0  502 -0.12037566947E+04  0.55175788954E+03 -0.69825123876E+03  0.14970042556E+04  0.25500000920E-02 0. -1.
</event>
<event>
 5   0  0.3838525E-06  0.3057864E+04  0.7818609E-02  0.8227398E-01
        1   -1    0    0  501    0  0.00000000000E+00  0.00000000000E+00  0.27923356370E+04  0.27923356371E+04  0.50400001928E-02 0. -1.
       -1   -1    0    0    0  501  0.00000000000E+00  0.00000000000E+00 -0.83716051950E+03  0.83716051952E+03  0.50400001928E-02 0.  1.
    10030    2    1    2    0    0  0.00000000000E+00  0.00000000000E+00  0.19551751175E+04  0.36294961566E+04  0.30578640601E+04 0.  0.
        3    1    3    3  502    0 -0.83046235361E+03 -0.30342383406E+03 -0.50294827339E+03  0.10171974832E+04  0.10100000352E+00 0.  1.
       -3    1    3    3    0  502  0.83046235361E+03  0.30342383406E+03  0.24581233909E+04  0.26122986734E+04  0.10100000352E+00 0. -1.
</event>
<event>
 5   0  0.1001961E-05  0.1538885E+04  0.7818609E-02  0.8858999E-01
        2   -1    0    0  501    0  0.00000000000E+00  0.00000000000E+00  0.20519356222E+04  0.20519356222E+04  0.25500000920E-02 0.  1.
       -2   -1    0    0    0  501  0.00000000000E+00  0.00000000000E+00 -0.28852834509E+03  0.28852834511E+03  0.25500000920E-02 0. -1.
    10030    2    1    2    0    0  0.00000000000E+00  0.00000000000E+00  0.17634072771E+04  0.23404639673E+04  0.15388847771E+04 0.  0.
        5    1    3    3  502    0 -0.38970373344E+03  0.98696628927E+02 -0.11608089408E+03  0.41845774982E+03  0.46999998093E+01 0. -1.
       -5    1    3    3    0  502  0.38970373344E+03 -0.98696628927E+02  0.18794881712E+04  0.19220062175E+04  0.46999998093E+01 0.  1.
</event>
<event>
 5   0  0.3807334E-06  0.3025121E+04  0.7818609E-02  0.8236594E-01
        1   -1    0    0  501    0  0.00000000000E+00  0.00000000000E+00  0.14086375513E+04  0.14086375513E+04  0.50400001928E-02 0.  1.
       -1   -1    0    0    0  501  0.00000000000E+00  0.00000000000E+00 -0.16241502899E+04  0.16241502899E+04  0.50400001928E-02 0. -1.
    10030    2    1    2    0    0  0.00000000000E+00  0.00000000000E+00 -0.21551273858E+03  0.30327878412E+04  0.30251208817E+04 0.  0.
        4    1    3    3  502    0  0.14228237615E+04  0.21504384408E+03 -0.57494834621E+03  0.15495930191E+04  0.12699999809E+01 0. -1.
       -4    1    3    3    0  502 -0.14228237615E+04 -0.21504384408E+03  0.35943560763E+03  0.14831948220E+04  0.12699999809E+01 0.  1.
</event>
<event>
 5   0  0.1108153E-05  0.3310029E+04  0.7818609E-02  0.8160348E-01
       -2   -1    0    0    0  501  0.00000000000E+00  0.00000000000E+00  0.15202811275E+04  0.15202811275E+04  0.25500000920E-02 0. -1.
        2   -1    0    0  501    0  0.00000000000E+00  0.00000000000E+00 -0.18016882846E+04  0.18016882846E+04  0.25500000920E-02 0.  1.
    10030    2    1    2    0    0  0.00000000000E+00  0.00000000000E+00 -0.28140715703E+03  0.33219694121E+04  0.33100288196E+04 0.  0.
        4    1    3    3  502    0 -0.69865897238E+03  0.24364290037E+03  0.13450370517E+04  0.15351262182E+04  0.12699999809E+01 0. -1.
       -4    1    3    3    0  502  0.69865897238E+03 -0.24364290037E+03 -0.16264442087E+04  0.17868431939E+04  0.12699999809E+01 0.  1.
</event>
<event>
 5   0  0.4250961E-06  0.2955897E+04  0.7818609E-02  0.8256438E-01
       -1   -1    0    0    0  501  0.00000000000E+00  0.00000000000E+00  0.13885188906E+04  0.13885188906E+04  0.50400001928E-02 0.  1.
        1   -1    0    0  501    0  0.00000000000E+00  0.00000000000E+00 -0.15731374709E+04  0.15731374709E+04  0.50400001928E-02 0. -1.
    10030    2    1    2    0    0  0.00000000000E+00  0.00000000000E+00 -0.18461858033E+03  0.29616563615E+04  0.29558965448E+04 0.  0.
        1    1    3    3  502    0  0.14383018801E+04  0.51131602030E+02  0.24450695530E+03  0.14598323158E+04  0.50400001928E-02 0.  1.
       -1    1    3    3    0  502 -0.14383018801E+04 -0.51131602030E+02 -0.42912553562E+03  0.15018240457E+04  0.50400001928E-02 0. -1.
</event>
<event>
 5   0  0.9797278E-06  0.2678262E+04  0.7818609E-02  0.8342093E-01
        2   -1    0    0  501    0  0.00000000000E+00  0.00000000000E+00  0.12206774678E+04  0.12206774678E+04  0.25500000920E-02 0.  1.
       -2   -1    0    0    0  501  0.00000000000E+00  0.00000000000E+00 -0.14690794036E+04  0.14690794036E+04  0.25500000920E-02 0. -1.
    10030    2    1    2    0    0  0.00000000000E+00  0.00000000000E+00 -0.24840193578E+03  0.26897568713E+04  0.26782622174E+04 0.  0.
        1    1    3    3  502    0  0.46760168594E+03  0.49699106393E+03  0.10329684141E+04  0.12380126005E+04  0.50400001928E-02 0.  1.
       -1    1    3    3    0  502 -0.46760168594E+03 -0.49699106393E+03 -0.12813703499E+04  0.14517442709E+04  0.50400001928E-02 0. -1.
</event>
<event>
 5   0  0.3807334E-06  0.2237022E+04  0.7818609E-02  0.8503175E-01
        1   -1    0    0  501    0  0.00000000000E+00  0.00000000000E+00  0.16189596499E+04  0.16189596499E+04  0.50400001928E-02 0. -1.
       -1   -1    0    0    0  501  0.00000000000E+00  0.00000000000E+00 -0.77275976753E+03  0.77275976754E+03  0.50400001928E-02 0.  1.
    10030    2    1    2    0    0  0.00000000000E+00  0.00000000000E+00  0.84619988234E+03  0.23917194174E+04  0.22370220229E+04 0.  0.
        4    1    3    3  502    0  0.11002981391E+04  0.19899524447E+03  0.45353172240E+03  0.12066265945E+04  0.12699999809E+01 0.  1.
       -4    1    3    3    0  502 -0.11002981391E+04 -0.19899524447E+03  0.39266815994E+03  0.11850928230E+04  0.12699999809E+01 0. -1.
</event>
<event>
 5   0  0.1007567E-05  0.1564033E+04  0.7818609E-02  0.8842954E-01
        2   -1    0    0  501    0  0.00000000000E+00  0.00000000000E+00  0.91268384747E+03  0.91268384747E+03  0.25500000920E-02 0. -1.
       -2   -1    0    0    0  501  0.00000000000E+00  0.00000000000E+00 -0.67005646168E+03  0.67005646168E+03  0.25500000920E-02 0.  1.
    10030    2    1    2    0    0  0.00000000000E+00  0.00000000000E+00  0.24262738579E+03  0.15827403092E+04  0.15640328762E+04 0.  0.
        3    1    3    3  502    0  0.42465106484E+03 -0.16388762044E+03  0.76481430476E+03  0.89001607287E+03  0.10100000352E+00 0. -1.
       -3    1    3    3    0  502 -0.42465106484E+03  0.16388762044E+03 -0.52218691896E+03  0.69272423629E+03  0.10100000352E+00 0.  1.
</event>
<event>
 5   0  0.3838525E-06  0.3065643E+04  0.7818609E-02  0.8225230E-01
       -1   -1    0    0    0  501  0.00000000000E+00  0.00000000000E+00  0.14886328571E+04  0.14886328571E+04  0.50400001928E-02 0. -1.
        1   -1    0    0  501    0  0.00000000000E+00  0.00000000000E+00 -0.15783222758E+04  0.15783222758E+04  0.50400001928E-02 0.  1.
    10030    2    1    2    0    0  0.00000000000E+00  0.00000000000E+00 -0.89689418732E+02  0.30669551329E+04  0.30656434227E+04 0.  0.
        3    1    3    3  502    0 -0.99665740047E+03 -0.43842215505E+03  0.10345063620E+04  0.15019132409E+04  0.10100000352E+00 0. -1.
       -3    1    3    3    0  502  0.99665740047E+03  0.43842215505E+03 -0.11241957807E+04  0.15650418920E+04  0.10100000352E+00 0.  1.
</event>
<event>
 5   0  0.9797278E-06  0.3153092E+04  0.7818609E-02  0.8201316E-01
       -2   -1    0    0    0  501  0.00000000000E+00  0.00000000000E+00  0.12298594979E+04  0.12298594979E+04  0.25500000920E-02 0. -1.
        2   -1    0    0  501    0  0.00000000000E+00  0.00000000000E+00 -0.20209605516E+04  0.20209605516E+04  0.25500000920E-02 0.  1.
    10030    2    1    2    0    0  0.00000000000E+00  0.00000000000E+00 -0.79110105366E+03  0.32508200494E+04  0.31530921516E+04 0.  0.
        1    1    3    3  502    0  0.79479043475E+03  0.12507448446E+04 -0.95022453087E+03  0.17603923315E+04  0.50400001928E-02 0.  1.
       -1    1    3    3    0  502 -0.79479043475E+03 -0.12507448446E+04  0.15912347721E+03  0.14904277180E+04  0.50400001928E-02 0. -1.
</event>
<event>
 5   0  0.3807334E-06  0.2531121E+04  0.7818609E-02  0.8391982E-01
        1   -1    0    0  501    0  0.00000000000E+00  0.00000000000E+00  0.17777315901E+04  0.17777315901E+04  0.50400001928E-02 0.  1.
       -1   -1    0    0    0  501  0.00000000000E+00  0.00000000000E+00 -0.90094773246E+03  0.90094773248E+03  0.50400001928E-02 0. -1.
    10030    2    1    2    0    0  0.00000000000E+00  0.00000000000E+00  0.87678385762E+03  0.26786793226E+04  0.25311208940E+04 0.  0.
        4    1    3    3  502    0  0.80645255219E+03 -0.97379190686E+03  0.49640783498E+03  0.13583293961E+04  0.12699999809E+01 0.  1.
       -4    1    3    3    0  502 -0.80645255219E+03  0.97379190686E+03  0.38037602264E+03  0.13203499265E+04  0.12699999809E+01 0. -1.
</event>
<event>
 5   0  0.1007567E-05  0.1584984E+04  0.7818609E-02  0.8829826E-01
       -2   -1    0    0    0  501  0.00000000000E+00  0.00000000000E+00  0.81685468428E+03  0.81685468428E+03  0.25500000920E-02 0. -1.
        2   -1    0    0  501    0  0.00000000000E+00  0.00000000000E+00 -0.76885639683E+03  0.76885639684E+03  0.25500000920E-02 0.  1.
    10030    2    1    2    0    0  0.00000000000E+00  0.00000000000E+00  0.47998287444E+02  0.15857110811E+04  0.15849844785E+04 0.  0.
        3    1    3    3  502    0  0.74266327016E+03 -0.18603191165E+03 -0.18075863422E+03  0.78665767589E+03  0.10100000352E+00 0.  1.
       -3    1    3    3    0  502 -0.74266327016E+03  0.18603191165E+03  0.22875692166E+03  0.79905340523E+03  0.10100000352E+00 0. -1.
</event>
<event>
 5   0  0.3807334E-06  0.3113426E+04  0.7818609E-02  0.8212063E-01
       -1   -1    0    0    0  501  0.00000000000E+00  0.00000000000E+00  0.32409821692E+04  0.32409821692E+04  0.50400001928E-02 0. -1.
        1   -1    0    0  501    0  0.00000000000E+00  0.00000000000E+00 -0.74772245823E+03  0.74772245825E+03  0.50400001928E-02 0.  1.
    10030    2    1    2    0    0  0.00000000000E+00  0.00000000000E+00  0.24932597110E+04  0.39887046275E+04  0.31134258653E+04 0.  0.
        4    1    3    3  502    0 -0.73753380009E+03 -0.13024945156E+04  0.69872304637E+03  0.16518666949E+04  0.12699999809E+01 0.  1.
       -4    1    3    3    0  502  0.73753380009E+03  0.13024945156E+04  0.17945366646E+04  0.23368379325E+04  0.12699999809E+01 0. -1.
</event>
<event>
 5   0  0.3493125E-06  0.3082503E+04  0.7818609E-02  0.8220556E-01
        3   -1    0    0  501    0  0.00000000000E+00  0.00000000000E+00  0.14508402841E+04  0.14508402876E+04  0.10100000352E+00 0. -1.
       -3   -1    0    0    0  501  0.00000000000E+00  0.00000000000E+00 -0.16372966826E+04  0.16372966857E+04  0.10100000352E+00 0.  1.
    10030    2    1    2    0    0  0.00000000000E+00  0.00000000000E+00 -0.18645639846E+03  0.30881369734E+04  0.30825028755E+04 0.  0.
        2    1    3    3  502    0 -0.12037327394E+03  0.11905785709E+04  0.87988075878E+03  0.14853138417E+04  0.25500000920E-02 0. -1.
       -2    1    3    3    0  502  0.12037327394E+03 -0.11905785709E+04 -0.10663371572E+04  0.16028231317E+04  0.25500000920E-02 0.  1.
</event>
<event>
 5   0  0.3807334E-06  0.3030690E+04  0.7818609E-02  0.8235021E-01
        1   -1    0    0  501    0  0.00000000000E+00  0.00000000000E+00  0.10718159911E+04  0.10718159911E+04  0.50400001928E-02 0. -1.
       -1   -1    0    0    0  501  0.00000000000E+00  0.00000000000E+00 -0.21424111434E+04  0.21424111434E+04  0.50400001928E-02 0.  1.
    10030    2    1    2    0    0  0.00000000000E+00  0.00000000000E+00 -0.10705951523E+04  0.32142271345E+04  0.30306900357E+04 0.  0.
        4    1    3    3  502    0 -0.11291830991E+03 -0.84516514183E+03  0.79324710010E+03  0.11646017501E+04  0.12699999809E+01 0. -1.
       -4    1    3    3    0  502  0.11291830991E+03  0.84516514183E+03 -0.18638422524E+04  0.20496253844E+04  0.12699999809E+01 0.  1.
</event>
<event>
 5   0  0.3838525E-06  0.3045573E+04  0.7818609E-02  0.8230836E-01
        1   -1    0    0  501    0  0.00000000000E+00  0.00000000000E+00  0.13868210863E+04  0.13868210864E+04  0.50400001928E-02 0. -1.
       -1   -1    0    0    0  501  0.00000000000E+00  0.00000000000E+00 -0.16720818808E+04  0.16720818809E+04  0.50400001928E-02 0.  1.
    10030    2    1    2    0    0  0.00000000000E+00  0.00000000000E+00 -0.28526079449E+03  0.30589029672E+04  0.30455727937E+04 0.  0.
        3    1    3    3  502    0  0.10446716915E+03 -0.13898256293E+04  0.47352821270E+03  0.14719910488E+04  0.10100000352E+00 0. -1.
       -3    1    3    3    0  502 -0.10446716915E+03  0.13898256293E+04 -0.75878900719E+03  0.15869119184E+04  0.10100000352E+00 0.  1.
</event>
<event>
 5   0  0.1119100E-05  0.2709579E+04  0.7818609E-02  0.8331904E-01
       -2   -1    0    0    0  501  0.00000000000E+00  0.00000000000E+00  0.17771322410E+04  0.17771322410E+04  0.25500000920E-02 0.  1.
        2   -1    0    0  501    0  0.00000000000E+00  0.00000000000E+00 -0.10328182404E+04  0.10328182404E+04  0.25500000920E-02 0. -1.
    10030    2    1    2    0    0  0.00000000000E+00  0.00000000000E+00  0.74431400057E+03  0.28099504814E+04  0.27095790036E+04 0.  0.
        2    1    3    3  502    0  0.11566927252E+03 -0.12791062800E+04 -0.75050776556E+02  0.12865165662E+04  0.25500000920E-02 0.  1.
       -2    1    3    3    0  502 -0.11566927252E+03  0.12791062800E+04  0.81936477712E+03  0.15234339152E+04  0.25500000920E-02 0. -1.
</event>
<event>
 5   0  0.1108153E-05  0.3336101E+04  0.7818609E-02  0.8153770E-01
        2   -1    0    0  501    0  0.00000000000E+00  0.00000000000E+00  0.16225090038E+04  0.16225090038E+04  0.25500000920E-02 0. -1.
       -2   -1    0    0    0  501  0.00000000000E+00  0.00000000000E+00 -0.17148706489E+04  0.17148706489E+04  0.25500000920E-02 0.  1.
    10030    2    1    2    0    0  0.00000000000E+00  0.00000000000E+00 -0.92361645096E+02  0.33373796526E+04  0.33361013582E+04 0.  0.
        4    1    3    3  502    0  0.60857920188E+03  0.12679493902E+04 -0.94336734742E+03  0.16935193729E+04  0.12699999809E+01 0.  1.
       -4    1    3    3    0  502 -0.60857920188E+03 -0.12679493902E+04  0.85100570232E+03  0.16438602798E+04  0.12699999809E+01 0. -1.
</event>
<event>
 5   0  0.1001961E-05  0.3016762E+04  0.7818609E-02  0.8238961E-01
        2   -1    0    0  501    0  0.00000000000E+00  0.00000000000E+00  0.15640574398E+04  0.15640574398E+04  0.25500000920E-02 0. -1.
       -2   -1    0    0    0  501  0.00000000000E+00  0.00000000000E+00 -0.14546860898E+04  0.14546860898E+04  0.25500000920E-02 0.  1.
    10030    2    1    2    0    0  0.00000000000E+00  0.00000000000E+00  0.10937135001E+03  0.30187435297E+04  0.30167615759E+04 0.  0.
        5    1    3    3  502    0  0.37866017746E+02  0.49311781560E+03  0.14806101088E+04  0.15610340802E+04  0.46999998093E+01 0. -1.
       -5    1    3    3    0  502 -0.37866017746E+02 -0.49311781560E+03 -0.13712387588E+04  0.14577094494E+04  0.46999998093E+01 0.  1.
</event>
<event>
 5   0  0.1001961E-05  0.3088303E+04  0.7818609E-02  0.8218955E-01
       -2   -1    0    0    0  501  0.00000000000E+00  0.00000000000E+00  0.17502570344E+04  0.17502570344E+04  0.25500000920E-02 0. -1.
        2   -1    0    0  501    0  0.00000000000E+00  0.00000000000E+00 -0.13623165226E+04  0.13623165226E+04  0.25500000920E-02 0.  1.
    10030    2    1    2    0    0  0.00000000000E+00  0.00000000000E+00  0.38794051173E+03  0.31125735570E+04  0.30883031437E+04 0.  0.
        5    1    3    3  502    0 -0.30900797000E+03  0.15103571393E+04  0.28250922289E+03  0.15673219722E+04  0.46999998093E+01 0. -1.
       -5    1    3    3    0  502  0.30900797000E+03 -0.15103571393E+04  0.10543128884E+03  0.15452515848E+04  0.46999998093E+01 0.  1.
</event>
<event>
 5   0  0.3807334E-06  0.3496984E+04  0.7818609E-02  0.8114505E-01
       -1   -1    0    0    0  501  0.00000000000E+00  0.00000000000E+00  0.22062114692E+04  0.22062114692E+04  0.50400001928E-02 0.  1.
        1   -1    0    0  501    0  0.00000000000E+00  0.00000000000E+00 -0.13857351479E+04  0.13857351479E+04  0.50400001928E-02 0. -1.
    10030    2    1    2    0    0  0.00000000000E+00  0.00000000000E+00  0.82047632136E+03  0.35919466171E+04  0.34969842874E+04 0.  0.
        4    1    3    3  502    0 -0.15682699427E+04 -0.27686352820E+03  0.11517129167E+04  0.19653417722E+04  0.12699999809E+01 0. -1.
       -4    1    3    3    0  502  0.15682699427E+04  0.27686352820E+03 -0.33123659529E+03  0.16266048449E+04  0.12699999809E+01 0.  1.
</event>
<event>
 5   0  0.4250961E-06  0.3085205E+04  0.7818609E-02  0.8219810E-01
       -1   -1    0    0    0  501  0.00000000000E+00  0.00000000000E+00  0.18545921057E+04  0.18545921057E+04  0.50400001928E-02 0. -1.
        1   -1    0    0  501    0  0.00000000000E+00  0.00000000000E+00 -0.12830974108E+04  0.12830974108E+04  0.50400001928E-02 0.  1.
    10030    2    1    2    0    0  0.00000000000E+00  0.00000000000E+00  0.57149469493E+03  0.31376895166E+04  0.30852049067E+04 0.  0.
        1    1    3    3  502    0  0.26401000822E+03  0.41661492572E+03 -0.12007442739E+04  0.12980971043E+04  0.50400001928E-02 0.  1.
       -1    1    3    3    0  502 -0.26401000822E+03 -0.41661492572E+03  0.17722389688E+04  0.18395924123E+04  0.50400001928E-02 0. -1.
</event>
<event>
 5   0  0.1007567E-05  0.3110088E+04  0.7818609E-02  0.8212975E-01
       -2   -1    0    0    0  501  0.00000000000E+00  0.00000000000E+00  0.17936305340E+04  0.17936305340E+04  0.25500000920E-02 0. -1.
        2   -1    0    0  501    0  0.00000000000E+00  0.00000000000E+00 -0.13481940053E+04  0.13481940053E+04  0.25500000920E-02 0.  1.
    10030    2    1    2    0    0  0.00000000000E+00  0.00000000000E+00  0.44543652867E+03  0.31418245394E+04  0.31100880591E+04 0.  0.
        3    1    3    3  502    0  0.14732636868E+04 -0.48371369768E+03  0.34086075294E+03  0.15876620848E+04  0.10100000352E+00 0. -1.
       -3    1    3    3    0  502 -0.14732636868E+04  0.48371369768E+03  0.10457577573E+03  0.15541624546E+04  0.10100000352E+00 0.  1.
</event>
<event>
 5   0  0.9797278E-06  0.3094716E+04  0.7818609E-02  0.8217190E-01
       -2   -1    0    0    0  501  0.00000000000E+00  0.00000000000E+00  0.13807024528E+04  0.13807024528E+04  0.25500000920E-02 0.  1.
        2   -1    0    0  501    0  0.00000000000E+00  0.00000000000E+00 -0.17341290716E+04  0.17341290716E+04  0.25500000920E-02 0. -1.
    10030    2    1    2    0    0  0.00000000000E+00  0.00000000000E+00 -0.35342661873E+03  0.31148315244E+04  0.30947156655E+04 0.  0.
        1    1    3    3  502    0 -0.50998777916E+03 -0.72269119916E+03 -0.14545903693E+04  0.17024110099E+04  0.50400001928E-02 0. -1.
       -1    1    3    3    0  502  0.50998777916E+03  0.72269119916E+03  0.11011637505E+04  0.14124205145E+04  0.50400001928E-02 0.  1.
</event>
<event>
 5   0  0.1001961E-05  0.2933580E+04  0.7818609E-02  0.8262956E-01
       -2   -1    0    0    0  501  0.00000000000E+00  0.00000000000E+00  0.90992945806E+03  0.90992945806E+03  0.25500000920E-02 0.  1.
        2   -1    0    0  501    0  0.00000000000E+00  0.00000000000E+00 -0.23644390464E+04  0.23644390464E+04  0.25500000920E-02 0. -1.
    10030    2    1    2    0    0  0.00000000000E+00  0.00000000000E+00 -0.14545095883E+04  0.32743685044E+04  0.29335798882E+04 0.  0.
        5    1    3    3  502    0  0.84049077628E+03 -0.68190170929E+03 -0.18322251864E+04  0.21280239449E+04  0.46999998093E+01 0. -1.
       -5    1    3    3    0  502 -0.84049077628E+03  0.68190170929E+03  0.37771559812E+03  0.11463445596E+04  0.46999998093E+01 0.  1.
</event>
<event>
 5   0  0.3838525E-06  0.3063425E+04  0.7818609E-02  0.8225848E-01
        1   -1    0    0  501    0  0.00000000000E+00  0.00000000000E+00  0.15648330406E+04  0.15648330406E+04  0.50400001928E-02 0.  1.
       -1   -1    0    0    0  501  0.00000000000E+00  0.00000000000E+00 -0.14992927226E+04  0.14992927226E+04  0.50400001928E-02 0. -1.
    10030    2    1    2    0    0  0.00000000000E+00  0.00000000000E+00  0.65540317985E+02  0.30641257633E+04  0.30634247436E+04 0.  0.
        3    1    3    3  502    0  0.41260760945E+03 -0.91377903909E+03  0.11910099318E+04  0.15568371268E+04  0.10100000352E+00 0.  1.
       -3    1    3    3    0  502 -0.41260760945E+03  0.91377903909E+03 -0.11254696138E+04  0.15072886364E+04  0.10100000352E+00 0. -1.
</event>
<event>
 5   0  0.1119100E-05  0.3095272E+04  0.7818609E-02  0.8217037E-01
        2   -1    0    0  501    0  0.00000000000E+00  0.00000000000E+00  0.28915716168E+04  0.28915716168E+04  0.25500000920E-02 0.  1.
       -2   -1    0    0    0  501  0.00000000000E+00  0.00000000000E+00 -0.82833038755E+03  0.82833038755E+03  0.25500000920E-02 0. -1.
    10030    2    1    2    0    0  0.00000000000E+00  0.00000000000E+00  0.20632412292E+04  0.37199020043E+04  0.30952716443E+04 0.  0.
        2    1    3    3  502    0  0.11108897520E+04 -0.62216779855E+03 -0.25696850999E+02  0.12735105570E+04  0.25500000920E-02 0.  1.
       -2    1    3    3    0  502 -0.11108897520E+04  0.62216779855E+03  0.20889380802E+04  0.24463914473E+04  0.25500000920E-02 0. -1.
</event>
<event>
 5   0  0.4250961E-06  0.1913933E+04  0.7818609E-02  0.8647952E-01
        1   -1    0    0  501    0  0.00000000000E+00  0.00000000000E+00  0.17694610671E+04  0.17694610671E+04  0.50400001928E-02 0.  1.
       -1   -1    0    0    0  501  0.00000000000E+00  0.00000000000E+00 -0.51755016181E+03  0.51755016184E+03  0.50400001928E-02 0. -1.
    10030    2    1    2    0    0  0.00000000000E+00  0.00000000000E+00  0.12519109053E+04  0.22870112289E+04  0.19139329786E+04 0.  0.
        1    1    3    3  502    0  0.17368776048E+03 -0.87599310530E+03  0.10368672200E+04  0.13684388881E+04  0.50400001928E-02 0.  1.
       -1    1    3    3    0  502 -0.17368776048E+03  0.87599310530E+03  0.21504368530E+03  0.91857234080E+03  0.50400001928E-02 0. -1.
</event>
<event>
 5   0  0.1007567E-05  0.3143386E+04  0.7818609E-02  0.8203931E-01
       -2   -1    0    0    0  501  0.00000000000E+00  0.00000000000E+00  0.12185140742E+04  0.12185140742E+04  0.25500000920E-02 0.  1.
        2   -1    0    0  501    0  0.00000000000E+00  0.00000000000E+00 -0.20272383129E+04  0.20272383129E+04  0.25500000920E-02 0. -1.
    10030    2    1    2    0    0  0.00000000000E+00  0.00000000000E+00 -0.80872423875E+03  0.32457523871E+04  0.31433857009E+04 0.  0.
        3    1    3    3  502    0 -0.10545514345E+04 -0.32552471429E+03 -0.15598088768E+04  0.19107717838E+04  0.10100000352E+00 0. -1.
       -3    1    3    3    0  502  0.10545514345E+04  0.32552471429E+03  0.75108463804E+03  0.13349806033E+04  0.10100000352E+00 0.  1.
</event>
<event>
 5   0  0.1119100E-05  0.3096416E+04  0.7818609E-02  0.8216722E-01
       -2   -1    0    0    0  501  0.00000000000E+00  0.00000000000E+00  0.18443187731E+04  0.18443187731E+04  0.25500000920E-02 0.  1.
        2   -1    0    0  501    0  0.00000000000E+00  0.00000000000E+00 -0.12996388511E+04  0.12996388511E+04  0.25500000920E-02 0. -1.
    10030    2    1    2    0    0  0.00000000000E+00  0.00000000000E+00  0.54467992199E+03  0.31439576242E+04  0.30964162068E+04 0.  0.
        2    1    3    3  502    0  0.60377084150E+03 -0.12778210300E+04  0.91417081601E+03  0.16831738159E+04  0.25500000920E-02 0.  1.
       -2    1    3    3    0  502 -0.60377084150E+03  0.12778210300E+04 -0.36949089402E+03  0.14607838083E+04  0.25500000920E-02 0. -1.
</event>
<event>
 5   0  0.4250961E-06  0.3077145E+04  0.7818609E-02  0.8222038E-01
       -1   -1    0    0    0  501  0.00000000000E+00  0.00000000000E+00  0.13752252673E+04  0.13752252673E+04  0.50400001928E-02 0.  1.
        1   -1    0    0  501    0  0.00000000000E+00  0.00000000000E+00 -0.17213223723E+04  0.17213223724E+04  0.50400001928E-02 0. -1.
    10030    2    1    2    0    0  0.00000000000E+00  0.00000000000E+00 -0.34609710505E+03  0.30965476396E+04  0.30771454432E+04 0.  0.
        1    1    3    3  502    0 -0.51272238650E+03  0.12869137047E+04  0.50063121201E+03  0.14729775081E+04  0.50400001928E-02 0.  1.
       -1    1    3    3    0  502  0.51272238650E+03 -0.12869137047E+04 -0.84672831707E+03  0.16235701315E+04  0.50400001928E-02 0. -1.
</event>
<event>
 5   0  0.1001961E-05  0.3104060E+04  0.7818609E-02  0.8214625E-01
       -2   -1    0    0    0  501  0.00000000000E+00  0.00000000000E+00  0.14018867016E+04  0.14018867016E+04  0.25500000920E-02 0. -1.
        2   -1    0    0  501    0  0.00000000000E+00  0.00000000000E+00 -0.17182534051E+04  0.17182534051E+04  0.25500000920E-02 0.  1.
    10030    2    1    2    0    0  0.00000000000E+00  0.00000000000E+00 -0.31636670352E+03  0.31201401066E+04  0.31040596634E+04 0.  0.
        5    1    3    3  502    0 -0.39382352158E+03  0.12763319275E+04 -0.95262850742E+03  0.16406228447E+04  0.46999998093E+01 0.  1.
       -5    1    3    3    0  502  0.39382352158E+03 -0.12763319275E+04  0.63626180391E+03  0.14795172620E+04  0.46999998093E+01 0. -1.
</event>
<event>
 5   0  0.1119100E-05  0.3075570E+04  0.7818609E-02  0.8222475E-01
       -2   -1    0    0    0  501  0.00000000000E+00  0.00000000000E+00  0.19053989189E+04  0.19053989189E+04  0.25500000920E-02 0. -1.
        2   -1    0    0  501    0  0.00000000000E+00  0.00000000000E+00 -0.12410959739E+04  0.12410959739E+04  0.25500000920E-02 0.  1.
    10030    2    1    2    0    0  0.00000000000E+00  0.00000000000E+00  0.66430294508E+03  0.31464948928E+04  0.30755701435E+04 0.  0.
        2    1    3    3  502    0 -0.40595357785E+03 -0.14482538657E+04  0.45397736474E+01  0.15040805086E+04  0.25500000920E-02 0. -1.
       -2    1    3    3    0  502  0.40595357785E+03  0.14482538657E+04  0.65976317144E+03  0.16424143842E+04  0.25500000920E-02 0.  1.
</event>
<event>
 5   0  0.1001961E-05  0.3134934E+04  0.7818609E-02  0.8206216E-01
       -2   -1    0    0    0  501  0.00000000000E+00  0.00000000000E+00  0.12784167936E+04  0.12784167936E+04  0.25500000920E-02 0.  1.
        2   -1    0    0  501    0  0.00000000000E+00  0.00000000000E+00 -0.19218712779E+04  0.19218712779E+04  0.25500000920E-02 0. -1.
    10030    2    1    2    0    0  0.00000000000E+00  0.00000000000E+00 -0.64345448434E+03  0.32002880715E+04  0.31349338218E+04 0.  0.
        5    1    3    3  502    0  0.14401685501E+04 -0.59263121148E+03 -0.50329235598E+03  0.16366497765E+04  0.46999998093E+01 0.  1.
       -5    1    3    3    0  502 -0.14401685501E+04  0.59263121148E+03 -0.14016212837E+03  0.15636382950E+04  0.46999998093E+01 0. -1.
</event>
<event>
 5   0  0.4250961E-06  0.3261789E+04  0.7818609E-02  0.8172687E-01
       -1   -1    0    0    0  501  0.00000000000E+00  0.00000000000E+00  0.23797866325E+04  0.23797866325E+04  0.50400001928E-02 0. -1.
        1   -1    0    0  501    0  0.00000000000E+00  0.00000000000E+00 -0.11176700691E+04  0.11176700691E+04  0.50400001928E-02 0.  1.
    10030    2    1    2    0    0  0.00000000000E+00  0.00000000000E+00  0.12621165635E+04  0.34974567016E+04  0.32617886443E+04 0.  0.
        1    1    3    3  502    0 -0.79110304595E+03  0.97071677697E+03  0.17513843612E+04  0.21530170160E+04  0.50400001928E-02 0. -1.
       -1    1    3    3    0  502  0.79110304595E+03 -0.97071677697E+03 -0.48926779772E+03  0.13444396856E+04  0.50400001928E-02 0.  1.
</event>
<event>
 5   0  0.1108153E-05  0.3091390E+04  0.7818609E-02  0.8218105E-01
       -2   -1    0    0    0  501  0.00000000000E+00  0.00000000000E+00  0.12545539756E+04  0.12545539756E+04  0.25500000920E-02 0.  1.
        2   -1    0    0  501    0  0.00000000000E+00  0.00000000000E+00 -0.19044004230E+04  0.19044004230E+04  0.25500000920E-02 0. -1.
    10030    2    1    2    0    0  0.00000000000E+00  0.00000000000E+00 -0.64984644745E+03  0.31589543986E+04  0.30913900575E+04 0.  0.
        4    1    3    3  502    0  0.58781096259E+02 -0.44855509872E+03  0.11853900112E+04  0.12687820875E+04  0.12699999809E+01 0.  1.
       -4    1    3    3    0  502 -0.58781096259E+02  0.44855509872E+03 -0.18352364587E+04  0.18901723112E+04  0.12699999809E+01 0. -1.
</event>
<event>
 5   0  0.1007567E-05  0.2636385E+04  0.7818609E-02  0.8355946E-01
       -2   -1    0    0    0  501  0.00000000000E+00  0.00000000000E+00  0.10337201985E+04  0.10337201985E+04  0.25500000920E-02 0.  1.
        2   -1    0    0  501    0  0.00000000000E+00  0.00000000000E+00 -0.16809495770E+04  0.16809495770E+04  0.25500000920E-02 0. -1.
    10030    2    1    2    0    0  0.00000000000E+00  0.00000000000E+00 -0.64722937850E+03  0.27146697755E+04  0.26363850481E+04 0.  0.
        3    1    3    3  502    0  0.41490953161E+03  0.17165163260E+03  0.95254853082E+03  0.10530730821E+04  0.10100000352E+00 0.  1.
       -3    1    3    3    0  502 -0.41490953161E+03 -0.17165163260E+03 -0.15997779093E+04  0.16615966935E+04  0.10100000352E+00 0. -1.
</event>
<event>
 5   0  0.1001961E-05  0.3505279E+04  0.7818609E-02  0.8112540E-01
        2   -1    0    0  501    0  0.00000000000E+00  0.00000000000E+00  0.16015671374E+04  0.16015671374E+04  0.25500000920E-02 0. -1.
       -2   -1    0    0    0  501  0.00000000000E+00  0.00000000000E+00 -0.19179623321E+04  0.19179623321E+04  0.25500000920E-02 0.  1.
    10030    2    1    2    0    0  0.00000000000E+00  0.00000000000E+00 -0.31639519471E+03  0.35195294695E+04  0.35052791283E+04 0.  0.
        5    1    3    3  502    0 -0.41448346469E+03  0.11794896387E+04  0.10751000590E+04  0.16488949564E+04  0.46999998093E+01 0. -1.
       -5    1    3    3    0  502  0.41448346469E+03 -0.11794896387E+04 -0.13914952537E+04  0.18706345131E+04  0.46999998093E+01 0.  1.
</event>
<event>
 5   0  0.1007567E-05  0.3034594E+04  0.7818609E-02  0.8233921E-01
       -2   -1    0    0    0  501  0.00000000000E+00  0.00000000000E+00  0.12553640249E+04  0.12553640249E+04  0.25500000920E-02 0. -1.
        2   -1    0    0  501    0  0.00000000000E+00  0.00000000000E+00 -0.18338821290E+04  0.18338821290E+04  0.25500000920E-02 0.  1.
    10030    2    1    2    0    0  0.00000000000E+00  0.00000000000E+00 -0.57851810408E+03  0.30892461539E+04  0.30345936471E+04 0.  0.
        3    1    3    3  502    0 -0.11755483338E+04  0.22523312676E+03  0.66002940427E+03  0.13668513713E+04  0.10100000352E+00 0.  1.
       -3    1    3    3    0  502  0.11755483338E+04 -0.22523312676E+03 -0.12385475084E+04  0.17223947826E+04  0.10100000352E+00 0. -1.
</event>
<event>
 5   0  0.3838525E-06  0.3074624E+04  0.7818609E-02  0.8222737E-01
        1   -1    0    0  501    0  0.00000000000E+00  0.00000000000E+00  0.10363128497E+04  0.10363128498E+04  0.50400001928E-02 0.  1.
       -1   -1    0    0    0  501  0.00000000000E+00  0.00000000000E+00 -0.22805157645E+04  0.22805157645E+04  0.50400001928E-02 0. -1.
    10030    2    1    2    0    0  0.00000000000E+00  0.00000000000E+00 -0.12442029148E+04  0.33168286143E+04  0.30746237434E+04 0.  0.
        3    1    3    3  502    0 -0.15128589597E+04 -0.18549252159E+03 -0.83833626634E+03  0.17395279283E+04  0.10100000352E+00 0. -1.
       -3    1    3    3    0  502  0.15128589597E+04  0.18549252159E+03 -0.40586664845E+03  0.15773006860E+04  0.10100000352E+00 0.  1.
</event>
<event>
 5   0  0.3838525E-06  0.3033589E+04  0.7818609E-02  0.8234204E-01
       -1   -1    0    0    0  501  0.00000000000E+00  0.00000000000E+00  0.12593843065E+04  0.12593843065E+04  0.50400001928E-02 0. -1.
        1   -1    0    0  501    0  0.00000000000E+00  0.00000000000E+00 -0.18268180328E+04  0.18268180328E+04  0.50400001928E-02 0.  1.
    10030    2    1    2    0    0  0.00000000000E+00  0.00000000000E+00 -0.56743372626E+03  0.30862023393E+04  0.30335892677E+04 0.  0.
        3    1    3    3  502    0  0.98102565338E+03  0.98260012115E+03 -0.90483954225E+03  0.16573017040E+04  0.10100000352E+00 0.  1.
       -3    1    3    3    0  502 -0.98102565338E+03 -0.98260012115E+03  0.33740581599E+03  0.14289006353E+04  0.10100000352E+00 0. -1.
</event>
<event>
 5   0  0.1108153E-05  0.1547052E+04  0.7818609E-02  0.8853753E-01
       -2   -1    0    0    0  501  0.00000000000E+00  0.00000000000E+00  0.68467749031E+03  0.68467749032E+03  0.25500000920E-02 0. -1.
        2   -1    0    0  501    0  0.00000000000E+00  0.00000000000E+00 -0.87390467220E+03  0.87390467220E+03  0.25500000920E-02 0.  1.
    10030    2    1    2    0    0  0.00000000000E+00  0.00000000000E+00 -0.18922718188E+03  0.15585821625E+04  0.15470524978E+04 0.  0.
        4    1    3    3  502    0 -0.10594600424E+03 -0.26716863746E+03 -0.81811445004E+03  0.86713119129E+03  0.12699999809E+01 0.  1.
       -4    1    3    3    0  502  0.10594600424E+03  0.26716863746E+03  0.62888726815E+03  0.69145097122E+03  0.12699999809E+01 0. -1.
</event>
<event>
 5   0  0.4139628E-06  0.1782211E+04  0.7818609E-02  0.8715817E-01
        1   -1    0    0  501    0  0.00000000000E+00  0.00000000000E+00  0.14107612200E+04  0.14107612200E+04  0.50400001928E-02 0.  1.
       -1   -1    0    0    0  501  0.00000000000E+00  0.00000000000E+00 -0.56286543095E+03  0.56286543097E+03  0.50400001928E-02 0. -1.
    10030    2    1    2    0    0  0.00000000000E+00  0.00000000000E+00  0.84789578907E+03  0.19736266510E+04  0.17822106745E+04 0.  0.
        5    1    3    3  502    0  0.33057188539E+03  0.60951766284E+03 -0.19585900695E+03  0.72053618461E+03  0.46999998093E+01 0. -1.
       -5    1    3    3    0  502 -0.33057188539E+03 -0.60951766284E+03  0.10437547960E+04  0.12530904664E+04  0.46999998093E+01 0.  1.
</event>
<event>
 5   0  0.3493125E-06  0.1542851E+04  0.7818609E-02  0.8856447E-01
        3   -1    0    0  501    0  0.00000000000E+00  0.00000000000E+00  0.10253043535E+04  0.10253043585E+04  0.10100000352E+00 0. -1.
       -3   -1    0    0    0  501  0.00000000000E+00  0.00000000000E+00 -0.58041028904E+03  0.58041029783E+03  0.10100000352E+00 0.  1.
    10030    2    1    2    0    0  0.00000000000E+00  0.00000000000E+00  0.44489406449E+03  0.16057146563E+04  0.15428508771E+04 0.  0.
        5    1    3    3  502    0 -0.43660521891E+03  0.37062912873E+03 -0.31541291943E+03  0.65383290525E+03  0.46999998093E+01 0.  1.
       -5    1    3    3    0  502  0.43660521891E+03 -0.37062912873E+03  0.76030698392E+03  0.95188175108E+03  0.46999998093E+01 0. -1.
</event>
<event>
 5   0  0.3838525E-06  0.3460885E+04  0.7818609E-02  0.8123123E-01
        1   -1    0    0  501    0  0.00000000000E+00  0.00000000000E+00  0.22711087445E+04  0.22711087445E+04  0.50400001928E-02 0. -1.
       -1   -1    0    0    0  501  0.00000000000E+00  0.00000000000E+00 -0.13184890771E+04  0.13184890771E+04  0.50400001928E-02 0.  1.
    10030    2    1    2    0    0  0.00000000000E+00  0.00000000000E+00  0.95261966746E+03  0.35895978216E+04  0.34608854777E+04 0.  0.
        3    1    3    3  502    0  0.45633125245E+03  0.86440261911E+03 -0.10047322062E+04  0.14017549416E+04  0.10100000352E+00 0.  1.
       -3    1    3    3    0  502 -0.45633125245E+03 -0.86440261911E+03  0.19573518737E+04  0.21878428800E+04  0.10100000352E+00 0. -1.
</event>
<event>
 5   0  0.3493125E-06  0.2562431E+04  0.7818609E-02  0.8381076E-01
       -3   -1    0    0    0  501  0.00000000000E+00  0.00000000000E+00  0.13898092264E+04  0.13898092301E+04  0.10100000352E+00 0. -1.
        3   -1    0    0  501    0  0.00000000000E+00  0.00000000000E+00 -0.11811065515E+04  0.11811065558E+04  0.10100000352E+00 0.  1.
    10030    2    1    2    0    0  0.00000000000E+00  0.00000000000E+00  0.20870267493E+03  0.25709157859E+04  0.25624307155E+04 0.  0.
        1    1    3    3  502    0 -0.27208952844E+03  0.49387462269E+03  0.12586251390E+04  0.13791599237E+04  0.50400001928E-02 0. -1.
       -1    1    3    3    0  502  0.27208952844E+03 -0.49387462269E+03 -0.10499224641E+04  0.11917558622E+04  0.50400001928E-02 0.  1.
</event>
<event>
 5   0  0.3838525E-06  0.2576865E+04  0.7818609E-02  0.8376102E-01
        1   -1    0    0  501    0  0.00000000000E+00  0.00000000000E+00  0.27003996532E+04  0.27003996532E+04  0.50400001928E-02 0. -1.
       -1   -1    0    0    0  501  0.00000000000E+00  0.00000000000E+00 -0.61474539213E+03  0.61474539215E+03  0.50400001928E-02 0.  1.
    10030    2    1    2    0    0  0.00000000000E+00  0.00000000000E+00  0.20856542611E+04  0.33151450454E+04  0.25768649509E+04 0.  0.
        3    1    3    3  502    0  0.91637596371E+03 -0.10397579732E+03  0.22003242949E+04  0.23857876867E+04  0.10100000352E+00 0. -1.
       -3    1    3    3    0  502 -0.91637596371E+03  0.10397579732E+03 -0.11467003376E+03  0.92935735868E+03  0.10100000352E+00 0.  1.
</event>
<event>
 5   0  0.9797278E-06  0.1986953E+04  0.7818609E-02  0.8612745E-01
        2   -1    0    0  501    0  0.00000000000E+00  0.00000000000E+00  0.21130800752E+04  0.21130800752E+04  0.25500000920E-02 0. -1.
       -2   -1    0    0    0  501  0.00000000000E+00  0.00000000000E+00 -0.46708874460E+03  0.46708874461E+03  0.25500000920E-02 0.  1.
    10030    2    1    2    0    0  0.00000000000E+00  0.00000000000E+00  0.16459913306E+04  0.25801688198E+04  0.19869533659E+04 0.  0.
        1    1    3    3  502    0 -0.23590826628E+03 -0.90574187267E+03  0.12555819740E+04  0.15660482571E+04  0.50400001928E-02 0.  1.
       -1    1    3    3    0  502  0.23590826628E+03  0.90574187267E+03  0.39040935657E+03  0.10141205627E+04  0.50400001928E-02 0. -1.
</event>
<event>
 5   0  0.3848286E-06  0.2109251E+04  0.7818609E-02  0.8557179E-01
        1   -1    0    0  501    0  0.00000000000E+00  0.00000000000E+00  0.10796412260E+04  0.10796412260E+04  0.50400001928E-02 0.  1.
       -1   -1    0    0    0  501  0.00000000000E+00  0.00000000000E+00 -0.10301890873E+04  0.10301890873E+04  0.50400001928E-02 0. -1.
    10030    2    1    2    0    0  0.00000000000E+00  0.00000000000E+00  0.49452138661E+02  0.21098303133E+04  0.21092506814E+04 0.  0.
        2    1    3    3  502    0  0.38443944455E+03 -0.75522432827E+03 -0.60320207538E+03  0.10401972007E+04  0.25500000920E-02 0. -1.
       -2    1    3    3    0  502 -0.38443944455E+03  0.75522432827E+03  0.65265421404E+03  0.10696331126E+04  0.25500000920E-02 0.  1.
</event>
<event>
 5   0  0.3838525E-06  0.2180296E+04  0.7818609E-02  0.8526674E-01
       -1   -1    0    0    0  501  0.00000000000E+00  0.00000000000E+00  0.12086924593E+04  0.12086924593E+04  0.50400001928E-02 0.  1.
        1   -1    0    0  501    0  0.00000000000E+00  0.00000000000E+00 -0.98323002653E+03  0.98323002654E+03  0.50400001928E-02 0. -1.
    10030    2    1    2    0    0  0.00000000000E+00  0.00000000000E+00  0.22546243275E+03  0.21919224858E+04  0.21802960522E+04 0.  0.
        3    1    3    3  502    0  0.56056205707E+03  0.72113839515E+03  0.71101159403E+03  0.11575007135E+04  0.10100000352E+00 0. -1.
       -3    1    3    3    0  502 -0.56056205707E+03 -0.72113839515E+03 -0.48554916128E+03  0.10344217723E+04  0.10100000352E+00 0.  1.
</event>
<event>
 5   0  0.3848286E-06  0.1592337E+04  0.7818609E-02  0.8825269E-01
        1   -1    0    0  501    0  0.00000000000E+00  0.00000000000E+00  0.77620060171E+03  0.77620060173E+03  0.50400001928E-02 0. -1.
       -1   -1    0    0    0  501  0.00000000000E+00  0.00000000000E+00 -0.81665057580E+03  0.81665057581E+03  0.50400001928E-02 0.  1.
    10030    2    1    2    0    0  0.00000000000E+00  0.00000000000E+00 -0.40449974086E+02  0.15928511775E+04  0.15923374873E+04 0.  0.
        2    1    3    3  502    0  0.80908661414E+02 -0.63693808675E+03  0.45072231540E+03  0.78446602441E+03  0.25500000920E-02 0. -1.
       -2    1    3    3    0  502 -0.80908661414E+02  0.63693808675E+03 -0.49117228948E+03  0.80838515313E+03  0.25500000920E-02 0.  1.
</event>
<event>
 5   0  0.3838525E-06  0.3258672E+04  0.7818609E-02  0.8173492E-01
        1   -1    0    0  501    0  0.00000000000E+00  0.00000000000E+00  0.19231928092E+04  0.19231928092E+04  0.50400001928E-02 0. -1.
       -1   -1    0    0    0  501  0.00000000000E+00  0.00000000000E+00 -0.13803796045E+04  0.13803796045E+04  0.50400001928E-02 0.  1.
    10030    2    1    2    0    0  0.00000000000E+00  0.00000000000E+00  0.54281320471E+03  0.33035724137E+04  0.32586722015E+04 0.  0.
        3    1    3    3  502    0  0.39903312355E+03  0.93295934597E+03 -0.10209507110E+04  0.14394377164E+04  0.10100000352E+00 0.  1.
       -3    1    3    3    0  502 -0.39903312355E+03 -0.93295934597E+03  0.15637639158E+04  0.18641346972E+04  0.10100000352E+00 0. -1.
</event>
<event>
 5   0  0.1001961E-05  0.1953094E+04  0.7818609E-02  0.8628870E-01
       -2   -1    0    0    0  501  0.00000000000E+00  0.00000000000E+00  0.66094471725E+03  0.66094471726E+03  0.25500000920E-02 0. -1.
        2   -1    0    0  501    0  0.00000000000E+00  0.00000000000E+00 -0.14428494915E+04  0.14428494915E+04  0.25500000920E-02 0.  1.
    10030    2    1    2    0    0  0.00000000000E+00  0.00000000000E+00 -0.78190477427E+03  0.21037942088E+04  0.19530936989E+04 0.  0.
        5    1    3    3  502    0 -0.72777279350E+03  0.61622394693E+03 -0.61750568888E+03  0.11360988326E+04  0.46999998093E+01 0.  1.
       -5    1    3    3    0  502  0.72777279350E+03 -0.61622394693E+03 -0.16439908539E+03  0.96769537614E+03  0.46999998093E+01 0. -1.
</event>
<event>
 5   0  0.9797278E-06  0.3262533E+04  0.7818609E-02  0.8172495E-01
        2   -1    0    0  501    0  0.00000000000E+00  0.00000000000E+00  0.11120551215E+04  0.11120551215E+04  0.25500000920E-02 0. -1.
       -2   -1    0    0    0  501  0.00000000000E+00  0.00000000000E+00 -0.23928949039E+04  0.23928949039E+04  0.25500000920E-02 0.  1.
    10030    2    1    2    0    0  0.00000000000E+00  0.00000000000E+00 -0.12808397823E+04  0.35049500254E+04  0.32625333918E+04 0.  0.
        1    1    3    3  502    0 -0.62910687515E+03  0.13535281746E+04 -0.13475179366E+04  0.20108750755E+04  0.50400001928E-02 0.  1.
       -1    1    3    3    0  502  0.62910687515E+03 -0.13535281746E+04  0.66678154258E+02  0.14940749499E+04  0.50400001928E-02 0. -1.
</event>
<event>
 5   0  0.4250961E-06  0.3190885E+04  0.7818609E-02  0.8191229E-01
        1   -1    0    0  501    0  0.00000000000E+00  0.00000000000E+00  0.22025876206E+04  0.22025876206E+04  0.50400001928E-02 0. -1.
       -1   -1    0    0    0  501  0.00000000000E+00  0.00000000000E+00 -0.11556572842E+04  0.11556572842E+04  0.50400001928E-02 0.  1.
    10030    2    1    2    0    0  0.00000000000E+00  0.00000000000E+00  0.10469303364E+04  0.33582449048E+04  0.31908847850E+04 0.  0.
        1    1    3    3  502    0  0.11317871225E+04 -0.96716647257E+03 -0.80280735429E+02  0.14909051187E+04  0.50400001928E-02 0.  1.
       -1    1    3    3    0  502 -0.11317871225E+04  0.96716647257E+03  0.11272110718E+04  0.18673397861E+04  0.50400001928E-02 0. -1.
</event>
<event>
 5   0  0.1119100E-05  0.1694283E+04  0.7818609E-02  0.8764632E-01
       -2   -1    0    0    0  501  0.00000000000E+00  0.00000000000E+00  0.11228117932E+04  0.11228117932E+04  0.25500000920E-02 0.  1.
        2   -1    0    0  501    0  0.00000000000E+00  0.00000000000E+00 -0.63915301961E+03  0.63915301961E+03  0.25500000920E-02 0. -1.
    10030    2    1    2    0    0  0.00000000000E+00  0.00000000000E+00  0.48365877355E+03  0.17619648128E+04  0.16942827958E+04 0.  0.
        2    1    3    3  502    0 -0.36333332907E+03  0.69541155959E+03 -0.90368592819E+02  0.78979416799E+03  0.25500000920E-02 0. -1.
       -2    1    3    3    0  502  0.36333332907E+03 -0.69541155959E+03  0.57402736637E+03  0.97217064478E+03  0.25500000920E-02 0.  1.
</event>
<event>
 5   0  0.1001961E-05  0.3122330E+04  0.7818609E-02  0.8209636E-01
        2   -1    0    0  501    0  0.00000000000E+00  0.00000000000E+00  0.18370282492E+04  0.18370282492E+04  0.25500000920E-02 0. -1.
       -2   -1    0    0    0  501  0.00000000000E+00  0.00000000000E+00 -0.13267276939E+04  0.13267276939E+04  0.25500000920E-02 0.  1.
    10030    2    1    2    0    0  0.00000000000E+00  0.00000000000E+00  0.51030055533E+03  0.31637559431E+04  0.31223300612E+04 0.  0.
        5    1    3    3  502    0  0.92644584819E+03  0.72078705715E+03  0.12980671513E+04  0.17500960862E+04  0.46999998093E+01 0. -1.
       -5    1    3    3    0  502 -0.92644584819E+03 -0.72078705715E+03 -0.78776659601E+03  0.14136598570E+04  0.46999998093E+01 0.  1.
</event>
<event>
 5   0  0.3848286E-06  0.2032794E+04  0.7818609E-02  0.8591440E-01
        1   -1    0    0  501    0  0.00000000000E+00  0.00000000000E+00  0.16012583796E+04  0.16012583796E+04  0.50400001928E-02 0. -1.
       -1   -1    0    0    0  501  0.00000000000E+00  0.00000000000E+00 -0.64515713373E+03  0.64515713375E+03  0.50400001928E-02 0.  1.
    10030    2    1    2    0    0  0.00000000000E+00  0.00000000000E+00  0.95610124587E+03  0.22464155134E+04  0.20327943984E+04 0.  0.
        2    1    3    3  502    0 -0.18112746895E+03  0.99562908593E+03  0.58276504604E+03  0.11677754646E+04  0.25500000920E-02 0.  1.
       -2    1    3    3    0  502  0.18112746895E+03 -0.99562908593E+03  0.37333619984E+03  0.10786400488E+04  0.25500000920E-02 0. -1.
</event>
<event>
 5   0  0.1119100E-05  0.3126686E+04  0.7818609E-02  0.8208452E-01
       -2   -1    0    0    0  501  0.00000000000E+00  0.00000000000E+00  0.18700118315E+04  0.18700118315E+04  0.25500000920E-02 0.  1.
        2   -1    0    0  501    0  0.00000000000E+00  0.00000000000E+00 -0.13069654579E+04  0.13069654579E+04  0.25500000920E-02 0. -1.
    10030    2    1    2    0    0  0.00000000000E+00  0.00000000000E+00  0.56304637359E+03  0.31769772894E+04  0.31266857019E+04 0.  0.
        2    1    3    3  502    0 -0.50610851765E+03 -0.12887108643E+04 -0.45618458797E+03  0.14577468579E+04  0.25500000920E-02 0. -1.
       -2    1    3    3    0  502  0.50610851765E+03  0.12887108643E+04  0.10192309616E+04  0.17192304314E+04  0.25500000920E-02 0.  1.
</event>
<event>
 5   0  0.1007567E-05  0.3512877E+04  0.7818609E-02  0.8110745E-01
        2   -1    0    0  501    0  0.00000000000E+00  0.00000000000E+00  0.24916023172E+04  0.24916023172E+04  0.25500000920E-02 0.  1.
       -2   -1    0    0    0  501  0.00000000000E+00  0.00000000000E+00 -0.12381893045E+04  0.12381893045E+04  0.25500000920E-02 0. -1.
    10030    2    1    2    0    0  0.00000000000E+00  0.00000000000E+00  0.12534130127E+04  0.37297916217E+04  0.35128765080E+04 0.  0.
        3    1    3    3  502    0 -0.16017069380E+04  0.68143526604E+03  0.87628787731E+03  0.19487687372E+04  0.10100000352E+00 0.  1.
       -3    1    3    3    0  502  0.16017069380E+04 -0.68143526604E+03  0.37712513543E+03  0.17810228845E+04  0.10100000352E+00 0. -1.
</event>
<event>
 5   0  0.3493125E-06  0.1662813E+04  0.7818609E-02  0.8782862E-01
        3   -1    0    0  501    0  0.00000000000E+00  0.00000000000E+00  0.89343792206E+03  0.89343792776E+03  0.10100000352E+00 0. -1.
       -3   -1    0    0    0  501  0.00000000000E+00  0.00000000000E+00 -0.77368179106E+03  0.77368179765E+03  0.10100000352E+00 0.  1.
    10030    2    1    2    0    0  0.00000000000E+00  0.00000000000E+00  0.11975613100E+03  0.16671197254E+04  0.16628128722E+04 0.  0.
        2    1    3    3  502    0  0.38134591033E+03 -0.72826564837E+03  0.18446215636E+03  0.84250925517E+03  0.25500000920E-02 0.  1.
       -2    1    3    3    0  502 -0.38134591033E+03  0.72826564837E+03 -0.64706025361E+02  0.82461047024E+03  0.25500000920E-02 0. -1.
</event>
<event>
 5   0  0.4139628E-06  0.3097336E+04  0.7818609E-02  0.8216470E-01
        1   -1    0    0  501    0  0.00000000000E+00  0.00000000000E+00  0.22608521746E+04  0.22608521746E+04  0.50400001928E-02 0. -1.
       -1   -1    0    0    0  501  0.00000000000E+00  0.00000000000E+00 -0.10608264635E+04  0.10608264636E+04  0.50400001928E-02 0.  1.
    10030    2    1    2    0    0  0.00000000000E+00  0.00000000000E+00  0.12000257111E+04  0.33216786382E+04  0.30973355111E+04 0.  0.
        5    1    3    3  502    0  0.14303859679E+04  0.56654632756E+02 -0.33662262528E+02  0.14319109618E+04  0.46999998093E+01 0.  1.
       -5    1    3    3    0  502 -0.14303859679E+04 -0.56654632756E+02  0.12336879736E+04  0.18897676764E+04  0.46999998093E+01 0. -1.
</event>
<event>
 5   0  0.9797278E-06  0.3155208E+04  0.7818609E-02  0.8200748E-01
        2   -1    0    0  501    0  0.00000000000E+00  0.00000000000E+00  0.20200659009E+04  0.20200659009E+04  0.25500000920E-02 0. -1.
       -2   -1    0    0    0  501  0.00000000000E+00  0.00000000000E+00 -0.12320558946E+04  0.12320558946E+04  0.25500000920E-02 0.  1.
    10030    2    1    2    0    0  0.00000000000E+00  0.00000000000E+00  0.78801000627E+03  0.32521217955E+04  0.31552078225E+04 0.  0.
        1    1    3    3  502    0  0.42938042823E+03  0.11400039732E+04  0.14272208749E+04  0.18764157420E+04  0.50400001928E-02 0. -1.
       -1    1    3    3    0  502 -0.42938042823E+03 -0.11400039732E+04 -0.63921086861E+03  0.13757060535E+04  0.50400001928E-02 0.  1.
</event>
<event>
 5   0  0.3807334E-06  0.2827883E+04  0.7818609E-02  0.8294664E-01
       -1   -1    0    0    0  501  0.00000000000E+00  0.00000000000E+00  0.84698173419E+03  0.84698173420E+03  0.50400001928E-02 0.  1.
        1   -1    0    0  501    0  0.00000000000E+00  0.00000000000E+00 -0.23604167535E+04  0.23604167535E+04  0.50400001928E-02 0. -1.
    10030    2    1    2    0    0  0.00000000000E+00  0.00000000000E+00 -0.15134350193E+04  0.32073984877E+04  0.28278825119E+04 0.  0.
        4    1    3    3  502    0 -0.72069950216E+03 -0.11956698570E+04 -0.10108252064E+04  0.17236018654E+04  0.12699999809E+01 0. -1.
       -4    1    3    3    0  502  0.72069950216E+03  0.11956698570E+04 -0.50260981286E+03  0.14837966223E+04  0.12699999809E+01 0.  1.
</event>
<event>
 5   0  0.3848286E-06  0.3017762E+04  0.7818609E-02  0.8238677E-01
        1   -1    0    0  501    0  0.00000000000E+00  0.00000000000E+00  0.14582156813E+04  0.14582156813E+04  0.50400001928E-02 0.  1.
       -1   -1    0    0    0  501  0.00000000000E+00  0.00000000000E+00 -0.15613064926E+04  0.15613064926E+04  0.50400001928E-02 0. -1.
    10030    2    1    2    0    0  0.00000000000E+00  0.00000000000E+00 -0.10309081130E+03  0.30195221740E+04  0.30177618269E+04 0.  0.
        2    1    3    3  502    0  0.10394784164E+04 -0.24103369965E+03 -0.11189896238E+04  0.15462051613E+04  0.25500000920E-02 0. -1.
       -2    1    3    3    0  502 -0.10394784164E+04  0.24103369965E+03  0.10158988125E+04  0.14733170127E+04  0.25500000920E-02 0.  1.
</event>
<event>
 5   0  0.1108153E-05  0.1744498E+04  0.7818609E-02  0.8736385E-01
       -2   -1    0    0    0  501  0.00000000000E+00  0.00000000000E+00  0.58840224080E+03  0.58840224080E+03  0.25500000920E-02 0. -1.
        2   -1    0    0  501    0  0.00000000000E+00  0.00000000000E+00 -0.12930234318E+04  0.12930234318E+04  0.25500000920E-02 0.  1.
    10030    2    1    2    0    0  0.00000000000E+00  0.00000000000E+00 -0.70462119097E+03  0.18814256726E+04  0.17444975032E+04 0.  0.
        4    1    3    3  502    0  0.36000520856E+03  0.26810988869E+03 -0.11588964822E+04  0.12427909446E+04  0.12699999809E+01 0.  1.
       -4    1    3    3    0  502 -0.36000520856E+03 -0.26810988869E+03  0.45427529126E+03  0.63863472795E+03  0.12699999809E+01 0. -1.
</event>
<event>
 5   0  0.1119100E-05  0.3016294E+04  0.7818609E-02  0.8239093E-01
       -2   -1    0    0    0  501  0.00000000000E+00  0.00000000000E+00  0.12079876368E+04  0.12079876368E+04  0.25500000920E-02 0. -1.
        2   -1    0    0  501    0  0.00000000000E+00  0.00000000000E+00 -0.18828899817E+04  0.18828899817E+04  0.25500000920E-02 0.  1.
    10030    2    1    2    0    0  0.00000000000E+00  0.00000000000E+00 -0.67490234494E+03  0.30908776185E+04  0.30162942956E+04 0.  0.
        2    1    3    3  502    0 -0.50829202237E+03 -0.56245439554E+03 -0.16734497608E+04  0.18371580850E+04  0.25500000920E-02 0.  1.
       -2    1    3    3    0  502  0.50829202237E+03  0.56245439554E+03  0.99854741589E+03  0.12537195336E+04  0.25500000920E-02 0. -1.
</event>
<event>
 5   0  0.1007567E-05  0.3171745E+04  0.7818609E-02  0.8196319E-01
        2   -1    0    0  501    0  0.00000000000E+00  0.00000000000E+00  0.18013208937E+04  0.18013208937E+04  0.25500000920E-02 0. -1.
       -2   -1    0    0    0  501  0.00000000000E+00  0.00000000000E+00 -0.13961932699E+04  0.13961932699E+04  0.25500000920E-02 0.  1.
    10030    2    1    2    0    0  0.00000000000E+00  0.00000000000E+00  0.40512762379E+03  0.31975141636E+04  0.31717453295E+04 0.  0.
        3    1    3    3  502    0  0.12931395975E+04  0.93284433531E+02  0.11232636064E+04  0.17154104885E+04  0.10100000352E+00 0. -1.
       -3    1    3    3    0  502 -0.12931395975E+04 -0.93284433531E+02 -0.71813598260E+03  0.14821036752E+04  0.10100000352E+00 0.  1.
</event>
<event>
 5   0  0.3493125E-06  0.3071006E+04  0.7818609E-02  0.8223740E-01
        4   -1    0    0  501    0  0.00000000000E+00  0.00000000000E+00  0.16396827516E+04  0.16396832434E+04  0.12699999809E+01 0. -1.
       -4   -1    0    0    0  501  0.00000000000E+00  0.00000000000E+00 -0.14379419401E+04  0.14379425009E+04  0.12699999809E+01 0.  1.
    10030    2    1    2    0    0  0.00000000000E+00  0.00000000000E+00  0.20174081152E+03  0.30776257444E+04  0.30710064909E+04 0.  0.
        3    1    3    3  502    0  0.10185672464E+04  0.44808244580E+03 -0.95948061882E+03  0.14693060205E+04  0.10100000352E+00 0.  1.
       -3    1    3    3    0  502 -0.10185672464E+04 -0.44808244580E+03  0.11612214303E+04  0.16083197239E+04  0.10100000352E+00 0. -1.
</event>
<event>
 5   0  0.1108153E-05  0.3235629E+04  0.7818609E-02  0.8179470E-01
        2   -1    0    0  501    0  0.00000000000E+00  0.00000000000E+00  0.15807022836E+04  0.15807022836E+04  0.25500000920E-02 0. -1.
       -2   -1    0    0    0  501  0.00000000000E+00  0.00000000000E+00 -0.16557984821E+04  0.16557984821E+04  0.25500000920E-02 0.  1.
    10030    2    1    2    0    0  0.00000000000E+00  0.00000000000E+00 -0.75096198474E+02  0.32365007657E+04  0.32356294237E+04 0.  0.
        4    1    3    3  502    0  0.11487308865E+04 -0.18595662240E+03  0.10866586137E+04  0.15921655287E+04  0.12699999809E+01 0. -1.
       -4    1    3    3    0  502 -0.11487308865E+04  0.18595662240E+03 -0.11617548122E+04  0.16443352370E+04  0.12699999809E+01 0.  1.
</event>
<event>
 5   0  0.1007567E-05  0.2234931E+04  0.7818609E-02  0.8504028E-01
        2   -1    0    0  501    0  0.00000000000E+00  0.00000000000E+00  0.85542921904E+03  0.85542921904E+03  0.25500000920E-02 0.  1.
       -2   -1    0    0    0  501  0.00000000000E+00  0.00000000000E+00 -0.14597685939E+04  0.14597685939E+04  0.25500000920E-02 0. -1.
    10030    2    1    2    0    0  0.00000000000E+00  0.00000000000E+00 -0.60433937491E+03  0.23151978130E+04  0.22349306104E+04 0.  0.
        3    1    3    3  502    0 -0.66432153504E+03  0.45711798459E+03 -0.11035479164E+04  0.13667838043E+04  0.10100000352E+00 0. -1.
       -3    1    3    3    0  502  0.66432153504E+03 -0.45711798459E+03  0.49920854149E+03  0.94841400867E+03  0.10100000352E+00 0.  1.
</event>
<event>
 5   0  0.3838525E-06  0.3052100E+04  0.7818609E-02  0.8229008E-01
       -1   -1    0    0    0  501  0.00000000000E+00  0.00000000000E+00  0.17703939780E+04  0.17703939780E+04  0.50400001928E-02 0.  1.
        1   -1    0    0  501    0  0.00000000000E+00  0.00000000000E+00 -0.13154297795E+04  0.13154297795E+04  0.50400001928E-02 0. -1.
    10030    2    1    2    0    0  0.00000000000E+00  0.00000000000E+00  0.45496419852E+03  0.30858237574E+04  0.30521002343E+04 0.  0.
        3    1    3    3  502    0 -0.10344018776E+04 -0.10955291608E+04  0.47235139651E+03  0.15790146417E+04  0.10100000352E+00 0. -1.
       -3    1    3    3    0  502  0.10344018776E+04  0.10955291608E+04 -0.17387197997E+02  0.15068091158E+04  0.10100000352E+00 0.  1.
</event>
<event>
 5   0  0.1007567E-05  0.3103638E+04  0.7818609E-02  0.8214740E-01
        2   -1    0    0  501    0  0.00000000000E+00  0.00000000000E+00  0.16370644440E+04  0.16370644440E+04  0.25500000920E-02 0. -1.
       -2   -1    0    0    0  501  0.00000000000E+00  0.00000000000E+00 -0.14710126099E+04  0.14710126100E+04  0.25500000920E-02 0.  1.
    10030    2    1    2    0    0  0.00000000000E+00  0.00000000000E+00  0.16605183403E+03  0.31080770539E+04  0.31036381493E+04 0.  0.
        3    1    3    3  502    0 -0.11260487572E+04  0.42688427855E+03 -0.89711106414E+03  0.15016738203E+04  0.10100000352E+00 0. -1.
       -3    1    3    3    0  502  0.11260487572E+04 -0.42688427855E+03  0.10631628982E+04  0.16064032337E+04  0.10100000352E+00 0.  1.
</event>
<event>
 5   0  0.3848286E-06  0.2483944E+04  0.7818609E-02  0.8408728E-01
        1   -1    0    0  501    0  0.00000000000E+00  0.00000000000E+00  0.14494939365E+04  0.14494939366E+04  0.50400001928E-02 0. -1.
       -1   -1    0    0    0  501  0.00000000000E+00  0.00000000000E+00 -0.10641606882E+04  0.10641606882E+04  0.50400001928E-02 0.  1.
    10030    2    1    2    0    0  0.00000000000E+00  0.00000000000E+00  0.38533324832E+03  0.25136546248E+04  0.24839440132E+04 0.  0.
        2    1    3    3  502    0  0.14281564984E+03  0.33581087754E+03  0.13940179426E+04  0.14409896875E+04  0.25500000920E-02 0. -1.
       -2    1    3    3    0  502 -0.14281564984E+03 -0.33581087754E+03 -0.10086846942E+04  0.10726649373E+04  0.25500000920E-02 0.  1.
</event>
<event>
 5   0  0.4250961E-06  0.3147028E+04  0.7818609E-02  0.8202949E-01
       -1   -1    0    0    0  501  0.00000000000E+00  0.00000000000E+00  0.16186756985E+04  0.16186756985E+04  0.50400001928E-02 0. -1.
        1   -1    0    0  501    0  0.00000000000E+00  0.00000000000E+00 -0.15296124576E+04  0.15296124576E+04  0.50400001928E-02 0.  1.
    10030    2    1    2    0    0  0.00000000000E+00  0.00000000000E+00  0.89063240971E+02  0.31482881561E+04  0.31470281303E+04 0.  0.
        1    1    3    3  502    0 -0.49820177977E+03 -0.10578820377E+04 -0.10088035727E+04  0.15443458380E+04  0.50400001928E-02 0.  1.
       -1    1    3    3    0  502  0.49820177977E+03  0.10578820377E+04  0.10978668137E+04  0.16039423181E+04  0.50400001928E-02 0. -1.
</event>
<event>
 5   0  0.1108153E-05  0.3133064E+04  0.7818609E-02  0.8206722E-01
        2   -1    0    0  501    0  0.00000000000E+00  0.00000000000E+00  0.10935029812E+04  0.10935029812E+04  0.25500000920E-02 0.  1.
       -2   -1    0    0    0  501  0.00000000000E+00  0.00000000000E+00 -0.22441840205E+04  0.22441840205E+04  0.25500000920E-02 0. -1.
    10030    2    1    2    0    0  0.00000000000E+00  0.00000000000E+00 -0.11506810393E+04  0.33376870018E+04  0.31330636233E+04 0.  0.
        4    1    3    3  502    0  0.64871809956E+03 -0.12748511464E+04  0.10507525209E+03  0.14342674226E+04  0.12699999809E+01 0. -1.
       -4    1    3    3    0  502 -0.64871809956E+03  0.12748511464E+04 -0.12557562914E+04  0.19034195792E+04  0.12699999809E+01 0.  1.
</event>
<event>
 5   0  0.9797278E-06  0.2943144E+04  0.7818609E-02  0.8260155E-01
        2   -1    0    0  501    0  0.00000000000E+00  0.00000000000E+00  0.18657777958E+04  0.18657777958E+04  0.25500000920E-02 0. -1.
       -2   -1    0    0    0  501  0.00000000000E+00  0.00000000000E+00 -0.11606549914E+04  0.11606549914E+04  0.25500000920E-02 0.  1.
    10030    2    1    2    0    0  0.00000000000E+00  0.00000000000E+00  0.70512280439E+03  0.30264327871E+04  0.29431441089E+04 0.  0.
        1    1    3    3  502    0  0.13760718204E+04  0.48847027303E+03  0.16478076280E+03  0.14694657404E+04  0.50400001928E-02 0. -1.
       -1    1    3    3    0  502 -0.13760718204E+04 -0.48847027303E+03  0.54034204160E+03  0.15569670467E+04  0.50400001928E-02 0.  1.
</event>
<event>
 5   0  0.1108153E-05  0.3128697E+04  0.7818609E-02  0.8207906E-01
        2   -1    0    0  501    0  0.00000000000E+00  0.00000000000E+00  0.15085078789E+04  0.15085078789E+04  0.25500000920E-02 0. -1.
       -2   -1    0    0    0  501  0.00000000000E+00  0.00000000000E+00 -0.16222565808E+04  0.16222565808E+04  0.25500000920E-02 0.  1.
    10030    2    1    2    0    0  0.00000000000E+00  0.00000000000E+00 -0.11374870184E+03  0.31307644597E+04  0.31286973863E+04 0.  0.
        4    1    3    3  502    0 -0.11730056673E+04 -0.61618510264E+03 -0.88902394512E+03  0.15956163587E+04  0.12699999809E+01 0.  1.
       -4    1    3    3    0  502  0.11730056673E+04  0.61618510264E+03  0.77527524328E+03  0.15351481010E+04  0.12699999809E+01 0. -1.
</event>
<event>
 5   0  0.4250961E-06  0.3100446E+04  0.7818609E-02  0.8215615E-01
        1   -1    0    0  501    0  0.00000000000E+00  0.00000000000E+00  0.16333902480E+04  0.16333902480E+04  0.50400001928E-02 0.  1.
       -1   -1    0    0    0  501  0.00000000000E+00  0.00000000000E+00 -0.14712906061E+04  0.14712906061E+04  0.50400001928E-02 0. -1.
    10030    2    1    2    0    0  0.00000000000E+00  0.00000000000E+00  0.16209964189E+03  0.31046808541E+04  0.31004462440E+04 0.  0.
        1    1    3    3  502    0  0.35581514026E+03 -0.97204362868E+03  0.12366270455E+04  0.16126746975E+04  0.50400001928E-02 0. -1.
       -1    1    3    3    0  502 -0.35581514026E+03  0.97204362868E+03 -0.10745274036E+04  0.14920061566E+04  0.50400001928E-02 0.  1.
</event>
<event>
 5   0  0.1007567E-05  0.1632751E+04  0.7818609E-02  0.8800677E-01
        2   -1    0    0  501    0  0.00000000000E+00  0.00000000000E+00  0.45274156443E+03  0.45274156444E+03  0.25500000920E-02 0. -1.
       -2   -1    0    0    0  501  0.00000000000E+00  0.00000000000E+00 -0.14720734417E+04  0.14720734417E+04  0.25500000920E-02 0.  1.
    10030    2    1    2    0    0  0.00000000000E+00  0.00000000000E+00 -0.10193318772E+04  0.19248150061E+04  0.16327508480E+04 0.  0.
        3    1    3    3  502    0  0.50314012607E+03  0.58389649336E+03 -0.19249781619E+03  0.79444352905E+03  0.10100000352E+00 0. -1.
       -3    1    3    3    0  502 -0.50314012607E+03 -0.58389649336E+03 -0.82683406104E+03  0.11303714770E+04  0.10100000352E+00 0.  1.
</event>
<event>
 5   0  0.9797278E-06  0.3064381E+04  0.7818609E-02  0.8225582E-01
        2   -1    0    0  501    0  0.00000000000E+00  0.00000000000E+00  0.15544730475E+04  0.15544730475E+04  0.25500000920E-02 0. -1.
       -2   -1    0    0    0  501  0.00000000000E+00  0.00000000000E+00 -0.15102272367E+04  0.15102272367E+04  0.25500000920E-02 0.  1.
    10030    2    1    2    0    0  0.00000000000E+00  0.00000000000E+00  0.44245810828E+02  0.30647002842E+04  0.30643808739E+04 0.  0.
        1    1    3    3  502    0  0.11015180569E+04  0.76940021883E+03  0.75860227618E+03  0.15429828709E+04  0.50400001928E-02 0. -1.
       -1    1    3    3    0  502 -0.11015180569E+04 -0.76940021883E+03 -0.71435646535E+03  0.15217174133E+04  0.50400001928E-02 0.  1.
</event>
<event>
 5   0  0.3848286E-06  0.2596317E+04  0.7818609E-02  0.8369453E-01
        1   -1    0    0  501    0  0.00000000000E+00  0.00000000000E+00  0.16702036372E+04  0.16702036372E+04  0.50400001928E-02 0.  1.
       -1   -1    0    0    0  501  0.00000000000E+00  0.00000000000E+00 -0.10089883144E+04  0.10089883144E+04  0.50400001928E-02 0. -1.
    10030    2    1    2    0    0  0.00000000000E+00  0.00000000000E+00  0.66121532276E+03  0.26791919516E+04  0.25963173555E+04 0.  0.
        2    1    3    3  502    0  0.12458199368E+04 -0.30965741300E+03  0.52980010770E+03  0.13887559838E+04  0.25500000920E-02 0.  1.
       -2    1    3    3    0  502 -0.12458199368E+04  0.30965741300E+03  0.13141521506E+03  0.12904359678E+04  0.25500000920E-02 0. -1.
</event>
<event>
 5   0  0.4250961E-06  0.3108702E+04  0.7818609E-02  0.8213354E-01
       -1   -1    0    0    0  501  0.00000000000E+00  0.00000000000E+00  0.13062861485E+04  0.13062861485E+04  0.50400001928E-02 0. -1.
        1   -1    0    0  501    0  0.00000000000E+00  0.00000000000E+00 -0.18495234990E+04  0.18495234990E+04  0.50400001928E-02 0.  1.
    10030    2    1    2    0    0  0.00000000000E+00  0.00000000000E+00 -0.54323735043E+03  0.31558096475E+04  0.31087019337E+04 0.  0.
        1    1    3    3  502    0  0.10110860529E+03  0.15506343691E+04 -0.23477781137E+03  0.15715630809E+04  0.50400001928E-02 0. -1.
       -1    1    3    3    0  502 -0.10110860529E+03 -0.15506343691E+04 -0.30845953906E+03  0.15842465666E+04  0.50400001928E-02 0.  1.
</event>
<event>
 5   0  0.3848286E-06  0.3093737E+04  0.7818609E-02  0.8217459E-01
        1   -1    0    0  501    0  0.00000000000E+00  0.00000000000E+00  0.19582081292E+04  0.19582081292E+04  0.50400001928E-02 0. -1.
       -1   -1    0    0    0  501  0.00000000000E+00  0.00000000000E+00 -0.12219345326E+04  0.12219345326E+04  0.50400001928E-02 0.  1.
    10030    2    1    2    0    0  0.00000000000E+00  0.00000000000E+00  0.73627359666E+03  0.31801426618E+04  0.30937369863E+04 0.  0.
        2    1    3    3  502    0 -0.27820363656E+02  0.14978807275E+04 -0.27824806303E+02  0.14983974327E+04  0.25500000920E-02 0.  1.
       -2    1    3    3    0  502  0.27820363656E+02 -0.14978807275E+04  0.76409840296E+03  0.16817452292E+04  0.25500000920E-02 0. -1.
</event>
<event>
 5   0  0.1007567E-05  0.3038678E+04  0.7818609E-02  0.8232772E-01
        2   -1    0    0  501    0  0.00000000000E+00  0.00000000000E+00  0.16062500978E+04  0.16062500979E+04  0.25500000920E-02 0.  1.
       -2   -1    0    0    0  501  0.00000000000E+00  0.00000000000E+00 -0.14371301724E+04  0.14371301724E+04  0.25500000920E-02 0. -1.
    10030    2    1    2    0    0  0.00000000000E+00  0.00000000000E+00  0.16911992549E+03  0.30433802702E+04  0.30386776598E+04 0.  0.
        3    1    3    3  502    0  0.14789601633E+04 -0.29268554368E+03 -0.10388668524E+03  0.15112181992E+04  0.10100000352E+00 0. -1.
       -3    1    3    3    0  502 -0.14789601633E+04  0.29268554368E+03  0.27300661072E+03  0.15321620710E+04  0.10100000352E+00 0.  1.
</event>
<event>
 5   0  0.3848286E-06  0.3094934E+04  0.7818609E-02  0.8217130E-01
       -1   -1    0    0    0  501  0.00000000000E+00  0.00000000000E+00  0.11402246660E+04  0.11402246660E+04  0.50400001928E-02 0. -1.
        1   -1    0    0  501    0  0.00000000000E+00  0.00000000000E+00 -0.21001593082E+04  0.21001593082E+04  0.50400001928E-02 0.  1.
    10030    2    1    2    0    0  0.00000000000E+00  0.00000000000E+00 -0.95993464221E+03  0.32403839741E+04  0.30949335667E+04 0.  0.
        2    1    3    3  502    0  0.10662057308E+04  0.11190447433E+04 -0.55830089245E+03  0.16433976039E+04  0.25500000920E-02 0. -1.
       -2    1    3    3    0  502 -0.10662057308E+04 -0.11190447433E+04 -0.40163374976E+03  0.15969863703E+04  0.25500000920E-02 0.  1.
</event>
<event>
 5   0  0.1108153E-05  0.2089436E+04  0.7818609E-02  0.8565911E-01
        2   -1    0    0  501    0  0.00000000000E+00  0.00000000000E+00  0.14195028560E+04  0.14195028560E+04  0.25500000920E-02 0. -1.
       -2   -1    0    0    0  501  0.00000000000E+00  0.00000000000E+00 -0.76888620021E+03  0.76888620021E+03  0.25500000920E-02 0.  1.
    10030    2    1    2    0    0  0.00000000000E+00  0.00000000000E+00  0.65061665576E+03  0.21883890562E+04  0.20894364380E+04 0.  0.
        4    1    3    3  502    0  0.76396274274E+03  0.10360284456E+03 -0.41310685482E+03  0.87466079602E+03  0.12699999809E+01 0.  1.
       -4    1    3    3    0  502 -0.76396274274E+03 -0.10360284456E+03  0.10637235106E+04  0.13137282602E+04  0.12699999809E+01 0. -1.
</event>
<event>
 5   0  0.3838525E-06  0.2057059E+04  0.7818609E-02  0.8580399E-01
        1   -1    0    0  501    0  0.00000000000E+00  0.00000000000E+00  0.11292157068E+04  0.11292157068E+04  0.50400001928E-02 0.  1.
       -1   -1    0    0    0  501  0.00000000000E+00  0.00000000000E+00 -0.93682085009E+03  0.93682085010E+03  0.50400001928E-02 0. -1.
    10030    2    1    2    0    0  0.00000000000E+00  0.00000000000E+00  0.19239485669E+03  0.20660365569E+04  0.20570588892E+04 0.  0.
        3    1    3    3  502    0  0.58397950763E+03 -0.24852210631E+02 -0.75379575362E+03  0.95386463720E+03  0.10100000352E+00 0. -1.
       -3    1    3    3    0  502 -0.58397950763E+03  0.24852210631E+02  0.94619061031E+03  0.11121719197E+04  0.10100000352E+00 0.  1.
</event>
<event>
 5   0  0.4250961E-06  0.3076210E+04  0.7818609E-02  0.8222297E-01
        1   -1    0    0  501    0  0.00000000000E+00  0.00000000000E+00  0.23094283626E+04  0.23094283627E+04  0.50400001928E-02 0. -1.
       -1   -1    0    0    0  501  0.00000000000E+00  0.00000000000E+00 -0.10243948015E+04  0.10243948015E+04  0.50400001928E-02 0.  1.
    10030    2    1    2    0    0  0.00000000000E+00  0.00000000000E+00  0.12850335611E+04  0.33338231642E+04  0.30762096217E+04 0.  0.
        1    1    3    3  502    0 -0.11508686578E+04 -0.95712343946E+03  0.10259576320E+04  0.18147101720E+04  0.50400001928E-02 0.  1.
       -1    1    3    3    0  502  0.11508686578E+04  0.95712343946E+03  0.25907592917E+03  0.15191129922E+04  0.50400001928E-02 0. -1.
</event>
<event>
 5   0  0.1108153E-05  0.2322385E+04  0.7818609E-02  0.8469147E-01
        2   -1    0    0  501    0  0.00000000000E+00  0.00000000000E+00  0.12084957848E+04  0.12084957848E+04  0.25500000920E-02 0.  1.
       -2   -1    0    0    0  501  0.00000000000E+00  0.00000000000E+00 -0.11157403255E+04  0.11157403255E+04  0.25500000920E-02 0. -1.
    10030    2    1    2    0    0  0.00000000000E+00  0.00000000000E+00  0.92755459233E+02  0.23242361103E+04  0.23223845334E+04 0.  0.
        4    1    3    3  502    0  0.75779347154E+03  0.87942416611E+03  0.19373668285E+02  0.11610403789E+04  0.12699999809E+01 0. -1.
       -4    1    3    3    0  502 -0.75779347154E+03 -0.87942416611E+03  0.73381790948E+02  0.11631957314E+04  0.12699999809E+01 0.  1.
</event>
<event>
 5   0  0.1001961E-05  0.3080681E+04  0.7818609E-02  0.8221060E-01
        2   -1    0    0  501    0  0.00000000000E+00  0.00000000000E+00  0.18720147788E+04  0.18720147788E+04  0.25500000920E-02 0. -1.
       -2   -1    0    0    0  501  0.00000000000E+00  0.00000000000E+00 -0.12674310073E+04  0.12674310073E+04  0.25500000920E-02 0.  1.
    10030    2    1    2    0    0  0.00000000000E+00  0.00000000000E+00  0.60458377141E+03  0.31394457861E+04  0.30806814680E+04 0.  0.
        5    1    3    3  502    0 -0.13897635193E+04  0.99963695782E+02  0.97146979049E+03  0.16985908936E+04  0.46999998093E+01 0. -1.
       -5    1    3    3    0  502  0.13897635193E+04 -0.99963695782E+02 -0.36688601908E+03  0.14408548925E+04  0.46999998093E+01 0.  1.
</event>
<event>
 5   0  0.3848286E-06  0.2816254E+04  0.7818609E-02  0.8298240E-01
        1   -1    0    0  501    0  0.00000000000E+00  0.00000000000E+00  0.21983139532E+04  0.21983139532E+04  0.50400001928E-02 0. -1.
       -1   -1    0    0    0  501  0.00000000000E+00  0.00000000000E+00 -0.90197391279E+03  0.90197391280E+03  0.50400001928E-02 0.  1.
    10030    2    1    2    0    0  0.00000000000E+00  0.00000000000E+00  0.12963400404E+04  0.31002878660E+04  0.28162541348E+04 0.  0.
        2    1    3    3  502    0 -0.40212013638E+03  0.85509571492E+03  0.17974609783E+04  0.20307031428E+04  0.25500000920E-02 0. -1.
       -2    1    3    3    0  502  0.40212013638E+03 -0.85509571492E+03 -0.50112093786E+03  0.10695847232E+04  0.25500000920E-02 0.  1.
</event>
<event>
 5   0  0.3848286E-06  0.2982849E+04  0.7818609E-02  0.8248646E-01
        1   -1    0    0  501    0  0.00000000000E+00  0.00000000000E+00  0.12166200034E+04  0.12166200034E+04  0.50400001928E-02 0. -1.
       -1   -1    0    0    0  501  0.00000000000E+00  0.00000000000E+00 -0.18283000507E+04  0.18283000507E+04  0.50400001928E-02 0.  1.
    10030    2    1    2    0    0  0.00000000000E+00  0.00000000000E+00 -0.61168004734E+03  0.30449200541E+04  0.29828485807E+04 0.  0.
        2    1    3    3  502    0 -0.11930279443E+04  0.49189042691E+03 -0.10691124028E+04  0.16757903204E+04  0.25500000920E-02 0. -1.
       -2    1    3    3    0  502  0.11930279443E+04 -0.49189042691E+03  0.45743235548E+03  0.13691297337E+04  0.25500000920E-02 0.  1.
</event>
<event>
 5   0  0.4250961E-06  0.2614004E+04  0.7818609E-02  0.8363460E-01
       -1   -1    0    0    0  501  0.00000000000E+00  0.00000000000E+00  0.17028364295E+04  0.17028364295E+04  0.50400001928E-02 0. -1.
        1   -1    0    0  501    0  0.00000000000E+00  0.00000000000E+00 -0.10031818505E+04  0.10031818505E+04  0.50400001928E-02 0.  1.
    10030    2    1    2    0    0  0.00000000000E+00  0.00000000000E+00  0.69965457898E+03  0.27060182800E+04  0.26140042850E+04 0.  0.
        1    1    3    3  502    0 -0.56169032778E+03  0.77540343154E+03 -0.57115676529E+03  0.11148841000E+04  0.50400001928E-02 0.  1.
       -1    1    3    3    0  502  0.56169032778E+03 -0.77540343154E+03  0.12708113443E+04  0.15911341800E+04  0.50400001928E-02 0. -1.
</event>
<event>
 5   0  0.4139628E-06  0.2995097E+04  0.7818609E-02  0.8245132E-01
       -1   -1    0    0    0  501  0.00000000000E+00  0.00000000000E+00  0.17073737447E+04  0.17073737447E+04  0.50400001928E-02 0.  1.
        1   -1    0    0  501    0  0.00000000000E+00  0.00000000000E+00 -0.13135090387E+04  0.13135090387E+04  0.50400001928E-02 0. -1.
    10030    2    1    2    0    0  0.00000000000E+00  0.00000000000E+00  0.39386470608E+03  0.30208827834E+04  0.29950965568E+04 0.  0.
        5    1    3    3  502    0 -0.40202044034E+03  0.93038886195E+03  0.13088687907E+04  0.16554164038E+04  0.46999998093E+01 0.  1.
       -5    1    3    3    0  502  0.40202044034E+03 -0.93038886195E+03 -0.91500408461E+03  0.13654663796E+04  0.46999998093E+01 0. -1.
</event>
<event>
 5   0  0.3838525E-06  0.2167520E+04  0.7818609E-02  0.8532070E-01
       -1   -1    0    0    0  501  0.00000000000E+00  0.00000000000E+00  0.14226936346E+04  0.14226936346E+04  0.50400001928E-02 0. -1.
        1   -1    0    0  501    0  0.00000000000E+00  0.00000000000E+00 -0.82557179482E+03  0.82557179484E+03  0.50400001928E-02 0.  1.
    10030    2    1    2    0    0  0.00000000000E+00  0.00000000000E+00  0.59712183977E+03  0.22482654294E+04  0.21675199998E+04 0.  0.
        3    1    3    3  502    0 -0.94997376673E+03  0.52024872770E+03  0.33774148979E+03  0.11345387698E+04  0.10100000352E+00 0.  1.
       -3    1    3    3    0  502  0.94997376673E+03 -0.52024872770E+03  0.25938034998E+03  0.11137266596E+04  0.10100000352E+00 0. -1.
</event>
<event>
 5   0  0.9797278E-06  0.3098245E+04  0.7818609E-02  0.8216220E-01
        2   -1    0    0  501    0  0.00000000000E+00  0.00000000000E+00  0.17570766333E+04  0.17570766333E+04  0.25500000920E-02 0.  1.
       -2   -1    0    0    0  501  0.00000000000E+00  0.00000000000E+00 -0.13657805089E+04  0.13657805090E+04  0.25500000920E-02 0. -1.
    10030    2    1    2    0    0  0.00000000000E+00  0.00000000000E+00  0.39129612435E+03  0.31228571422E+04  0.30982453218E+04 0.  0.
        1    1    3    3  502    0 -0.24827899783E+03  0.10262989729E+04 -0.94686811022E+03  0.14182705175E+04  0.50400001928E-02 0. -1.
       -1    1    3    3    0  502  0.24827899783E+03 -0.10262989729E+04  0.13381642346E+04  0.17045866248E+04  0.50400001928E-02 0.  1.
</event>
<event>
 5   0  0.4139628E-06  0.2415807E+04  0.7818609E-02  0.8433609E-01
        1   -1    0    0  501    0  0.00000000000E+00  0.00000000000E+00  0.14239602772E+04  0.14239602773E+04  0.50400001928E-02 0.  1.
       -1   -1    0    0    0  501  0.00000000000E+00  0.00000000000E+00 -0.10246287670E+04  0.10246287670E+04  0.50400001928E-02 0. -1.
    10030    2    1    2    0    0  0.00000000000E+00  0.00000000000E+00  0.39933151021E+03  0.24485890443E+04  0.24158068327E+04 0.  0.
        5    1    3    3  502    0 -0.11058887999E+04  0.43934905912E+03  0.40982193502E+03  0.12585681316E+04  0.46999998093E+01 0.  1.
       -5    1    3    3    0  502  0.11058887999E+04 -0.43934905912E+03 -0.10490424804E+02  0.11900209127E+04  0.46999998093E+01 0. -1.
</event>
<event>
 5   0  0.4250961E-06  0.3136448E+04  0.7818609E-02  0.8205806E-01
        1   -1    0    0  501    0  0.00000000000E+00  0.00000000000E+00  0.17890376327E+04  0.17890376327E+04  0.50400001928E-02 0.  1.
       -1   -1    0    0    0  501  0.00000000000E+00  0.00000000000E+00 -0.13746640778E+04  0.13746640778E+04  0.50400001928E-02 0. -1.
    10030    2    1    2    0    0  0.00000000000E+00  0.00000000000E+00  0.41437355485E+03  0.31637017105E+04  0.31364475239E+04 0.  0.
        1    1    3    3  502    0 -0.57086327742E+03  0.14443831753E+04 -0.11952333527E+02  0.15531485752E+04  0.50400001928E-02 0. -1.
       -1    1    3    3    0  502  0.57086327742E+03 -0.14443831753E+04  0.42632588838E+03  0.16105531353E+04  0.50400001928E-02 0.  1.
</event>
<event>
 5   0  0.4250961E-06  0.3085606E+04  0.7818609E-02  0.8219699E-01
        1   -1    0    0  501    0  0.00000000000E+00  0.00000000000E+00  0.18222860099E+04  0.18222860099E+04  0.50400001928E-02 0. -1.
       -1   -1    0    0    0  501  0.00000000000E+00  0.00000000000E+00 -0.13061840708E+04  0.13061840708E+04  0.50400001928E-02 0.  1.
    10030    2    1    2    0    0  0.00000000000E+00  0.00000000000E+00  0.51610193913E+03  0.31284700807E+04  0.30856059104E+04 0.  0.
        1    1    3    3  502    0 -0.37471348502E+03 -0.14911232324E+04  0.38782224272E+03  0.15856433338E+04  0.50400001928E-02 0.  1.
       -1    1    3    3    0  502  0.37471348502E+03  0.14911232324E+04  0.12827969641E+03  0.15428267468E+04  0.50400001928E-02 0. -1.
</event>
<event>
 5   0  0.3807334E-06  0.3062809E+04  0.7818609E-02  0.8226019E-01
        1   -1    0    0  501    0  0.00000000000E+00  0.00000000000E+00  0.15156160561E+04  0.15156160561E+04  0.50400001928E-02 0. -1.
       -1   -1    0    0    0  501  0.00000000000E+00  0.00000000000E+00 -0.15473576362E+04  0.15473576362E+04  0.50400001928E-02 0.  1.
    10030    2    1    2    0    0  0.00000000000E+00  0.00000000000E+00 -0.31741580148E+02  0.30629736923E+04  0.30628092190E+04 0.  0.
        4    1    3    3  502    0 -0.14180128992E+04 -0.46764591795E+03  0.32436090976E+03  0.15279610268E+04  0.12699999809E+01 0.  1.
       -4    1    3    3    0  502  0.14180128992E+04  0.46764591795E+03 -0.35610248990E+03  0.15350126654E+04  0.12699999809E+01 0. -1.
</event>
<event>
 5   0  0.3838525E-06  0.3078356E+04  0.7818609E-02  0.8221703E-01
        1   -1    0    0  501    0  0.00000000000E+00  0.00000000000E+00  0.20891929133E+04  0.20891929133E+04  0.50400001928E-02 0.  1.
       -1   -1    0    0    0  501  0.00000000000E+00  0.00000000000E+00 -0.11339636647E+04  0.11339636647E+04  0.50400001928E-02 0. -1.
    10030    2    1    2    0    0  0.00000000000E+00  0.00000000000E+00  0.95522924865E+03  0.32231565780E+04  0.30783559587E+04 0.  0.
        3    1    3    3  502    0 -0.93762468562E+02 -0.67607858683E+03 -0.96684109172E+03  0.11834928656E+04  0.10100000352E+00 0. -1.
       -3    1    3    3    0  502  0.93762468562E+02  0.67607858683E+03  0.19220703404E+04  0.20396637124E+04  0.10100000352E+00 0.  1.
</event>
<event>
 5   0  0.9797278E-06  0.3103255E+04  0.7818609E-02  0.8214845E-01
       -2   -1    0    0    0  501  0.00000000000E+00  0.00000000000E+00  0.13822170688E+04  0.13822170688E+04  0.25500000920E-02 0.  1.
        2   -1    0    0  501    0  0.00000000000E+00  0.00000000000E+00 -0.17418020424E+04  0.17418020424E+04  0.25500000920E-02 0. -1.
    10030    2    1    2    0    0  0.00000000000E+00  0.00000000000E+00 -0.35958497355E+03  0.31240191112E+04  0.31032553962E+04 0.  0.
        1    1    3    3  502    0  0.95186291988E+03  0.10557629423E+04 -0.80594301080E+03  0.16340815602E+04  0.50400001928E-02 0. -1.
       -1    1    3    3    0  502 -0.95186291988E+03 -0.10557629423E+04  0.44635803725E+03  0.14899375510E+04  0.50400001928E-02 0.  1.
</event>
<event>
 5   0  0.1007567E-05  0.3186545E+04  0.7818609E-02  0.8192380E-01
       -2   -1    0    0    0  501  0.00000000000E+00  0.00000000000E+00  0.99609118694E+03  0.99609118694E+03  0.25500000920E-02 0.  1.
        2   -1    0    0  501    0  0.00000000000E+00  0.00000000000E+00 -0.25484781892E+04  0.25484781892E+04  0.25500000920E-02 0. -1.
    10030    2    1    2    0    0  0.00000000000E+00  0.00000000000E+00 -0.15523870023E+04  0.35445693761E+04  0.31865446266E+04 0.  0.
        3    1    3    3  502    0  0.12025242211E+04  0.10060316181E+04 -0.10915075115E+04  0.19103802702E+04  0.10100000352E+00 0. -1.
       -3    1    3    3    0  502 -0.12025242211E+04 -0.10060316181E+04 -0.46087949078E+03  0.16341891060E+04  0.10100000352E+00 0.  1.
</event>
<event>
 5   0  0.3838525E-06  0.2663948E+04  0.7818609E-02  0.8346798E-01
       -1   -1    0    0    0  501  0.00000000000E+00  0.00000000000E+00  0.79900784577E+03  0.79900784578E+03  0.50400001928E-02 0.  1.
        1   -1    0    0  501    0  0.00000000000E+00  0.00000000000E+00 -0.22204478133E+04  0.22204478133E+04  0.50400001928E-02 0. -1.
    10030    2    1    2    0    0  0.00000000000E+00  0.00000000000E+00 -0.14214399675E+04  0.30194556591E+04  0.26639483658E+04 0.  0.
        3    1    3    3  502    0 -0.24914769558E+03  0.40264963013E+03  0.70039448927E+03  0.84543110285E+03  0.10100000352E+00 0.  1.
       -3    1    3    3    0  502  0.24914769558E+03 -0.40264963013E+03 -0.21218344568E+04  0.21740245562E+04  0.10100000352E+00 0. -1.
</event>
<event>
 5   0  0.1001961E-05  0.2063430E+04  0.7818609E-02  0.8577526E-01
        2   -1    0    0  501    0  0.00000000000E+00  0.00000000000E+00  0.19922555463E+04  0.19922555463E+04  0.25500000920E-02 0.  1.
       -2   -1    0    0    0  501  0.00000000000E+00  0.00000000000E+00 -0.53428661992E+03  0.53428661993E+03  0.25500000920E-02 0. -1.
    10030    2    1    2    0    0  0.00000000000E+00  0.00000000000E+00  0.14579689264E+04  0.25265421662E+04  0.20634296517E+04 0.  0.
        5    1    3    3  502    0  0.57371907791E+03  0.83664670859E+03  0.49899175061E+03  0.11305512605E+04  0.46999998093E+01 0.  1.
       -5    1    3    3    0  502 -0.57371907791E+03 -0.83664670859E+03  0.95897717576E+03  0.13959909058E+04  0.46999998093E+01 0. -1.
</event>
<event>
 5   0  0.3807334E-06  0.3054886E+04  0.7818609E-02  0.8228229E-01
       -1   -1    0    0    0  501  0.00000000000E+00  0.00000000000E+00  0.14770894703E+04  0.14770894703E+04  0.50400001928E-02 0. -1.
        1   -1    0    0  501    0  0.00000000000E+00  0.00000000000E+00 -0.15795128366E+04  0.15795128366E+04  0.50400001928E-02 0.  1.
    10030    2    1    2    0    0  0.00000000000E+00  0.00000000000E+00 -0.10242336632E+03  0.30566023069E+04  0.30548857779E+04 0.  0.
        4    1    3    3  502    0 -0.66405952782E+02 -0.14950024721E+04 -0.35738693271E+03  0.15385607478E+04  0.12699999809E+01 0. -1.
       -4    1    3    3    0  502  0.66405952782E+02  0.14950024721E+04  0.25496356640E+03  0.15180415591E+04  0.12699999809E+01 0.  1.
</event>
<event>
 5   0  0.3848286E-06  0.3175041E+04  0.7818609E-02  0.8195440E-01
        1   -1    0    0  501    0  0.00000000000E+00  0.00000000000E+00  0.19283219234E+04  0.19283219234E+04  0.50400001928E-02 0. -1.
       -1   -1    0    0    0  501  0.00000000000E+00  0.00000000000E+00 -0.13069502696E+04  0.13069502696E+04  0.50400001928E-02 0.  1.
    10030    2    1    2    0    0  0.00000000000E+00  0.00000000000E+00  0.62137165382E+03  0.32352721931E+04  0.31750406976E+04 0.  0.
        2    1    3    3  502    0  0.12667795123E+04  0.25499119174E+03  0.12503897334E+04  0.17981171614E+04  0.25500000920E-02 0. -1.
       -2    1    3    3    0  502 -0.12667795123E+04 -0.25499119174E+03 -0.62901807958E+03  0.14371550317E+04  0.25500000920E-02 0.  1.
</event>
<event>
 5   0  0.4250961E-06  0.2878438E+04  0.7818609E-02  0.8279322E-01
       -1   -1    0    0    0  501  0.00000000000E+00  0.00000000000E+00  0.98819121144E+03  0.98819121146E+03  0.50400001928E-02 0.  1.
        1   -1    0    0  501    0  0.00000000000E+00  0.00000000000E+00 -0.20961031874E+04  0.20961031874E+04  0.50400001928E-02 0. -1.
    10030    2    1    2    0    0  0.00000000000E+00  0.00000000000E+00 -0.11079119760E+04  0.30842943989E+04  0.28784375957E+04 0.  0.
        1    1    3    3  502    0 -0.83460918994E+03 -0.89522631293E+03 -0.13653059018E+04  0.18335928820E+04  0.50400001928E-02 0. -1.
       -1    1    3    3    0  502  0.83460918994E+03  0.89522631293E+03  0.25739392583E+03  0.12507015169E+04  0.50400001928E-02 0.  1.
</event>
<event>
 5   0  0.4139628E-06  0.2897749E+04  0.7818609E-02  0.8273547E-01
        1   -1    0    0  501    0  0.00000000000E+00  0.00000000000E+00  0.21979934254E+04  0.21979934254E+04  0.50400001928E-02 0.  1.
       -1   -1    0    0    0  501  0.00000000000E+00  0.00000000000E+00 -0.95507009262E+03  0.95507009264E+03  0.50400001928E-02 0. -1.
    10030    2    1    2    0    0  0.00000000000E+00  0.00000000000E+00  0.12429233328E+04  0.31530635181E+04  0.28977493228E+04 0.  0.
        5    1    3    3  502    0 -0.33612318273E+03  0.73483195775E+03  0.19300255454E+04  0.20923617029E+04  0.46999998093E+01 0.  1.
       -5    1    3    3    0  502  0.33612318273E+03 -0.73483195775E+03 -0.68710221258E+03  0.10607018151E+04  0.46999998093E+01 0. -1.
</event>
<event>
 5   0  0.1001961E-05  0.3088705E+04  0.7818609E-02  0.8218844E-01
        2   -1    0    0  501    0  0.00000000000E+00  0.00000000000E+00  0.19836211447E+04  0.19836211447E+04  0.25500000920E-02 0.  1.
       -2   -1    0    0    0  501  0.00000000000E+00  0.00000000000E+00 -0.12023593068E+04  0.12023593068E+04  0.25500000920E-02 0. -1.
    10030    2    1    2    0    0  0.00000000000E+00  0.00000000000E+00  0.78126183790E+03  0.31859804514E+04  0.30887054534E+04 0.  0.
        5    1    3    3  502    0  0.48151542853E+03 -0.49727265956E+03  0.18146401304E+04  0.19421838478E+04  0.46999998093E+01 0.  1.
       -5    1    3    3    0  502 -0.48151542853E+03  0.49727265956E+03 -0.10333782925E+04  0.12437966036E+04  0.46999998093E+01 0. -1.
</event>
<event>
 5   0  0.1108153E-05  0.1917322E+04  0.7818609E-02  0.8646282E-01
       -2   -1    0    0    0  501  0.00000000000E+00  0.00000000000E+00  0.89417874151E+03  0.89417874151E+03  0.25500000920E-02 0.  1.
        2   -1    0    0  501    0  0.00000000000E+00  0.00000000000E+00 -0.10277936693E+04  0.10277936693E+04  0.25500000920E-02 0. -1.
    10030    2    1    2    0    0  0.00000000000E+00  0.00000000000E+00 -0.13361492783E+03  0.19219724109E+04  0.19173223514E+04 0.  0.
        4    1    3    3  502    0  0.36141250920E+03 -0.21515682320E+03  0.79674464379E+03  0.90095232986E+03  0.12699999809E+01 0.  1.
       -4    1    3    3    0  502 -0.36141250920E+03  0.21515682320E+03 -0.93035957162E+03  0.10210200810E+04  0.12699999809E+01 0. -1.
</event>
<event>
 5   0  0.4139628E-06  0.3145824E+04  0.7818609E-02  0.8203273E-01
       -1   -1    0    0    0  501  0.00000000000E+00  0.00000000000E+00  0.30681476227E+04  0.30681476227E+04  0.50400001928E-02 0. -1.
        1   -1    0    0  501    0  0.00000000000E+00  0.00000000000E+00 -0.80636687148E+03  0.80636687150E+03  0.50400001928E-02 0.  1.
    10030    2    1    2    0    0  0.00000000000E+00  0.00000000000E+00  0.22617807512E+04  0.38745144942E+04  0.31458242797E+04 0.  0.
        5    1    3    3  502    0 -0.81303236226E+03  0.44565840078E+03  0.26957956885E+04  0.28507840179E+04  0.46999998093E+01 0. -1.
       -5    1    3    3    0  502  0.81303236226E+03 -0.44565840078E+03 -0.43401493734E+03  0.10237304763E+04  0.46999998093E+01 0.  1.
</event>
<event>
 5   0  0.3493125E-06  0.1550244E+04  0.7818609E-02  0.8851712E-01
       -3   -1    0    0    0  501  0.00000000000E+00  0.00000000000E+00  0.54298907979E+03  0.54298908918E+03  0.10100000352E+00 0. -1.
        3   -1    0    0  501    0  0.00000000000E+00  0.00000000000E+00 -0.11064933709E+04  0.11064933755E+04  0.10100000352E+00 0.  1.
    10030    2    1    2    0    0  0.00000000000E+00  0.00000000000E+00 -0.56350429109E+03  0.16494824647E+04  0.15502436309E+04 0.  0.
        4    1    3    3  502    0 -0.31173654789E+03 -0.37773357077E+03 -0.92100283371E+03  0.10431251883E+04  0.12699999809E+01 0.  1.
       -4    1    3    3    0  502  0.31173654789E+03  0.37773357077E+03  0.35749854262E+03  0.60635727641E+03  0.12699999809E+01 0. -1.
</event>
<event>
 5   0  0.1007567E-05  0.3092086E+04  0.7818609E-02  0.8217913E-01
       -2   -1    0    0    0  501  0.00000000000E+00  0.00000000000E+00  0.95013236012E+03  0.95013236012E+03  0.25500000920E-02 0. -1.
        2   -1    0    0  501    0  0.00000000000E+00  0.00000000000E+00 -0.25157016024E+04  0.25157016024E+04  0.25500000920E-02 0.  1.
    10030    2    1    2    0    0  0.00000000000E+00  0.00000000000E+00 -0.15655692423E+04  0.34658339625E+04  0.30920863512E+04 0.  0.
        3    1    3    3  502    0 -0.60715698155E+03  0.10800703354E+04  0.25367865028E+03  0.12647309585E+04  0.10100000352E+00 0. -1.
       -3    1    3    3    0  502  0.60715698155E+03 -0.10800703354E+04 -0.18192478926E+04  0.22011030040E+04  0.10100000352E+00 0.  1.
</event>
<event>
 5   0  0.1108153E-05  0.2901252E+04  0.7818609E-02  0.8272505E-01
       -2   -1    0    0    0  501  0.00000000000E+00  0.00000000000E+00  0.83296284822E+03  0.83296284822E+03  0.25500000920E-02 0. -1.
        2   -1    0    0  501    0  0.00000000000E+00  0.00000000000E+00 -0.25263027001E+04  0.25263027001E+04  0.25500000920E-02 0.  1.
    10030    2    1    2    0    0  0.00000000000E+00  0.00000000000E+00 -0.16933398519E+04  0.33592655483E+04  0.29012523451E+04 0.  0.
        4    1    3    3  502    0  0.71278120435E+02  0.13698933046E+04 -0.13929900588E+04  0.19550220340E+04  0.12699999809E+01 0.  1.
       -4    1    3    3    0  502 -0.71278120435E+02 -0.13698933046E+04 -0.30034979309E+03  0.14042435144E+04  0.12699999809E+01 0. -1.
</event>
<event>
 5   0  0.1108153E-05  0.2385767E+04  0.7818609E-02  0.8444851E-01
        2   -1    0    0  501    0  0.00000000000E+00  0.00000000000E+00  0.25414563555E+04  0.25414563555E+04  0.25500000920E-02 0. -1.
       -2   -1    0    0    0  501  0.00000000000E+00  0.00000000000E+00 -0.55990397103E+03  0.55990397104E+03  0.25500000920E-02 0.  1.
    10030    2    1    2    0    0  0.00000000000E+00  0.00000000000E+00  0.19815523845E+04  0.31013603265E+04  0.23857673865E+04 0.  0.
        4    1    3    3  502    0  0.62120467775E+03 -0.55395075196E+03  0.21016096981E+04  0.22604250979E+04  0.12699999809E+01 0. -1.
       -4    1    3    3    0  502 -0.62120467775E+03  0.55395075196E+03 -0.12005731364E+03  0.84093522861E+03  0.12699999809E+01 0.  1.
</event>
<event>
 5   0  0.3807334E-06  0.3046616E+04  0.7818609E-02  0.8230543E-01
       -1   -1    0    0    0  501  0.00000000000E+00  0.00000000000E+00  0.10987129209E+04  0.10987129209E+04  0.50400001928E-02 0. -1.
        1   -1    0    0  501    0  0.00000000000E+00  0.00000000000E+00 -0.21119862081E+04  0.21119862081E+04  0.50400001928E-02 0.  1.
    10030    2    1    2    0    0  0.00000000000E+00  0.00000000000E+00 -0.10132732872E+04  0.32106991290E+04  0.30466155226E+04 0.  0.
        4    1    3    3  502    0  0.11413698221E+04 -0.66812386795E+03 -0.13032236318E+04  0.18567466228E+04  0.12699999809E+01 0.  1.
       -4    1    3    3    0  502 -0.11413698221E+04  0.66812386795E+03  0.28995034464E+03  0.13539525062E+04  0.12699999809E+01 0. -1.
</event>
<event>
 5   0  0.3838525E-06  0.3095266E+04  0.7818609E-02  0.8217038E-01
       -1   -1    0    0    0  501  0.00000000000E+00  0.00000000000E+00  0.14722619816E+04  0.14722619816E+04  0.50400001928E-02 0. -1.
        1   -1    0    0  501    0  0.00000000000E+00  0.00000000000E+00 -0.16268628025E+04  0.16268628025E+04  0.50400001928E-02 0.  1.
    10030    2    1    2    0    0  0.00000000000E+00  0.00000000000E+00 -0.15460082090E+03  0.30991247841E+04  0.30952662266E+04 0.  0.
        3    1    3    3  502    0 -0.87620805883E+03 -0.68332623217E+03 -0.11559051038E+04  0.16033689286E+04  0.10100000352E+00 0.  1.
       -3    1    3    3    0  502  0.87620805883E+03  0.68332623217E+03  0.10013042829E+04  0.14957558555E+04  0.10100000352E+00 0. -1.
</event>
<event>
 5   0  0.3838525E-06  0.3041196E+04  0.7818609E-02  0.8232064E-01
        1   -1    0    0  501    0  0.00000000000E+00  0.00000000000E+00  0.15787787212E+04  0.15787787213E+04  0.50400001928E-02 0.  1.
       -1   -1    0    0    0  501  0.00000000000E+00  0.00000000000E+00 -0.14645609412E+04  0.14645609412E+04  0.50400001928E-02 0. -1.
    10030    2    1    2    0    0  0.00000000000E+00  0.00000000000E+00  0.11421778003E+03  0.30433396625E+04  0.30411955873E+04 0.  0.
        3    1    3    3  502    0 -0.27039076531E+03 -0.50174703468E+03 -0.13536212718E+04  0.14687245523E+04  0.10100000352E+00 0. -1.
       -3    1    3    3    0  502  0.27039076531E+03  0.50174703468E+03  0.14678390519E+04  0.15746151102E+04  0.10100000352E+00 0.  1.
</event>
<event>
 5   0  0.9797278E-06  0.3121761E+04  0.7818609E-02  0.8209791E-01
       -2   -1    0    0    0  501  0.00000000000E+00  0.00000000000E+00  0.12289829904E+04  0.12289829904E+04  0.25500000920E-02 0. -1.
        2   -1    0    0  501    0  0.00000000000E+00  0.00000000000E+00 -0.19824104379E+04  0.19824104379E+04  0.25500000920E-02 0.  1.
    10030    2    1    2    0    0  0.00000000000E+00  0.00000000000E+00 -0.75342744757E+03  0.32113934283E+04  0.31217614951E+04 0.  0.
        1    1    3    3  502    0 -0.99219683903E+03  0.71811767804E+03  0.61864213666E+03  0.13721755209E+04  0.50400001928E-02 0. -1.
       -1    1    3    3    0  502  0.99219683903E+03 -0.71811767804E+03 -0.13720695842E+04  0.18392179074E+04  0.50400001928E-02 0.  1.
</event>
<event>
 5   0  0.3807334E-06  0.1545116E+04  0.7818609E-02  0.8854994E-01
        1   -1    0    0  501    0  0.00000000000E+00  0.00000000000E+00  0.16257766907E+04  0.16257766907E+04  0.50400001928E-02 0.  1.
       -1   -1    0    0    0  501  0.00000000000E+00  0.00000000000E+00 -0.36711409940E+03  0.36711409943E+03  0.50400001928E-02 0. -1.
    10030    2    1    2    0    0  0.00000000000E+00  0.00000000000E+00  0.12586625913E+04  0.19928907901E+04  0.15451155888E+04 0.  0.
        4    1    3    3  502    0 -0.41700905399E+03  0.76383517475E+02  0.14623396508E+04  0.15225537298E+04  0.12699999809E+01 0.  1.
       -4    1    3    3    0  502  0.41700905399E+03 -0.76383517475E+02 -0.20367705952E+03  0.47033706034E+03  0.12699999809E+01 0. -1.
</event>
<event>
 5   0  0.1007567E-05  0.3102210E+04  0.7818609E-02  0.8215132E-01
        2   -1    0    0  501    0  0.00000000000E+00  0.00000000000E+00  0.20622455467E+04  0.20622455467E+04  0.25500000920E-02 0. -1.
       -2   -1    0    0    0  501  0.00000000000E+00  0.00000000000E+00 -0.11666537668E+04  0.11666537668E+04  0.25500000920E-02 0.  1.
    10030    2    1    2    0    0  0.00000000000E+00  0.00000000000E+00  0.89559177988E+03  0.32288993135E+04  0.31022098801E+04 0.  0.
        3    1    3    3  502    0  0.10524757211E+04  0.11276020701E+04  0.61798157916E+03  0.16616536385E+04  0.10100000352E+00 0.  1.
       -3    1    3    3    0  502 -0.10524757211E+04 -0.11276020701E+04  0.27761020072E+03  0.15672456750E+04  0.10100000352E+00 0. -1.
</event>
<event>
 5   0  0.4139628E-06  0.3074934E+04  0.7818609E-02  0.8222651E-01
       -1   -1    0    0    0  501  0.00000000000E+00  0.00000000000E+00  0.89595921460E+03  0.89595921461E+03  0.50400001928E-02 0.  1.
        1   -1    0    0  501    0  0.00000000000E+00  0.00000000000E+00 -0.26382944230E+04  0.26382944230E+04  0.50400001928E-02 0. -1.
    10030    2    1    2    0    0  0.00000000000E+00  0.00000000000E+00 -0.17423352084E+04  0.35342536376E+04  0.30749336247E+04 0.  0.
        5    1    3    3  502    0  0.15018031316E+04  0.23171302964E+03 -0.60240403327E+03  0.16346303201E+04  0.46999998093E+01 0.  1.
       -5    1    3    3    0  502 -0.15018031316E+04 -0.23171302964E+03 -0.11399311751E+04  0.18996233175E+04  0.46999998093E+01 0. -1.
</event>
<event>
 5   0  0.1007567E-05  0.3246018E+04  0.7818609E-02  0.8176769E-01
       -2   -1    0    0    0  501  0.00000000000E+00  0.00000000000E+00  0.14234820686E+04  0.14234820687E+04  0.25500000920E-02 0.  1.
        2   -1    0    0  501    0  0.00000000000E+00  0.00000000000E+00 -0.18505034467E+04  0.18505034468E+04  0.25500000920E-02 0. -1.
    10030    2    1    2    0    0  0.00000000000E+00  0.00000000000E+00 -0.42702137810E+03  0.32739855154E+04  0.32460181604E+04 0.  0.
        3    1    3    3  502    0 -0.52587584378E+02 -0.67879027710E+03 -0.16995126627E+04  0.18308099287E+04  0.10100000352E+00 0. -1.
       -3    1    3    3    0  502  0.52587584378E+02  0.67879027710E+03  0.12724912846E+04  0.14431755867E+04  0.10100000352E+00 0.  1.
</event>
<event>
 5   0  0.9797278E-06  0.3164685E+04  0.7818609E-02  0.8198207E-01
        2   -1    0    0  501    0  0.00000000000E+00  0.00000000000E+00  0.20009277039E+04  0.20009277039E+04  0.25500000920E-02 0. -1.
       -2   -1    0    0    0  501  0.00000000000E+00  0.00000000000E+00 -0.12513234547E+04  0.12513234547E+04  0.25500000920E-02 0.  1.
    10030    2    1    2    0    0  0.00000000000E+00  0.00000000000E+00  0.74960424925E+03  0.32522511586E+04  0.31646849872E+04 0.  0.
        1    1    3    3  502    0  0.15774087587E+04  0.10680195683E+03  0.44126556715E+03  0.16414445927E+04  0.50400001928E-02 0. -1.
       -1    1    3    3    0  502 -0.15774087587E+04 -0.10680195683E+03  0.30833868210E+03  0.16108065659E+04  0.50400001928E-02 0.  1.
</event>
<event>
 5   0  0.4139628E-06  0.2081262E+04  0.7818609E-02  0.8569543E-01
       -1   -1    0    0    0  501  0.00000000000E+00  0.00000000000E+00  0.65268987415E+03  0.65268987417E+03  0.50400001928E-02 0.  1.
        1   -1    0    0  501    0  0.00000000000E+00  0.00000000000E+00 -0.16591531624E+04  0.16591531624E+04  0.50400001928E-02 0. -1.
    10030    2    1    2    0    0  0.00000000000E+00  0.00000000000E+00 -0.10064632883E+04  0.23118430366E+04  0.20812616066E+04 0.  0.
        5    1    3    3  502    0 -0.41404871213E+03 -0.77952981544E+03 -0.11154642923E+04  0.14224576432E+04  0.46999998093E+01 0. -1.
       -5    1    3    3    0  502  0.41404871213E+03  0.77952981544E+03  0.10900100404E+03  0.88938539343E+03  0.46999998093E+01 0.  1.
</event>
<event>
 5   0  0.3848286E-06  0.2431747E+04  0.7818609E-02  0.8427713E-01
       -1   -1    0    0    0  501  0.00000000000E+00  0.00000000000E+00  0.96256050424E+03  0.96256050425E+03  0.50400001928E-02 0. -1.
        1   -1    0    0  501    0  0.00000000000E+00  0.00000000000E+00 -0.15358501397E+04  0.15358501397E+04  0.50400001928E-02 0.  1.
    10030    2    1    2    0    0  0.00000000000E+00  0.00000000000E+00 -0.57328963545E+03  0.24984106439E+04  0.24317472607E+04 0.  0.
        2    1    3    3  502    0  0.19557956517E+03 -0.62757911434E+03  0.76425523614E+03  0.10080639747E+04  0.25500000920E-02 0. -1.
       -2    1    3    3    0  502 -0.19557956517E+03  0.62757911434E+03 -0.13375448716E+04  0.14903466693E+04  0.25500000920E-02 0.  1.
</event>
<event>
 5   0  0.1119100E-05  0.3037180E+04  0.7818609E-02  0.8233193E-01
        2   -1    0    0  501    0  0.00000000000E+00  0.00000000000E+00  0.79306643901E+03  0.79306643901E+03  0.25500000920E-02 0. -1.
       -2   -1    0    0    0  501  0.00000000000E+00  0.00000000000E+00 -0.29078469665E+04  0.29078469665E+04  0.25500000920E-02 0.  1.
    10030    2    1    2    0    0  0.00000000000E+00  0.00000000000E+00 -0.21147805275E+04  0.37009134055E+04  0.30371801652E+04 0.  0.
        2    1    3    3  502    0  0.35138824867E+03 -0.13809175778E+04 -0.16972188913E+04  0.22160683705E+04  0.25500000920E-02 0.  1.
       -2    1    3    3    0  502 -0.35138824867E+03  0.13809175778E+04 -0.41756163621E+03  0.14848450350E+04  0.25500000920E-02 0. -1.
</event>
<event>
 5   0  0.1119100E-05  0.2619400E+04  0.7818609E-02  0.8361641E-01
       -2   -1    0    0    0  501  0.00000000000E+00  0.00000000000E+00  0.11669359997E+04  0.11669359997E+04  0.25500000920E-02 0.  1.
        2   -1    0    0  501    0  0.00000000000E+00  0.00000000000E+00 -0.14699295486E+04  0.14699295486E+04  0.25500000920E-02 0. -1.
    10030    2    1    2    0    0  0.00000000000E+00  0.00000000000E+00 -0.30299354892E+03  0.26368655483E+04  0.26193997077E+04 0.  0.
        2    1    3    3  502    0  0.67610730436E+03 -0.92011821072E+03 -0.79731568357E+03  0.13926417012E+04  0.25500000920E-02 0. -1.
       -2    1    3    3    0  502 -0.67610730436E+03  0.92011821072E+03  0.49432213465E+03  0.12442238470E+04  0.25500000920E-02 0.  1.
</event>
<event>
 5   0  0.3838525E-06  0.1742325E+04  0.7818609E-02  0.8737586E-01
        1   -1    0    0  501    0  0.00000000000E+00  0.00000000000E+00  0.14687639662E+04  0.14687639662E+04  0.50400001928E-02 0. -1.
       -1   -1    0    0    0  501  0.00000000000E+00  0.00000000000E+00 -0.51670943283E+03  0.51670943286E+03  0.50400001928E-02 0.  1.
    10030    2    1    2    0    0  0.00000000000E+00  0.00000000000E+00  0.95205453335E+03  0.19854733991E+04  0.17423251086E+04 0.  0.
        3    1    3    3  502    0 -0.13721186760E+03  0.84962766945E+03  0.32216675611E+03  0.91895903186E+03  0.10100000352E+00 0. -1.
       -3    1    3    3    0  502  0.13721186760E+03 -0.84962766945E+03  0.62988777725E+03  0.10665143672E+04  0.10100000352E+00 0.  1.
</event>
<event>
 5   0  0.3848286E-06  0.3182603E+04  0.7818609E-02  0.8193427E-01
       -1   -1    0    0    0  501  0.00000000000E+00  0.00000000000E+00  0.13264157073E+04  0.13264157073E+04  0.50400001928E-02 0. -1.
        1   -1    0    0  501    0  0.00000000000E+00  0.00000000000E+00 -0.19090855755E+04  0.19090855756E+04  0.50400001928E-02 0.  1.
    10030    2    1    2    0    0  0.00000000000E+00  0.00000000000E+00 -0.58266986830E+03  0.32355012828E+04  0.31826033959E+04 0.  0.
        2    1    3    3  502    0 -0.64173054960E+03 -0.12752455841E+04 -0.10059924874E+04  0.17464507673E+04  0.25500000920E-02 0.  1.
       -2    1    3    3    0  502  0.64173054960E+03  0.12752455841E+04  0.42332261908E+03  0.14890505155E+04  0.25500000920E-02 0. -1.
</event>
<event>
 5   0  0.9797278E-06  0.2628270E+04  0.7818609E-02  0.8358662E-01
       -2   -1    0    0    0  501  0.00000000000E+00  0.00000000000E+00  0.95307510109E+03  0.95307510109E+03  0.25500000920E-02 0.  1.
        2   -1    0    0  501    0  0.00000000000E+00  0.00000000000E+00 -0.18119771292E+04  0.18119771292E+04  0.25500000920E-02 0. -1.
    10030    2    1    2    0    0  0.00000000000E+00  0.00000000000E+00 -0.85890202816E+03  0.27650522303E+04  0.26282696099E+04 0.  0.
        1    1    3    3  502    0  0.37648652280E+03  0.10367536451E+04 -0.11810176845E+04  0.16159835994E+04  0.50400001928E-02 0. -1.
       -1    1    3    3    0  502 -0.37648652280E+03 -0.10367536451E+04  0.32211565631E+03  0.11490686309E+04  0.50400001928E-02 0.  1.
</event>
<event>
 5   0  0.3807334E-06  0.2397008E+04  0.7818609E-02  0.8440624E-01
       -1   -1    0    0    0  501  0.00000000000E+00  0.00000000000E+00  0.11456527501E+04  0.11456527501E+04  0.50400001928E-02 0.  1.
        1   -1    0    0  501    0  0.00000000000E+00  0.00000000000E+00 -0.12537936411E+04  0.12537936411E+04  0.50400001928E-02 0. -1.
    10030    2    1    2    0    0  0.00000000000E+00  0.00000000000E+00 -0.10814089104E+03  0.23994463912E+04  0.23970082461E+04 0.  0.
        4    1    3    3  502    0  0.65385092922E+03  0.26383711813E+03 -0.10242205512E+04  0.12434469884E+04  0.12699999809E+01 0. -1.
       -4    1    3    3    0  502 -0.65385092922E+03 -0.26383711813E+03  0.91607966017E+03  0.11559994028E+04  0.12699999809E+01 0.  1.
</event>
<event>
 5   0  0.9797278E-06  0.3183634E+04  0.7818609E-02  0.8193153E-01
       -2   -1    0    0    0  501  0.00000000000E+00  0.00000000000E+00  0.20640073118E+04  0.20640073118E+04  0.25500000920E-02 0. -1.
        2   -1    0    0  501    0  0.00000000000E+00  0.00000000000E+00 -0.12276512132E+04  0.12276512132E+04  0.25500000920E-02 0.  1.
    10030    2    1    2    0    0  0.00000000000E+00  0.00000000000E+00  0.83635609857E+03  0.32916585250E+04  0.31836338234E+04 0.  0.
        1    1    3    3  502    0 -0.43456606390E+03 -0.10531222753E+04  0.15676412803E+04  0.19378888963E+04  0.50400001928E-02 0. -1.
       -1    1    3    3    0  502  0.43456606390E+03  0.10531222753E+04 -0.73128518168E+03  0.13537696287E+04  0.50400001928E-02 0.  1.
</event>
<event>
 5   0  0.4250961E-06  0.3263314E+04  0.7818609E-02  0.8172293E-01
        1   -1    0    0  501    0  0.00000000000E+00  0.00000000000E+00  0.22226700291E+04  0.22226700291E+04  0.50400001928E-02 0.  1.
       -1   -1    0    0    0  501  0.00000000000E+00  0.00000000000E+00 -0.11977959210E+04  0.11977959210E+04  0.50400001928E-02 0. -1.
    10030    2    1    2    0    0  0.00000000000E+00  0.00000000000E+00  0.10248741081E+04  0.34204659501E+04  0.32633143241E+04 0.  0.
        1    1    3    3  502    0 -0.50743488392E+03 -0.13843385395E+04 -0.22009031880E+03  0.14907458207E+04  0.50400001928E-02 0.  1.
       -1    1    3    3    0  502  0.50743488392E+03  0.13843385395E+04  0.12449644270E+04  0.19297201294E+04  0.50400001928E-02 0. -1.
</event>
<event>
 5   0  0.1108153E-05  0.3065826E+04  0.7818609E-02  0.8225180E-01
        2   -1    0    0  501    0  0.00000000000E+00  0.00000000000E+00  0.18575470746E+04  0.18575470746E+04  0.25500000920E-02 0. -1.
       -2   -1    0    0    0  501  0.00000000000E+00  0.00000000000E+00 -0.12650132605E+04  0.12650132605E+04  0.25500000920E-02 0.  1.
    10030    2    1    2    0    0  0.00000000000E+00  0.00000000000E+00  0.59253381407E+03  0.31225603351E+04  0.30658256189E+04 0.  0.
        4    1    3    3  502    0 -0.12627688053E+04 -0.33834956064E+03  0.11115515313E+04  0.17159877332E+04  0.12699999809E+01 0. -1.
       -4    1    3    3    0  502  0.12627688053E+04  0.33834956064E+03 -0.51901771725E+03  0.14065726019E+04  0.12699999809E+01 0.  1.
</event>
<event>
 5   0  0.3493125E-06  0.3053272E+04  0.7818609E-02  0.8228680E-01
       -3   -1    0    0    0  501  0.00000000000E+00  0.00000000000E+00  0.13291843693E+04  0.13291843731E+04  0.10100000352E+00 0. -1.
        3   -1    0    0  501    0  0.00000000000E+00  0.00000000000E+00 -0.17534197768E+04  0.17534197797E+04  0.10100000352E+00 0.  1.
    10030    2    1    2    0    0  0.00000000000E+00  0.00000000000E+00 -0.42423540751E+03  0.30826041528E+04  0.30532724546E+04 0.  0.
        4    1    3    3  502    0  0.10835391434E+04  0.56423663203E+03 -0.11364436038E+04  0.16685100329E+04  0.12699999809E+01 0.  1.
       -4    1    3    3    0  502 -0.10835391434E+04 -0.56423663203E+03  0.71220819631E+03  0.14140941199E+04  0.12699999809E+01 0. -1.
</event>
<event>
 5   0  0.1007567E-05  0.3062738E+04  0.7818609E-02  0.8226039E-01
        2   -1    0    0  501    0  0.00000000000E+00  0.00000000000E+00  0.19319409459E+04  0.19319409459E+04  0.25500000920E-02 0.  1.
       -2   -1    0    0    0  501  0.00000000000E+00  0.00000000000E+00 -0.12138523551E+04  0.12138523551E+04  0.25500000920E-02 0. -1.
    10030    2    1    2    0    0  0.00000000000E+00  0.00000000000E+00  0.71808859074E+03  0.31457933010E+04  0.30627380346E+04 0.  0.
        3    1    3    3  502    0 -0.13395767246E+04  0.58011492808E+03  0.83429249040E+03  0.16813813073E+04  0.10100000352E+00 0. -1.
       -3    1    3    3    0  502  0.13395767246E+04 -0.58011492808E+03 -0.11620389966E+03  0.14644119937E+04  0.10100000352E+00 0.  1.
</event>
<event>
 5   0  0.1119100E-05  0.3013083E+04  0.7818609E-02  0.8240005E-01
        2   -1    0    0  501    0  0.00000000000E+00  0.00000000000E+00  0.23037292169E+04  0.23037292169E+04  0.25500000920E-02 0. -1.
       -2   -1    0    0    0  501  0.00000000000E+00  0.00000000000E+00 -0.98521422510E+03  0.98521422510E+03  0.25500000920E-02 0.  1.
    10030    2    1    2    0    0  0.00000000000E+00  0.00000000000E+00  0.13185149918E+04  0.32889434420E+04  0.30130826708E+04 0.  0.
        2    1    3    3  502    0 -0.13638284220E+04 -0.18328207036E+03  0.13286273365E+04  0.19128175243E+04  0.25500000920E-02 0. -1.
       -2    1    3    3    0  502  0.13638284220E+04  0.18328207036E+03 -0.10112344701E+02  0.13761259177E+04  0.25500000920E-02 0.  1.
</event>
<event>
 5   0  0.9797278E-06  0.3141219E+04  0.7818609E-02  0.8204516E-01
        2   -1    0    0  501    0  0.00000000000E+00  0.00000000000E+00  0.20328225194E+04  0.20328225194E+04  0.25500000920E-02 0.  1.
       -2   -1    0    0    0  501  0.00000000000E+00  0.00000000000E+00 -0.12134923814E+04  0.12134923814E+04  0.25500000920E-02 0. -1.
    10030    2    1    2    0    0  0.00000000000E+00  0.00000000000E+00  0.81933013802E+03  0.32463149008E+04  0.31412192792E+04 0.  0.
        1    1    3    3  502    0  0.47744736438E+03 -0.41266635629E+03 -0.10767051354E+04  0.12480158076E+04  0.50400001928E-02 0. -1.
       -1    1    3    3    0  502 -0.47744736438E+03  0.41266635629E+03  0.18960352735E+04  0.19982990931E+04  0.50400001928E-02 0.  1.
</event>
<event>
 5   0  0.3848286E-06  0.2476570E+04  0.7818609E-02  0.8411380E-01
       -1   -1    0    0    0  501  0.00000000000E+00  0.00000000000E+00  0.11443461132E+04  0.11443461132E+04  0.50400001928E-02 0.  1.
        1   -1    0    0  501    0  0.00000000000E+00  0.00000000000E+00 -0.13399351261E+04  0.13399351261E+04  0.50400001928E-02 0. -1.
    10030    2    1    2    0    0  0.00000000000E+00  0.00000000000E+00 -0.19558901294E+03  0.24842812393E+04  0.24765698484E+04 0.  0.
        2    1    3    3  502    0  0.52391845555E+03 -0.10460267436E+04 -0.50487464445E+03  0.12741902931E+04  0.25500000920E-02 0. -1.
       -2    1    3    3    0  502 -0.52391845555E+03  0.10460267436E+04  0.30928563151E+03  0.12100909463E+04  0.25500000920E-02 0.  1.
</event>
<event>
 5   0  0.1119100E-05  0.3089725E+04  0.7818609E-02  0.8218563E-01
       -2   -1    0    0    0  501  0.00000000000E+00  0.00000000000E+00  0.11948970907E+04  0.11948970907E+04  0.25500000920E-02 0.  1.
        2   -1    0    0  501    0  0.00000000000E+00  0.00000000000E+00 -0.19973267775E+04  0.19973267775E+04  0.25500000920E-02 0. -1.
    10030    2    1    2    0    0  0.00000000000E+00  0.00000000000E+00 -0.80242968674E+03  0.31922238682E+04  0.30897248781E+04 0.  0.
        2    1    3    3  502    0  0.11628748185E+04 -0.49153444852E+03 -0.13210973123E+04  0.18273428978E+04  0.25500000920E-02 0. -1.
       -2    1    3    3    0  502 -0.11628748185E+04  0.49153444852E+03  0.51866762561E+03  0.13648809704E+04  0.25500000920E-02 0.  1.
</event>
<event>
 5   0  0.3838525E-06  0.3112592E+04  0.7818609E-02  0.8212291E-01
        1   -1    0    0  501    0  0.00000000000E+00  0.00000000000E+00  0.20011160083E+04  0.20011160083E+04  0.50400001928E-02 0.  1.
       -1   -1    0    0    0  501  0.00000000000E+00  0.00000000000E+00 -0.12103532235E+04  0.12103532235E+04  0.50400001928E-02 0. -1.
    10030    2    1    2    0    0  0.00000000000E+00  0.00000000000E+00  0.79076278476E+03  0.32114692318E+04  0.31125919818E+04 0.  0.
        3    1    3    3  502    0 -0.73723137243E+03  0.27119803108E+03 -0.99079986300E+03  0.12644140332E+04  0.10100000352E+00 0. -1.
       -3    1    3    3    0  502  0.73723137243E+03 -0.27119803108E+03  0.17815626478E+04  0.19470551987E+04  0.10100000352E+00 0.  1.
</event>
<event>
 5   0  0.3807334E-06  0.3091454E+04  0.7818609E-02  0.8218087E-01
       -1   -1    0    0    0  501  0.00000000000E+00  0.00000000000E+00  0.10625737240E+04  0.10625737241E+04  0.50400001928E-02 0.  1.
        1   -1    0    0  501    0  0.00000000000E+00  0.00000000000E+00 -0.22485698124E+04  0.22485698124E+04  0.50400001928E-02 0. -1.
    10030    2    1    2    0    0  0.00000000000E+00  0.00000000000E+00 -0.11859960884E+04  0.33111435365E+04  0.30914535089E+04 0.  0.
        4    1    3    3  502    0  0.53513697270E+02  0.40593582050E+03 -0.21894298428E+04  0.22273868670E+04  0.12699999809E+01 0. -1.
       -4    1    3    3    0  502 -0.53513697270E+02 -0.40593582050E+03  0.10034337544E+04  0.10837566694E+04  0.12699999809E+01 0.  1.
</event>
<event>
 5   0  0.3848286E-06  0.3100309E+04  0.7818609E-02  0.8215653E-01
       -1   -1    0    0    0  501  0.00000000000E+00  0.00000000000E+00  0.97382783209E+03  0.97382783211E+03  0.50400001928E-02 0.  1.
        1   -1    0    0  501    0  0.00000000000E+00  0.00000000000E+00 -0.24675603139E+04  0.24675603139E+04  0.50400001928E-02 0. -1.
    10030    2    1    2    0    0  0.00000000000E+00  0.00000000000E+00 -0.14937324818E+04  0.34413881460E+04  0.31003089595E+04 0.  0.
        2    1    3    3  502    0 -0.35308165768E+03  0.63211026621E+03 -0.22683350333E+04  0.23810866991E+04  0.25500000920E-02 0. -1.
       -2    1    3    3    0  502  0.35308165768E+03 -0.63211026621E+03  0.77460255143E+03  0.10603014469E+04  0.25500000920E-02 0.  1.
</event>
<event>
 5   0  0.4139628E-06  0.3208593E+04  0.7818609E-02  0.8186552E-01
        1   -1    0    0  501    0  0.00000000000E+00  0.00000000000E+00  0.19299375362E+04  0.19299375362E+04  0.50400001928E-02 0.  1.
       -1   -1    0    0    0  501  0.00000000000E+00  0.00000000000E+00 -0.13336010235E+04  0.13336010236E+04  0.50400001928E-02 0. -1.
    10030    2    1    2    0    0  0.00000000000E+00  0.00000000000E+00  0.59633651269E+03  0.32635385598E+04  0.32085926346E+04 0.  0.
        5    1    3    3  502    0  0.11437356273E+04 -0.10606799845E+04  0.67951724904E+03  0.17014520259E+04  0.46999998093E+01 0.  1.
       -5    1    3    3    0  502 -0.11437356273E+04  0.10606799845E+04 -0.83180736355E+02  0.15620865339E+04  0.46999998093E+01 0. -1.
</event>
<event>
 5   0  0.1007567E-05  0.2937034E+04  0.7818609E-02  0.8261943E-01
       -2   -1    0    0    0  501  0.00000000000E+00  0.00000000000E+00  0.13779773351E+04  0.13779773351E+04  0.25500000920E-02 0. -1.
        2   -1    0    0  501    0  0.00000000000E+00  0.00000000000E+00 -0.15650054612E+04  0.15650054612E+04  0.25500000920E-02 0.  1.
    10030    2    1    2    0    0  0.00000000000E+00  0.00000000000E+00 -0.18702812607E+03  0.29429827963E+04  0.29370339152E+04 0.  0.
        3    1    3    3  502    0 -0.53369774019E+03  0.96323098377E+03  0.87999627427E+03  0.14096242971E+04  0.10100000352E+00 0. -1.
       -3    1    3    3    0  502  0.53369774019E+03 -0.96323098377E+03 -0.10670244003E+04  0.15333584992E+04  0.10100000352E+00 0.  1.
</event>
<event>
 5   0  0.9797278E-06  0.3187114E+04  0.7818609E-02  0.8192229E-01
        2   -1    0    0  501    0  0.00000000000E+00  0.00000000000E+00  0.86744887406E+03  0.86744887406E+03  0.25500000920E-02 0. -1.
       -2   -1    0    0    0  501  0.00000000000E+00  0.00000000000E+00 -0.29274628698E+04  0.29274628698E+04  0.25500000920E-02 0.  1.
    10030    2    1    2    0    0  0.00000000000E+00  0.00000000000E+00 -0.20600139958E+04  0.37949117439E+04  0.31871142874E+04 0.  0.
        1    1    3    3  502    0  0.13737466451E+04 -0.56979154131E+03 -0.17115042998E+04  0.22673970128E+04  0.50400001928E-02 0.  1.
       -1    1    3    3    0  502 -0.13737466451E+04  0.56979154131E+03 -0.34850969600E+03  0.15275147311E+04  0.50400001928E-02 0. -1.
</event>
<event>
 5   0  0.1007567E-05  0.3288331E+04  0.7818609E-02  0.8165871E-01
        2   -1    0    0  501    0  0.00000000000E+00  0.00000000000E+00  0.21132772035E+04  0.21132772035E+04  0.25500000920E-02 0. -1.
       -2   -1    0    0    0  501  0.00000000000E+00  0.00000000000E+00 -0.12791888448E+04  0.12791888448E+04  0.25500000920E-02 0.  1.
    10030    2    1    2    0    0  0.00000000000E+00  0.00000000000E+00  0.83408835868E+03  0.33924660483E+04  0.32883312635E+04 0.  0.
        3    1    3    3  502    0 -0.70741577706E+03 -0.95924977993E+03  0.15854660682E+04  0.19835069663E+04  0.10100000352E+00 0. -1.
       -3    1    3    3    0  502  0.70741577706E+03  0.95924977993E+03 -0.75137770952E+03  0.14089590819E+04  0.10100000352E+00 0.  1.
</event>
<event>
 5   0  0.3848286E-06  0.3097710E+04  0.7818609E-02  0.8216367E-01
       -1   -1    0    0    0  501  0.00000000000E+00  0.00000000000E+00  0.87482555137E+03  0.87482555139E+03  0.50400001928E-02 0. -1.
        1   -1    0    0  501    0  0.00000000000E+00  0.00000000000E+00 -0.27422067670E+04  0.27422067670E+04  0.50400001928E-02 0.  1.
    10030    2    1    2    0    0  0.00000000000E+00  0.00000000000E+00 -0.18673812156E+04  0.36170323184E+04  0.30977104752E+04 0.  0.
        2    1    3    3  502    0 -0.15119238341E+04  0.80997999795E+02 -0.13147054527E+04  0.20052243723E+04  0.25500000920E-02 0.  1.
       -2    1    3    3    0  502  0.15119238341E+04 -0.80997999795E+02 -0.55267576299E+03  0.16118079461E+04  0.25500000920E-02 0. -1.
</event>
<event>
 5   0  0.3493125E-06  0.3069451E+04  0.7818609E-02  0.8224172E-01
       -4   -1    0    0    0  501  0.00000000000E+00  0.00000000000E+00  0.12794675696E+04  0.12794681999E+04  0.12699999809E+01 0. -1.
        4   -1    0    0  501    0  0.00000000000E+00  0.00000000000E+00 -0.18409068611E+04  0.18409072992E+04  0.12699999809E+01 0.  1.
    10030    2    1    2    0    0  0.00000000000E+00  0.00000000000E+00 -0.56143929150E+03  0.31203754991E+04  0.30694509570E+04 0.  0.
        5    1    3    3  502    0 -0.87208040154E+02  0.95162760884E+03 -0.15015430927E+04  0.17798466500E+04  0.46999998093E+01 0.  1.
       -5    1    3    3    0  502  0.87208040154E+02 -0.95162760884E+03  0.94010380123E+03  0.13405288491E+04  0.46999998093E+01 0. -1.
</event>
<event>
 5   0  0.3493125E-06  0.2946757E+04  0.7818609E-02  0.8259100E-01
        3   -1    0    0  501    0  0.00000000000E+00  0.00000000000E+00  0.11213210105E+04  0.11213210150E+04  0.10100000352E+00 0. -1.
       -3   -1    0    0    0  501  0.00000000000E+00  0.00000000000E+00 -0.19359709457E+04  0.19359709483E+04  0.10100000352E+00 0.  1.
    10030    2    1    2    0    0  0.00000000000E+00  0.00000000000E+00 -0.81464993521E+03  0.30572919633E+04  0.29467574776E+04 0.  0.
        3    1    3    3  502    0  0.79203963213E+03 -0.23149819396E+03 -0.16737368380E+04  0.18660957119E+04  0.10100000352E+00 0.  1.
       -3    1    3    3    0  502 -0.79203963213E+03  0.23149819396E+03  0.85908690282E+03  0.11911962515E+04  0.10100000352E+00 0. -1.
</event>
<event>
 5   0  0.3493125E-06  0.3094993E+04  0.7818609E-02  0.8217113E-01
       -3   -1    0    0    0  501  0.00000000000E+00  0.00000000000E+00  0.18647368127E+04  0.18647368155E+04  0.10100000352E+00 0.  1.
        3   -1    0    0  501    0  0.00000000000E+00  0.00000000000E+00 -0.12842267974E+04  0.12842268014E+04  0.10100000352E+00 0. -1.
    10030    2    1    2    0    0  0.00000000000E+00  0.00000000000E+00  0.58051001530E+03  0.31489636169E+04  0.30949927274E+04 0.  0.
        4    1    3    3  502    0  0.14631334291E+04  0.32412050656E+03 -0.10238891882E+03  0.15020980786E+04  0.12699999809E+01 0. -1.
       -4    1    3    3    0  502 -0.14631334291E+04 -0.32412050656E+03  0.68289893412E+03  0.16468655383E+04  0.12699999809E+01 0.  1.
</event>
<event>
 5   0  0.3807334E-06  0.3103815E+04  0.7818609E-02  0.8214692E-01
       -1   -1    0    0    0  501  0.00000000000E+00  0.00000000000E+00  0.26456791402E+04  0.26456791402E+04  0.50400001928E-02 0. -1.
        1   -1    0    0  501    0  0.00000000000E+00  0.00000000000E+00 -0.91032082943E+03  0.91032082944E+03  0.50400001928E-02 0.  1.
    10030    2    1    2    0    0  0.00000000000E+00  0.00000000000E+00  0.17353583108E+04  0.35559999696E+04  0.31038149618E+04 0.  0.
        4    1    3    3  502    0 -0.66496492758E+03  0.13631496549E+04  0.12442946351E+04  0.19617915507E+04  0.12699999809E+01 0.  1.
       -4    1    3    3    0  502  0.66496492758E+03 -0.13631496549E+04  0.49106367565E+03  0.15942084189E+04  0.12699999809E+01 0. -1.
</event>
<event>
 5   0  0.4250961E-06  0.3093494E+04  0.7818609E-02  0.8217526E-01
       -1   -1    0    0    0  501  0.00000000000E+00  0.00000000000E+00  0.13581638060E+04  0.13581638060E+04  0.50400001928E-02 0.  1.
        1   -1    0    0  501    0  0.00000000000E+00  0.00000000000E+00 -0.17615150009E+04  0.17615150009E+04  0.50400001928E-02 0. -1.
    10030    2    1    2    0    0  0.00000000000E+00  0.00000000000E+00 -0.40335119492E+03  0.31196788069E+04  0.30934937646E+04 0.  0.
        1    1    3    3  502    0  0.69620459185E+03  0.12168750342E+04 -0.86061303115E+03  0.16450350975E+04  0.50400001928E-02 0. -1.
       -1    1    3    3    0  502 -0.69620459185E+03 -0.12168750342E+04  0.45726183623E+03  0.14746437094E+04  0.50400001928E-02 0.  1.
</event>
<event>
 5   0  0.1108153E-05  0.3062887E+04  0.7818609E-02  0.8225998E-01
       -2   -1    0    0    0  501  0.00000000000E+00  0.00000000000E+00  0.12681347738E+04  0.12681347738E+04  0.25500000920E-02 0. -1.
        2   -1    0    0  501    0  0.00000000000E+00  0.00000000000E+00 -0.18494237143E+04  0.18494237143E+04  0.25500000920E-02 0.  1.
    10030    2    1    2    0    0  0.00000000000E+00  0.00000000000E+00 -0.58128894057E+03  0.31175584881E+04  0.30628865625E+04 0.  0.
        4    1    3    3  502    0 -0.10025021659E+04  0.11499408678E+04 -0.42698437268E+03  0.15842007005E+04  0.12699999809E+01 0.  1.
       -4    1    3    3    0  502  0.10025021659E+04 -0.11499408678E+04 -0.15430456789E+03  0.15333577876E+04  0.12699999809E+01 0. -1.
</event>
<event>
 5   0  0.1001961E-05  0.3035317E+04  0.7818609E-02  0.8233717E-01
        2   -1    0    0  501    0  0.00000000000E+00  0.00000000000E+00  0.19426121890E+04  0.19426121890E+04  0.25500000920E-02 0. -1.
       -2   -1    0    0    0  501  0.00000000000E+00  0.00000000000E+00 -0.11856649520E+04  0.11856649520E+04  0.25500000920E-02 0.  1.
    10030    2    1    2    0    0  0.00000000000E+00  0.00000000000E+00  0.75694723697E+03  0.31282771410E+04  0.30353169111E+04 0.  0.
        5    1    3    3  502    0  0.11587762160E+04  0.75824244563E+03  0.10184345440E+04  0.17189895100E+04  0.46999998093E+01 0. -1.
       -5    1    3    3    0  502 -0.11587762160E+04 -0.75824244563E+03 -0.26148730700E+03  0.14092876310E+04  0.46999998093E+01 0.  1.
</event>
<event>
 5   0  0.4139628E-06  0.3131055E+04  0.7818609E-02  0.8207266E-01
       -1   -1    0    0    0  501  0.00000000000E+00  0.00000000000E+00  0.16041096891E+04  0.16041096891E+04  0.50400001928E-02 0.  1.
        1   -1    0    0  501    0  0.00000000000E+00  0.00000000000E+00 -0.15278734238E+04  0.15278734239E+04  0.50400001928E-02 0. -1.
    10030    2    1    2    0    0  0.00000000000E+00  0.00000000000E+00  0.76236265256E+02  0.31319831130E+04  0.31310551339E+04 0.  0.
        5    1    3    3  502    0 -0.17362550114E+03  0.47218052150E+03 -0.14448036937E+04  0.15298954418E+04  0.46999998093E+01 0. -1.
       -5    1    3    3    0  502  0.17362550114E+03 -0.47218052150E+03  0.15210399589E+04  0.16020876712E+04  0.46999998093E+01 0.  1.
</event>
<event>
 5   0  0.9797278E-06  0.2675298E+04  0.7818609E-02  0.8343065E-01
        2   -1    0    0  501    0  0.00000000000E+00  0.00000000000E+00  0.10058862338E+04  0.10058862338E+04  0.25500000920E-02 0.  1.
       -2   -1    0    0    0  501  0.00000000000E+00  0.00000000000E+00 -0.17788347172E+04  0.17788347172E+04  0.25500000920E-02 0. -1.
    10030    2    1    2    0    0  0.00000000000E+00  0.00000000000E+00 -0.77294848347E+03  0.27847209510E+04  0.26752983791E+04 0.  0.
        1    1    3    3  502    0  0.30117671882E+03  0.75969745296E+03  0.71582855166E+03  0.10863968664E+04  0.50400001928E-02 0.  1.
       -1    1    3    3    0  502 -0.30117671882E+03 -0.75969745296E+03 -0.14887770351E+04  0.16983240846E+04  0.50400001928E-02 0. -1.
</event>
<event>
 5   0  0.1119100E-05  0.3055457E+04  0.7818609E-02  0.8228070E-01
        2   -1    0    0  501    0  0.00000000000E+00  0.00000000000E+00  0.19376435493E+04  0.19376435493E+04  0.25500000920E-02 0. -1.
       -2   -1    0    0    0  501  0.00000000000E+00  0.00000000000E+00 -0.12045325373E+04  0.12045325373E+04  0.25500000920E-02 0.  1.
    10030    2    1    2    0    0  0.00000000000E+00  0.00000000000E+00  0.73311101200E+03  0.31421760867E+04  0.30554572168E+04 0.  0.
        2    1    3    3  502    0  0.34398427909E+03  0.21972335205E+03 -0.11474203660E+04  0.12178575581E+04  0.25500000920E-02 0.  1.
       -2    1    3    3    0  502 -0.34398427909E+03 -0.21972335205E+03  0.18805313780E+04  0.19243185285E+04  0.25500000920E-02 0. -1.
</event>
<event>
 5   0  0.1119100E-05  0.2908233E+04  0.7818609E-02  0.8270432E-01
        2   -1    0    0  501    0  0.00000000000E+00  0.00000000000E+00  0.15201922541E+04  0.15201922541E+04  0.25500000920E-02 0.  1.
       -2   -1    0    0    0  501  0.00000000000E+00  0.00000000000E+00 -0.13909123061E+04  0.13909123061E+04  0.25500000920E-02 0. -1.
    10030    2    1    2    0    0  0.00000000000E+00  0.00000000000E+00  0.12927994801E+03  0.29111045602E+04  0.29082325312E+04 0.  0.
        2    1    3    3  502    0 -0.65411052734E+03 -0.10992534499E+04 -0.62758861185E+03  0.14248109330E+04  0.25500000920E-02 0. -1.
       -2    1    3    3    0  502  0.65411052734E+03  0.10992534499E+04  0.75686855986E+03  0.14862936271E+04  0.25500000920E-02 0.  1.
</event>
<event>
 5   0  0.3807334E-06  0.3001934E+04  0.7818609E-02  0.8243179E-01
       -1   -1    0    0    0  501  0.00000000000E+00  0.00000000000E+00  0.93886590268E+03  0.93886590269E+03  0.50400001928E-02 0.  1.
        1   -1    0    0  501    0  0.00000000000E+00  0.00000000000E+00 -0.23995993040E+04  0.23995993040E+04  0.50400001928E-02 0. -1.
    10030    2    1    2    0    0  0.00000000000E+00  0.00000000000E+00 -0.14607334013E+04  0.33384652067E+04  0.30019340210E+04 0.  0.
        4    1    3    3  502    0  0.69269593522E+02 -0.64826406887E+03 -0.22339125434E+04  0.23271036600E+04  0.12699999809E+01 0. -1.
       -4    1    3    3    0  502 -0.69269593522E+02  0.64826406887E+03  0.77317914210E+03  0.10113615468E+04  0.12699999809E+01 0.  1.
</event>
<event>
 5   0  0.4250961E-06  0.3087731E+04  0.7818609E-02  0.8219113E-01
        1   -1    0    0  501    0  0.00000000000E+00  0.00000000000E+00  0.12640421445E+04  0.12640421445E+04  0.50400001928E-02 0. -1.
       -1   -1    0    0    0  501  0.00000000000E+00  0.00000000000E+00 -0.18856337287E+04  0.18856337287E+04  0.50400001928E-02 0.  1.
    10030    2    1    2    0    0  0.00000000000E+00  0.00000000000E+00 -0.62159158419E+03  0.31496758732E+04  0.30877308835E+04 0.  0.
        1    1    3    3  502    0  0.13812131906E+03 -0.34660310926E+03 -0.18389520896E+04  0.18764210620E+04  0.50400001928E-02 0.  1.
       -1    1    3    3    0  502 -0.13812131906E+03  0.34660310926E+03  0.12173605054E+04  0.12732548112E+04  0.50400001928E-02 0. -1.
</event>
<event>
 5   0  0.1001961E-05  0.3135485E+04  0.7818609E-02  0.8206066E-01
        2   -1    0    0  501    0  0.00000000000E+00  0.00000000000E+00  0.17653632835E+04  0.17653632835E+04  0.25500000920E-02 0. -1.
       -2   -1    0    0    0  501  0.00000000000E+00  0.00000000000E+00 -0.13922444486E+04  0.13922444486E+04  0.25500000920E-02 0.  1.
    10030    2    1    2    0    0  0.00000000000E+00  0.00000000000E+00  0.37311883488E+03  0.31576077321E+04  0.31354854368E+04 0.  0.
        5    1    3    3  502    0 -0.96676911597E+02 -0.95488490584E+03 -0.10618009003E+04  0.14312913227E+04  0.46999998093E+01 0.  1.
       -5    1    3    3    0  502  0.96676911597E+02  0.95488490584E+03  0.14349197352E+04  0.17263164093E+04  0.46999998093E+01 0. -1.
</event>
<event>
 5   0  0.4139628E-06  0.1535601E+04  0.7818609E-02  0.8861118E-01
        1   -1    0    0  501    0  0.00000000000E+00  0.00000000000E+00  0.12622624749E+04  0.12622624749E+04  0.50400001928E-02 0.  1.
       -1   -1    0    0    0  501  0.00000000000E+00  0.00000000000E+00 -0.46703248464E+03  0.46703248467E+03  0.50400001928E-02 0. -1.
    10030    2    1    2    0    0  0.00000000000E+00  0.00000000000E+00  0.79522999029E+03  0.17292949596E+04  0.15356009638E+04 0.  0.
        5    1    3    3  502    0  0.59565450383E+03  0.77640544799E+02  0.93611881530E+03  0.11122827287E+04  0.46999998093E+01 0.  1.
       -5    1    3    3    0  502 -0.59565450383E+03 -0.77640544799E+02 -0.14088882501E+03  0.61701223095E+03  0.46999998093E+01 0. -1.
</event>
<event>
 5   0  0.1119100E-05  0.3190586E+04  0.7818609E-02  0.8191308E-01
       -2   -1    0    0    0  501  0.00000000000E+00  0.00000000000E+00  0.82900621739E+03  0.82900621739E+03  0.25500000920E-02 0.  1.
        2   -1    0    0  501    0  0.00000000000E+00  0.00000000000E+00 -0.30698916938E+04  0.30698916938E+04  0.25500000920E-02 0. -1.
    10030    2    1    2    0    0  0.00000000000E+00  0.00000000000E+00 -0.22408854764E+04  0.38988979112E+04  0.31905857148E+04 0.  0.
        2    1    3    3  502    0  0.10164101390E+04  0.12174596971E+04 -0.13309023927E+04  0.20704103129E+04  0.25500000920E-02 0.  1.
       -2    1    3    3    0  502 -0.10164101390E+04 -0.12174596971E+04 -0.90998308373E+03  0.18284875984E+04  0.25500000920E-02 0. -1.
</event>
<event>
 5   0  0.1108153E-05  0.3076613E+04  0.7818609E-02  0.8222186E-01
       -2   -1    0    0    0  501  0.00000000000E+00  0.00000000000E+00  0.99945250398E+03  0.99945250398E+03  0.25500000920E-02 0.  1.
        2   -1    0    0  501    0  0.00000000000E+00  0.00000000000E+00 -0.23676824559E+04  0.23676824559E+04  0.25500000920E-02 0. -1.
    10030    2    1    2    0    0  0.00000000000E+00  0.00000000000E+00 -0.13682299519E+04  0.33671349599E+04  0.30766125263E+04 0.  0.
        4    1    3    3  502    0  0.79073763533E+02 -0.12206275988E+04 -0.17050481060E+04  0.20984220385E+04  0.12699999809E+01 0. -1.
       -4    1    3    3    0  502 -0.79073763533E+02  0.12206275988E+04  0.33681815402E+03  0.12687129214E+04  0.12699999809E+01 0.  1.
</event>
<event>
 5   0  0.3807334E-06  0.3122035E+04  0.7818609E-02  0.8209717E-01
       -1   -1    0    0    0  501  0.00000000000E+00  0.00000000000E+00  0.11506722403E+04  0.11506722403E+04  0.50400001928E-02 0. -1.
        1   -1    0    0  501    0  0.00000000000E+00  0.00000000000E+00 -0.21176970987E+04  0.21176970987E+04  0.50400001928E-02 0.  1.
    10030    2    1    2    0    0  0.00000000000E+00  0.00000000000E+00 -0.96702485837E+03  0.32683693390E+04  0.31220347627E+04 0.  0.
        4    1    3    3  502    0 -0.93395079726E+03  0.48701606263E+03 -0.16896088162E+04  0.19910369915E+04  0.12699999809E+01 0.  1.
       -4    1    3    3    0  502  0.93395079726E+03 -0.48701606263E+03  0.72258395782E+03  0.12773323475E+04  0.12699999809E+01 0. -1.
</event>
<event>
 5   0  0.1001961E-05  0.2143577E+04  0.7818609E-02  0.8542287E-01
        2   -1    0    0  501    0  0.00000000000E+00  0.00000000000E+00  0.19029623647E+04  0.19029623647E+04  0.25500000920E-02 0. -1.
       -2   -1    0    0    0  501  0.00000000000E+00  0.00000000000E+00 -0.60365395734E+03  0.60365395735E+03  0.25500000920E-02 0.  1.
    10030    2    1    2    0    0  0.00000000000E+00  0.00000000000E+00  0.12993084073E+04  0.25066163220E+04  0.21435771618E+04 0.  0.
        5    1    3    3  502    0 -0.72091185457E+03 -0.69404773599E+03  0.20086843794E+03  0.10206793724E+04  0.46999998093E+01 0.  1.
       -5    1    3    3    0  502  0.72091185457E+03  0.69404773599E+03  0.10984399694E+04  0.14859369496E+04  0.46999998093E+01 0. -1.
</event>
<event>
 5   0  0.1007567E-05  0.2973873E+04  0.7818609E-02  0.8251231E-01
       -2   -1    0    0    0  501  0.00000000000E+00  0.00000000000E+00  0.15704584326E+04  0.15704584326E+04  0.25500000920E-02 0.  1.
        2   -1    0    0  501    0  0.00000000000E+00  0.00000000000E+00 -0.14078566010E+04  0.14078566010E+04  0.25500000920E-02 0. -1.
    10030    2    1    2    0    0  0.00000000000E+00  0.00000000000E+00  0.16260183164E+03  0.29783150336E+04  0.29738730779E+04 0.  0.
        3    1    3    3  502    0 -0.75517635670E+03  0.12451601791E+04  0.38219111397E+03  0.15055846901E+04  0.10100000352E+00 0.  1.
       -3    1    3    3    0  502  0.75517635670E+03 -0.12451601791E+04 -0.21958928233E+03  0.14727303434E+04  0.10100000352E+00 0. -1.
</event>
<event>
 5   0  0.1108153E-05  0.3145548E+04  0.7818609E-02  0.8203348E-01
       -2   -1    0    0    0  501  0.00000000000E+00  0.00000000000E+00  0.10636866152E+04  0.10636866152E+04  0.25500000920E-02 0.  1.
        2   -1    0    0  501    0  0.00000000000E+00  0.00000000000E+00 -0.23255135824E+04  0.23255135824E+04  0.25500000920E-02 0. -1.
    10030    2    1    2    0    0  0.00000000000E+00  0.00000000000E+00 -0.12618269671E+04  0.33892001976E+04  0.31455477558E+04 0.  0.
        4    1    3    3  502    0  0.92974201482E+03 -0.78207360486E+03  0.44522890776E+03  0.12939434805E+04  0.12699999809E+01 0.  1.
       -4    1    3    3    0  502 -0.92974201482E+03  0.78207360486E+03 -0.17070558749E+04  0.20952567171E+04  0.12699999809E+01 0. -1.
</event>
<event>
 5   0  0.3848286E-06  0.2090312E+04  0.7818609E-02  0.8565523E-01
       -1   -1    0    0    0  501  0.00000000000E+00  0.00000000000E+00  0.77625967129E+03  0.77625967131E+03  0.50400001928E-02 0.  1.
        1   -1    0    0  501    0  0.00000000000E+00  0.00000000000E+00 -0.14071986533E+04  0.14071986533E+04  0.50400001928E-02 0. -1.
    10030    2    1    2    0    0  0.00000000000E+00  0.00000000000E+00 -0.63093898199E+03  0.21834583246E+04  0.20903124781E+04 0.  0.
        2    1    3    3  502    0  0.10050492975E+04  0.25516965558E+03 -0.45212710196E+03  0.11312181752E+04  0.25500000920E-02 0. -1.
       -2    1    3    3    0  502 -0.10050492975E+04 -0.25516965558E+03 -0.17881188002E+03  0.10522401494E+04  0.25500000920E-02 0.  1.
</event>
<event>
 5   0  0.1001961E-05  0.2641246E+04  0.7818609E-02  0.8354324E-01
       -2   -1    0    0    0  501  0.00000000000E+00  0.00000000000E+00  0.16494291132E+04  0.16494291132E+04  0.25500000920E-02 0.  1.
        2   -1    0    0  501    0  0.00000000000E+00  0.00000000000E+00 -0.10573632562E+04  0.10573632562E+04  0.25500000920E-02 0. -1.
    10030    2    1    2    0    0  0.00000000000E+00  0.00000000000E+00  0.59206585698E+03  0.27067923694E+04  0.26412464769E+04 0.  0.
        5    1    3    3  502    0  0.32549145858E+03 -0.12756648142E+04  0.18973699926E+03  0.13301457163E+04  0.46999998093E+01 0. -1.
       -5    1    3    3    0  502 -0.32549145858E+03  0.12756648142E+04  0.40232885772E+03  0.13766466531E+04  0.46999998093E+01 0.  1.
</event>
<event>
 5   0  0.3838525E-06  0.3043398E+04  0.7818609E-02  0.8231446E-01
       -1   -1    0    0    0  501  0.00000000000E+00  0.00000000000E+00  0.11219699087E+04  0.11219699088E+04  0.50400001928E-02 0. -1.
        1   -1    0    0  501    0  0.00000000000E+00  0.00000000000E+00 -0.20638418261E+04  0.20638418261E+04  0.50400001928E-02 0.  1.
    10030    2    1    2    0    0  0.00000000000E+00  0.00000000000E+00 -0.94187191739E+03  0.31858117349E+04  0.30433983803E+04 0.  0.
        3    1    3    3  502    0  0.67174389145E+03 -0.52941321163E+03  0.84654932944E+03  0.12033968513E+04  0.10100000352E+00 0. -1.
       -3    1    3    3    0  502 -0.67174389145E+03  0.52941321163E+03 -0.17884212468E+04  0.19824148836E+04  0.10100000352E+00 0.  1.
</event>
<event>
 5   0  0.1108153E-05  0.3057174E+04  0.7818609E-02  0.8227590E-01
        2   -1    0    0  501    0  0.00000000000E+00  0.00000000000E+00  0.14459011135E+04  0.14459011135E+04  0.25500000920E-02 0.  1.
       -2   -1    0    0    0  501  0.00000000000E+00  0.00000000000E+00 -0.16160011127E+04  0.16160011127E+04  0.25500000920E-02 0. -1.
    10030    2    1    2    0    0  0.00000000000E+00  0.00000000000E+00 -0.17009999920E+03  0.30619022263E+04  0.30571737330E+04 0.  0.
        4    1    3    3  502    0 -0.59626522949E+03 -0.20805662060E+03  0.13091362355E+04  0.14534989086E+04  0.12699999809E+01 0.  1.
       -4    1    3    3    0  502  0.59626522949E+03  0.20805662060E+03 -0.14792362347E+04  0.16084033177E+04  0.12699999809E+01 0. -1.
</event>
<event>
 5   0  0.4250961E-06  0.1744722E+04  0.7818609E-02  0.8736261E-01
       -1   -1    0    0    0  501  0.00000000000E+00  0.00000000000E+00  0.79568087455E+03  0.79568087457E+03  0.50400001928E-02 0.  1.
        1   -1    0    0  501    0  0.00000000000E+00  0.00000000000E+00 -0.95643130268E+03  0.95643130270E+03  0.50400001928E-02 0. -1.
    10030    2    1    2    0    0  0.00000000000E+00  0.00000000000E+00 -0.16075042813E+03  0.17521121773E+04  0.17447224368E+04 0.  0.
        1    1    3    3  502    0 -0.72829148798E+03 -0.34452196959E+03 -0.41632195295E+03  0.90687807755E+03  0.50400001928E-02 0. -1.
       -1    1    3    3    0  502  0.72829148798E+03  0.34452196959E+03  0.25557152482E+03  0.84523409972E+03  0.50400001928E-02 0.  1.
</event>
<event>
 5   0  0.1001961E-05  0.1749324E+04  0.7818609E-02  0.8733723E-01
        2   -1    0    0  501    0  0.00000000000E+00  0.00000000000E+00  0.74381770293E+03  0.74381770293E+03  0.25500000920E-02 0.  1.
       -2   -1    0    0    0  501  0.00000000000E+00  0.00000000000E+00 -0.10285225592E+04  0.10285225592E+04  0.25500000920E-02 0. -1.
    10030    2    1    2    0    0  0.00000000000E+00  0.00000000000E+00 -0.28470485625E+03  0.17723402621E+04  0.17493236263E+04 0.  0.
        5    1    3    3  502    0  0.18901373576E+03 -0.16863398660E+02  0.72269694104E+03  0.74721049585E+03  0.46999998093E+01 0.  1.
       -5    1    3    3    0  502 -0.18901373576E+03  0.16863398660E+02 -0.10074017973E+04  0.10251297663E+04  0.46999998093E+01 0. -1.
</event>
<event>
 5   0  0.4139628E-06  0.1546038E+04  0.7818609E-02  0.8854403E-01
        1   -1    0    0  501    0  0.00000000000E+00  0.00000000000E+00  0.11589542031E+04  0.11589542032E+04  0.50400001928E-02 0. -1.
       -1   -1    0    0    0  501  0.00000000000E+00  0.00000000000E+00 -0.51560104015E+03  0.51560104018E+03  0.50400001928E-02 0.  1.
    10030    2    1    2    0    0  0.00000000000E+00  0.00000000000E+00  0.64335316300E+03  0.16745552433E+04  0.15460375062E+04 0.  0.
        5    1    3    3  502    0  0.66792591506E+03 -0.37520146276E+03  0.20997924144E+03  0.79436423478E+03  0.46999998093E+01 0. -1.
       -5    1    3    3    0  502 -0.66792591506E+03  0.37520146276E+03  0.43337392156E+03  0.88019100856E+03  0.46999998093E+01 0.  1.
</event>
<event>
 5   0  0.4139628E-06  0.3100468E+04  0.7818609E-02  0.8215610E-01
        1   -1    0    0  501    0  0.00000000000E+00  0.00000000000E+00  0.17929222403E+04  0.17929222403E+04  0.50400001928E-02 0.  1.
       -1   -1    0    0    0  501  0.00000000000E+00  0.00000000000E+00 -0.13403955378E+04  0.13403955378E+04  0.50400001928E-02 0. -1.
    10030    2    1    2    0    0  0.00000000000E+00  0.00000000000E+00  0.45252670242E+03  0.31333177781E+04  0.31004676877E+04 0.  0.
        5    1    3    3  502    0 -0.14243631604E+04  0.60107795524E+03  0.34192136794E+03  0.15833626978E+04  0.46999998093E+01 0.  1.
       -5    1    3    3    0  502  0.14243631604E+04 -0.60107795524E+03  0.11060533448E+03  0.15499550803E+04  0.46999998093E+01 0. -1.
</event>
<event>
 5   0  0.1001961E-05  0.3070933E+04  0.7818609E-02  0.8223761E-01
        2   -1    0    0  501    0  0.00000000000E+00  0.00000000000E+00  0.17857963949E+04  0.17857963949E+04  0.25500000920E-02 0. -1.
       -2   -1    0    0    0  501  0.00000000000E+00  0.00000000000E+00 -0.13202276627E+04  0.13202276627E+04  0.25500000920E-02 0.  1.
    10030    2    1    2    0    0  0.00000000000E+00  0.00000000000E+00  0.46556873218E+03  0.31060240576E+04  0.30709332787E+04 0.  0.
        5    1    3    3  502    0 -0.10243760574E+03 -0.10289648627E+04 -0.91525118253E+03  0.13809304722E+04  0.46999998093E+01 0.  1.
       -5    1    3    3    0  502  0.10243760574E+03  0.10289648627E+04  0.13808199147E+04  0.17250935855E+04  0.46999998093E+01 0. -1.
</event>
<event>
 5   0  0.3807334E-06  0.3111452E+04  0.7818609E-02  0.8212602E-01
        1   -1    0    0  501    0  0.00000000000E+00  0.00000000000E+00  0.19817294060E+04  0.19817294060E+04  0.50400001928E-02 0. -1.
       -1   -1    0    0    0  501  0.00000000000E+00  0.00000000000E+00 -0.12212986778E+04  0.12212986778E+04  0.50400001928E-02 0.  1.
    10030    2    1    2    0    0  0.00000000000E+00  0.00000000000E+00  0.76043072815E+03  0.32030280838E+04  0.31114520747E+04 0.  0.
        4    1    3    3  502    0  0.13833087073E+04 -0.30361414140E+03 -0.28259600253E+03  0.14441560304E+04  0.12699999809E+01 0.  1.
       -4    1    3    3    0  502 -0.13833087073E+04  0.30361414140E+03  0.10430267307E+04  0.17588720534E+04  0.12699999809E+01 0. -1.
</event>
<event>
 5   0  0.3807334E-06  0.2963832E+04  0.7818609E-02  0.8254135E-01
        1   -1    0    0  501    0  0.00000000000E+00  0.00000000000E+00  0.10750053496E+04  0.10750053497E+04  0.50400001928E-02 0.  1.
       -1   -1    0    0    0  501  0.00000000000E+00  0.00000000000E+00 -0.20428503233E+04  0.20428503233E+04  0.50400001928E-02 0. -1.
    10030    2    1    2    0    0  0.00000000000E+00  0.00000000000E+00 -0.96784497363E+03  0.31178556729E+04  0.29638319966E+04 0.  0.
        4    1    3    3  502    0  0.11727765134E+04 -0.43973233870E+03 -0.13171075965E+04  0.18175652159E+04  0.12699999809E+01 0. -1.
       -4    1    3    3    0  502 -0.11727765134E+04  0.43973233870E+03  0.34926262292E+03  0.13002904571E+04  0.12699999809E+01 0.  1.
</event>
<event>
 5   0  0.4139628E-06  0.1606757E+04  0.7818609E-02  0.8816407E-01
       -1   -1    0    0    0  501  0.00000000000E+00  0.00000000000E+00  0.16815376181E+04  0.16815376181E+04  0.50400001928E-02 0. -1.
        1   -1    0    0  501    0  0.00000000000E+00  0.00000000000E+00 -0.38382563786E+03  0.38382563789E+03  0.50400001928E-02 0.  1.
    10030    2    1    2    0    0  0.00000000000E+00  0.00000000000E+00  0.12977119803E+04  0.20653632560E+04  0.16067572921E+04 0.  0.
        5    1    3    3  502    0  0.72043790531E+03 -0.34648311198E+03  0.54671669974E+03  0.96850532372E+03  0.46999998093E+01 0.  1.
       -5    1    3    3    0  502 -0.72043790531E+03  0.34648311198E+03  0.75099528053E+03  0.10968579323E+04  0.46999998093E+01 0. -1.
</event>
<event>
 5   0  0.3807334E-06  0.3034194E+04  0.7818609E-02  0.8234034E-01
       -1   -1    0    0    0  501  0.00000000000E+00  0.00000000000E+00  0.10147137454E+04  0.10147137454E+04  0.50400001928E-02 0. -1.
        1   -1    0    0  501    0  0.00000000000E+00  0.00000000000E+00 -0.22682090123E+04  0.22682090123E+04  0.50400001928E-02 0.  1.
    10030    2    1    2    0    0  0.00000000000E+00  0.00000000000E+00 -0.12534952669E+04  0.32829227577E+04  0.30341937065E+04 0.  0.
        4    1    3    3  502    0  0.12116974923E+04 -0.10340688528E+03  0.35462096763E+03  0.12667523200E+04  0.12699999809E+01 0. -1.
       -4    1    3    3    0  502 -0.12116974923E+04  0.10340688528E+03 -0.16081162346E+04  0.20161704376E+04  0.12699999809E+01 0.  1.
</event>
<event>
 5   0  0.3807334E-06  0.3020167E+04  0.7818609E-02  0.8237995E-01
       -1   -1    0    0    0  501  0.00000000000E+00  0.00000000000E+00  0.13455003423E+04  0.13455003423E+04  0.50400001928E-02 0.  1.
        1   -1    0    0  501    0  0.00000000000E+00  0.00000000000E+00 -0.16947986315E+04  0.16947986315E+04  0.50400001928E-02 0. -1.
    10030    2    1    2    0    0  0.00000000000E+00  0.00000000000E+00 -0.34929828926E+03  0.30402989738E+04  0.30201669747E+04 0.  0.
        4    1    3    3  502    0  0.15072210619E+04 -0.67923186240E+02 -0.11081004031E+03  0.15128150471E+04  0.12699999809E+01 0.  1.
       -4    1    3    3    0  502 -0.15072210619E+04  0.67923186240E+02 -0.23848824894E+03  0.15274839267E+04  0.12699999809E+01 0. -1.
</event>
<event>
 5   0  0.3807334E-06  0.3121396E+04  0.7818609E-02  0.8209890E-01
       -1   -1    0    0    0  501  0.00000000000E+00  0.00000000000E+00  0.23357276940E+04  0.23357276940E+04  0.50400001928E-02 0.  1.
        1   -1    0    0  501    0  0.00000000000E+00  0.00000000000E+00 -0.10428350094E+04  0.10428350094E+04  0.50400001928E-02 0. -1.
    10030    2    1    2    0    0  0.00000000000E+00  0.00000000000E+00  0.12928926845E+04  0.33785627034E+04  0.31213962336E+04 0.  0.
        4    1    3    3  502    0 -0.48818098972E+03 -0.21995296618E+02 -0.95788990058E+03  0.10753414092E+04  0.12699999809E+01 0. -1.
       -4    1    3    3    0  502  0.48818098972E+03  0.21995296618E+02  0.22507825851E+04  0.23032212942E+04  0.12699999809E+01 0.  1.
</event>
<event>
 5   0  0.4250961E-06  0.1636482E+04  0.7818609E-02  0.8798444E-01
        1   -1    0    0  501    0  0.00000000000E+00  0.00000000000E+00  0.46287137403E+03  0.46287137406E+03  0.50400001928E-02 0. -1.
       -1   -1    0    0    0  501  0.00000000000E+00  0.00000000000E+00 -0.14464453735E+04  0.14464453735E+04  0.50400001928E-02 0.  1.
    10030    2    1    2    0    0  0.00000000000E+00  0.00000000000E+00 -0.98357399943E+03  0.19093167475E+04  0.16364817842E+04 0.  0.
        1    1    3    3  502    0 -0.51694707321E+03  0.61947664730E+03 -0.65061774214E+03  0.10364791553E+04  0.50400001928E-02 0.  1.
       -1    1    3    3    0  502  0.51694707321E+03 -0.61947664730E+03 -0.33295625729E+03  0.87283759219E+03  0.50400001928E-02 0. -1.
</event>
<event>
 5   0  0.1119100E-05  0.3145227E+04  0.7818609E-02  0.8203434E-01
       -2   -1    0    0    0  501  0.00000000000E+00  0.00000000000E+00  0.11465888277E+04  0.11465888277E+04  0.25500000920E-02 0.  1.
        2   -1    0    0  501    0  0.00000000000E+00  0.00000000000E+00 -0.21569307560E+04  0.21569307560E+04  0.25500000920E-02 0. -1.
    10030    2    1    2    0    0  0.00000000000E+00  0.00000000000E+00 -0.10103419283E+04  0.33035195838E+04  0.31452266736E+04 0.  0.
        2    1    3    3  502    0 -0.80555353973E+03  0.23932953539E+03 -0.19013241797E+04  0.20787565437E+04  0.25500000920E-02 0. -1.
       -2    1    3    3    0  502  0.80555353973E+03 -0.23932953539E+03  0.89098225139E+03  0.12247630400E+04  0.25500000920E-02 0.  1.
</event>
<event>
 5   0  0.4250961E-06  0.3083204E+04  0.7818609E-02  0.8220363E-01
        1   -1    0    0  501    0  0.00000000000E+00  0.00000000000E+00  0.19005409233E+04  0.19005409233E+04  0.50400001928E-02 0.  1.
       -1   -1    0    0    0  501  0.00000000000E+00  0.00000000000E+00 -0.12504526760E+04  0.12504526760E+04  0.50400001928E-02 0. -1.
    10030    2    1    2    0    0  0.00000000000E+00  0.00000000000E+00  0.65008824737E+03  0.31509935993E+04  0.30832038423E+04 0.  0.
        1    1    3    3  502    0  0.27029905967E+03  0.81829893114E+03 -0.98128598513E+03  0.13059850332E+04  0.50400001928E-02 0. -1.
       -1    1    3    3    0  502 -0.27029905967E+03 -0.81829893114E+03  0.16313742325E+04  0.18450085661E+04  0.50400001928E-02 0.  1.
</event>
<event>
 5   0  0.3807334E-06  0.3096958E+04  0.7818609E-02  0.8216573E-01
       -1   -1    0    0    0  501  0.00000000000E+00  0.00000000000E+00  0.10409334174E+04  0.10409334174E+04  0.50400001928E-02 0.  1.
        1   -1    0    0  501    0  0.00000000000E+00  0.00000000000E+00 -0.23034970739E+04  0.23034970739E+04  0.50400001928E-02 0. -1.
    10030    2    1    2    0    0  0.00000000000E+00  0.00000000000E+00 -0.12625636565E+04  0.33444304913E+04  0.30969579146E+04 0.  0.
        4    1    3    3  502    0  0.17620286732E+03  0.36189364479E+03 -0.22460141208E+04  0.22817965519E+04  0.12699999809E+01 0. -1.
       -4    1    3    3    0  502 -0.17620286732E+03 -0.36189364479E+03  0.98345046431E+03  0.10626339394E+04  0.12699999809E+01 0.  1.
</event>
<event>
 5   0  0.1001961E-05  0.3076349E+04  0.7818609E-02  0.8222259E-01
       -2   -1    0    0    0  501  0.00000000000E+00  0.00000000000E+00  0.12615676158E+04  0.12615676158E+04  0.25500000920E-02 0.  1.
        2   -1    0    0  501    0  0.00000000000E+00  0.00000000000E+00 -0.18754294891E+04  0.18754294891E+04  0.25500000920E-02 0. -1.
    10030    2    1    2    0    0  0.00000000000E+00  0.00000000000E+00 -0.61386187324E+03  0.31369971049E+04  0.30763492059E+04 0.  0.
        5    1    3    3  502    0  0.21615454689E+03 -0.11465893422E+04 -0.13289721196E+04  0.17684962235E+04  0.46999998093E+01 0. -1.
       -5    1    3    3    0  502 -0.21615454689E+03  0.11465893422E+04  0.71511024639E+03  0.13685008814E+04  0.46999998093E+01 0.  1.
</event>
<event>
 5   0  0.1001961E-05  0.2780331E+04  0.7818609E-02  0.8309401E-01
       -2   -1    0    0    0  501  0.00000000000E+00  0.00000000000E+00  0.24291881717E+04  0.24291881717E+04  0.25500000920E-02 0. -1.
        2   -1    0    0  501    0  0.00000000000E+00  0.00000000000E+00 -0.79555812568E+03  0.79555812569E+03  0.25500000920E-02 0.  1.
    10030    2    1    2    0    0  0.00000000000E+00  0.00000000000E+00  0.16336300460E+04  0.32247462974E+04  0.27803311953E+04 0.  0.
        5    1    3    3  502    0  0.91941127066E+03 -0.18944918971E+03 -0.37242247379E+03  0.10099151792E+04  0.46999998093E+01 0.  1.
       -5    1    3    3    0  502 -0.91941127066E+03  0.18944918971E+03  0.20060525198E+04  0.22148311182E+04  0.46999998093E+01 0. -1.
</event>
<event>
 5   0  0.3838525E-06  0.3069778E+04  0.7818609E-02  0.8224081E-01
       -1   -1    0    0    0  501  0.00000000000E+00  0.00000000000E+00  0.14177354844E+04  0.14177354844E+04  0.50400001928E-02 0. -1.
        1   -1    0    0  501    0  0.00000000000E+00  0.00000000000E+00 -0.16617238961E+04  0.16617238961E+04  0.50400001928E-02 0.  1.
    10030    2    1    2    0    0  0.00000000000E+00  0.00000000000E+00 -0.24398841179E+03  0.30794593805E+04  0.30697784498E+04 0.  0.
        3    1    3    3  502    0  0.19322766691E+03 -0.13212543235E+04  0.63725128461E+03  0.14795739686E+04  0.10100000352E+00 0. -1.
       -3    1    3    3    0  502 -0.19322766691E+03  0.13212543235E+04 -0.88123969639E+03  0.15998854119E+04  0.10100000352E+00 0.  1.
</event>
<event>
 5   0  0.3807334E-06  0.3177289E+04  0.7818609E-02  0.8194841E-01
       -1   -1    0    0    0  501  0.00000000000E+00  0.00000000000E+00  0.12917161706E+04  0.12917161706E+04  0.50400001928E-02 0. -1.
        1   -1    0    0  501    0  0.00000000000E+00  0.00000000000E+00 -0.19538277982E+04  0.19538277982E+04  0.50400001928E-02 0.  1.
    10030    2    1    2    0    0  0.00000000000E+00  0.00000000000E+00 -0.66211162758E+03  0.32455439688E+04  0.31772887571E+04 0.  0.
        4    1    3    3  502    0  0.35928221417E+03  0.14450315844E+04 -0.89665574758E+03  0.17381579709E+04  0.12699999809E+01 0. -1.
       -4    1    3    3    0  502 -0.35928221417E+03 -0.14450315844E+04  0.23454412000E+03  0.15073859978E+04  0.12699999809E+01 0.  1.
</event>
<event>
 5   0  0.3807334E-06  0.3027655E+04  0.7818609E-02  0.8235878E-01
       -1   -1    0    0    0  501  0.00000000000E+00  0.00000000000E+00  0.11167485443E+04  0.11167485443E+04  0.50400001928E-02 0.  1.
        1   -1    0    0  501    0  0.00000000000E+00  0.00000000000E+00 -0.20520945879E+04  0.20520945879E+04  0.50400001928E-02 0. -1.
    10030    2    1    2    0    0  0.00000000000E+00  0.00000000000E+00 -0.93534604360E+03  0.31688431321E+04  0.30276549630E+04 0.  0.
        4    1    3    3  502    0  0.98987113159E+02  0.13381965066E+04 -0.12011406647E+04  0.18009188899E+04  0.12699999809E+01 0. -1.
       -4    1    3    3    0  502 -0.98987113159E+02 -0.13381965066E+04  0.26579462107E+03  0.13679242422E+04  0.12699999809E+01 0.  1.
</event>
<event>
 5   0  0.1108153E-05  0.3124068E+04  0.7818609E-02  0.8209164E-01
       -2   -1    0    0    0  501  0.00000000000E+00  0.00000000000E+00  0.20267557671E+04  0.20267557671E+04  0.25500000920E-02 0. -1.
        2   -1    0    0  501    0  0.00000000000E+00  0.00000000000E+00 -0.12038698523E+04  0.12038698523E+04  0.25500000920E-02 0.  1.
    10030    2    1    2    0    0  0.00000000000E+00  0.00000000000E+00  0.82288591483E+03  0.32306256194E+04  0.31240679672E+04 0.  0.
        4    1    3    3  502    0 -0.75230415854E+03  0.97090410741E+03  0.14094152251E+04  0.18695104232E+04  0.12699999809E+01 0. -1.
       -4    1    3    3    0  502  0.75230415854E+03 -0.97090410741E+03 -0.58652931023E+03  0.13611151962E+04  0.12699999809E+01 0.  1.
</event>
<event>
 5   0  0.3493125E-06  0.3078062E+04  0.7818609E-02  0.8221785E-01
       -3   -1    0    0    0  501  0.00000000000E+00  0.00000000000E+00  0.99375187170E+03  0.99375187683E+03  0.10100000352E+00 0.  1.
        3   -1    0    0  501    0  0.00000000000E+00  0.00000000000E+00 -0.23835082472E+04  0.23835082493E+04  0.10100000352E+00 0. -1.
    10030    2    1    2    0    0  0.00000000000E+00  0.00000000000E+00 -0.13897563755E+04  0.33772601262E+04  0.30780615940E+04 0.  0.
        1    1    3    3  502    0 -0.56378956886E+03  0.73907089758E+03  0.65094443249E+03  0.11348185422E+04  0.50400001928E-02 0.  1.
       -1    1    3    3    0  502  0.56378956886E+03 -0.73907089758E+03 -0.20407008080E+04  0.22424415839E+04  0.50400001928E-02 0. -1.
</event>
<event>
 5   0  0.3838525E-06  0.3170925E+04  0.7818609E-02  0.8196538E-01
        1   -1    0    0  501    0  0.00000000000E+00  0.00000000000E+00  0.16546559863E+04  0.16546559863E+04  0.50400001928E-02 0.  1.
       -1   -1    0    0    0  501  0.00000000000E+00  0.00000000000E+00 -0.15191624126E+04  0.15191624127E+04  0.50400001928E-02 0. -1.
    10030    2    1    2    0    0  0.00000000000E+00  0.00000000000E+00  0.13549357362E+03  0.31738183989E+04  0.31709248999E+04 0.  0.
        3    1    3    3  502    0 -0.74555195029E+03 -0.94232567065E+03  0.11030338031E+04  0.16311066676E+04  0.10100000352E+00 0.  1.
       -3    1    3    3    0  502  0.74555195029E+03  0.94232567065E+03 -0.96754022946E+03  0.15427117313E+04  0.10100000352E+00 0. -1.
</event>
<event>
 5   0  0.1119100E-05  0.3145361E+04  0.7818609E-02  0.8203398E-01
       -2   -1    0    0    0  501  0.00000000000E+00  0.00000000000E+00  0.12606832127E+04  0.12606832127E+04  0.25500000920E-02 0. -1.
        2   -1    0    0  501    0  0.00000000000E+00  0.00000000000E+00 -0.19618919707E+04  0.19618919707E+04  0.25500000920E-02 0.  1.
    10030    2    1    2    0    0  0.00000000000E+00  0.00000000000E+00 -0.70120875794E+03  0.32225751834E+04  0.31453612019E+04 0.  0.
        2    1    3    3  502    0  0.50468899149E+03 -0.95285018266E+03  0.82235371566E+03  0.13560605010E+04  0.25500000920E-02 0. -1.
       -2    1    3    3    0  502 -0.50468899149E+03  0.95285018266E+03 -0.15235624736E+04  0.18665146824E+04  0.25500000920E-02 0.  1.
</event>
<event>
 5   0  0.1001961E-05  0.2126692E+04  0.7818609E-02  0.8549576E-01
        2   -1    0    0  501    0  0.00000000000E+00  0.00000000000E+00  0.81764614566E+03  0.81764614566E+03  0.25500000920E-02 0.  1.
       -2   -1    0    0    0  501  0.00000000000E+00  0.00000000000E+00 -0.13828781171E+04  0.13828781171E+04  0.25500000920E-02 0. -1.
    10030    2    1    2    0    0  0.00000000000E+00  0.00000000000E+00 -0.56523197142E+03  0.22005242627E+04  0.21266922319E+04 0.  0.
        5    1    3    3  502    0  0.81197921234E+03 -0.16685063686E+03  0.40648794714E+03  0.92325723255E+03  0.46999998093E+01 0.  1.
       -5    1    3    3    0  502 -0.81197921234E+03  0.16685063686E+03 -0.97171991856E+03  0.12772670302E+04  0.46999998093E+01 0. -1.
</event>
<event>
 5   0  0.1007567E-05  0.3124842E+04  0.7818609E-02  0.8208953E-01
        2   -1    0    0  501    0  0.00000000000E+00  0.00000000000E+00  0.19198127747E+04  0.19198127747E+04  0.25500000920E-02 0.  1.
       -2   -1    0    0    0  501  0.00000000000E+00  0.00000000000E+00 -0.12715608490E+04  0.12715608490E+04  0.25500000920E-02 0. -1.
    10030    2    1    2    0    0  0.00000000000E+00  0.00000000000E+00  0.64825192567E+03  0.31913736237E+04  0.31248416035E+04 0.  0.
        3    1    3    3  502    0 -0.25698352542E+03 -0.34863520432E+02 -0.12494260593E+04  0.12760570070E+04  0.10100000352E+00 0. -1.
       -3    1    3    3    0  502  0.25698352542E+03  0.34863520432E+02  0.18976779850E+04  0.19153166167E+04  0.10100000352E+00 0.  1.
</event>
<event>
 5   0  0.3848286E-06  0.3173244E+04  0.7818609E-02  0.8195919E-01
        1   -1    0    0  501    0  0.00000000000E+00  0.00000000000E+00  0.12841398256E+04  0.12841398256E+04  0.50400001928E-02 0.  1.
       -1   -1    0    0    0  501  0.00000000000E+00  0.00000000000E+00 -0.19603542740E+04  0.19603542740E+04  0.50400001928E-02 0. -1.
    10030    2    1    2    0    0  0.00000000000E+00  0.00000000000E+00 -0.67621444839E+03  0.32444940996E+04  0.31732437634E+04 0.  0.
        2    1    3    3  502    0 -0.71991178364E+03  0.10606891440E+04 -0.12939970870E+04  0.18214727277E+04  0.25500000920E-02 0. -1.
       -2    1    3    3    0  502  0.71991178364E+03 -0.10606891440E+04  0.61778263859E+03  0.14230213719E+04  0.25500000920E-02 0.  1.
</event>
<event>
 5   0  0.1007567E-05  0.2328838E+04  0.7818609E-02  0.8466637E-01
       -2   -1    0    0    0  501  0.00000000000E+00  0.00000000000E+00  0.10902971243E+04  0.10902971243E+04  0.25500000920E-02 0. -1.
        2   -1    0    0  501    0  0.00000000000E+00  0.00000000000E+00 -0.12435797421E+04  0.12435797421E+04  0.25500000920E-02 0.  1.
    10030    2    1    2    0    0  0.00000000000E+00  0.00000000000E+00 -0.15328261782E+03  0.23338768664E+04  0.23288378360E+04 0.  0.
        3    1    3    3  502    0 -0.29864489806E+03  0.73253847370E+02 -0.12021548653E+04  0.12408590701E+04  0.10100000352E+00 0.  1.
       -3    1    3    3    0  502  0.29864489806E+03 -0.73253847370E+02  0.10488722475E+04  0.10930177963E+04  0.10100000352E+00 0. -1.
</event>
<event>
 5   0  0.4139628E-06  0.1614925E+04  0.7818609E-02  0.8811431E-01
        1   -1    0    0  501    0  0.00000000000E+00  0.00000000000E+00  0.20699809743E+04  0.20699809743E+04  0.50400001928E-02 0.  1.
       -1   -1    0    0    0  501  0.00000000000E+00  0.00000000000E+00 -0.31497658273E+03  0.31497658277E+03  0.50400001928E-02 0. -1.
    10030    2    1    2    0    0  0.00000000000E+00  0.00000000000E+00  0.17550043916E+04  0.23849575571E+04  0.16149248077E+04 0.  0.
        5    1    3    3  502    0 -0.51727995313E+03  0.22397074978E+03  0.23709646454E+02  0.56420358382E+03  0.46999998093E+01 0. -1.
       -5    1    3    3    0  502  0.51727995313E+03 -0.22397074978E+03  0.17312947451E+04  0.18207539733E+04  0.46999998093E+01 0.  1.
</event>
<event>
 5   0  0.3838525E-06  0.3103970E+04  0.7818609E-02  0.8214649E-01
       -1   -1    0    0    0  501  0.00000000000E+00  0.00000000000E+00  0.13361468004E+04  0.13361468004E+04  0.50400001928E-02 0.  1.
        1   -1    0    0  501    0  0.00000000000E+00  0.00000000000E+00 -0.18026896197E+04  0.18026896197E+04  0.50400001928E-02 0. -1.
    10030    2    1    2    0    0  0.00000000000E+00  0.00000000000E+00 -0.46654281926E+03  0.31388364201E+04  0.31039703398E+04 0.  0.
        3    1    3    3  502    0 -0.51722149914E+03  0.90119742237E+03 -0.13990359660E+04  0.17426923187E+04  0.10100000352E+00 0. -1.
       -3    1    3    3    0  502  0.51722149914E+03 -0.90119742237E+03  0.93249314670E+03  0.13961441015E+04  0.10100000352E+00 0.  1.
</event>
<event>
 5   0  0.3807334E-06  0.3042085E+04  0.7818609E-02  0.8231814E-01
        1   -1    0    0  501    0  0.00000000000E+00  0.00000000000E+00  0.14856783813E+04  0.14856783814E+04  0.50400001928E-02 0.  1.
       -1   -1    0    0    0  501  0.00000000000E+00  0.00000000000E+00 -0.15572483429E+04  0.15572483429E+04  0.50400001928E-02 0. -1.
    10030    2    1    2    0    0  0.00000000000E+00  0.00000000000E+00 -0.71569961529E+02  0.30429267242E+04  0.30420849412E+04 0.  0.
        4    1    3    3  502    0 -0.88423367648E+03 -0.11580615369E+04  0.40090525279E+03  0.15111923612E+04  0.12699999809E+01 0.  1.
       -4    1    3    3    0  502  0.88423367648E+03  0.11580615369E+04 -0.47247521432E+03  0.15317343631E+04  0.12699999809E+01 0. -1.
</event>
<event>
 5   0  0.1108153E-05  0.3128013E+04  0.7818609E-02  0.8208092E-01
       -2   -1    0    0    0  501  0.00000000000E+00  0.00000000000E+00  0.28682089913E+04  0.28682089913E+04  0.25500000920E-02 0. -1.
        2   -1    0    0  501    0  0.00000000000E+00  0.00000000000E+00 -0.85283743097E+03  0.85283743098E+03  0.25500000920E-02 0.  1.
    10030    2    1    2    0    0  0.00000000000E+00  0.00000000000E+00  0.20153715603E+04  0.37210464223E+04  0.31280127798E+04 0.  0.
        4    1    3    3  502    0  0.11321829640E+04  0.35922378058E+02  0.22905590481E+04  0.25553455827E+04  0.12699999809E+01 0. -1.
       -4    1    3    3    0  502 -0.11321829640E+04 -0.35922378058E+02 -0.27518748775E+03  0.11657008396E+04  0.12699999809E+01 0.  1.
</event>
<event>
 5   0  0.3807334E-06  0.3247825E+04  0.7818609E-02  0.8176300E-01
       -1   -1    0    0    0  501  0.00000000000E+00  0.00000000000E+00  0.15744533276E+04  0.15744533277E+04  0.50400001928E-02 0. -1.
        1   -1    0    0  501    0  0.00000000000E+00  0.00000000000E+00 -0.16749256128E+04  0.16749256128E+04  0.50400001928E-02 0.  1.
    10030    2    1    2    0    0  0.00000000000E+00  0.00000000000E+00 -0.10047228519E+03  0.32493789405E+04  0.32478252445E+04 0.  0.
        4    1    3    3  502    0 -0.38213848742E+03 -0.36295934550E+03  0.14865068834E+04  0.15771726720E+04  0.12699999809E+01 0. -1.
       -4    1    3    3    0  502  0.38213848742E+03  0.36295934550E+03 -0.15869791686E+04  0.16722062685E+04  0.12699999809E+01 0.  1.
</event>
<event>
 5   0  0.1001961E-05  0.3110248E+04  0.7818609E-02  0.8212931E-01
        2   -1    0    0  501    0  0.00000000000E+00  0.00000000000E+00  0.18589053058E+04  0.18589053058E+04  0.25500000920E-02 0.  1.
       -2   -1    0    0    0  501  0.00000000000E+00  0.00000000000E+00 -0.13009863677E+04  0.13009863677E+04  0.25500000920E-02 0. -1.
    10030    2    1    2    0    0  0.00000000000E+00  0.00000000000E+00  0.55791893806E+03  0.31598916734E+04  0.31102478754E+04 0.  0.
        5    1    3    3  502    0  0.12518831169E+04  0.90067644462E+03  0.75871421811E+02  0.15440880671E+04  0.46999998093E+01 0. -1.
       -5    1    3    3    0  502 -0.12518831169E+04 -0.90067644462E+03  0.48204751625E+03  0.16158036063E+04  0.46999998093E+01 0.  1.
</event>
<event>
 5   0  0.3838525E-06  0.3088322E+04  0.7818609E-02  0.8218950E-01
        1   -1    0    0  501    0  0.00000000000E+00  0.00000000000E+00  0.18915566331E+04  0.18915566331E+04  0.50400001928E-02 0. -1.
       -1   -1    0    0    0  501  0.00000000000E+00  0.00000000000E+00 -0.12605665145E+04  0.12605665145E+04  0.50400001928E-02 0.  1.
    10030    2    1    2    0    0  0.00000000000E+00  0.00000000000E+00  0.63099011858E+03  0.31521231476E+04  0.30883218433E+04 0.  0.
        3    1    3    3  502    0  0.35826818984E+03  0.63249745857E+03  0.17059995469E+04  0.18544119270E+04  0.10100000352E+00 0. -1.
       -3    1    3    3    0  502 -0.35826818984E+03 -0.63249745857E+03 -0.10750094283E+04  0.12977112206E+04  0.10100000352E+00 0.  1.
</event>
<event>
 5   0  0.1119100E-05  0.3102319E+04  0.7818609E-02  0.8215102E-01
        2   -1    0    0  501    0  0.00000000000E+00  0.00000000000E+00  0.22305356690E+04  0.22305356690E+04  0.25500000920E-02 0.  1.
       -2   -1    0    0    0  501  0.00000000000E+00  0.00000000000E+00 -0.10787074708E+04  0.10787074708E+04  0.25500000920E-02 0. -1.
    10030    2    1    2    0    0  0.00000000000E+00  0.00000000000E+00  0.11518281982E+04  0.33092431398E+04  0.31023188037E+04 0.  0.
        2    1    3    3  502    0 -0.12974097430E+04  0.65232445559E+03  0.11575309360E+04  0.18570614164E+04  0.25500000920E-02 0.  1.
       -2    1    3    3    0  502  0.12974097430E+04 -0.65232445559E+03 -0.57027377357E+01  0.14521817234E+04  0.25500000920E-02 0. -1.
</event>
<event>
 5   0  0.1108153E-05  0.3123791E+04  0.7818609E-02  0.8209239E-01
       -2   -1    0    0    0  501  0.00000000000E+00  0.00000000000E+00  0.12652322749E+04  0.12652322749E+04  0.25500000920E-02 0. -1.
        2   -1    0    0  501    0  0.00000000000E+00  0.00000000000E+00 -0.19281177586E+04  0.19281177586E+04  0.25500000920E-02 0.  1.
    10030    2    1    2    0    0  0.00000000000E+00  0.00000000000E+00 -0.66288548372E+03  0.31933500335E+04  0.31237905295E+04 0.  0.
        4    1    3    3  502    0  0.12412730627E+04 -0.93430083313E+03 -0.49576520764E+03  0.16307855828E+04  0.12699999809E+01 0.  1.
       -4    1    3    3    0  502 -0.12412730627E+04  0.93430083313E+03 -0.16712027608E+03  0.15625644507E+04  0.12699999809E+01 0. -1.
</event>
<event>
 5   0  0.1119100E-05  0.3160669E+04  0.7818609E-02  0.8199282E-01
       -2   -1    0    0    0  501  0.00000000000E+00  0.00000000000E+00  0.10305408255E+04  0.10305408255E+04  0.25500000920E-02 0. -1.
        2   -1    0    0  501    0  0.00000000000E+00  0.00000000000E+00 -0.24234438545E+04  0.24234438545E+04  0.25500000920E-02 0.  1.
    10030    2    1    2    0    0  0.00000000000E+00  0.00000000000E+00 -0.13929030290E+04  0.34539846799E+04  0.31606694419E+04 0.  0.
        2    1    3    3  502    0  0.26897191568E+03 -0.11609567058E+04  0.43779626854E+03  0.12695794331E+04  0.25500000920E-02 0. -1.
       -2    1    3    3    0  502 -0.26897191568E+03  0.11609567058E+04 -0.18306992975E+04  0.21844052468E+04  0.25500000920E-02 0.  1.
</event>
<event>
 5   0  0.3807334E-06  0.2089119E+04  0.7818609E-02  0.8566052E-01
       -1   -1    0    0    0  501  0.00000000000E+00  0.00000000000E+00  0.96658503305E+03  0.96658503306E+03  0.50400001928E-02 0. -1.
        1   -1    0    0  501    0  0.00000000000E+00  0.00000000000E+00 -0.11288240097E+04  0.11288240098E+04  0.50400001928E-02 0.  1.
    10030    2    1    2    0    0  0.00000000000E+00  0.00000000000E+00 -0.16223897670E+03  0.20954090428E+04  0.20891188504E+04 0.  0.
        4    1    3    3  502    0  0.19225251305E+03 -0.99876054063E+03 -0.31978368652E+03  0.10661833170E+04  0.12699999809E+01 0.  1.
       -4    1    3    3    0  502 -0.19225251305E+03  0.99876054063E+03  0.15754470982E+03  0.10292257259E+04  0.12699999809E+01 0. -1.
</event>
<event>
 5   0  0.1001961E-05  0.3044886E+04  0.7818609E-02  0.8231028E-01
       -2   -1    0    0    0  501  0.00000000000E+00  0.00000000000E+00  0.16429622584E+04  0.16429622584E+04  0.25500000920E-02 0. -1.
        2   -1    0    0  501    0  0.00000000000E+00  0.00000000000E+00 -0.14107642483E+04  0.14107642483E+04  0.25500000920E-02 0.  1.
    10030    2    1    2    0    0  0.00000000000E+00  0.00000000000E+00  0.23219801014E+03  0.30537265068E+04  0.30448858209E+04 0.  0.
        5    1    3    3  502    0 -0.95637390628E+03 -0.73567681111E+03  0.10472012404E+04  0.15976620252E+04  0.46999998093E+01 0.  1.
       -5    1    3    3    0  502  0.95637390628E+03  0.73567681111E+03 -0.81500323025E+03  0.14560644815E+04  0.46999998093E+01 0. -1.
</event>
<event>
 5   0  0.3848286E-06  0.3150608E+04  0.7818609E-02  0.8201985E-01
       -1   -1    0    0    0  501  0.00000000000E+00  0.00000000000E+00  0.90730957758E+03  0.90730957759E+03  0.50400001928E-02 0. -1.
        1   -1    0    0  501    0  0.00000000000E+00  0.00000000000E+00 -0.27351003085E+04  0.27351003085E+04  0.50400001928E-02 0.  1.
    10030    2    1    2    0    0  0.00000000000E+00  0.00000000000E+00 -0.18277907309E+04  0.36424098861E+04  0.31506080083E+04 0.  0.
        2    1    3    3  502    0 -0.94272413376E+03 -0.74763919594E+03 -0.20894194065E+04  0.24110924113E+04  0.25500000920E-02 0.  1.
       -2    1    3    3    0  502  0.94272413376E+03  0.74763919594E+03  0.26162867562E+03  0.12313174747E+04  0.25500000920E-02 0. -1.
</event>
<event>
 5   0  0.4250961E-06  0.3081135E+04  0.7818609E-02  0.8220934E-01
       -1   -1    0    0    0  501  0.00000000000E+00  0.00000000000E+00  0.11215362864E+04  0.11215362864E+04  0.50400001928E-02 0. -1.
        1   -1    0    0  501    0  0.00000000000E+00  0.00000000000E+00 -0.21161576338E+04  0.21161576338E+04  0.50400001928E-02 0.  1.
    10030    2    1    2    0    0  0.00000000000E+00  0.00000000000E+00 -0.99462134738E+03  0.32376939202E+04  0.30811345794E+04 0.  0.
        1    1    3    3  502    0 -0.12417374112E+04 -0.80195993955E+03 -0.41330767785E+02  0.14787696830E+04  0.50400001928E-02 0. -1.
       -1    1    3    3    0  502  0.12417374112E+04  0.80195993955E+03 -0.95329057959E+03  0.17589242372E+04  0.50400001928E-02 0.  1.
</event>
<event>
 5   0  0.4139628E-06  0.3198420E+04  0.7818609E-02  0.8189235E-01
       -1   -1    0    0    0  501  0.00000000000E+00  0.00000000000E+00  0.14452681681E+04  0.14452681681E+04  0.50400001928E-02 0. -1.
        1   -1    0    0  501    0  0.00000000000E+00  0.00000000000E+00 -0.17695488845E+04  0.17695488845E+04  0.50400001928E-02 0.  1.
    10030    2    1    2    0    0  0.00000000000E+00  0.00000000000E+00 -0.32428071641E+03  0.32148170526E+04  0.31984200316E+04 0.  0.
        5    1    3    3  502    0 -0.13393296298E+04 -0.34301986167E+03 -0.96999212933E+03  0.16888970673E+04  0.46999998093E+01 0.  1.
       -5    1    3    3    0  502  0.13393296298E+04  0.34301986167E+03  0.64571141291E+03  0.15259199853E+04  0.46999998093E+01 0. -1.
</event>
<event>
 5   0  0.3807334E-06  0.3158714E+04  0.7818609E-02  0.8199807E-01
       -1   -1    0    0    0  501  0.00000000000E+00  0.00000000000E+00  0.15938414141E+04  0.15938414141E+04  0.50400001928E-02 0.  1.
        1   -1    0    0  501    0  0.00000000000E+00  0.00000000000E+00 -0.15650040349E+04  0.15650040349E+04  0.50400001928E-02 0. -1.
    10030    2    1    2    0    0  0.00000000000E+00  0.00000000000E+00  0.28837379145E+02  0.31588454490E+04  0.31587138168E+04 0.  0.
        4    1    3    3  502    0 -0.18843992920E+03 -0.12244944017E+04  0.99398515162E+03  0.15883652733E+04  0.12699999809E+01 0.  1.
       -4    1    3    3    0  502  0.18843992920E+03  0.12244944017E+04 -0.96514777247E+03  0.15704801757E+04  0.12699999809E+01 0. -1.
</event>
<event>
 5   0  0.9797278E-06  0.3056651E+04  0.7818609E-02  0.8227736E-01
       -2   -1    0    0    0  501  0.00000000000E+00  0.00000000000E+00  0.17836642665E+04  0.17836642665E+04  0.25500000920E-02 0. -1.
        2   -1    0    0  501    0  0.00000000000E+00  0.00000000000E+00 -0.13095393251E+04  0.13095393251E+04  0.25500000920E-02 0.  1.
    10030    2    1    2    0    0  0.00000000000E+00  0.00000000000E+00  0.47412494143E+03  0.30932035916E+04  0.30566507813E+04 0.  0.
        1    1    3    3  502    0  0.31781466637E+03  0.10881886202E+04 -0.80019141975E+03  0.13876119571E+04  0.50400001928E-02 0.  1.
       -1    1    3    3    0  502 -0.31781466637E+03 -0.10881886202E+04  0.12743163612E+04  0.17055916345E+04  0.50400001928E-02 0. -1.
</event>
<event>
 5   0  0.4250961E-06  0.1880991E+04  0.7818609E-02  0.8664377E-01
       -1   -1    0    0    0  501  0.00000000000E+00  0.00000000000E+00  0.71029774529E+03  0.71029774531E+03  0.50400001928E-02 0.  1.
        1   -1    0    0  501    0  0.00000000000E+00  0.00000000000E+00 -0.12452968946E+04  0.12452968946E+04  0.50400001928E-02 0. -1.
    10030    2    1    2    0    0  0.00000000000E+00  0.00000000000E+00 -0.53499914927E+03  0.19555946399E+04  0.18809907777E+04 0.  0.
        1    1    3    3  502    0 -0.66275508748E+03 -0.12981602134E+03 -0.94800983732E+03  0.11639669914E+04  0.50400001928E-02 0. -1.
       -1    1    3    3    0  502  0.66275508748E+03  0.12981602134E+03  0.41301068805E+03  0.79162764849E+03  0.50400001928E-02 0.  1.
</event>
<event>
 5   0  0.1007567E-05  0.3141370E+04  0.7818609E-02  0.8204475E-01
        2   -1    0    0  501    0  0.00000000000E+00  0.00000000000E+00  0.17826324863E+04  0.17826324863E+04  0.25500000920E-02 0. -1.
       -2   -1    0    0    0  501  0.00000000000E+00  0.00000000000E+00 -0.13839372031E+04  0.13839372031E+04  0.25500000920E-02 0.  1.
    10030    2    1    2    0    0  0.00000000000E+00  0.00000000000E+00  0.39869528320E+03  0.31665696893E+04  0.31413700305E+04 0.  0.
        3    1    3    3  502    0 -0.66360693751E+03 -0.23168129285E+03  0.16152509902E+04  0.17615578789E+04  0.10100000352E+00 0. -1.
       -3    1    3    3    0  502  0.66360693751E+03  0.23168129285E+03 -0.12165557070E+04  0.14050118104E+04  0.10100000352E+00 0.  1.
</event>
<event>
 5   0  0.9797278E-06  0.3105417E+04  0.7818609E-02  0.8214253E-01
       -2   -1    0    0    0  501  0.00000000000E+00  0.00000000000E+00  0.12392050267E+04  0.12392050267E+04  0.25500000920E-02 0.  1.
        2   -1    0    0  501    0  0.00000000000E+00  0.00000000000E+00 -0.19455244914E+04  0.19455244914E+04  0.25500000920E-02 0. -1.
    10030    2    1    2    0    0  0.00000000000E+00  0.00000000000E+00 -0.70631946475E+03  0.31847295181E+04  0.31054170279E+04 0.  0.
        1    1    3    3  502    0 -0.15433344618E+04  0.51879709300E+02 -0.51957225511E+03  0.16292722588E+04  0.50400001928E-02 0.  1.
       -1    1    3    3    0  502  0.15433344618E+04 -0.51879709300E+02 -0.18674720964E+03  0.15554572593E+04  0.50400001928E-02 0. -1.
</event>
<event>
 5   0  0.9797278E-06  0.3066152E+04  0.7818609E-02  0.8225089E-01
       -2   -1    0    0    0  501  0.00000000000E+00  0.00000000000E+00  0.13034119138E+04  0.13034119138E+04  0.25500000920E-02 0. -1.
        2   -1    0    0  501    0  0.00000000000E+00  0.00000000000E+00 -0.18032076677E+04  0.18032076677E+04  0.25500000920E-02 0.  1.
    10030    2    1    2    0    0  0.00000000000E+00  0.00000000000E+00 -0.49979575391E+03  0.31066195815E+04  0.30661522188E+04 0.  0.
        1    1    3    3  502    0  0.28707100639E+03  0.11940768827E+04  0.67986968553E+03  0.14037279486E+04  0.50400001928E-02 0. -1.
       -1    1    3    3    0  502 -0.28707100639E+03 -0.11940768827E+04 -0.11796654394E+04  0.17028916329E+04  0.50400001928E-02 0.  1.
</event>
<event>
 5   0  0.1001961E-05  0.3004821E+04  0.7818609E-02  0.8242356E-01
        2   -1    0    0  501    0  0.00000000000E+00  0.00000000000E+00  0.21215439734E+04  0.21215439734E+04  0.25500000920E-02 0. -1.
       -2   -1    0    0    0  501  0.00000000000E+00  0.00000000000E+00 -0.10639597104E+04  0.10639597104E+04  0.25500000920E-02 0.  1.
    10030    2    1    2    0    0  0.00000000000E+00  0.00000000000E+00  0.10575842630E+04  0.31855036838E+04  0.30048210007E+04 0.  0.
        5    1    3    3  502    0  0.78694583610E+03 -0.12103219922E+04  0.87782572706E+02  0.14463370782E+04  0.46999998093E+01 0.  1.
       -5    1    3    3    0  502 -0.78694583610E+03  0.12103219922E+04  0.96980169030E+03  0.17391666056E+04  0.46999998093E+01 0. -1.
</event>
<event>
 5   0  0.4139628E-06  0.2943202E+04  0.7818609E-02  0.8260138E-01
       -1   -1    0    0    0  501  0.00000000000E+00  0.00000000000E+00  0.13850170886E+04  0.13850170886E+04  0.50400001928E-02 0.  1.
        1   -1    0    0  501    0  0.00000000000E+00  0.00000000000E+00 -0.15635975371E+04  0.15635975371E+04  0.50400001928E-02 0. -1.
    10030    2    1    2    0    0  0.00000000000E+00  0.00000000000E+00 -0.17858044851E+03  0.29486146257E+04  0.29432018677E+04 0.  0.
        5    1    3    3  502    0 -0.11595730312E+04  0.17390213558E+03  0.80157832047E+03  0.14203525834E+04  0.46999998093E+01 0.  1.
       -5    1    3    3    0  502  0.11595730312E+04 -0.17390213558E+03 -0.98015876897E+03  0.15282620423E+04  0.46999998093E+01 0. -1.
</event>
<event>
 5   0  0.1007567E-05  0.3103798E+04  0.7818609E-02  0.8214696E-01
        2   -1    0    0  501    0  0.00000000000E+00  0.00000000000E+00  0.20568758752E+04  0.20568758752E+04  0.25500000920E-02 0. -1.
       -2   -1    0    0    0  501  0.00000000000E+00  0.00000000000E+00 -0.11708974098E+04  0.11708974098E+04  0.25500000920E-02 0.  1.
    10030    2    1    2    0    0  0.00000000000E+00  0.00000000000E+00  0.88597846547E+03  0.32277732850E+04  0.31037980827E+04 0.  0.
        3    1    3    3  502    0  0.11673931456E+04  0.64814242874E+03 -0.37948362303E+03  0.13881293869E+04  0.10100000352E+00 0.  1.
       -3    1    3    3    0  502 -0.11673931456E+04 -0.64814242874E+03  0.12654620885E+04  0.18396438981E+04  0.10100000352E+00 0. -1.
</event>
<event>
 5   0  0.3848286E-06  0.3044329E+04  0.7818609E-02  0.8231185E-01
        1   -1    0    0  501    0  0.00000000000E+00  0.00000000000E+00  0.19629686002E+04  0.19629686002E+04  0.50400001928E-02 0.  1.
       -1   -1    0    0    0  501  0.00000000000E+00  0.00000000000E+00 -0.11803474896E+04  0.11803474896E+04  0.50400001928E-02 0. -1.
    10030    2    1    2    0    0  0.00000000000E+00  0.00000000000E+00  0.78262111062E+03  0.31433160898E+04  0.30443291934E+04 0.  0.
        2    1    3    3  502    0 -0.70001038173E+03 -0.11448146837E+04 -0.35064328621E+03  0.13869267856E+04  0.25500000920E-02 0. -1.
       -2    1    3    3    0  502  0.70001038173E+03  0.11448146837E+04  0.11332643968E+04  0.17563893041E+04  0.25500000920E-02 0.  1.
</event>
<event>
 5   0  0.4250961E-06  0.3218162E+04  0.7818609E-02  0.8184037E-01
        1   -1    0    0  501    0  0.00000000000E+00  0.00000000000E+00  0.16153826856E+04  0.16153826856E+04  0.50400001928E-02 0. -1.
       -1   -1    0    0    0  501  0.00000000000E+00  0.00000000000E+00 -0.16028038433E+04  0.16028038433E+04  0.50400001928E-02 0.  1.
    10030    2    1    2    0    0  0.00000000000E+00  0.00000000000E+00  0.12578842314E+02  0.32181865289E+04  0.32181619455E+04 0.  0.
        1    1    3    3  502    0  0.10414685290E+04  0.87916333136E+03 -0.84902800143E+03  0.16057501074E+04  0.50400001928E-02 0.  1.
       -1    1    3    3    0  502 -0.10414685290E+04 -0.87916333136E+03  0.86160684374E+03  0.16124364215E+04  0.50400001928E-02 0. -1.
</event>
<event>
 5   0  0.3838525E-06  0.3103441E+04  0.7818609E-02  0.8214794E-01
       -1   -1    0    0    0  501  0.00000000000E+00  0.00000000000E+00  0.12568206047E+04  0.12568206047E+04  0.50400001928E-02 0.  1.
        1   -1    0    0  501    0  0.00000000000E+00  0.00000000000E+00 -0.19158160338E+04  0.19158160338E+04  0.50400001928E-02 0. -1.
    10030    2    1    2    0    0  0.00000000000E+00  0.00000000000E+00 -0.65899542914E+03  0.31726366385E+04  0.31034413583E+04 0.  0.
        3    1    3    3  502    0  0.14566942378E+03 -0.14656851589E+04 -0.82863014613E+03  0.16899942293E+04  0.10100000352E+00 0. -1.
       -3    1    3    3    0  502 -0.14566942378E+03  0.14656851589E+04  0.16963471698E+03  0.14826424091E+04  0.10100000352E+00 0.  1.
</event>
<event>
 5   0  0.3838525E-06  0.2990535E+04  0.7818609E-02  0.8246439E-01
       -1   -1    0    0    0  501  0.00000000000E+00  0.00000000000E+00  0.14917116795E+04  0.14917116795E+04  0.50400001928E-02 0.  1.
        1   -1    0    0  501    0  0.00000000000E+00  0.00000000000E+00 -0.14988319411E+04  0.14988319411E+04  0.50400001928E-02 0. -1.
    10030    2    1    2    0    0  0.00000000000E+00  0.00000000000E+00 -0.71202615900E+01  0.29905436207E+04  0.29905351443E+04 0.  0.
        3    1    3    3  502    0 -0.11900077422E+04 -0.11651872609E+03  0.89428987445E+03  0.14931340964E+04  0.10100000352E+00 0.  1.
       -3    1    3    3    0  502  0.11900077422E+04  0.11651872609E+03 -0.90141013604E+03  0.14974095243E+04  0.10100000352E+00 0. -1.
</event>
<event>
 5   0  0.1119100E-05  0.3058970E+04  0.7818609E-02  0.8227089E-01
        2   -1    0    0  501    0  0.00000000000E+00  0.00000000000E+00  0.16673098101E+04  0.16673098101E+04  0.25500000920E-02 0.  1.
       -2   -1    0    0    0  501  0.00000000000E+00  0.00000000000E+00 -0.14030531987E+04  0.14030531987E+04  0.25500000920E-02 0. -1.
    10030    2    1    2    0    0  0.00000000000E+00  0.00000000000E+00  0.26425661139E+03  0.30703630088E+04  0.30589699981E+04 0.  0.
        2    1    3    3  502    0 -0.23598054565E+03 -0.48411043735E+03 -0.13047321390E+04  0.14115153871E+04  0.25500000920E-02 0. -1.
       -2    1    3    3    0  502  0.23598054565E+03  0.48411043735E+03  0.15689887503E+04  0.16588476218E+04  0.25500000920E-02 0.  1.
</event>
<event>
 5   0  0.4139628E-06  0.3160932E+04  0.7818609E-02  0.8199212E-01
        1   -1    0    0  501    0  0.00000000000E+00  0.00000000000E+00  0.26503247794E+04  0.26503247794E+04  0.50400001928E-02 0.  1.
       -1   -1    0    0    0  501  0.00000000000E+00  0.00000000000E+00 -0.94247822557E+03  0.94247822559E+03  0.50400001928E-02 0. -1.
    10030    2    1    2    0    0  0.00000000000E+00  0.00000000000E+00  0.17078465538E+04  0.35928030050E+04  0.31609323911E+04 0.  0.
        5    1    3    3  502    0 -0.10771429740E+04  0.63382410727E+02  0.21665175394E+04  0.24203459783E+04  0.46999998093E+01 0.  1.
       -5    1    3    3    0  502  0.10771429740E+04 -0.63382410727E+02 -0.45867098555E+03  0.11724570267E+04  0.46999998093E+01 0. -1.
</event>
<event>
 5   0  0.1001961E-05  0.3079807E+04  0.7818609E-02  0.8221302E-01
        2   -1    0    0  501    0  0.00000000000E+00  0.00000000000E+00  0.15157264127E+04  0.15157264127E+04  0.25500000920E-02 0. -1.
       -2   -1    0    0    0  501  0.00000000000E+00  0.00000000000E+00 -0.15644666961E+04  0.15644666961E+04  0.25500000920E-02 0.  1.
    10030    2    1    2    0    0  0.00000000000E+00  0.00000000000E+00 -0.48740283453E+02  0.30801931088E+04  0.30798074570E+04 0.  0.
        5    1    3    3  502    0  0.10570990609E+04  0.83425375005E+03  0.72261270520E+03  0.15282764657E+04  0.46999998093E+01 0. -1.
       -5    1    3    3    0  502 -0.10570990609E+04 -0.83425375005E+03 -0.77135298865E+03  0.15519166431E+04  0.46999998093E+01 0.  1.
</event>
<event>
 5   0  0.3848286E-06  0.3087857E+04  0.7818609E-02  0.8219078E-01
        1   -1    0    0  501    0  0.00000000000E+00  0.00000000000E+00  0.14282503664E+04  0.14282503664E+04  0.50400001928E-02 0. -1.
       -1   -1    0    0    0  501  0.00000000000E+00  0.00000000000E+00 -0.16689753344E+04  0.16689753344E+04  0.50400001928E-02 0.  1.
    10030    2    1    2    0    0  0.00000000000E+00  0.00000000000E+00 -0.24072496802E+03  0.30972257008E+04  0.30878566242E+04 0.  0.
        2    1    3    3  502    0 -0.63382759348E+03  0.31807930819E+03 -0.14959472424E+04  0.16555271114E+04  0.25500000920E-02 0.  1.
       -2    1    3    3    0  502  0.63382759348E+03 -0.31807930819E+03  0.12552222744E+04  0.14416985894E+04  0.25500000920E-02 0. -1.
</event>
<event>
 5   0  0.3493125E-06  0.3063469E+04  0.7818609E-02  0.8225836E-01
       -4   -1    0    0    0  501  0.00000000000E+00  0.00000000000E+00  0.14460699140E+04  0.14460704717E+04  0.12699999809E+01 0.  1.
        4   -1    0    0  501    0  0.00000000000E+00  0.00000000000E+00 -0.16224723567E+04  0.16224728537E+04  0.12699999809E+01 0. -1.
    10030    2    1    2    0    0  0.00000000000E+00  0.00000000000E+00 -0.17640244269E+03  0.30685433254E+04  0.30634686742E+04 0.  0.
        4    1    3    3  502    0  0.14575739598E+04  0.46864978151E+03 -0.13359738038E+03  0.15368813678E+04  0.12699999809E+01 0.  1.
       -4    1    3    3    0  502 -0.14575739598E+04 -0.46864978151E+03 -0.42805062312E+02  0.15316619575E+04  0.12699999809E+01 0. -1.
</event>
<event>
 5   0  0.4250961E-06  0.3065208E+04  0.7818609E-02  0.8225352E-01
       -1   -1    0    0    0  501  0.00000000000E+00  0.00000000000E+00  0.17015596444E+04  0.17015596444E+04  0.50400001928E-02 0. -1.
        1   -1    0    0  501    0  0.00000000000E+00  0.00000000000E+00 -0.13804248555E+04  0.13804248555E+04  0.50400001928E-02 0.  1.
    10030    2    1    2    0    0  0.00000000000E+00  0.00000000000E+00  0.32113478890E+03  0.30819844998E+04  0.30652081340E+04 0.  0.
        1    1    3    3  502    0  0.56601415088E+03 -0.11649193147E+04 -0.66334788723E+03  0.14551424151E+04  0.50400001928E-02 0.  1.
       -1    1    3    3    0  502 -0.56601415088E+03  0.11649193147E+04  0.98448267613E+03  0.16268420847E+04  0.50400001928E-02 0. -1.
</event>
<event>
 5   0  0.3848286E-06  0.3186077E+04  0.7818609E-02  0.8192504E-01
        1   -1    0    0  501    0  0.00000000000E+00  0.00000000000E+00  0.20253990928E+04  0.20253990928E+04  0.50400001928E-02 0.  1.
       -1   -1    0    0    0  501  0.00000000000E+00  0.00000000000E+00 -0.12529737568E+04  0.12529737568E+04  0.50400001928E-02 0. -1.
    10030    2    1    2    0    0  0.00000000000E+00  0.00000000000E+00  0.77242533597E+03  0.32783728497E+04  0.31860771556E+04 0.  0.
        2    1    3    3  502    0  0.54542583224E+03  0.74135889566E+03  0.17241366005E+04  0.19544179102E+04  0.25500000920E-02 0.  1.
       -2    1    3    3    0  502 -0.54542583224E+03 -0.74135889566E+03 -0.95171126452E+03  0.13239549394E+04  0.25500000920E-02 0. -1.
</event>
<event>
 5   0  0.9797278E-06  0.2451603E+04  0.7818609E-02  0.8420433E-01
        2   -1    0    0  501    0  0.00000000000E+00  0.00000000000E+00  0.13033295476E+04  0.13033295476E+04  0.25500000920E-02 0. -1.
       -2   -1    0    0    0  501  0.00000000000E+00  0.00000000000E+00 -0.11528851998E+04  0.11528851998E+04  0.25500000920E-02 0.  1.
    10030    2    1    2    0    0  0.00000000000E+00  0.00000000000E+00  0.15044434783E+03  0.24562147474E+04  0.24516030232E+04 0.  0.
        1    1    3    3  502    0 -0.63587053649E+03  0.10360937642E+04 -0.82451499761E+02  0.12184497845E+04  0.50400001928E-02 0.  1.
       -1    1    3    3    0  502  0.63587053649E+03 -0.10360937642E+04  0.23289584759E+03  0.12377649629E+04  0.50400001928E-02 0. -1.
</event>
<event>
 5   0  0.9797278E-06  0.3108543E+04  0.7818609E-02  0.8213397E-01
       -2   -1    0    0    0  501  0.00000000000E+00  0.00000000000E+00  0.10879186035E+04  0.10879186035E+04  0.25500000920E-02 0.  1.
        2   -1    0    0  501    0  0.00000000000E+00  0.00000000000E+00 -0.22205343667E+04  0.22205343667E+04  0.25500000920E-02 0. -1.
    10030    2    1    2    0    0  0.00000000000E+00  0.00000000000E+00 -0.11326157631E+04  0.33084529702E+04  0.31085434835E+04 0.  0.
        1    1    3    3  502    0  0.36101689398E+02 -0.11813965222E+04 -0.16405541901E+04  0.20219839577E+04  0.50400001928E-02 0. -1.
       -1    1    3    3    0  502 -0.36101689398E+02  0.11813965222E+04  0.50793842692E+03  0.12864690125E+04  0.50400001928E-02 0.  1.
</event>
<event>
 5   0  0.3493125E-06  0.3105829E+04  0.7818609E-02  0.8214140E-01
        3   -1    0    0  501    0  0.00000000000E+00  0.00000000000E+00  0.15037600339E+04  0.15037600373E+04  0.10100000352E+00 0. -1.
       -3   -1    0    0    0  501  0.00000000000E+00  0.00000000000E+00 -0.16036756865E+04  0.16036756897E+04  0.10100000352E+00 0.  1.
    10030    2    1    2    0    0  0.00000000000E+00  0.00000000000E+00 -0.99915652606E+02  0.31074357270E+04  0.31058289811E+04 0.  0.
        1    1    3    3  502    0  0.68656219947E+02 -0.13449928729E+03  0.14963965523E+04  0.15039968007E+04  0.50400001928E-02 0. -1.
       -1    1    3    3    0  502 -0.68656219947E+02  0.13449928729E+03 -0.15963122049E+04  0.16034389263E+04  0.50400001928E-02 0.  1.
</event>
<event>
 5   0  0.3807334E-06  0.3084862E+04  0.7818609E-02  0.8219905E-01
       -1   -1    0    0    0  501  0.00000000000E+00  0.00000000000E+00  0.15424107172E+04  0.15424107172E+04  0.50400001928E-02 0.  1.
        1   -1    0    0  501    0  0.00000000000E+00  0.00000000000E+00 -0.15424508406E+04  0.15424508406E+04  0.50400001928E-02 0. -1.
    10030    2    1    2    0    0  0.00000000000E+00  0.00000000000E+00 -0.40123325074E-01  0.30848615578E+04  0.30848615576E+04 0.  0.
        4    1    3    3  502    0  0.51238307920E+03 -0.11175759779E+04  0.93141893705E+03  0.15424186641E+04  0.12699999809E+01 0.  1.
       -4    1    3    3    0  502 -0.51238307920E+03  0.11175759779E+04 -0.93145906038E+03  0.15424428937E+04  0.12699999809E+01 0. -1.
</event>
<event>
 5   0  0.1001961E-05  0.1928085E+04  0.7818609E-02  0.8641001E-01
        2   -1    0    0  501    0  0.00000000000E+00  0.00000000000E+00  0.81213262840E+03  0.81213262840E+03  0.25500000920E-02 0. -1.
       -2   -1    0    0    0  501  0.00000000000E+00  0.00000000000E+00 -0.11443677641E+04  0.11443677641E+04  0.25500000920E-02 0.  1.
    10030    2    1    2    0    0  0.00000000000E+00  0.00000000000E+00 -0.33223513569E+03  0.19565003925E+04  0.19280854754E+04 0.  0.
        5    1    3    3  502    0 -0.54211625232E+03 -0.78154107981E+03 -0.32546629710E+03  0.10053093509E+04  0.46999998093E+01 0. -1.
       -5    1    3    3    0  502  0.54211625232E+03  0.78154107981E+03 -0.67688385912E+01  0.95119104160E+03  0.46999998093E+01 0.  1.
</event>
<event>
 5   0  0.4139628E-06  0.2902479E+04  0.7818609E-02  0.8272140E-01
        1   -1    0    0  501    0  0.00000000000E+00  0.00000000000E+00  0.17286080323E+04  0.17286080323E+04  0.50400001928E-02 0.  1.
       -1   -1    0    0    0  501  0.00000000000E+00  0.00000000000E+00 -0.12183766602E+04  0.12183766603E+04  0.50400001928E-02 0. -1.
    10030    2    1    2    0    0  0.00000000000E+00  0.00000000000E+00  0.51023137204E+03  0.29469846925E+04  0.29024787209E+04 0.  0.
        5    1    3    3  502    0  0.10209038830E+04  0.10226354956E+04  0.39150905233E+03  0.14971070514E+04  0.46999998093E+01 0.  1.
       -5    1    3    3    0  502 -0.10209038830E+04 -0.10226354956E+04  0.11872231971E+03  0.14498776412E+04  0.46999998093E+01 0. -1.
</event>
<event>
 5   0  0.3848286E-06  0.1642623E+04  0.7818609E-02  0.8794782E-01
       -1   -1    0    0    0  501  0.00000000000E+00  0.00000000000E+00  0.66302483756E+03  0.66302483758E+03  0.50400001928E-02 0.  1.
        1   -1    0    0  501    0  0.00000000000E+00  0.00000000000E+00 -0.10173869581E+04  0.10173869581E+04  0.50400001928E-02 0. -1.
    10030    2    1    2    0    0  0.00000000000E+00  0.00000000000E+00 -0.35436212056E+03  0.16804117957E+04  0.16426232954E+04 0.  0.
        2    1    3    3  502    0  0.61049309957E+03  0.29720569547E+03  0.29553112012E+03  0.74052123063E+03  0.25500000920E-02 0.  1.
       -2    1    3    3    0  502 -0.61049309957E+03 -0.29720569547E+03 -0.64989324069E+03  0.93989056509E+03  0.25500000920E-02 0. -1.
</event>
<event>
 5   0  0.1001961E-05  0.2868556E+04  0.7818609E-02  0.8282295E-01
       -2   -1    0    0    0  501  0.00000000000E+00  0.00000000000E+00  0.22516558617E+04  0.22516558617E+04  0.25500000920E-02 0.  1.
        2   -1    0    0  501    0  0.00000000000E+00  0.00000000000E+00 -0.91361810149E+03  0.91361810149E+03  0.25500000920E-02 0. -1.
    10030    2    1    2    0    0  0.00000000000E+00  0.00000000000E+00  0.13380377602E+04  0.31652739632E+04  0.28685561201E+04 0.  0.
        5    1    3    3  502    0  0.72651295383E+03 -0.10189775130E+04  0.14422095173E+04  0.19094833401E+04  0.46999998093E+01 0.  1.
       -5    1    3    3    0  502 -0.72651295383E+03  0.10189775130E+04 -0.10417175711E+03  0.12557906231E+04  0.46999998093E+01 0. -1.
</event>
<event>
 5   0  0.9797278E-06  0.2565624E+04  0.7818609E-02  0.8379973E-01
        2   -1    0    0  501    0  0.00000000000E+00  0.00000000000E+00  0.25153968657E+04  0.25153968657E+04  0.25500000920E-02 0. -1.
       -2   -1    0    0    0  501  0.00000000000E+00  0.00000000000E+00 -0.65421343629E+03  0.65421343630E+03  0.25500000920E-02 0.  1.
    10030    2    1    2    0    0  0.00000000000E+00  0.00000000000E+00  0.18611834294E+04  0.31696103020E+04  0.25656238439E+04 0.  0.
        1    1    3    3  502    0 -0.11437545235E+03  0.60652023828E+03  0.23199025233E+04  0.24006033119E+04  0.50400001928E-02 0. -1.
       -1    1    3    3    0  502  0.11437545235E+03 -0.60652023828E+03 -0.45871909395E+03  0.76900699003E+03  0.50400001928E-02 0.  1.
</event>
<event>
 5   0  0.3848286E-06  0.3137321E+04  0.7818609E-02  0.8205570E-01
       -1   -1    0    0    0  501  0.00000000000E+00  0.00000000000E+00  0.10681795953E+04  0.10681795954E+04  0.50400001928E-02 0. -1.
        1   -1    0    0  501    0  0.00000000000E+00  0.00000000000E+00 -0.23036341878E+04  0.23036341879E+04  0.50400001928E-02 0.  1.
    10030    2    1    2    0    0  0.00000000000E+00  0.00000000000E+00 -0.12354545925E+04  0.33718137832E+04  0.31373205349E+04 0.  0.
        2    1    3    3  502    0 -0.14940286522E+04  0.31278272050E+03 -0.22912122728E+03  0.15435190898E+04  0.25500000920E-02 0. -1.
       -2    1    3    3    0  502  0.14940286522E+04 -0.31278272050E+03 -0.10063333652E+04  0.18282946934E+04  0.25500000920E-02 0.  1.
</event>
<event>
 5   0  0.4139628E-06  0.2541363E+04  0.7818609E-02  0.8388396E-01
       -1   -1    0    0    0  501  0.00000000000E+00  0.00000000000E+00  0.12243143202E+04  0.12243143202E+04  0.50400001928E-02 0. -1.
        1   -1    0    0  501    0  0.00000000000E+00  0.00000000000E+00 -0.13188047597E+04  0.13188047597E+04  0.50400001928E-02 0.  1.
    10030    2    1    2    0    0  0.00000000000E+00  0.00000000000E+00 -0.94490439481E+02  0.25431190798E+04  0.25413630616E+04 0.  0.
        5    1    3    3  502    0  0.19035188793E+03 -0.38840143852E+03  0.11483690101E+04  0.12271360936E+04  0.46999998093E+01 0. -1.
       -5    1    3    3    0  502 -0.19035188793E+03  0.38840143852E+03 -0.12428594496E+04  0.13159829863E+04  0.46999998093E+01 0.  1.
</event>
<event>
 5   0  0.3838525E-06  0.1527225E+04  0.7818609E-02  0.8866548E-01
       -1   -1    0    0    0  501  0.00000000000E+00  0.00000000000E+00  0.77288880856E+03  0.77288880858E+03  0.50400001928E-02 0.  1.
        1   -1    0    0  501    0  0.00000000000E+00  0.00000000000E+00 -0.75444734339E+03  0.75444734341E+03  0.50400001928E-02 0. -1.
    10030    2    1    2    0    0  0.00000000000E+00  0.00000000000E+00  0.18441465168E+02  0.15273361520E+04  0.15272248143E+04 0.  0.
        3    1    3    3  502    0  0.31861412126E+03 -0.23157409951E+03  0.66345675819E+03  0.77156749673E+03  0.10100000352E+00 0.  1.
       -3    1    3    3    0  502 -0.31861412126E+03  0.23157409951E+03 -0.64501529302E+03  0.75576865525E+03  0.10100000352E+00 0. -1.
</event>
<event>
 5   0  0.3838525E-06  0.3046164E+04  0.7818609E-02  0.8230670E-01
        1   -1    0    0  501    0  0.00000000000E+00  0.00000000000E+00  0.15580951299E+04  0.15580951299E+04  0.50400001928E-02 0. -1.
       -1   -1    0    0    0  501  0.00000000000E+00  0.00000000000E+00 -0.14888557987E+04  0.14888557987E+04  0.50400001928E-02 0.  1.
    10030    2    1    2    0    0  0.00000000000E+00  0.00000000000E+00  0.69239331204E+02  0.30469509287E+04  0.30461641251E+04 0.  0.
        3    1    3    3  502    0  0.93849180478E+03 -0.10390050304E+04  0.63434157208E+03  0.15371036273E+04  0.10100000352E+00 0. -1.
       -3    1    3    3    0  502 -0.93849180478E+03  0.10390050304E+04 -0.56510224087E+03  0.15098473014E+04  0.10100000352E+00 0.  1.
</event>
<event>
 5   0  0.4139628E-06  0.3012701E+04  0.7818609E-02  0.8240113E-01
       -1   -1    0    0    0  501  0.00000000000E+00  0.00000000000E+00  0.11457845324E+04  0.11457845325E+04  0.50400001928E-02 0. -1.
        1   -1    0    0  501    0  0.00000000000E+00  0.00000000000E+00 -0.19803829917E+04  0.19803829917E+04  0.50400001928E-02 0.  1.
    10030    2    1    2    0    0  0.00000000000E+00  0.00000000000E+00 -0.83459845921E+03  0.31261675241E+04  0.30127012465E+04 0.  0.
        5    1    3    3  502    0 -0.88463406427E+03 -0.11954228114E+04 -0.66602890023E+03  0.16294875610E+04  0.46999998093E+01 0.  1.
       -5    1    3    3    0  502  0.88463406427E+03  0.11954228114E+04 -0.16856955898E+03  0.14966799631E+04  0.46999998093E+01 0. -1.
</event>
<event>
 5   0  0.3807334E-06  0.3131610E+04  0.7818609E-02  0.8207116E-01
       -1   -1    0    0    0  501  0.00000000000E+00  0.00000000000E+00  0.94691065329E+03  0.94691065331E+03  0.50400001928E-02 0.  1.
        1   -1    0    0  501    0  0.00000000000E+00  0.00000000000E+00 -0.25892045384E+04  0.25892045384E+04  0.50400001928E-02 0. -1.
    10030    2    1    2    0    0  0.00000000000E+00  0.00000000000E+00 -0.16422938851E+04  0.35361151917E+04  0.31316100402E+04 0.  0.
        4    1    3    3  502    0 -0.70891677040E+03  0.10251987395E+04 -0.18912676172E+04  0.22650585545E+04  0.12699999809E+01 0. -1.
       -4    1    3    3    0  502  0.70891677040E+03 -0.10251987395E+04  0.24897373202E+03  0.12710566372E+04  0.12699999809E+01 0.  1.
</event>
<event>
 5   0  0.4139628E-06  0.2261947E+04  0.7818609E-02  0.8493078E-01
        1   -1    0    0  501    0  0.00000000000E+00  0.00000000000E+00  0.10292769150E+04  0.10292769150E+04  0.50400001928E-02 0. -1.
       -1   -1    0    0    0  501  0.00000000000E+00  0.00000000000E+00 -0.12427182195E+04  0.12427182195E+04  0.50400001928E-02 0.  1.
    10030    2    1    2    0    0  0.00000000000E+00  0.00000000000E+00 -0.21344130458E+03  0.22719951345E+04  0.22619471039E+04 0.  0.
        5    1    3    3  502    0  0.10105873096E+03  0.60472719965E+03 -0.10612955296E+04  0.12256745670E+04  0.46999998093E+01 0.  1.
       -5    1    3    3    0  502 -0.10105873096E+03 -0.60472719965E+03  0.84785422501E+03  0.10463205675E+04  0.46999998093E+01 0. -1.
</event>
<event>
 5   0  0.1108153E-05  0.2547545E+04  0.7818609E-02  0.8386240E-01
       -2   -1    0    0    0  501  0.00000000000E+00  0.00000000000E+00  0.87382849805E+03  0.87382849805E+03  0.25500000920E-02 0. -1.
        2   -1    0    0  501    0  0.00000000000E+00  0.00000000000E+00 -0.18567676183E+04  0.18567676183E+04  0.25500000920E-02 0.  1.
    10030    2    1    2    0    0  0.00000000000E+00  0.00000000000E+00 -0.98293912021E+03  0.27305961163E+04  0.25475450607E+04 0.  0.
        4    1    3    3  502    0  0.55785091177E+03 -0.44701873625E+03 -0.16214859710E+04  0.17720727291E+04  0.12699999809E+01 0.  1.
       -4    1    3    3    0  502 -0.55785091177E+03  0.44701873625E+03  0.63854685074E+03  0.95852338721E+03  0.12699999809E+01 0. -1.
</event>
<event>
 5   0  0.3838525E-06  0.3001334E+04  0.7818609E-02  0.8243350E-01
        1   -1    0    0  501    0  0.00000000000E+00  0.00000000000E+00  0.27405508392E+04  0.27405508392E+04  0.50400001928E-02 0. -1.
       -1   -1    0    0    0  501  0.00000000000E+00  0.00000000000E+00 -0.82173324221E+03  0.82173324223E+03  0.50400001928E-02 0.  1.
    10030    2    1    2    0    0  0.00000000000E+00  0.00000000000E+00  0.19188175970E+04  0.35622840814E+04  0.30013341877E+04 0.  0.
        3    1    3    3  502    0 -0.95729197802E+03 -0.95584335644E+03  0.17303982361E+04  0.21964340461E+04  0.10100000352E+00 0. -1.
       -3    1    3    3    0  502  0.95729197802E+03  0.95584335644E+03  0.18841936089E+03  0.13658500353E+04  0.10100000352E+00 0.  1.
</event>
<event>
 5   0  0.1007567E-05  0.3121449E+04  0.7818609E-02  0.8209876E-01
       -2   -1    0    0    0  501  0.00000000000E+00  0.00000000000E+00  0.14342640304E+04  0.14342640304E+04  0.25500000920E-02 0. -1.
        2   -1    0    0  501    0  0.00000000000E+00  0.00000000000E+00 -0.16983356059E+04  0.16983356059E+04  0.25500000920E-02 0.  1.
    10030    2    1    2    0    0  0.00000000000E+00  0.00000000000E+00 -0.26407157549E+03  0.31325996363E+04  0.31214494525E+04 0.  0.
        3    1    3    3  502    0  0.41566209224E+03  0.14305569009E+04 -0.59909445528E+03  0.16056718837E+04  0.10100000352E+00 0.  1.
       -3    1    3    3    0  502 -0.41566209224E+03 -0.14305569009E+04  0.33502287979E+03  0.15269277526E+04  0.10100000352E+00 0. -1.
</event>
<event>
 5   0  0.1007567E-05  0.3085765E+04  0.7818609E-02  0.8219655E-01
        2   -1    0    0  501    0  0.00000000000E+00  0.00000000000E+00  0.30593428945E+04  0.30593428945E+04  0.25500000920E-02 0. -1.
       -2   -1    0    0    0  501  0.00000000000E+00  0.00000000000E+00 -0.77810388025E+03  0.77810388026E+03  0.25500000920E-02 0.  1.
    10030    2    1    2    0    0  0.00000000000E+00  0.00000000000E+00  0.22812390142E+04  0.38374467747E+04  0.30857651092E+04 0.  0.
        3    1    3    3  502    0 -0.14780456086E+04 -0.11561141151E+03  0.16718867202E+04  0.22345447041E+04  0.10100000352E+00 0. -1.
       -3    1    3    3    0  502  0.14780456086E+04  0.11561141151E+03  0.60935229403E+03  0.16029020706E+04  0.10100000352E+00 0.  1.
</event>
<event>
 5   0  0.3493125E-06  0.1699407E+04  0.7818609E-02  0.8761703E-01
        4   -1    0    0  501    0  0.00000000000E+00  0.00000000000E+00  0.91510438641E+03  0.91510526768E+03  0.12699999809E+01 0. -1.
       -4   -1    0    0    0  501  0.00000000000E+00  0.00000000000E+00 -0.78897499361E+03  0.78897601576E+03  0.12699999809E+01 0.  1.
    10030    2    1    2    0    0  0.00000000000E+00  0.00000000000E+00  0.12612939280E+03  0.17040812834E+04  0.16994070721E+04 0.  0.
        1    1    3    3  502    0  0.74411893589E+02  0.31633682891E+03  0.85032920002E+03  0.91031086320E+03  0.50400001928E-02 0. -1.
       -1    1    3    3    0  502 -0.74411893589E+02 -0.31633682891E+03 -0.72419980722E+03  0.79377042023E+03  0.50400001928E-02 0.  1.
</event>
<event>
 5   0  0.1001961E-05  0.3163335E+04  0.7818609E-02  0.8198568E-01
        2   -1    0    0  501    0  0.00000000000E+00  0.00000000000E+00  0.22503729004E+04  0.22503729004E+04  0.25500000920E-02 0.  1.
       -2   -1    0    0    0  501  0.00000000000E+00  0.00000000000E+00 -0.11116699200E+04  0.11116699200E+04  0.25500000920E-02 0. -1.
    10030    2    1    2    0    0  0.00000000000E+00  0.00000000000E+00  0.11387029803E+04  0.33620428204E+04  0.31633348620E+04 0.  0.
        5    1    3    3  502    0  0.12385840117E+04 -0.98336421942E+03  0.59437240492E+03  0.16894958383E+04  0.46999998093E+01 0.  1.
       -5    1    3    3    0  502 -0.12385840117E+04  0.98336421942E+03  0.54433057542E+03  0.16725469821E+04  0.46999998093E+01 0. -1.
</event>
<event>
 5   0  0.4139628E-06  0.3053413E+04  0.7818609E-02  0.8228641E-01
        1   -1    0    0  501    0  0.00000000000E+00  0.00000000000E+00  0.22886921570E+04  0.22886921570E+04  0.50400001928E-02 0. -1.
       -1   -1    0    0    0  501  0.00000000000E+00  0.00000000000E+00 -0.10184124978E+04  0.10184124978E+04  0.50400001928E-02 0.  1.
    10030    2    1    2    0    0  0.00000000000E+00  0.00000000000E+00  0.12702796592E+04  0.33071046548E+04  0.30534129732E+04 0.  0.
        5    1    3    3  502    0  0.54415720496E+03  0.26697318186E+02  0.21798139975E+04  0.22468713724E+04  0.46999998093E+01 0. -1.
       -5    1    3    3    0  502 -0.54415720496E+03 -0.26697318186E+02 -0.90953433828E+03  0.10602332824E+04  0.46999998093E+01 0.  1.
</event>
<event>
 5   0  0.3848286E-06  0.3225624E+04  0.7818609E-02  0.8182082E-01
       -1   -1    0    0    0  501  0.00000000000E+00  0.00000000000E+00  0.12447822973E+04  0.12447822973E+04  0.50400001928E-02 0. -1.
        1   -1    0    0  501    0  0.00000000000E+00  0.00000000000E+00 -0.20896529629E+04  0.20896529629E+04  0.50400001928E-02 0.  1.
    10030    2    1    2    0    0  0.00000000000E+00  0.00000000000E+00 -0.84487066558E+03  0.33344352602E+04  0.32256242904E+04 0.  0.
        2    1    3    3  502    0  0.12953518962E+04 -0.45734310086E+03 -0.12959636896E+04  0.18885500077E+04  0.25500000920E-02 0.  1.
       -2    1    3    3    0  502 -0.12953518962E+04  0.45734310086E+03  0.45109302403E+03  0.14458852524E+04  0.25500000920E-02 0. -1.
</event>
<event>
 5   0  0.1001961E-05  0.3109572E+04  0.7818609E-02  0.8213116E-01
       -2   -1    0    0    0  501  0.00000000000E+00  0.00000000000E+00  0.97337328181E+03  0.97337328181E+03  0.25500000920E-02 0. -1.
        2   -1    0    0  501    0  0.00000000000E+00  0.00000000000E+00 -0.24834863527E+04  0.24834863527E+04  0.25500000920E-02 0.  1.
    10030    2    1    2    0    0  0.00000000000E+00  0.00000000000E+00 -0.15101130708E+04  0.34568596345E+04  0.31095718428E+04 0.  0.
        5    1    3    3  502    0  0.28457802614E+03  0.24979631045E+03  0.92132171870E+03  0.99611176533E+03  0.46999998093E+01 0. -1.
       -5    1    3    3    0  502 -0.28457802614E+03 -0.24979631045E+03 -0.24314347895E+04  0.24607478691E+04  0.46999998093E+01 0.  1.
</event>
<event>
 5   0  0.9797278E-06  0.3055820E+04  0.7818609E-02  0.8227968E-01
        2   -1    0    0  501    0  0.00000000000E+00  0.00000000000E+00  0.19293533478E+04  0.19293533478E+04  0.25500000920E-02 0.  1.
       -2   -1    0    0    0  501  0.00000000000E+00  0.00000000000E+00 -0.12099956602E+04  0.12099956602E+04  0.25500000920E-02 0. -1.
    10030    2    1    2    0    0  0.00000000000E+00  0.00000000000E+00  0.71935768764E+03  0.31393490080E+04  0.30558201372E+04 0.  0.
        1    1    3    3  502    0  0.45135561124E+03 -0.26173619364E+03  0.18349973138E+04  0.19077323881E+04  0.50400001928E-02 0.  1.
       -1    1    3    3    0  502 -0.45135561124E+03  0.26173619364E+03 -0.11156396262E+04  0.12316166199E+04  0.50400001928E-02 0. -1.
</event>
<event>
 5   0  0.3848286E-06  0.2829046E+04  0.7818609E-02  0.8294307E-01
       -1   -1    0    0    0  501  0.00000000000E+00  0.00000000000E+00  0.33013400818E+04  0.33013400818E+04  0.50400001928E-02 0. -1.
        1   -1    0    0  501    0  0.00000000000E+00  0.00000000000E+00 -0.60607985743E+03  0.60607985745E+03  0.50400001928E-02 0.  1.
    10030    2    1    2    0    0  0.00000000000E+00  0.00000000000E+00  0.26952602244E+04  0.39074199393E+04  0.28290462889E+04 0.  0.
        2    1    3    3  502    0 -0.35955265448E+03 -0.67252271493E+02 -0.53962620327E+03  0.65191826069E+03  0.25500000920E-02 0.  1.
       -2    1    3    3    0  502  0.35955265448E+03  0.67252271493E+02  0.32348864276E+04  0.32555016786E+04  0.25500000920E-02 0. -1.
</event>
<event>
 5   0  0.9797278E-06  0.3198806E+04  0.7818609E-02  0.8189133E-01
        2   -1    0    0  501    0  0.00000000000E+00  0.00000000000E+00  0.26454669877E+04  0.26454669877E+04  0.25500000920E-02 0.  1.
       -2   -1    0    0    0  501  0.00000000000E+00  0.00000000000E+00 -0.96697110145E+03  0.96697110145E+03  0.25500000920E-02 0. -1.
    10030    2    1    2    0    0  0.00000000000E+00  0.00000000000E+00  0.16784958862E+04  0.36124380891E+04  0.31988061066E+04 0.  0.
        1    1    3    3  502    0  0.53423997461E+03  0.14800705833E+04  0.51572755383E+03  0.16558973978E+04  0.50400001928E-02 0. -1.
       -1    1    3    3    0  502 -0.53423997461E+03 -0.14800705833E+04  0.11627683324E+04  0.19565406913E+04  0.50400001928E-02 0.  1.
</event>
<event>
 5   0  0.3807334E-06  0.1682288E+04  0.7818609E-02  0.8771531E-01
        1   -1    0    0  501    0  0.00000000000E+00  0.00000000000E+00  0.89848027705E+03  0.89848027707E+03  0.50400001928E-02 0. -1.
       -1   -1    0    0    0  501  0.00000000000E+00  0.00000000000E+00 -0.78746626429E+03  0.78746626430E+03  0.50400001928E-02 0.  1.
    10030    2    1    2    0    0  0.00000000000E+00  0.00000000000E+00  0.11101401277E+03  0.16859465414E+04  0.16822876179E+04 0.  0.
        4    1    3    3  502    0 -0.10368473320E+03  0.32802163053E+03 -0.71373822873E+03  0.79232101199E+03  0.12699999809E+01 0.  1.
       -4    1    3    3    0  502  0.10368473320E+03 -0.32802163053E+03  0.82475224150E+03  0.89362552938E+03  0.12699999809E+01 0. -1.
</event>
<event>
 5   0  0.1007567E-05  0.3113628E+04  0.7818609E-02  0.8212008E-01
        2   -1    0    0  501    0  0.00000000000E+00  0.00000000000E+00  0.21018586671E+04  0.21018586671E+04  0.25500000920E-02 0. -1.
       -2   -1    0    0    0  501  0.00000000000E+00  0.00000000000E+00 -0.11531075595E+04  0.11531075595E+04  0.25500000920E-02 0.  1.
    10030    2    1    2    0    0  0.00000000000E+00  0.00000000000E+00  0.94875110760E+03  0.32549662266E+04  0.31136275423E+04 0.  0.
        3    1    3    3  502    0 -0.44066923888E+03  0.57725761302E+03 -0.96517861048E+03  0.12078847173E+04  0.10100000352E+00 0.  1.
       -3    1    3    3    0  502  0.44066923888E+03 -0.57725761302E+03  0.19139297181E+04  0.20470815093E+04  0.10100000352E+00 0. -1.
</event>
<event>
 5   0  0.3807334E-06  0.3098602E+04  0.7818609E-02  0.8216122E-01
        1   -1    0    0  501    0  0.00000000000E+00  0.00000000000E+00  0.20199708356E+04  0.20199708356E+04  0.50400001928E-02 0. -1.
       -1   -1    0    0    0  501  0.00000000000E+00  0.00000000000E+00 -0.11883010843E+04  0.11883010843E+04  0.50400001928E-02 0.  1.
    10030    2    1    2    0    0  0.00000000000E+00  0.00000000000E+00  0.83166975138E+03  0.32082719199E+04  0.30986019649E+04 0.  0.
        4    1    3    3  502    0  0.40161055615E+03 -0.62546871892E+03  0.18232958360E+04  0.19689874240E+04  0.12699999809E+01 0. -1.
       -4    1    3    3    0  502 -0.40161055615E+03  0.62546871892E+03 -0.99162608466E+03  0.12392844959E+04  0.12699999809E+01 0.  1.
</event>
<event>
 5   0  0.1007567E-05  0.3065136E+04  0.7818609E-02  0.8225372E-01
        2   -1    0    0  501    0  0.00000000000E+00  0.00000000000E+00  0.12520544050E+04  0.12520544050E+04  0.25500000920E-02 0. -1.
       -2   -1    0    0    0  501  0.00000000000E+00  0.00000000000E+00 -0.18759280223E+04  0.18759280223E+04  0.25500000920E-02 0.  1.
    10030    2    1    2    0    0  0.00000000000E+00  0.00000000000E+00 -0.62387361727E+03  0.31279824273E+04  0.30651355232E+04 0.  0.
        3    1    3    3  502    0 -0.36192462593E+03 -0.78748898572E+03 -0.16018292189E+04  0.18212592331E+04  0.10100000352E+00 0.  1.
       -3    1    3    3    0  502  0.36192462593E+03  0.78748898572E+03  0.97795560159E+03  0.13067231942E+04  0.10100000352E+00 0. -1.
</event>
<event>
 5   0  0.1108153E-05  0.3055146E+04  0.7818609E-02  0.8228157E-01
        2   -1    0    0  501    0  0.00000000000E+00  0.00000000000E+00  0.17923257310E+04  0.17923257310E+04  0.25500000920E-02 0. -1.
       -2   -1    0    0    0  501  0.00000000000E+00  0.00000000000E+00 -0.13019279128E+04  0.13019279128E+04  0.25500000920E-02 0.  1.
    10030    2    1    2    0    0  0.00000000000E+00  0.00000000000E+00  0.49039781825E+03  0.30942536438E+04  0.30551457563E+04 0.  0.
        4    1    3    3  502    0 -0.89606173210E+03 -0.83203025330E+03  0.11724931750E+04  0.16940905609E+04  0.12699999809E+01 0.  1.
       -4    1    3    3    0  502  0.89606173210E+03  0.83203025330E+03 -0.68209535678E+03  0.14001630829E+04  0.12699999809E+01 0. -1.
</event>
<event>
 5   0  0.1119100E-05  0.2913734E+04  0.7818609E-02  0.8268803E-01
       -2   -1    0    0    0  501  0.00000000000E+00  0.00000000000E+00  0.85820211521E+03  0.85820211521E+03  0.25500000920E-02 0.  1.
        2   -1    0    0  501    0  0.00000000000E+00  0.00000000000E+00 -0.24731487705E+04  0.24731487705E+04  0.25500000920E-02 0. -1.
    10030    2    1    2    0    0  0.00000000000E+00  0.00000000000E+00 -0.16149466553E+04  0.33313508857E+04  0.29137340346E+04 0.  0.
        2    1    3    3  502    0  0.14363480662E+04  0.21051354308E+03 -0.66721274194E+03  0.15976809951E+04  0.25500000920E-02 0. -1.
       -2    1    3    3    0  502 -0.14363480662E+04 -0.21051354308E+03 -0.94773391331E+03  0.17336698906E+04  0.25500000920E-02 0.  1.
</event>
<event>
 5   0  0.1119100E-05  0.2988213E+04  0.7818609E-02  0.8247105E-01
       -2   -1    0    0    0  501  0.00000000000E+00  0.00000000000E+00  0.16451035729E+04  0.16451035729E+04  0.25500000920E-02 0.  1.
        2   -1    0    0  501    0  0.00000000000E+00  0.00000000000E+00 -0.13569684811E+04  0.13569684812E+04  0.25500000920E-02 0. -1.
    10030    2    1    2    0    0  0.00000000000E+00  0.00000000000E+00  0.28813509173E+03  0.30020720540E+04  0.29882126408E+04 0.  0.
        2    1    3    3  502    0 -0.77471009230E+03 -0.12302825667E+04 -0.20188809722E+03  0.14678316405E+04  0.25500000920E-02 0.  1.
       -2    1    3    3    0  502  0.77471009230E+03  0.12302825667E+04  0.49002318895E+03  0.15342404136E+04  0.25500000920E-02 0. -1.
</event>
<event>
 5   0  0.3807334E-06  0.3061183E+04  0.7818609E-02  0.8226472E-01
       -1   -1    0    0    0  501  0.00000000000E+00  0.00000000000E+00  0.10003143672E+04  0.10003143672E+04  0.50400001928E-02 0. -1.
        1   -1    0    0  501    0  0.00000000000E+00  0.00000000000E+00 -0.23419743057E+04  0.23419743057E+04  0.50400001928E-02 0.  1.
    10030    2    1    2    0    0  0.00000000000E+00  0.00000000000E+00 -0.13416599384E+04  0.33422886729E+04  0.30611831345E+04 0.  0.
        4    1    3    3  502    0 -0.24878808818E+03  0.70240984212E+03  0.78889027913E+03  0.10851841247E+04  0.12699999809E+01 0. -1.
       -4    1    3    3    0  502  0.24878808818E+03 -0.70240984212E+03 -0.21305502176E+04  0.22571045482E+04  0.12699999809E+01 0.  1.
</event>
<event>
 5   0  0.1119100E-05  0.3107036E+04  0.7818609E-02  0.8213810E-01
       -2   -1    0    0    0  501  0.00000000000E+00  0.00000000000E+00  0.13027803480E+04  0.13027803480E+04  0.25500000920E-02 0. -1.
        2   -1    0    0  501    0  0.00000000000E+00  0.00000000000E+00 -0.18525138148E+04  0.18525138148E+04  0.25500000920E-02 0.  1.
    10030    2    1    2    0    0  0.00000000000E+00  0.00000000000E+00 -0.54973346681E+03  0.31552941628E+04  0.31070362678E+04 0.  0.
        2    1    3    3  502    0  0.13756047012E+04  0.72078409607E+03 -0.23423803302E+03  0.15705685159E+04  0.25500000920E-02 0.  1.
       -2    1    3    3    0  502 -0.13756047012E+04 -0.72078409607E+03 -0.31549543379E+03  0.15847256469E+04  0.25500000920E-02 0. -1.
</event>
<event>
 5   0  0.1001961E-05  0.3095384E+04  0.7818609E-02  0.8217006E-01
        2   -1    0    0  501    0  0.00000000000E+00  0.00000000000E+00  0.15718521911E+04  0.15718521911E+04  0.25500000920E-02 0. -1.
       -2   -1    0    0    0  501  0.00000000000E+00  0.00000000000E+00 -0.15239027427E+04  0.15239027427E+04  0.25500000920E-02 0.  1.
    10030    2    1    2    0    0  0.00000000000E+00  0.00000000000E+00  0.47949448408E+02  0.30957549338E+04  0.30953835724E+04 0.  0.
        5    1    3    3  502    0 -0.73965431460E+03 -0.80027570298E+03 -0.10751557922E+04  0.15308532828E+04  0.46999998093E+01 0.  1.
       -5    1    3    3    0  502  0.73965431460E+03  0.80027570298E+03  0.11231052406E+04  0.15649016510E+04  0.46999998093E+01 0. -1.
</event>
<event>
 5   0  0.1001961E-05  0.3062504E+04  0.7818609E-02  0.8226104E-01
       -2   -1    0    0    0  501  0.00000000000E+00  0.00000000000E+00  0.13081409138E+04  0.13081409138E+04  0.25500000920E-02 0.  1.
        2   -1    0    0  501    0  0.00000000000E+00  0.00000000000E+00 -0.17924157823E+04  0.17924157823E+04  0.25500000920E-02 0. -1.
    10030    2    1    2    0    0  0.00000000000E+00  0.00000000000E+00 -0.48427486854E+03  0.31005566961E+04  0.30625038249E+04 0.  0.
        5    1    3    3  502    0  0.14111436082E+04 -0.66094657344E+02 -0.84025343572E+03  0.16436978776E+04  0.46999998093E+01 0. -1.
       -5    1    3    3    0  502 -0.14111436082E+04  0.66094657344E+02  0.35597856718E+03  0.14568588185E+04  0.46999998093E+01 0.  1.
</event>
<event>
 5   0  0.1007567E-05  0.3167700E+04  0.7818609E-02  0.8197400E-01
       -2   -1    0    0    0  501  0.00000000000E+00  0.00000000000E+00  0.12071017700E+04  0.12071017700E+04  0.25500000920E-02 0.  1.
        2   -1    0    0  501    0  0.00000000000E+00  0.00000000000E+00 -0.20781850762E+04  0.20781850762E+04  0.25500000920E-02 0. -1.
    10030    2    1    2    0    0  0.00000000000E+00  0.00000000000E+00 -0.87108330620E+03  0.32852868461E+04  0.31677000387E+04 0.  0.
        3    1    3    3  502    0 -0.15722216097E+03  0.40447212072E+03  0.11442433268E+04  0.12237684852E+04  0.10100000352E+00 0.  1.
       -3    1    3    3    0  502  0.15722216097E+03 -0.40447212072E+03 -0.20153266330E+04  0.20615183609E+04  0.10100000352E+00 0. -1.
</event>
<event>
 5   0  0.4139628E-06  0.2594417E+04  0.7818609E-02  0.8370100E-01
        1   -1    0    0  501    0  0.00000000000E+00  0.00000000000E+00  0.20596824795E+04  0.20596824795E+04  0.50400001928E-02 0. -1.
       -1   -1    0    0    0  501  0.00000000000E+00  0.00000000000E+00 -0.81699471326E+03  0.81699471327E+03  0.50400001928E-02 0.  1.
    10030    2    1    2    0    0  0.00000000000E+00  0.00000000000E+00  0.12426877662E+04  0.28766771928E+04  0.25944168491E+04 0.  0.
        5    1    3    3  502    0  0.11670380014E+04 -0.49028094252E+03  0.30699600270E+03  0.13025443313E+04  0.46999998093E+01 0. -1.
       -5    1    3    3    0  502 -0.11670380014E+04  0.49028094252E+03  0.93569176353E+03  0.15741328615E+04  0.46999998093E+01 0.  1.
</event>
<event>
 5   0  0.4250961E-06  0.2083445E+04  0.7818609E-02  0.8568571E-01
       -1   -1    0    0    0  501  0.00000000000E+00  0.00000000000E+00  0.39745250321E+03  0.39745250324E+03  0.50400001928E-02 0. -1.
        1   -1    0    0  501    0  0.00000000000E+00  0.00000000000E+00 -0.27303527746E+04  0.27303527746E+04  0.50400001928E-02 0.  1.
    10030    2    1    2    0    0  0.00000000000E+00  0.00000000000E+00 -0.23329002714E+04  0.31278052778E+04  0.20834447869E+04 0.  0.
        1    1    3    3  502    0  0.27669109405E+03 -0.24321448261E+03  0.29639825775E+03  0.47282467501E+03  0.50400001928E-02 0. -1.
       -1    1    3    3    0  502 -0.27669109405E+03  0.24321448261E+03 -0.26292985291E+04  0.26549806028E+04  0.50400001928E-02 0.  1.
</event>
<event>
 5   0  0.1007567E-05  0.3089715E+04  0.7818609E-02  0.8218566E-01
        2   -1    0    0  501    0  0.00000000000E+00  0.00000000000E+00  0.24450191547E+04  0.24450191547E+04  0.25500000920E-02 0.  1.
       -2   -1    0    0    0  501  0.00000000000E+00  0.00000000000E+00 -0.97610064423E+03  0.97610064423E+03  0.25500000920E-02 0. -1.
    10030    2    1    2    0    0  0.00000000000E+00  0.00000000000E+00  0.14689185104E+04  0.34211197989E+04  0.30897150497E+04 0.  0.
        3    1    3    3  502    0 -0.89532344076E+03  0.76165798394E+03 -0.37548753859E+03  0.12339845420E+04  0.10100000352E+00 0. -1.
       -3    1    3    3    0  502  0.89532344076E+03 -0.76165798394E+03  0.18444060490E+04  0.21871352569E+04  0.10100000352E+00 0.  1.
</event>
<event>
 5   0  0.3848286E-06  0.3033034E+04  0.7818609E-02  0.8234360E-01
        1   -1    0    0  501    0  0.00000000000E+00  0.00000000000E+00  0.14793966192E+04  0.14793966192E+04  0.50400001928E-02 0. -1.
       -1   -1    0    0    0  501  0.00000000000E+00  0.00000000000E+00 -0.15545686889E+04  0.15545686889E+04  0.50400001928E-02 0.  1.
    10030    2    1    2    0    0  0.00000000000E+00  0.00000000000E+00 -0.75172069657E+02  0.30339653081E+04  0.30330339020E+04 0.  0.
        2    1    3    3  502    0 -0.34477757346E+03  0.14724866349E+04  0.75298952330E+02  0.15141857209E+04  0.25500000920E-02 0. -1.
       -2    1    3    3    0  502  0.34477757346E+03 -0.14724866349E+04 -0.15047102199E+03  0.15197795872E+04  0.25500000920E-02 0.  1.
</event>
<event>
 5   0  0.1108153E-05  0.2928760E+04  0.7818609E-02  0.8264372E-01
       -2   -1    0    0    0  501  0.00000000000E+00  0.00000000000E+00  0.13189915363E+04  0.13189915363E+04  0.25500000920E-02 0.  1.
        2   -1    0    0  501    0  0.00000000000E+00  0.00000000000E+00 -0.16257946117E+04  0.16257946117E+04  0.25500000920E-02 0. -1.
    10030    2    1    2    0    0  0.00000000000E+00  0.00000000000E+00 -0.30680307541E+03  0.29447861481E+04  0.29287603744E+04 0.  0.
        4    1    3    3  502    0  0.26599209339E+02 -0.10069013606E+04  0.91535870054E+03  0.13610440961E+04  0.12699999809E+01 0.  1.
       -4    1    3    3    0  502 -0.26599209339E+02  0.10069013606E+04 -0.12221617759E+04  0.15837420520E+04  0.12699999809E+01 0. -1.
</event>
<event>
 5   0  0.3807334E-06  0.3079803E+04  0.7818609E-02  0.8221303E-01
       -1   -1    0    0    0  501  0.00000000000E+00  0.00000000000E+00  0.22702543647E+04  0.22702543647E+04  0.50400001928E-02 0.  1.
        1   -1    0    0  501    0  0.00000000000E+00  0.00000000000E+00 -0.10445070543E+04  0.10445070544E+04  0.50400001928E-02 0. -1.
    10030    2    1    2    0    0  0.00000000000E+00  0.00000000000E+00  0.12257473104E+04  0.33147614190E+04  0.30798030451E+04 0.  0.
        4    1    3    3  502    0 -0.12217807190E+04 -0.68725684975E+03 -0.73108228100E+02  0.14037152591E+04  0.12699999809E+01 0. -1.
       -4    1    3    3    0  502  0.12217807190E+04  0.68725684975E+03  0.12988555385E+04  0.19110461599E+04  0.12699999809E+01 0.  1.
</event>
<event>
 5   0  0.1108153E-05  0.3170973E+04  0.7818609E-02  0.8196525E-01
        2   -1    0    0  501    0  0.00000000000E+00  0.00000000000E+00  0.16516168232E+04  0.16516168232E+04  0.25500000920E-02 0. -1.
       -2   -1    0    0    0  501  0.00000000000E+00  0.00000000000E+00 -0.15220043266E+04  0.15220043266E+04  0.25500000920E-02 0.  1.
    10030    2    1    2    0    0  0.00000000000E+00  0.00000000000E+00  0.12961249656E+03  0.31736211498E+04  0.31709733211E+04 0.  0.
        4    1    3    3  502    0 -0.24703283435E+03 -0.10104362185E+04  0.12623670450E+04  0.16357196404E+04  0.12699999809E+01 0. -1.
       -4    1    3    3    0  502  0.24703283435E+03  0.10104362185E+04 -0.11327545484E+04  0.15379015094E+04  0.12699999809E+01 0.  1.
</event>
<event>
 5   0  0.9797278E-06  0.3021965E+04  0.7818609E-02  0.8237486E-01
       -2   -1    0    0    0  501  0.00000000000E+00  0.00000000000E+00  0.12232631649E+04  0.12232631649E+04  0.25500000920E-02 0. -1.
        2   -1    0    0  501    0  0.00000000000E+00  0.00000000000E+00 -0.18663755355E+04  0.18663755355E+04  0.25500000920E-02 0.  1.
    10030    2    1    2    0    0  0.00000000000E+00  0.00000000000E+00 -0.64311237055E+03  0.30896387004E+04  0.30219652178E+04 0.  0.
        1    1    3    3  502    0 -0.37653276582E+03  0.58598353962E+02 -0.18164406810E+04  0.18559815296E+04  0.50400001928E-02 0.  1.
       -1    1    3    3    0  502  0.37653276582E+03 -0.58598353962E+02  0.11733283104E+04  0.12336571707E+04  0.50400001928E-02 0. -1.
</event>
<event>
 5   0  0.1119100E-05  0.1863861E+04  0.7818609E-02  0.8673057E-01
        2   -1    0    0  501    0  0.00000000000E+00  0.00000000000E+00  0.79722070970E+03  0.79722070970E+03  0.25500000920E-02 0.  1.
       -2   -1    0    0    0  501  0.00000000000E+00  0.00000000000E+00 -0.10894026370E+04  0.10894026370E+04  0.25500000920E-02 0. -1.
    10030    2    1    2    0    0  0.00000000000E+00  0.00000000000E+00 -0.29218192725E+03  0.18866233467E+04  0.18638608783E+04 0.  0.
        2    1    3    3  502    0 -0.17084989585E+03 -0.41315773581E+03  0.68157792880E+03  0.81513034209E+03  0.25500000920E-02 0.  1.
       -2    1    3    3    0  502  0.17084989585E+03  0.41315773581E+03 -0.97375985605E+03  0.10714930046E+04  0.25500000920E-02 0. -1.
</event>
<event>
 5   0  0.3838525E-06  0.3087667E+04  0.7818609E-02  0.8219131E-01
       -1   -1    0    0    0  501  0.00000000000E+00  0.00000000000E+00  0.12690301376E+04  0.12690301376E+04  0.50400001928E-02 0.  1.
        1   -1    0    0  501    0  0.00000000000E+00  0.00000000000E+00 -0.18781447627E+04  0.18781447627E+04  0.50400001928E-02 0. -1.
    10030    2    1    2    0    0  0.00000000000E+00  0.00000000000E+00 -0.60911462512E+03  0.31471749003E+04  0.30876672792E+04 0.  0.
        3    1    3    3  502    0  0.96797472663E+02  0.27860389770E+02 -0.18747918978E+04  0.18774958382E+04  0.10100000352E+00 0. -1.
       -3    1    3    3    0  502 -0.96797472663E+02 -0.27860389770E+02  0.12656772727E+04  0.12696790622E+04  0.10100000352E+00 0.  1.
</event>
<event>
 5   0  0.4250961E-06  0.3077134E+04  0.7818609E-02  0.8222041E-01
        1   -1    0    0  501    0  0.00000000000E+00  0.00000000000E+00  0.15587971853E+04  0.15587971853E+04  0.50400001928E-02 0.  1.
       -1   -1    0    0    0  501  0.00000000000E+00  0.00000000000E+00 -0.15185995939E+04  0.15185995939E+04  0.50400001928E-02 0. -1.
    10030    2    1    2    0    0  0.00000000000E+00  0.00000000000E+00  0.40197591417E+02  0.30773967792E+04  0.30771342334E+04 0.  0.
        1    1    3    3  502    0  0.10198563159E+04  0.71835574106E+02 -0.11297477610E+04  0.15236788567E+04  0.50400001928E-02 0. -1.
       -1    1    3    3    0  502 -0.10198563159E+04 -0.71835574106E+02  0.11699453524E+04  0.15537179225E+04  0.50400001928E-02 0.  1.
</event>
<event>
 5   0  0.3848286E-06  0.3101642E+04  0.7818609E-02  0.8215287E-01
        1   -1    0    0  501    0  0.00000000000E+00  0.00000000000E+00  0.19049546426E+04  0.19049546426E+04  0.50400001928E-02 0. -1.
       -1   -1    0    0    0  501  0.00000000000E+00  0.00000000000E+00 -0.12625212027E+04  0.12625212027E+04  0.50400001928E-02 0.  1.
    10030    2    1    2    0    0  0.00000000000E+00  0.00000000000E+00  0.64243343989E+03  0.31674758453E+04  0.31016419048E+04 0.  0.
        2    1    3    3  502    0  0.56676911782E+03 -0.34230251769E+03  0.17533548409E+04  0.18742068842E+04  0.25500000920E-02 0. -1.
       -2    1    3    3    0  502 -0.56676911782E+03  0.34230251769E+03 -0.11109214010E+04  0.12932689611E+04  0.25500000920E-02 0.  1.
</event>
<event>
 5   0  0.1119100E-05  0.2242423E+04  0.7818609E-02  0.8500976E-01
       -2   -1    0    0    0  501  0.00000000000E+00  0.00000000000E+00  0.14929318526E+04  0.14929318526E+04  0.25500000920E-02 0.  1.
        2   -1    0    0  501    0  0.00000000000E+00  0.00000000000E+00 -0.84204430055E+03  0.84204430056E+03  0.25500000920E-02 0. -1.
    10030    2    1    2    0    0  0.00000000000E+00  0.00000000000E+00  0.65088755204E+03  0.23349761532E+04  0.22424225807E+04 0.  0.
        2    1    3    3  502    0 -0.15099336508E+03 -0.10960680321E+04  0.51445903029E+03  0.12201771269E+04  0.25500000920E-02 0.  1.
       -2    1    3    3    0  502  0.15099336508E+03  0.10960680321E+04  0.13642852175E+03  0.11147990262E+04  0.25500000920E-02 0. -1.
</event>
<event>
 5   0  0.1001961E-05  0.2652316E+04  0.7818609E-02  0.8350645E-01
       -2   -1    0    0    0  501  0.00000000000E+00  0.00000000000E+00  0.93660314631E+03  0.93660314631E+03  0.25500000920E-02 0.  1.
        2   -1    0    0  501    0  0.00000000000E+00  0.00000000000E+00 -0.18777372183E+04  0.18777372183E+04  0.25500000920E-02 0. -1.
    10030    2    1    2    0    0  0.00000000000E+00  0.00000000000E+00 -0.94113407198E+03  0.28143403646E+04  0.26523156574E+04 0.  0.
        5    1    3    3  502    0  0.66266180164E+03 -0.11405854662E+04 -0.32578925488E+03  0.13587555327E+04  0.46999998093E+01 0.  1.
       -5    1    3    3    0  502 -0.66266180164E+03  0.11405854662E+04 -0.61534481710E+03  0.14555848319E+04  0.46999998093E+01 0. -1.
</event>
<event>
 5   0  0.4250961E-06  0.3104707E+04  0.7818609E-02  0.8214447E-01
       -1   -1    0    0    0  501  0.00000000000E+00  0.00000000000E+00  0.25461372687E+04  0.25461372687E+04  0.50400001928E-02 0. -1.
        1   -1    0    0  501    0  0.00000000000E+00  0.00000000000E+00 -0.94645355689E+03  0.94645355690E+03  0.50400001928E-02 0.  1.
    10030    2    1    2    0    0  0.00000000000E+00  0.00000000000E+00  0.15996837118E+04  0.34925908256E+04  0.31047065397E+04 0.  0.
        1    1    3    3  502    0 -0.38529168988E+03  0.11429705449E+04 -0.29947240630E+03  0.12427852087E+04  0.50400001928E-02 0.  1.
       -1    1    3    3    0  502  0.38529168988E+03 -0.11429705449E+04  0.18991561182E+04  0.22498056169E+04  0.50400001928E-02 0. -1.
</event>
<event>
 5   0  0.9797278E-06  0.2497108E+04  0.7818609E-02  0.8404016E-01
       -2   -1    0    0    0  501  0.00000000000E+00  0.00000000000E+00  0.11837037842E+04  0.11837037842E+04  0.25500000920E-02 0. -1.
        2   -1    0    0  501    0  0.00000000000E+00  0.00000000000E+00 -0.13169576046E+04  0.13169576046E+04  0.25500000920E-02 0.  1.
    10030    2    1    2    0    0  0.00000000000E+00  0.00000000000E+00 -0.13325382038E+03  0.25006613888E+04  0.24971084880E+04 0.  0.
        1    1    3    3  502    0  0.26486169027E+03 -0.19231894843E+03  0.11399730490E+04  0.11860340827E+04  0.50400001928E-02 0. -1.
       -1    1    3    3    0  502 -0.26486169027E+03  0.19231894843E+03 -0.12732268694E+04  0.13146273061E+04  0.50400001928E-02 0.  1.
</event>
<event>
 5   0  0.4250961E-06  0.2961687E+04  0.7818609E-02  0.8254757E-01
        1   -1    0    0  501    0  0.00000000000E+00  0.00000000000E+00  0.21302065460E+04  0.21302065461E+04  0.50400001928E-02 0. -1.
       -1   -1    0    0    0  501  0.00000000000E+00  0.00000000000E+00 -0.10294296555E+04  0.10294296555E+04  0.50400001928E-02 0.  1.
    10030    2    1    2    0    0  0.00000000000E+00  0.00000000000E+00  0.11007768906E+04  0.31596362015E+04  0.29616872156E+04 0.  0.
        1    1    3    3  502    0 -0.12503143470E+04  0.79241173388E+03  0.50646031336E+03  0.15645141007E+04  0.50400001928E-02 0. -1.
       -1    1    3    3    0  502  0.12503143470E+04 -0.79241173388E+03  0.59431657722E+03  0.15951221008E+04  0.50400001928E-02 0.  1.
</event>
<event>
 5   0  0.1001961E-05  0.3165241E+04  0.7818609E-02  0.8198058E-01
        2   -1    0    0  501    0  0.00000000000E+00  0.00000000000E+00  0.18363820724E+04  0.18363820724E+04  0.25500000920E-02 0.  1.
       -2   -1    0    0    0  501  0.00000000000E+00  0.00000000000E+00 -0.13639253306E+04  0.13639253306E+04  0.25500000920E-02 0. -1.
    10030    2    1    2    0    0  0.00000000000E+00  0.00000000000E+00  0.47245674180E+03  0.32003074031E+04  0.31652412390E+04 0.  0.
        5    1    3    3  502    0  0.97664088568E+03  0.49140839868E+03  0.13931762708E+04  0.17709522425E+04  0.46999998093E+01 0.  1.
       -5    1    3    3    0  502 -0.97664088568E+03 -0.49140839868E+03 -0.92071952900E+03  0.14293551605E+04  0.46999998093E+01 0. -1.
</event>
<event>
 5   0  0.9797278E-06  0.2949641E+04  0.7818609E-02  0.8258259E-01
        2   -1    0    0  501    0  0.00000000000E+00  0.00000000000E+00  0.21246165507E+04  0.21246165507E+04  0.25500000920E-02 0.  1.
       -2   -1    0    0    0  501  0.00000000000E+00  0.00000000000E+00 -0.10237587857E+04  0.10237587857E+04  0.25500000920E-02 0. -1.
    10030    2    1    2    0    0  0.00000000000E+00  0.00000000000E+00  0.11008577650E+04  0.31483753365E+04  0.29496405613E+04 0.  0.
        1    1    3    3  502    0  0.47943840771E+03 -0.13202801891E+04  0.70591584611E+02  0.14064082395E+04  0.50400001928E-02 0. -1.
       -1    1    3    3    0  502 -0.47943840771E+03  0.13202801891E+04  0.10302661804E+04  0.17419670969E+04  0.50400001928E-02 0.  1.
</event>
<event>
 5   0  0.1001961E-05  0.3076905E+04  0.7818609E-02  0.8222105E-01
       -2   -1    0    0    0  501  0.00000000000E+00  0.00000000000E+00  0.11061390321E+04  0.11061390321E+04  0.25500000920E-02 0. -1.
        2   -1    0    0  501    0  0.00000000000E+00  0.00000000000E+00 -0.21397269551E+04  0.21397269551E+04  0.25500000920E-02 0.  1.
    10030    2    1    2    0    0  0.00000000000E+00  0.00000000000E+00 -0.10335879231E+04  0.32458659872E+04  0.30769046153E+04 0.  0.
        5    1    3    3  502    0 -0.11226832916E+04 -0.17057773717E+03  0.57813175210E+03  0.12742734991E+04  0.46999998093E+01 0. -1.
       -5    1    3    3    0  502  0.11226832916E+04  0.17057773717E+03 -0.16117196752E+04  0.19715924881E+04  0.46999998093E+01 0.  1.
</event>
<event>
 5   0  0.1001961E-05  0.3099334E+04  0.7818609E-02  0.8215921E-01
       -2   -1    0    0    0  501  0.00000000000E+00  0.00000000000E+00  0.11382171644E+04  0.11382171644E+04  0.25500000920E-02 0. -1.
        2   -1    0    0  501    0  0.00000000000E+00  0.00000000000E+00 -0.21098508745E+04  0.21098508745E+04  0.25500000920E-02 0.  1.
    10030    2    1    2    0    0  0.00000000000E+00  0.00000000000E+00 -0.97163371004E+03  0.32480680389E+04  0.30993344316E+04 0.  0.
        5    1    3    3  502    0 -0.69976506710E+03  0.56148023122E+03 -0.18099852091E+04  0.20201484466E+04  0.46999998093E+01 0.  1.
       -5    1    3    3    0  502  0.69976506710E+03 -0.56148023122E+03  0.83835149905E+03  0.12279195923E+04  0.46999998093E+01 0. -1.
</event>
<event>
 5   0  0.3493125E-06  0.3066827E+04  0.7818609E-02  0.8224901E-01
       -4   -1    0    0    0  501  0.00000000000E+00  0.00000000000E+00  0.15166874743E+04  0.15166880060E+04  0.12699999809E+01 0. -1.
        4   -1    0    0  501    0  0.00000000000E+00  0.00000000000E+00 -0.15503234120E+04  0.15503239322E+04  0.12699999809E+01 0.  1.
    10030    2    1    2    0    0  0.00000000000E+00  0.00000000000E+00 -0.33635937726E+02  0.30670119381E+04  0.30668274898E+04 0.  0.
        1    1    3    3  502    0  0.90444432094E+03 -0.67936790236E+03  0.10185207983E+04  0.15221514028E+04  0.50400001928E-02 0. -1.
       -1    1    3    3    0  502 -0.90444432094E+03  0.67936790236E+03 -0.10521567360E+04  0.15448605353E+04  0.50400001928E-02 0.  1.
</event>
<event>
 5   0  0.1007567E-05  0.2040863E+04  0.7818609E-02  0.8587751E-01
       -2   -1    0    0    0  501  0.00000000000E+00  0.00000000000E+00  0.48935496851E+03  0.48935496852E+03  0.25500000920E-02 0. -1.
        2   -1    0    0  501    0  0.00000000000E+00  0.00000000000E+00 -0.21278622684E+04  0.21278622684E+04  0.25500000920E-02 0.  1.
    10030    2    1    2    0    0  0.00000000000E+00  0.00000000000E+00 -0.16385072999E+04  0.26172172370E+04  0.20408625367E+04 0.  0.
        3    1    3    3  502    0  0.41593494670E+02 -0.82038178911E+02  0.48402797147E+03  0.49268993187E+03  0.10100000352E+00 0. -1.
       -3    1    3    3    0  502 -0.41593494670E+02  0.82038178911E+02 -0.21225352714E+04  0.21245273051E+04  0.10100000352E+00 0.  1.
</event>
<event>
 5   0  0.3848286E-06  0.3082801E+04  0.7818609E-02  0.8220474E-01
       -1   -1    0    0    0  501  0.00000000000E+00  0.00000000000E+00  0.13830490818E+04  0.13830490818E+04  0.50400001928E-02 0.  1.
        1   -1    0    0  501    0  0.00000000000E+00  0.00000000000E+00 -0.17178826409E+04  0.17178826409E+04  0.50400001928E-02 0. -1.
    10030    2    1    2    0    0  0.00000000000E+00  0.00000000000E+00 -0.33483355915E+03  0.31009317227E+04  0.30828013294E+04 0.  0.
        2    1    3    3  502    0 -0.48694776334E+03 -0.41565550287E+03 -0.15778143739E+04  0.17027582975E+04  0.25500000920E-02 0. -1.
       -2    1    3    3    0  502  0.48694776334E+03  0.41565550287E+03  0.12429808147E+04  0.13981734252E+04  0.25500000920E-02 0.  1.
</event>
<event>
 5   0  0.1108153E-05  0.2928757E+04  0.7818609E-02  0.8264372E-01
        2   -1    0    0  501    0  0.00000000000E+00  0.00000000000E+00  0.21233846635E+04  0.21233846635E+04  0.25500000920E-02 0. -1.
       -2   -1    0    0    0  501  0.00000000000E+00  0.00000000000E+00 -0.10098993795E+04  0.10098993795E+04  0.25500000920E-02 0.  1.
    10030    2    1    2    0    0  0.00000000000E+00  0.00000000000E+00  0.11134852840E+04  0.31332840429E+04  0.29287573160E+04 0.  0.
        4    1    3    3  502    0 -0.10126276416E+04  0.17001954023E+02  0.16882909242E+04  0.19687639942E+04  0.12699999809E+01 0. -1.
       -4    1    3    3    0  502  0.10126276416E+04 -0.17001954023E+02 -0.57480564021E+03  0.11645200488E+04  0.12699999809E+01 0.  1.
</event>
<event>
 5   0  0.3838525E-06  0.3246287E+04  0.7818609E-02  0.8176699E-01
        1   -1    0    0  501    0  0.00000000000E+00  0.00000000000E+00  0.92312665122E+03  0.92312665124E+03  0.50400001928E-02 0.  1.
       -1   -1    0    0    0  501  0.00000000000E+00  0.00000000000E+00 -0.28539898520E+04  0.28539898520E+04  0.50400001928E-02 0. -1.
    10030    2    1    2    0    0  0.00000000000E+00  0.00000000000E+00 -0.19308632008E+04  0.37771165032E+04  0.32462865522E+04 0.  0.
        3    1    3    3  502    0  0.69507487050E+03 -0.10956345483E+04  0.16925307747E+03  0.13085070705E+04  0.10100000352E+00 0.  1.
       -3    1    3    3    0  502 -0.69507487050E+03  0.10956345483E+04 -0.21001162782E+04  0.24686094327E+04  0.10100000352E+00 0. -1.
</event>
<event>
 5   0  0.1007567E-05  0.3073776E+04  0.7818609E-02  0.8222972E-01
        2   -1    0    0  501    0  0.00000000000E+00  0.00000000000E+00  0.19111250582E+04  0.19111250582E+04  0.25500000920E-02 0. -1.
       -2   -1    0    0    0  501  0.00000000000E+00  0.00000000000E+00 -0.12359339617E+04  0.12359339617E+04  0.25500000920E-02 0.  1.
    10030    2    1    2    0    0  0.00000000000E+00  0.00000000000E+00  0.67519109651E+03  0.31470590200E+04  0.30737757658E+04 0.  0.
        3    1    3    3  502    0 -0.13043038361E+03  0.17696634356E+03  0.18949439328E+04  0.19076534513E+04  0.10100000352E+00 0. -1.
       -3    1    3    3    0  502  0.13043038361E+03 -0.17696634356E+03 -0.12197528363E+04  0.12394055686E+04  0.10100000352E+00 0.  1.
</event>
<event>
 5   0  0.3807334E-06  0.3106730E+04  0.7818609E-02  0.8213893E-01
       -1   -1    0    0    0  501  0.00000000000E+00  0.00000000000E+00  0.14621626218E+04  0.14621626218E+04  0.50400001928E-02 0.  1.
        1   -1    0    0  501    0  0.00000000000E+00  0.00000000000E+00 -0.16502564792E+04  0.16502564792E+04  0.50400001928E-02 0. -1.
    10030    2    1    2    0    0  0.00000000000E+00  0.00000000000E+00 -0.18809385740E+03  0.31124191010E+04  0.31067303328E+04 0.  0.
        4    1    3    3  502    0 -0.57932840590E+03 -0.38306298362E+03 -0.14860454104E+04  0.16403326571E+04  0.12699999809E+01 0. -1.
       -4    1    3    3    0  502  0.57932840590E+03  0.38306298362E+03  0.12979515530E+04  0.14720864439E+04  0.12699999809E+01 0.  1.
</event>
<event>
 5   0  0.9797278E-06  0.2972645E+04  0.7818609E-02  0.8251586E-01
       -2   -1    0    0    0  501  0.00000000000E+00  0.00000000000E+00  0.93635617209E+03  0.93635617210E+03  0.25500000920E-02 0.  1.
        2   -1    0    0  501    0  0.00000000000E+00  0.00000000000E+00 -0.23593107268E+04  0.23593107268E+04  0.25500000920E-02 0. -1.
    10030    2    1    2    0    0  0.00000000000E+00  0.00000000000E+00 -0.14229545547E+04  0.32956668989E+04  0.29726453949E+04 0.  0.
        1    1    3    3  502    0  0.54986724381E+03 -0.66218332261E+03  0.63193631101E+03  0.10677940999E+04  0.50400001928E-02 0.  1.
       -1    1    3    3    0  502 -0.54986724381E+03  0.66218332261E+03 -0.20548908657E+04  0.22278727990E+04  0.50400001928E-02 0. -1.
</event>
<event>
 5   0  0.4139628E-06  0.2926659E+04  0.7818609E-02  0.8264990E-01
       -1   -1    0    0    0  501  0.00000000000E+00  0.00000000000E+00  0.10773608765E+04  0.10773608765E+04  0.50400001928E-02 0.  1.
        1   -1    0    0  501    0  0.00000000000E+00  0.00000000000E+00 -0.19875724188E+04  0.19875724188E+04  0.50400001928E-02 0. -1.
    10030    2    1    2    0    0  0.00000000000E+00  0.00000000000E+00 -0.91021154229E+03  0.30649332953E+04  0.29266586840E+04 0.  0.
        5    1    3    3  502    0 -0.82490884500E+03 -0.78639943888E+03 -0.14163001470E+04  0.18179182810E+04  0.46999998093E+01 0. -1.
       -5    1    3    3    0  502  0.82490884500E+03  0.78639943888E+03  0.50608860470E+03  0.12470150143E+04  0.46999998093E+01 0.  1.
</event>
<event>
 5   0  0.3807334E-06  0.1555311E+04  0.7818609E-02  0.8848483E-01
       -1   -1    0    0    0  501  0.00000000000E+00  0.00000000000E+00  0.35563980707E+03  0.35563980710E+03  0.50400001928E-02 0.  1.
        1   -1    0    0  501    0  0.00000000000E+00  0.00000000000E+00 -0.17004499577E+04  0.17004499577E+04  0.50400001928E-02 0. -1.
    10030    2    1    2    0    0  0.00000000000E+00  0.00000000000E+00 -0.13448101506E+04  0.20560897648E+04  0.15553105091E+04 0.  0.
        4    1    3    3  502    0  0.47387863253E+00  0.67543175091E+03 -0.16290591920E+03  0.69480085356E+03  0.12699999809E+01 0.  1.
       -4    1    3    3    0  502 -0.47387863253E+00 -0.67543175091E+03 -0.11819042314E+04  0.13612889112E+04  0.12699999809E+01 0. -1.
</event>
<event>
 5   0  0.1007567E-05  0.3056178E+04  0.7818609E-02  0.8227868E-01
        2   -1    0    0  501    0  0.00000000000E+00  0.00000000000E+00  0.94703404740E+03  0.94703404741E+03  0.25500000920E-02 0. -1.
       -2   -1    0    0    0  501  0.00000000000E+00  0.00000000000E+00 -0.24656520117E+04  0.24656520117E+04  0.25500000920E-02 0.  1.
    10030    2    1    2    0    0  0.00000000000E+00  0.00000000000E+00 -0.15186179643E+04  0.34126860591E+04  0.30561782697E+04 0.  0.
        3    1    3    3  502    0 -0.32505297981E+03 -0.83098392097E+03  0.62590730172E+03  0.10899328773E+04  0.10100000352E+00 0. -1.
       -3    1    3    3    0  502  0.32505297981E+03  0.83098392097E+03 -0.21445252660E+04  0.23227531817E+04  0.10100000352E+00 0.  1.
</event>
<event>
 5   0  0.4139628E-06  0.2252400E+04  0.7818609E-02  0.8496929E-01
        1   -1    0    0  501    0  0.00000000000E+00  0.00000000000E+00  0.33022295747E+04  0.33022295747E+04  0.50400001928E-02 0.  1.
       -1   -1    0    0    0  501  0.00000000000E+00  0.00000000000E+00 -0.38408195431E+03  0.38408195434E+03  0.50400001928E-02 0. -1.
    10030    2    1    2    0    0  0.00000000000E+00  0.00000000000E+00  0.29181476204E+04  0.36863115291E+04  0.22524003096E+04 0.  0.
        5    1    3    3  502    0  0.18191326402E+03 -0.88763173871E+02  0.32721987259E+04  0.32784566382E+04  0.46999998093E+01 0.  1.
       -5    1    3    3    0  502 -0.18191326402E+03  0.88763173871E+02 -0.35405110553E+03  0.40785489084E+03  0.46999998093E+01 0. -1.
</event>
<event>
 5   0  0.3838525E-06  0.3004319E+04  0.7818609E-02  0.8242499E-01
       -1   -1    0    0    0  501  0.00000000000E+00  0.00000000000E+00  0.21252889416E+04  0.21252889416E+04  0.50400001928E-02 0. -1.
        1   -1    0    0  501    0  0.00000000000E+00  0.00000000000E+00 -0.10617299751E+04  0.10617299751E+04  0.50400001928E-02 0.  1.
    10030    2    1    2    0    0  0.00000000000E+00  0.00000000000E+00  0.10635589665E+04  0.31870189167E+04  0.30043188746E+04 0.  0.
        3    1    3    3  502    0  0.88026612682E+03  0.90502833253E+03  0.13952431861E+04  0.18816610468E+04  0.10100000352E+00 0. -1.
       -3    1    3    3    0  502 -0.88026612682E+03 -0.90502833253E+03 -0.33168421957E+03  0.13053578699E+04  0.10100000352E+00 0.  1.
</event>
<event>
 5   0  0.3848286E-06  0.2041441E+04  0.7818609E-02  0.8587487E-01
        1   -1    0    0  501    0  0.00000000000E+00  0.00000000000E+00  0.12717225052E+04  0.12717225052E+04  0.50400001928E-02 0. -1.
       -1   -1    0    0    0  501  0.00000000000E+00  0.00000000000E+00 -0.81925900338E+03  0.81925900339E+03  0.50400001928E-02 0.  1.
    10030    2    1    2    0    0  0.00000000000E+00  0.00000000000E+00  0.45246350178E+03  0.20909815086E+04  0.20414407777E+04 0.  0.
        2    1    3    3  502    0 -0.19849920031E+03  0.66305259594E+03 -0.54219381855E+03  0.87921261046E+03  0.25500000920E-02 0.  1.
       -2    1    3    3    0  502  0.19849920031E+03 -0.66305259594E+03  0.99465732033E+03  0.12117688981E+04  0.25500000920E-02 0. -1.
</event>
<event>
 5   0  0.1119100E-05  0.2980534E+04  0.7818609E-02  0.8249311E-01
        2   -1    0    0  501    0  0.00000000000E+00  0.00000000000E+00  0.19829719435E+04  0.19829719435E+04  0.25500000920E-02 0. -1.
       -2   -1    0    0    0  501  0.00000000000E+00  0.00000000000E+00 -0.11199835669E+04  0.11199835669E+04  0.25500000920E-02 0.  1.
    10030    2    1    2    0    0  0.00000000000E+00  0.00000000000E+00  0.86298837651E+03  0.31029555104E+04  0.29805341739E+04 0.  0.
        2    1    3    3  502    0 -0.14879051930E+04  0.18719221816E+01  0.51878697308E+03  0.15757554667E+04  0.25500000920E-02 0.  1.
       -2    1    3    3    0  502  0.14879051930E+04 -0.18719221816E+01  0.34420140343E+03  0.15272000437E+04  0.25500000920E-02 0. -1.
</event>
<event>
 5   0  0.3848286E-06  0.3076443E+04  0.7818609E-02  0.8222233E-01
        1   -1    0    0  501    0  0.00000000000E+00  0.00000000000E+00  0.14954469078E+04  0.14954469078E+04  0.50400001928E-02 0. -1.
       -1   -1    0    0    0  501  0.00000000000E+00  0.00000000000E+00 -0.15822194779E+04  0.15822194779E+04  0.50400001928E-02 0.  1.
    10030    2    1    2    0    0  0.00000000000E+00  0.00000000000E+00 -0.86772570062E+02  0.30776663857E+04  0.30764428977E+04 0.  0.
        2    1    3    3  502    0 -0.75099770727E+03  0.36297581463E+02  0.12990900792E+04  0.15009830461E+04  0.25500000920E-02 0. -1.
       -2    1    3    3    0  502  0.75099770727E+03 -0.36297581463E+02 -0.13858626493E+04  0.15766833396E+04  0.25500000920E-02 0.  1.
</event>
<event>
 5   0  0.3848286E-06  0.3082542E+04  0.7818609E-02  0.8220546E-01
        1   -1    0    0  501    0  0.00000000000E+00  0.00000000000E+00  0.11719672941E+04  0.11719672941E+04  0.50400001928E-02 0.  1.
       -1   -1    0    0    0  501  0.00000000000E+00  0.00000000000E+00 -0.20269472857E+04  0.20269472857E+04  0.50400001928E-02 0. -1.
    10030    2    1    2    0    0  0.00000000000E+00  0.00000000000E+00 -0.85497999158E+03  0.31989145799E+04  0.30825417602E+04 0.  0.
        2    1    3    3  502    0 -0.97328140324E+03 -0.10252023942E+04  0.20986164178E+03  0.14291111040E+04  0.25500000920E-02 0.  1.
       -2    1    3    3    0  502  0.97328140324E+03  0.10252023942E+04 -0.10648416334E+04  0.17698034758E+04  0.25500000920E-02 0. -1.
</event>
<event>
 5   0  0.3838525E-06  0.2589288E+04  0.7818609E-02  0.8371849E-01
       -1   -1    0    0    0  501  0.00000000000E+00  0.00000000000E+00  0.61224292148E+03  0.61224292150E+03  0.50400001928E-02 0. -1.
        1   -1    0    0  501    0  0.00000000000E+00  0.00000000000E+00 -0.27376443008E+04  0.27376443008E+04  0.50400001928E-02 0.  1.
    10030    2    1    2    0    0  0.00000000000E+00  0.00000000000E+00 -0.21254013794E+04  0.33498872223E+04  0.25892881993E+04 0.  0.
        3    1    3    3  502    0 -0.10853237375E+04 -0.23722327365E+03 -0.19227279291E+04  0.22206046916E+04  0.10100000352E+00 0.  1.
       -3    1    3    3    0  502  0.10853237375E+04  0.23722327365E+03 -0.20267345024E+03  0.11292825308E+04  0.10100000352E+00 0. -1.
</event>
<event>
 5   0  0.9797278E-06  0.3007697E+04  0.7818609E-02  0.8241536E-01
       -2   -1    0    0    0  501  0.00000000000E+00  0.00000000000E+00  0.83842491712E+03  0.83842491712E+03  0.25500000920E-02 0.  1.
        2   -1    0    0  501    0  0.00000000000E+00  0.00000000000E+00 -0.26973910915E+04  0.26973910915E+04  0.25500000920E-02 0. -1.
    10030    2    1    2    0    0  0.00000000000E+00  0.00000000000E+00 -0.18589661744E+04  0.35358160087E+04  0.30076967283E+04 0.  0.
        1    1    3    3  502    0 -0.92421014765E+03  0.20587223546E+03  0.44400175027E+03  0.10457941139E+04  0.50400001928E-02 0.  1.
       -1    1    3    3    0  502  0.92421014765E+03 -0.20587223546E+03 -0.23029679247E+04  0.24900218948E+04  0.50400001928E-02 0. -1.
</event>
<event>
 5   0  0.1108153E-05  0.2941388E+04  0.7818609E-02  0.8260669E-01
       -2   -1    0    0    0  501  0.00000000000E+00  0.00000000000E+00  0.10325409848E+04  0.10325409848E+04  0.25500000920E-02 0. -1.
        2   -1    0    0  501    0  0.00000000000E+00  0.00000000000E+00 -0.20947747050E+04  0.20947747050E+04  0.25500000920E-02 0.  1.
    10030    2    1    2    0    0  0.00000000000E+00  0.00000000000E+00 -0.10622337202E+04  0.31273156898E+04  0.29413879287E+04 0.  0.
        4    1    3    3  502    0  0.10851175378E+04  0.90058268085E+01  0.52429224709E+03  0.12051743231E+04  0.12699999809E+01 0. -1.
       -4    1    3    3    0  502 -0.10851175378E+04 -0.90058268085E+01 -0.15865259673E+04  0.19221413667E+04  0.12699999809E+01 0.  1.
</event>
<event>
 5   0  0.4250961E-06  0.3258295E+04  0.7818609E-02  0.8173589E-01
        1   -1    0    0  501    0  0.00000000000E+00  0.00000000000E+00  0.15831081716E+04  0.15831081716E+04  0.50400001928E-02 0.  1.
       -1   -1    0    0    0  501  0.00000000000E+00  0.00000000000E+00 -0.16765254862E+04  0.16765254862E+04  0.50400001928E-02 0. -1.
    10030    2    1    2    0    0  0.00000000000E+00  0.00000000000E+00 -0.93417314670E+02  0.32596336578E+04  0.32582947670E+04 0.  0.
        1    1    3    3  502    0  0.11923760943E+04 -0.10035081154E+04 -0.52159509962E+03  0.16434265228E+04  0.50400001928E-02 0. -1.
       -1    1    3    3    0  502 -0.11923760943E+04  0.10035081154E+04  0.42817778495E+03  0.16162071350E+04  0.50400001928E-02 0.  1.
</event>
<event>
 5   0  0.9797278E-06  0.2982218E+04  0.7818609E-02  0.8248827E-01
       -2   -1    0    0    0  501  0.00000000000E+00  0.00000000000E+00  0.90551142719E+03  0.90551142719E+03  0.25500000920E-02 0. -1.
        2   -1    0    0  501    0  0.00000000000E+00  0.00000000000E+00 -0.24554139755E+04  0.24554139755E+04  0.25500000920E-02 0.  1.
    10030    2    1    2    0    0  0.00000000000E+00  0.00000000000E+00 -0.15499025483E+04  0.33609254027E+04  0.29822175731E+04 0.  0.
        1    1    3    3  502    0 -0.12056070759E+04  0.40346038782E+03  0.10318677181E+03  0.12755062587E+04  0.50400001928E-02 0.  1.
       -1    1    3    3    0  502  0.12056070759E+04 -0.40346038782E+03 -0.16530893201E+04  0.20854191440E+04  0.50400001928E-02 0. -1.
</event>
<event>
 5   0  0.1108153E-05  0.3076291E+04  0.7818609E-02  0.8222275E-01
        2   -1    0    0  501    0  0.00000000000E+00  0.00000000000E+00  0.18568741638E+04  0.18568741638E+04  0.25500000920E-02 0. -1.
       -2   -1    0    0    0  501  0.00000000000E+00  0.00000000000E+00 -0.12741256095E+04  0.12741256095E+04  0.25500000920E-02 0.  1.
    10030    2    1    2    0    0  0.00000000000E+00  0.00000000000E+00  0.58274855435E+03  0.31309997733E+04  0.30762905751E+04 0.  0.
        4    1    3    3  502    0  0.27008282223E+02  0.70218171991E+03  0.16839546946E+04  0.18246900124E+04  0.12699999809E+01 0. -1.
       -4    1    3    3    0  502 -0.27008282223E+02 -0.70218171991E+03 -0.11012061403E+04  0.13063097609E+04  0.12699999809E+01 0.  1.
</event>
<event>
 5   0  0.1001961E-05  0.1575175E+04  0.7818609E-02  0.8835946E-01
        2   -1    0    0  501    0  0.00000000000E+00  0.00000000000E+00  0.21740529975E+04  0.21740529975E+04  0.25500000920E-02 0.  1.
       -2   -1    0    0    0  501  0.00000000000E+00  0.00000000000E+00 -0.28531691498E+03  0.28531691499E+03  0.25500000920E-02 0. -1.
    10030    2    1    2    0    0  0.00000000000E+00  0.00000000000E+00  0.18887360825E+04  0.24593699125E+04  0.15751750306E+04 0.  0.
        5    1    3    3  502    0  0.20545031943E+03  0.94665052482E+02  0.21222169830E+04  0.21342442032E+04  0.46999998093E+01 0.  1.
       -5    1    3    3    0  502 -0.20545031943E+03 -0.94665052482E+02 -0.23348090052E+03  0.32512570926E+03  0.46999998093E+01 0. -1.
</event>
<event>
 5   0  0.9797278E-06  0.3087255E+04  0.7818609E-02  0.8219244E-01
        2   -1    0    0  501    0  0.00000000000E+00  0.00000000000E+00  0.14150951172E+04  0.14150951172E+04  0.25500000920E-02 0.  1.
       -2   -1    0    0    0  501  0.00000000000E+00  0.00000000000E+00 -0.16838349478E+04  0.16838349478E+04  0.25500000920E-02 0. -1.
    10030    2    1    2    0    0  0.00000000000E+00  0.00000000000E+00 -0.26873983059E+03  0.30989300651E+04  0.30872554886E+04 0.  0.
        1    1    3    3  502    0  0.35106768473E+03  0.12765698004E+04  0.66229857692E+03  0.14803777827E+04  0.50400001928E-02 0.  1.
       -1    1    3    3    0  502 -0.35106768473E+03 -0.12765698004E+04 -0.93103840752E+03  0.16185522824E+04  0.50400001928E-02 0. -1.
</event>
<event>
 5   0  0.1001961E-05  0.3150651E+04  0.7818609E-02  0.8201973E-01
        2   -1    0    0  501    0  0.00000000000E+00  0.00000000000E+00  0.16556570104E+04  0.16556570104E+04  0.25500000920E-02 0.  1.
       -2   -1    0    0    0  501  0.00000000000E+00  0.00000000000E+00 -0.14988915434E+04  0.14988915434E+04  0.25500000920E-02 0. -1.
    10030    2    1    2    0    0  0.00000000000E+00  0.00000000000E+00  0.15676546707E+03  0.31545485538E+04  0.31506509116E+04 0.  0.
        5    1    3    3  502    0  0.95902946539E+02  0.15323587346E+04 -0.27462616828E+03  0.15597314798E+04  0.46999998093E+01 0. -1.
       -5    1    3    3    0  502 -0.95902946539E+02 -0.15323587346E+04  0.43139163535E+03  0.15948170740E+04  0.46999998093E+01 0.  1.
</event>
<event>
 5   0  0.9797278E-06  0.3093136E+04  0.7818609E-02  0.8217624E-01
        2   -1    0    0  501    0  0.00000000000E+00  0.00000000000E+00  0.21699312820E+04  0.21699312820E+04  0.25500000920E-02 0.  1.
       -2   -1    0    0    0  501  0.00000000000E+00  0.00000000000E+00 -0.11022806151E+04  0.11022806151E+04  0.25500000920E-02 0. -1.
    10030    2    1    2    0    0  0.00000000000E+00  0.00000000000E+00  0.10676506669E+04  0.32722118970E+04  0.30931363941E+04 0.  0.
        1    1    3    3  502    0  0.25206309794E+02  0.11900066351E+04  0.15784778006E+04  0.19769530386E+04  0.50400001928E-02 0.  1.
       -1    1    3    3    0  502 -0.25206309794E+02 -0.11900066351E+04 -0.51082713373E+03  0.12952588584E+04  0.50400001928E-02 0. -1.
</event>
<event>
 5   0  0.3807334E-06  0.3048972E+04  0.7818609E-02  0.8229883E-01
       -1   -1    0    0    0  501  0.00000000000E+00  0.00000000000E+00  0.11008222712E+04  0.11008222712E+04  0.50400001928E-02 0.  1.
        1   -1    0    0  501    0  0.00000000000E+00  0.00000000000E+00 -0.21112018944E+04  0.21112018944E+04  0.50400001928E-02 0. -1.
    10030    2    1    2    0    0  0.00000000000E+00  0.00000000000E+00 -0.10103796232E+04  0.32120241656E+04  0.30489723281E+04 0.  0.
        4    1    3    3  502    0  0.33394271854E+03  0.60352086808E+03 -0.19374163036E+04  0.20565356121E+04  0.12699999809E+01 0. -1.
       -4    1    3    3    0  502 -0.33394271854E+03 -0.60352086808E+03  0.92703668043E+03  0.11554885535E+04  0.12699999809E+01 0.  1.
</event>
<event>
 5   0  0.3838525E-06  0.1761160E+04  0.7818609E-02  0.8727231E-01
        1   -1    0    0  501    0  0.00000000000E+00  0.00000000000E+00  0.14032946292E+04  0.14032946292E+04  0.50400001928E-02 0. -1.
       -1   -1    0    0    0  501  0.00000000000E+00  0.00000000000E+00 -0.55257202430E+03  0.55257202432E+03  0.50400001928E-02 0.  1.
    10030    2    1    2    0    0  0.00000000000E+00  0.00000000000E+00  0.85072260492E+03  0.19558666536E+04  0.17611602471E+04 0.  0.
        3    1    3    3  502    0 -0.30246870695E+03  0.40040552869E+03  0.12289690242E+04  0.13274700670E+04  0.10100000352E+00 0. -1.
       -3    1    3    3    0  502  0.30246870695E+03 -0.40040552869E+03 -0.37824641929E+03  0.62839658656E+03  0.10100000352E+00 0.  1.
</event>
<event>
 5   0  0.9797278E-06  0.1612775E+04  0.7818609E-02  0.8812738E-01
        2   -1    0    0  501    0  0.00000000000E+00  0.00000000000E+00  0.13829447716E+04  0.13829447716E+04  0.25500000920E-02 0. -1.
       -2   -1    0    0    0  501  0.00000000000E+00  0.00000000000E+00 -0.47020029844E+03  0.47020029845E+03  0.25500000920E-02 0.  1.
    10030    2    1    2    0    0  0.00000000000E+00  0.00000000000E+00  0.91274447314E+03  0.18531450700E+04  0.16127753028E+04 0.  0.
        1    1    3    3  502    0  0.24233251457E+03  0.75340202703E+03  0.27865535222E+03  0.83904020601E+03  0.50400001928E-02 0. -1.
       -1    1    3    3    0  502 -0.24233251457E+03 -0.75340202703E+03  0.63408912092E+03  0.10141048640E+04  0.50400001928E-02 0.  1.
</event>
<event>
 5   0  0.3848286E-06  0.2999812E+04  0.7818609E-02  0.8243784E-01
        1   -1    0    0  501    0  0.00000000000E+00  0.00000000000E+00  0.20321885789E+04  0.20321885789E+04  0.50400001928E-02 0.  1.
       -1   -1    0    0    0  501  0.00000000000E+00  0.00000000000E+00 -0.11070422364E+04  0.11070422364E+04  0.50400001928E-02 0. -1.
    10030    2    1    2    0    0  0.00000000000E+00  0.00000000000E+00  0.92514634251E+03  0.31392308153E+04  0.29998123869E+04 0.  0.
        2    1    3    3  502    0 -0.60774120486E+03 -0.30100520332E+03  0.18625703822E+04  0.19822012847E+04  0.25500000920E-02 0.  1.
       -2    1    3    3    0  502  0.60774120486E+03  0.30100520332E+03 -0.93742403966E+03  0.11570295306E+04  0.25500000920E-02 0. -1.
</event>
<event>
 5   0  0.1119100E-05  0.3078329E+04  0.7818609E-02  0.8221711E-01
        2   -1    0    0  501    0  0.00000000000E+00  0.00000000000E+00  0.13181216115E+04  0.13181216115E+04  0.25500000920E-02 0.  1.
       -2   -1    0    0    0  501  0.00000000000E+00  0.00000000000E+00 -0.17972753779E+04  0.17972753779E+04  0.25500000920E-02 0. -1.
    10030    2    1    2    0    0  0.00000000000E+00  0.00000000000E+00 -0.47915376642E+03  0.31153969894E+04  0.30783291036E+04 0.  0.
        2    1    3    3  502    0 -0.52868558946E+03  0.13941053612E+04  0.14710949285E+03  0.14982254214E+04  0.25500000920E-02 0.  1.
       -2    1    3    3    0  502  0.52868558946E+03 -0.13941053612E+04 -0.62626325927E+03  0.16171715680E+04  0.25500000920E-02 0. -1.
</event>
<event>
 5   0  0.3807334E-06  0.2672191E+04  0.7818609E-02  0.8344085E-01
        1   -1    0    0  501    0  0.00000000000E+00  0.00000000000E+00  0.13877190030E+04  0.13877190030E+04  0.50400001928E-02 0. -1.
       -1   -1    0    0    0  501  0.00000000000E+00  0.00000000000E+00 -0.12863924503E+04  0.12863924503E+04  0.50400001928E-02 0.  1.
    10030    2    1    2    0    0  0.00000000000E+00  0.00000000000E+00  0.10132655264E+03  0.26741114533E+04  0.26721910475E+04 0.  0.
        4    1    3    3  502    0  0.36319541141E+03 -0.71286645059E+03 -0.10201805822E+04  0.12964796630E+04  0.12699999809E+01 0.  1.
       -4    1    3    3    0  502 -0.36319541141E+03  0.71286645059E+03  0.11215071349E+04  0.13776317903E+04  0.12699999809E+01 0. -1.
</event>
<event>
 5   0  0.1001961E-05  0.3073581E+04  0.7818609E-02  0.8223026E-01
       -2   -1    0    0    0  501  0.00000000000E+00  0.00000000000E+00  0.13042622334E+04  0.13042622334E+04  0.25500000920E-02 0. -1.
        2   -1    0    0  501    0  0.00000000000E+00  0.00000000000E+00 -0.18107747108E+04  0.18107747108E+04  0.25500000920E-02 0.  1.
    10030    2    1    2    0    0  0.00000000000E+00  0.00000000000E+00 -0.50651247741E+03  0.31150369442E+04  0.30735810179E+04 0.  0.
        5    1    3    3  502    0 -0.74244778425E+03  0.40892387978E+03  0.10459290289E+04  0.13462678319E+04  0.46999998093E+01 0. -1.
       -5    1    3    3    0  502  0.74244778425E+03 -0.40892387978E+03 -0.15524415063E+04  0.17687691122E+04  0.46999998093E+01 0.  1.
</event>
<event>
 5   0  0.3807334E-06  0.1738982E+04  0.7818609E-02  0.8739438E-01
        1   -1    0    0  501    0  0.00000000000E+00  0.00000000000E+00  0.22803657493E+04  0.22803657493E+04  0.50400001928E-02 0.  1.
       -1   -1    0    0    0  501  0.00000000000E+00  0.00000000000E+00 -0.33153224419E+03  0.33153224423E+03  0.50400001928E-02 0. -1.
    10030    2    1    2    0    0  0.00000000000E+00  0.00000000000E+00  0.19488335051E+04  0.26118979935E+04  0.17389822017E+04 0.  0.
        4    1    3    3  502    0  0.33959611181E+03  0.75850452374E+03  0.59043356251E+03  0.10194449648E+04  0.12699999809E+01 0.  1.
       -4    1    3    3    0  502 -0.33959611181E+03 -0.75850452374E+03  0.13583999426E+04  0.15924530287E+04  0.12699999809E+01 0. -1.
</event>
<event>
 5   0  0.9797278E-06  0.3253701E+04  0.7818609E-02  0.8174777E-01
        2   -1    0    0  501    0  0.00000000000E+00  0.00000000000E+00  0.11363828924E+04  0.11363828924E+04  0.25500000920E-02 0. -1.
       -2   -1    0    0    0  501  0.00000000000E+00  0.00000000000E+00 -0.23290058285E+04  0.23290058285E+04  0.25500000920E-02 0.  1.
    10030    2    1    2    0    0  0.00000000000E+00  0.00000000000E+00 -0.11926229361E+04  0.34653887210E+04  0.32537008959E+04 0.  0.
        1    1    3    3  502    0 -0.15631600668E+04 -0.44597721386E+03 -0.52665527990E+03  0.17087219942E+04  0.50400001928E-02 0. -1.
       -1    1    3    3    0  502  0.15631600668E+04  0.44597721386E+03 -0.66596765621E+03  0.17566667267E+04  0.50400001928E-02 0.  1.
</event>
<event>
 5   0  0.3848286E-06  0.3045274E+04  0.7818609E-02  0.8230919E-01
       -1   -1    0    0    0  501  0.00000000000E+00  0.00000000000E+00  0.16736758323E+04  0.16736758323E+04  0.50400001928E-02 0. -1.
        1   -1    0    0  501    0  0.00000000000E+00  0.00000000000E+00 -0.13852287714E+04  0.13852287714E+04  0.50400001928E-02 0.  1.
    10030    2    1    2    0    0  0.00000000000E+00  0.00000000000E+00  0.28844706086E+03  0.30589046037E+04  0.30452743173E+04 0.  0.
        2    1    3    3  502    0  0.18260387584E+03 -0.11629148290E+04 -0.82586765880E+03  0.14379751266E+04  0.25500000920E-02 0.  1.
       -2    1    3    3    0  502 -0.18260387584E+03  0.11629148290E+04  0.11143147197E+04  0.16209294770E+04  0.25500000920E-02 0. -1.
</event>
<event>
 5   0  0.3848286E-06  0.2530325E+04  0.7818609E-02  0.8392261E-01
        1   -1    0    0  501    0  0.00000000000E+00  0.00000000000E+00  0.15938212291E+04  0.15938212291E+04  0.50400001928E-02 0. -1.
       -1   -1    0    0    0  501  0.00000000000E+00  0.00000000000E+00 -0.10042754435E+04  0.10042754436E+04  0.50400001928E-02 0.  1.
    10030    2    1    2    0    0  0.00000000000E+00  0.00000000000E+00  0.58954578552E+03  0.25980966726E+04  0.25303245023E+04 0.  0.
        2    1    3    3  502    0 -0.11595712663E+04 -0.28376671493E+03 -0.13538275427E+03  0.12014397864E+04  0.25500000920E-02 0.  1.
       -2    1    3    3    0  502  0.11595712663E+04  0.28376671493E+03  0.72492853980E+03  0.13966568863E+04  0.25500000920E-02 0. -1.
</event>
<event>
 5   0  0.3838525E-06  0.2973166E+04  0.7818609E-02  0.8251435E-01
        1   -1    0    0  501    0  0.00000000000E+00  0.00000000000E+00  0.18373161837E+04  0.18373161838E+04  0.50400001928E-02 0. -1.
       -1   -1    0    0    0  501  0.00000000000E+00  0.00000000000E+00 -0.12028027578E+04  0.12028027578E+04  0.50400001928E-02 0.  1.
    10030    2    1    2    0    0  0.00000000000E+00  0.00000000000E+00  0.63451342595E+03  0.30401189416E+04  0.29731659710E+04 0.  0.
        3    1    3    3  502    0  0.12461219164E+04  0.51543788891E+03 -0.32247825896E+03  0.13865382380E+04  0.10100000352E+00 0.  1.
       -3    1    3    3    0  502 -0.12461219164E+04 -0.51543788891E+03  0.95699168491E+03  0.16535807035E+04  0.10100000352E+00 0. -1.
</event>
<event>
 5   0  0.4139628E-06  0.2454258E+04  0.7818609E-02  0.8419465E-01
       -1   -1    0    0    0  501  0.00000000000E+00  0.00000000000E+00  0.13363500135E+04  0.13363500135E+04  0.50400001928E-02 0.  1.
        1   -1    0    0  501    0  0.00000000000E+00  0.00000000000E+00 -0.11268346441E+04  0.11268346441E+04  0.50400001928E-02 0. -1.
    10030    2    1    2    0    0  0.00000000000E+00  0.00000000000E+00  0.20951536936E+03  0.24631846576E+04  0.24542579261E+04 0.  0.
        5    1    3    3  502    0  0.11127276639E+04  0.31290361355E+03  0.51826582214E+03  0.12667648076E+04  0.46999998093E+01 0.  1.
       -5    1    3    3    0  502 -0.11127276639E+04 -0.31290361355E+03 -0.30875045278E+03  0.11964198500E+04  0.46999998093E+01 0. -1.
</event>
<event>
 5   0  0.3807334E-06  0.1725680E+04  0.7818609E-02  0.8746852E-01
        1   -1    0    0  501    0  0.00000000000E+00  0.00000000000E+00  0.99642323823E+03  0.99642323824E+03  0.50400001928E-02 0. -1.
       -1   -1    0    0    0  501  0.00000000000E+00  0.00000000000E+00 -0.74716525643E+03  0.74716525645E+03  0.50400001928E-02 0.  1.
    10030    2    1    2    0    0  0.00000000000E+00  0.00000000000E+00  0.24925798180E+03  0.17435884947E+04  0.17256799522E+04 0.  0.
        4    1    3    3  502    0  0.58343229955E+03  0.16590375332E+02  0.76669416930E+03  0.96358188591E+03  0.12699999809E+01 0. -1.
       -4    1    3    3    0  502 -0.58343229955E+03 -0.16590375332E+02 -0.51743618750E+03  0.78000660878E+03  0.12699999809E+01 0.  1.
</event>
<event>
 5   0  0.1108153E-05  0.2934072E+04  0.7818609E-02  0.8262812E-01
        2   -1    0    0  501    0  0.00000000000E+00  0.00000000000E+00  0.16607859968E+04  0.16607859968E+04  0.25500000920E-02 0. -1.
       -2   -1    0    0    0  501  0.00000000000E+00  0.00000000000E+00 -0.12958888264E+04  0.12958888264E+04  0.25500000920E-02 0.  1.
    10030    2    1    2    0    0  0.00000000000E+00  0.00000000000E+00  0.36489717048E+03  0.29566748232E+04  0.29340715849E+04 0.  0.
        4    1    3    3  502    0 -0.13077537820E+03  0.14611934267E+04  0.18043982402E+03  0.14780895009E+04  0.12699999809E+01 0. -1.
       -4    1    3    3    0  502  0.13077537820E+03 -0.14611934267E+04  0.18445734646E+03  0.14785853223E+04  0.12699999809E+01 0.  1.
</event>
<event>
 5   0  0.9797278E-06  0.2923599E+04  0.7818609E-02  0.8265890E-01
        2   -1    0    0  501    0  0.00000000000E+00  0.00000000000E+00  0.93105809275E+03  0.93105809275E+03  0.25500000920E-02 0. -1.
       -2   -1    0    0    0  501  0.00000000000E+00  0.00000000000E+00 -0.22950860603E+04  0.22950860603E+04  0.25500000920E-02 0.  1.
    10030    2    1    2    0    0  0.00000000000E+00  0.00000000000E+00 -0.13640279676E+04  0.32261441531E+04  0.29235994596E+04 0.  0.
        1    1    3    3  502    0  0.60568833903E+03 -0.60304833982E+03  0.62659514872E+03  0.10597863674E+04  0.50400001928E-02 0. -1.
       -1    1    3    3    0  502 -0.60568833903E+03  0.60304833982E+03 -0.19906231163E+04  0.21663577856E+04  0.50400001928E-02 0.  1.
</event>
<event>
 5   0  0.1001961E-05  0.2975174E+04  0.7818609E-02  0.8250856E-01
        2   -1    0    0  501    0  0.00000000000E+00  0.00000000000E+00  0.21223556396E+04  0.21223556396E+04  0.25500000920E-02 0.  1.
       -2   -1    0    0    0  501  0.00000000000E+00  0.00000000000E+00 -0.10426690487E+04  0.10426690487E+04  0.25500000920E-02 0. -1.
    10030    2    1    2    0    0  0.00000000000E+00  0.00000000000E+00  0.10796865909E+04  0.31650246883E+04  0.29751736324E+04 0.  0.
        5    1    3    3  502    0 -0.49268076970E+03  0.66012703615E+03  0.18575923766E+04  0.20320368039E+04  0.46999998093E+01 0.  1.
       -5    1    3    3    0  502  0.49268076970E+03 -0.66012703615E+03 -0.77790578572E+03  0.11329878844E+04  0.46999998093E+01 0. -1.
</event>
<event>
 5   0  0.1108153E-05  0.3064208E+04  0.7818609E-02  0.8225630E-01
       -2   -1    0    0    0  501  0.00000000000E+00  0.00000000000E+00  0.14079894530E+04  0.14079894530E+04  0.25500000920E-02 0. -1.
        2   -1    0    0  501    0  0.00000000000E+00  0.00000000000E+00 -0.16671593308E+04  0.16671593308E+04  0.25500000920E-02 0.  1.
    10030    2    1    2    0    0  0.00000000000E+00  0.00000000000E+00 -0.25916987775E+03  0.30751487838E+04  0.30642080570E+04 0.  0.
        4    1    3    3  502    0 -0.25114916761E+03 -0.31642293528E+03  0.13535760515E+04  0.14125753497E+04  0.12699999809E+01 0. -1.
       -4    1    3    3    0  502  0.25114916761E+03  0.31642293528E+03 -0.16127459293E+04  0.16625734341E+04  0.12699999809E+01 0.  1.
</event>
<event>
 5   0  0.3848286E-06  0.3098889E+04  0.7818609E-02  0.8216043E-01
       -1   -1    0    0    0  501  0.00000000000E+00  0.00000000000E+00  0.13125088190E+04  0.13125088190E+04  0.50400001928E-02 0. -1.
        1   -1    0    0  501    0  0.00000000000E+00  0.00000000000E+00 -0.18291517984E+04  0.18291517984E+04  0.50400001928E-02 0.  1.
    10030    2    1    2    0    0  0.00000000000E+00  0.00000000000E+00 -0.51664297945E+03  0.31416606174E+04  0.30988887471E+04 0.  0.
        2    1    3    3  502    0  0.42485344815E+03  0.15198338555E+03 -0.17610687672E+04  0.18179556113E+04  0.25500000920E-02 0.  1.
       -2    1    3    3    0  502 -0.42485344815E+03 -0.15198338555E+03  0.12444257878E+04  0.13237050061E+04  0.25500000920E-02 0. -1.
</event>
<event>
 5   0  0.4250961E-06  0.2994263E+04  0.7818609E-02  0.8245371E-01
       -1   -1    0    0    0  501  0.00000000000E+00  0.00000000000E+00  0.15177285468E+04  0.15177285468E+04  0.50400001928E-02 0.  1.
        1   -1    0    0  501    0  0.00000000000E+00  0.00000000000E+00 -0.14768143904E+04  0.14768143904E+04  0.50400001928E-02 0. -1.
    10030    2    1    2    0    0  0.00000000000E+00  0.00000000000E+00  0.40914156401E+02  0.29945429372E+04  0.29942634211E+04 0.  0.
        1    1    3    3  502    0  0.96652608527E+03 -0.11231498893E+04 -0.19349047610E+03  0.14943483235E+04  0.50400001928E-02 0. -1.
       -1    1    3    3    0  502 -0.96652608527E+03  0.11231498893E+04  0.23440463250E+03  0.15001946138E+04  0.50400001928E-02 0.  1.
</event>
<event>
 5   0  0.1001961E-05  0.3061505E+04  0.7818609E-02  0.8226383E-01
       -2   -1    0    0    0  501  0.00000000000E+00  0.00000000000E+00  0.90482663845E+03  0.90482663845E+03  0.25500000920E-02 0.  1.
        2   -1    0    0  501    0  0.00000000000E+00  0.00000000000E+00 -0.25896707744E+04  0.25896707744E+04  0.25500000920E-02 0. -1.
    10030    2    1    2    0    0  0.00000000000E+00  0.00000000000E+00 -0.16848441359E+04  0.34944974128E+04  0.30615049250E+04 0.  0.
        5    1    3    3  502    0  0.54591205461E+02  0.12846477268E+04 -0.17904843358E+04  0.22043493889E+04  0.46999998093E+01 0. -1.
       -5    1    3    3    0  502 -0.54591205461E+02 -0.12846477268E+04  0.10564019989E+03  0.12901480239E+04  0.46999998093E+01 0.  1.
</event>
<event>
 5   0  0.9797278E-06  0.2911818E+04  0.7818609E-02  0.8269370E-01
       -2   -1    0    0    0  501  0.00000000000E+00  0.00000000000E+00  0.12638993319E+04  0.12638993319E+04  0.25500000920E-02 0. -1.
        2   -1    0    0  501    0  0.00000000000E+00  0.00000000000E+00 -0.16770889619E+04  0.16770889619E+04  0.25500000920E-02 0.  1.
    10030    2    1    2    0    0  0.00000000000E+00  0.00000000000E+00 -0.41318963003E+03  0.29409882938E+04  0.29118184136E+04 0.  0.
        1    1    3    3  502    0 -0.95804384885E+02 -0.81693264430E+03 -0.14199259911E+04  0.16409592456E+04  0.50400001928E-02 0.  1.
       -1    1    3    3    0  502  0.95804384885E+02  0.81693264430E+03  0.10067363610E+04  0.13000290482E+04  0.50400001928E-02 0. -1.
</event>
<event>
 5   0  0.4139628E-06  0.3063048E+04  0.7818609E-02  0.8225953E-01
        1   -1    0    0  501    0  0.00000000000E+00  0.00000000000E+00  0.16892672201E+04  0.16892672201E+04  0.50400001928E-02 0. -1.
       -1   -1    0    0    0  501  0.00000000000E+00  0.00000000000E+00 -0.13885110290E+04  0.13885110291E+04  0.50400001928E-02 0.  1.
    10030    2    1    2    0    0  0.00000000000E+00  0.00000000000E+00  0.30075619102E+03  0.30777782491E+04  0.30630482635E+04 0.  0.
        5    1    3    3  502    0  0.13239284042E+04  0.76840977118E+03  0.19860976204E+03  0.15436022556E+04  0.46999998093E+01 0.  1.
       -5    1    3    3    0  502 -0.13239284042E+04 -0.76840977118E+03  0.10214642897E+03  0.15341759935E+04  0.46999998093E+01 0. -1.
</event>
<event>
 5   0  0.3838525E-06  0.3081229E+04  0.7818609E-02  0.8220908E-01
        1   -1    0    0  501    0  0.00000000000E+00  0.00000000000E+00  0.23975159064E+04  0.23975159065E+04  0.50400001928E-02 0.  1.
       -1   -1    0    0    0  501  0.00000000000E+00  0.00000000000E+00 -0.98998033459E+03  0.98998033461E+03  0.50400001928E-02 0. -1.
    10030    2    1    2    0    0  0.00000000000E+00  0.00000000000E+00  0.14075355719E+04  0.33874962411E+04  0.30812293646E+04 0.  0.
        3    1    3    3  502    0 -0.80388183620E+03 -0.84931557224E+03 -0.39888508480E+03  0.12355857999E+04  0.10100000352E+00 0. -1.
       -3    1    3    3    0  502  0.80388183620E+03  0.84931557224E+03  0.18064206567E+04  0.21519104412E+04  0.10100000352E+00 0.  1.
</event>
<event>
 5   0  0.1001961E-05  0.2594465E+04  0.7818609E-02  0.8370084E-01
        2   -1    0    0  501    0  0.00000000000E+00  0.00000000000E+00  0.28200344778E+04  0.28200344778E+04  0.25500000920E-02 0. -1.
       -2   -1    0    0    0  501  0.00000000000E+00  0.00000000000E+00 -0.59673470884E+03  0.59673470885E+03  0.25500000920E-02 0.  1.
    10030    2    1    2    0    0  0.00000000000E+00  0.00000000000E+00  0.22232997690E+04  0.34167691867E+04  0.25944652266E+04 0.  0.
        5    1    3    3  502    0 -0.80395509907E+03  0.72799111712E+03  0.17441810439E+03  0.10985256634E+04  0.46999998093E+01 0.  1.
       -5    1    3    3    0  502  0.80395509907E+03 -0.72799111712E+03  0.20488816646E+04  0.23182435233E+04  0.46999998093E+01 0. -1.
</event>
<event>
 5   0  0.3838525E-06  0.3196187E+04  0.7818609E-02  0.8189825E-01
       -1   -1    0    0    0  501  0.00000000000E+00  0.00000000000E+00  0.28898051311E+04  0.28898051311E+04  0.50400001928E-02 0.  1.
        1   -1    0    0  501    0  0.00000000000E+00  0.00000000000E+00 -0.88376286728E+03  0.88376286730E+03  0.50400001928E-02 0. -1.
    10030    2    1    2    0    0  0.00000000000E+00  0.00000000000E+00  0.20060422638E+04  0.37735679984E+04  0.31961867709E+04 0.  0.
        3    1    3    3  502    0 -0.12003437755E+04  0.96150191326E+03  0.49030035690E+03  0.16142197988E+04  0.10100000352E+00 0.  1.
       -3    1    3    3    0  502  0.12003437755E+04 -0.96150191326E+03  0.15157419069E+04  0.21593481996E+04  0.10100000352E+00 0. -1.
</event>
<event>
 5   0  0.1001961E-05  0.2345947E+04  0.7818609E-02  0.8460022E-01
       -2   -1    0    0    0  501  0.00000000000E+00  0.00000000000E+00  0.65073642276E+03  0.65073642277E+03  0.25500000920E-02 0. -1.
        2   -1    0    0  501    0  0.00000000000E+00  0.00000000000E+00 -0.21143222598E+04  0.21143222598E+04  0.25500000920E-02 0.  1.
    10030    2    1    2    0    0  0.00000000000E+00  0.00000000000E+00 -0.14635858370E+04  0.27650586826E+04  0.23459467206E+04 0.  0.
        5    1    3    3  502    0  0.86938894016E+03  0.77776372166E+03 -0.58700128715E+03  0.13058890217E+04  0.46999998093E+01 0.  1.
       -5    1    3    3    0  502 -0.86938894016E+03 -0.77776372166E+03 -0.87658454989E+03  0.14591696608E+04  0.46999998093E+01 0. -1.
</event>
<event>
 5   0  0.3848286E-06  0.2724733E+04  0.7818609E-02  0.8327024E-01
        1   -1    0    0  501    0  0.00000000000E+00  0.00000000000E+00  0.14868401712E+04  0.14868401712E+04  0.50400001928E-02 0. -1.
       -1   -1    0    0    0  501  0.00000000000E+00  0.00000000000E+00 -0.12483130958E+04  0.12483130958E+04  0.50400001928E-02 0.  1.
    10030    2    1    2    0    0  0.00000000000E+00  0.00000000000E+00  0.23852707537E+03  0.27351532670E+04  0.27247326893E+04 0.  0.
        2    1    3    3  502    0  0.88313442652E+03 -0.43774593654E+03 -0.82480873915E+03  0.12852460373E+04  0.25500000920E-02 0.  1.
       -2    1    3    3    0  502 -0.88313442652E+03  0.43774593654E+03  0.10633358145E+04  0.14499072297E+04  0.25500000920E-02 0. -1.
</event>
<event>
 5   0  0.9797278E-06  0.2914972E+04  0.7818609E-02  0.8268437E-01
        2   -1    0    0  501    0  0.00000000000E+00  0.00000000000E+00  0.15841943887E+04  0.15841943887E+04  0.25500000920E-02 0. -1.
       -2   -1    0    0    0  501  0.00000000000E+00  0.00000000000E+00 -0.13409124814E+04  0.13409124814E+04  0.25500000920E-02 0.  1.
    10030    2    1    2    0    0  0.00000000000E+00  0.00000000000E+00  0.24328190731E+03  0.29251068700E+04  0.29149724038E+04 0.  0.
        1    1    3    3  502    0 -0.43685089114E+03 -0.13705547233E+03  0.15101579768E+04  0.15780367608E+04  0.50400001928E-02 0. -1.
       -1    1    3    3    0  502  0.43685089114E+03  0.13705547233E+03 -0.12668760695E+04  0.13470701092E+04  0.50400001928E-02 0.  1.
</event>
<event>
 5   0  0.3848286E-06  0.2591459E+04  0.7818609E-02  0.8371108E-01
        1   -1    0    0  501    0  0.00000000000E+00  0.00000000000E+00  0.11231917343E+04  0.11231917343E+04  0.50400001928E-02 0.  1.
       -1   -1    0    0    0  501  0.00000000000E+00  0.00000000000E+00 -0.14947715033E+04  0.14947715033E+04  0.50400001928E-02 0. -1.
    10030    2    1    2    0    0  0.00000000000E+00  0.00000000000E+00 -0.37157976898E+03  0.26179632376E+04  0.25914590463E+04 0.  0.
        2    1    3    3  502    0 -0.10062436459E+04  0.64855913113E+03  0.31502196362E+03  0.12378990505E+04  0.25500000920E-02 0.  1.
       -2    1    3    3    0  502  0.10062436459E+04 -0.64855913113E+03 -0.68660173260E+03  0.13800641872E+04  0.25500000920E-02 0. -1.
</event>
<event>
 5   0  0.1108153E-05  0.3161446E+04  0.7818609E-02  0.8199074E-01
       -2   -1    0    0    0  501  0.00000000000E+00  0.00000000000E+00  0.15180410550E+04  0.15180410550E+04  0.25500000920E-02 0.  1.
        2   -1    0    0  501    0  0.00000000000E+00  0.00000000000E+00 -0.16459933724E+04  0.16459933724E+04  0.25500000920E-02 0. -1.
    10030    2    1    2    0    0  0.00000000000E+00  0.00000000000E+00 -0.12795231741E+03  0.31640344273E+04  0.31614461979E+04 0.  0.
        4    1    3    3  502    0 -0.14483405041E+04 -0.31557480697E+03  0.48547806475E+03  0.15597974993E+04  0.12699999809E+01 0.  1.
       -4    1    3    3    0  502  0.14483405041E+04  0.31557480697E+03 -0.61343038216E+03  0.16042369280E+04  0.12699999809E+01 0. -1.
</event>
<event>
 5   0  0.3807334E-06  0.2060537E+04  0.7818609E-02  0.8578829E-01
       -1   -1    0    0    0  501  0.00000000000E+00  0.00000000000E+00  0.10560253604E+04  0.10560253604E+04  0.50400001928E-02 0.  1.
        1   -1    0    0  501    0  0.00000000000E+00  0.00000000000E+00 -0.10051398421E+04  0.10051398421E+04  0.50400001928E-02 0. -1.
    10030    2    1    2    0    0  0.00000000000E+00  0.00000000000E+00  0.50885518322E+02  0.20611652025E+04  0.20605369825E+04 0.  0.
        4    1    3    3  502    0 -0.12519029925E+03 -0.96545172476E+03  0.36271303193E+03  0.10389090433E+04  0.12699999809E+01 0. -1.
       -4    1    3    3    0  502  0.12519029925E+03  0.96545172476E+03 -0.31182751361E+03  0.10222561592E+04  0.12699999809E+01 0.  1.
</event>
<event>
 5   0  0.3493125E-06  0.3096442E+04  0.7818609E-02  0.8216715E-01
       -4   -1    0    0    0  501  0.00000000000E+00  0.00000000000E+00  0.19563448816E+04  0.19563452939E+04  0.12699999809E+01 0.  1.
        4   -1    0    0  501    0  0.00000000000E+00  0.00000000000E+00 -0.12252370773E+04  0.12252377355E+04  0.12699999809E+01 0. -1.
    10030    2    1    2    0    0  0.00000000000E+00  0.00000000000E+00  0.73110780431E+03  0.31815830294E+04  0.30964418211E+04 0.  0.
        5    1    3    3  502    0 -0.72226153140E+03  0.14082460394E+03  0.17651657519E+04  0.19124135302E+04  0.46999998093E+01 0.  1.
       -5    1    3    3    0  502  0.72226153140E+03 -0.14082460394E+03 -0.10340579476E+04  0.12691694992E+04  0.46999998093E+01 0. -1.
</event>
<event>
 5   0  0.4139628E-06  0.3106600E+04  0.7818609E-02  0.8213929E-01
        1   -1    0    0  501    0  0.00000000000E+00  0.00000000000E+00  0.22252805262E+04  0.22252805262E+04  0.50400001928E-02 0.  1.
       -1   -1    0    0    0  501  0.00000000000E+00  0.00000000000E+00 -0.10842412077E+04  0.10842412077E+04  0.50400001928E-02 0. -1.
    10030    2    1    2    0    0  0.00000000000E+00  0.00000000000E+00  0.11410393185E+04  0.33095217339E+04  0.31065999711E+04 0.  0.
        5    1    3    3  502    0 -0.81336341360E+02 -0.19063881699E+02  0.22228779476E+04  0.22244521779E+04  0.46999998093E+01 0.  1.
       -5    1    3    3    0  502  0.81336341360E+02  0.19063881699E+02 -0.10818386291E+04  0.10850695560E+04  0.46999998093E+01 0. -1.
</event>
<event>
 5   0  0.3848286E-06  0.3170510E+04  0.7818609E-02  0.8196649E-01
       -1   -1    0    0    0  501  0.00000000000E+00  0.00000000000E+00  0.18152912518E+04  0.18152912518E+04  0.50400001928E-02 0. -1.
        1   -1    0    0  501    0  0.00000000000E+00  0.00000000000E+00 -0.13843696202E+04  0.13843696202E+04  0.50400001928E-02 0.  1.
    10030    2    1    2    0    0  0.00000000000E+00  0.00000000000E+00  0.43092163160E+03  0.31996608721E+04  0.31705104074E+04 0.  0.
        2    1    3    3  502    0  0.10029338151E+03 -0.15718120483E+04  0.33855803194E+02  0.15753723664E+04  0.25500000920E-02 0.  1.
       -2    1    3    3    0  502 -0.10029338151E+03  0.15718120483E+04  0.39706582841E+03  0.16242885056E+04  0.25500000920E-02 0. -1.
</event>
<event>
 5   0  0.3838525E-06  0.3215201E+04  0.7818609E-02  0.8184814E-01
       -1   -1    0    0    0  501  0.00000000000E+00  0.00000000000E+00  0.20378013270E+04  0.20378013270E+04  0.50400001928E-02 0.  1.
        1   -1    0    0  501    0  0.00000000000E+00  0.00000000000E+00 -0.12682195084E+04  0.12682195084E+04  0.50400001928E-02 0. -1.
    10030    2    1    2    0    0  0.00000000000E+00  0.00000000000E+00  0.76958181861E+03  0.33060208354E+04  0.32152010184E+04 0.  0.
        3    1    3    3  502    0  0.13115431926E+03  0.50511201056E+03  0.19482809075E+04  0.20169625935E+04  0.10100000352E+00 0.  1.
       -3    1    3    3    0  502 -0.13115431926E+03 -0.50511201056E+03 -0.11786990889E+04  0.12890582419E+04  0.10100000352E+00 0. -1.
</event>
<event>
 5   0  0.4139628E-06  0.3084549E+04  0.7818609E-02  0.8219991E-01
       -1   -1    0    0    0  501  0.00000000000E+00  0.00000000000E+00  0.19584174364E+04  0.19584174364E+04  0.50400001928E-02 0. -1.
        1   -1    0    0  501    0  0.00000000000E+00  0.00000000000E+00 -0.12145571779E+04  0.12145571779E+04  0.50400001928E-02 0.  1.
    10030    2    1    2    0    0  0.00000000000E+00  0.00000000000E+00  0.74386025850E+03  0.31729746143E+04  0.30845485600E+04 0.  0.
        5    1    3    3  502    0  0.12166592262E+04 -0.16892747205E+03 -0.58743209920E+03  0.13615780274E+04  0.46999998093E+01 0.  1.
       -5    1    3    3    0  502 -0.12166592262E+04  0.16892747205E+03  0.13312923577E+04  0.18113965869E+04  0.46999998093E+01 0. -1.
</event>
<event>
 5   0  0.4139628E-06  0.3354272E+04  0.7818609E-02  0.8149221E-01
        1   -1    0    0  501    0  0.00000000000E+00  0.00000000000E+00  0.20148279788E+04  0.20148279788E+04  0.50400001928E-02 0.  1.
       -1   -1    0    0    0  501  0.00000000000E+00  0.00000000000E+00 -0.13960425723E+04  0.13960425723E+04  0.50400001928E-02 0. -1.
    10030    2    1    2    0    0  0.00000000000E+00  0.00000000000E+00  0.61878540651E+03  0.34108705511E+04  0.33542722813E+04 0.  0.
        5    1    3    3  502    0  0.63878051169E+03  0.87997272820E+03  0.16077976008E+04  0.19409862853E+04  0.46999998093E+01 0.  1.
       -5    1    3    3    0  502 -0.63878051169E+03 -0.87997272820E+03 -0.98901219432E+03  0.14698842658E+04  0.46999998093E+01 0. -1.
</event>
<event>
 5   0  0.4139628E-06  0.3161237E+04  0.7818609E-02  0.8199130E-01
       -1   -1    0    0    0  501  0.00000000000E+00  0.00000000000E+00  0.14040258358E+04  0.14040258359E+04  0.50400001928E-02 0. -1.
        1   -1    0    0  501    0  0.00000000000E+00  0.00000000000E+00 -0.17794226472E+04  0.17794226472E+04  0.50400001928E-02 0.  1.
    10030    2    1    2    0    0  0.00000000000E+00  0.00000000000E+00 -0.37539681140E+03  0.31834484831E+04  0.31612373335E+04 0.  0.
        5    1    3    3  502    0 -0.36825656834E+03 -0.93509564677E+03 -0.14162357822E+04  0.17365951312E+04  0.46999998093E+01 0.  1.
       -5    1    3    3    0  502  0.36825656834E+03  0.93509564677E+03  0.10408389708E+04  0.14468533519E+04  0.46999998093E+01 0. -1.
</event>
<event>
 5   0  0.1108153E-05  0.2607867E+04  0.7818609E-02  0.8365534E-01
        2   -1    0    0  501    0  0.00000000000E+00  0.00000000000E+00  0.17140408640E+04  0.17140408640E+04  0.25500000920E-02 0.  1.
       -2   -1    0    0    0  501  0.00000000000E+00  0.00000000000E+00 -0.99194999661E+03  0.99194999662E+03  0.25500000920E-02 0. -1.
    10030    2    1    2    0    0  0.00000000000E+00  0.00000000000E+00  0.72209086742E+03  0.27059908606E+04  0.26078671970E+04 0.  0.
        4    1    3    3  502    0  0.62880805263E+03  0.10862149319E+03  0.15409512475E+04  0.16678520786E+04  0.12699999809E+01 0.  1.
       -4    1    3    3    0  502 -0.62880805263E+03 -0.10862149319E+03 -0.81886038011E+03  0.10381387821E+04  0.12699999809E+01 0. -1.
</event>
<event>
 5   0  0.3807334E-06  0.1530356E+04  0.7818609E-02  0.8864514E-01
        1   -1    0    0  501    0  0.00000000000E+00  0.00000000000E+00  0.10365668252E+04  0.10365668253E+04  0.50400001928E-02 0.  1.
       -1   -1    0    0    0  501  0.00000000000E+00  0.00000000000E+00 -0.56484302739E+03  0.56484302741E+03  0.50400001928E-02 0. -1.
    10030    2    1    2    0    0  0.00000000000E+00  0.00000000000E+00  0.47172379786E+03  0.16014098527E+04  0.15303562248E+04 0.  0.
        4    1    3    3  502    0 -0.46170913058E+03  0.53901245642E+03 -0.63398966391E+02  0.71255230775E+03  0.12699999809E+01 0.  1.
       -4    1    3    3    0  502  0.46170913058E+03 -0.53901245642E+03  0.53512276425E+03  0.88885754492E+03  0.12699999809E+01 0. -1.
</event>
<event>
 5   0  0.1007567E-05  0.1739369E+04  0.7818609E-02  0.8739224E-01
        2   -1    0    0  501    0  0.00000000000E+00  0.00000000000E+00  0.18414565214E+04  0.18414565214E+04  0.25500000920E-02 0.  1.
       -2   -1    0    0    0  501  0.00000000000E+00  0.00000000000E+00 -0.41073519192E+03  0.41073519193E+03  0.25500000920E-02 0. -1.
    10030    2    1    2    0    0  0.00000000000E+00  0.00000000000E+00  0.14307213295E+04  0.22521917134E+04  0.17393688485E+04 0.  0.
        3    1    3    3  502    0 -0.34671990431E+03 -0.17644283768E+02 -0.31712126582E+03  0.47020412613E+03  0.10100000352E+00 0. -1.
       -3    1    3    3    0  502  0.34671990431E+03  0.17644283768E+02  0.17478425953E+04  0.17819875872E+04  0.10100000352E+00 0.  1.
</event>
<event>
 5   0  0.9797278E-06  0.3113285E+04  0.7818609E-02  0.8212101E-01
        2   -1    0    0  501    0  0.00000000000E+00  0.00000000000E+00  0.24102408490E+04  0.24102408490E+04  0.25500000920E-02 0.  1.
       -2   -1    0    0    0  501  0.00000000000E+00  0.00000000000E+00 -0.10053500560E+04  0.10053500560E+04  0.25500000920E-02 0. -1.
    10030    2    1    2    0    0  0.00000000000E+00  0.00000000000E+00  0.14048907930E+04  0.34155909049E+04  0.31132849355E+04 0.  0.
        1    1    3    3  502    0  0.72222808325E+03  0.28973940992E+03 -0.77663902347E+03  0.10994228043E+04  0.50400001928E-02 0. -1.
       -1    1    3    3    0  502 -0.72222808325E+03 -0.28973940992E+03  0.21815298165E+04  0.23161681006E+04  0.50400001928E-02 0.  1.
</event>
<event>
 5   0  0.3807334E-06  0.3166258E+04  0.7818609E-02  0.8197786E-01
       -1   -1    0    0    0  501  0.00000000000E+00  0.00000000000E+00  0.11481909864E+04  0.11481909864E+04  0.50400001928E-02 0. -1.
        1   -1    0    0  501    0  0.00000000000E+00  0.00000000000E+00 -0.21828221077E+04  0.21828221078E+04  0.50400001928E-02 0.  1.
    10030    2    1    2    0    0  0.00000000000E+00  0.00000000000E+00 -0.10346311213E+04  0.33310130942E+04  0.31662575190E+04 0.  0.
        4    1    3    3  502    0 -0.14012235783E+04  0.16597112380E+03 -0.12725279035E+04  0.19000796848E+04  0.12699999809E+01 0.  1.
       -4    1    3    3    0  502  0.14012235783E+04 -0.16597112380E+03  0.23789678218E+03  0.14309334094E+04  0.12699999809E+01 0. -1.
</event>
<event>
 5   0  0.9797278E-06  0.1705513E+04  0.7818609E-02  0.8758226E-01
        2   -1    0    0  501    0  0.00000000000E+00  0.00000000000E+00  0.94282410898E+03  0.94282410898E+03  0.25500000920E-02 0.  1.
       -2   -1    0    0    0  501  0.00000000000E+00  0.00000000000E+00 -0.77129345211E+03  0.77129345211E+03  0.25500000920E-02 0. -1.
    10030    2    1    2    0    0  0.00000000000E+00  0.00000000000E+00  0.17153065687E+03  0.17141175611E+04  0.17055134848E+04 0.  0.
        1    1    3    3  502    0  0.38604387366E+03 -0.26890559282E+03  0.80058752340E+03  0.92859058410E+03  0.50400001928E-02 0.  1.
       -1    1    3    3    0  502 -0.38604387366E+03  0.26890559282E+03 -0.62905686653E+03  0.78552697699E+03  0.50400001928E-02 0. -1.
</event>
<event>
 5   0  0.1007567E-05  0.3078905E+04  0.7818609E-02  0.8221551E-01
       -2   -1    0    0    0  501  0.00000000000E+00  0.00000000000E+00  0.20100484463E+04  0.20100484463E+04  0.25500000920E-02 0. -1.
        2   -1    0    0  501    0  0.00000000000E+00  0.00000000000E+00 -0.11790334454E+04  0.11790334454E+04  0.25500000920E-02 0.  1.
    10030    2    1    2    0    0  0.00000000000E+00  0.00000000000E+00  0.83101500098E+03  0.31890818917E+04  0.30789052243E+04 0.  0.
        3    1    3    3  502    0 -0.50120715309E+03 -0.16259611131E+03 -0.10827209203E+04  0.12041306852E+04  0.10100000352E+00 0.  1.
       -3    1    3    3    0  502  0.50120715309E+03  0.16259611131E+03  0.19137359212E+04  0.19849512065E+04  0.10100000352E+00 0. -1.
</event>
<event>
 5   0  0.3848286E-06  0.3161718E+04  0.7818609E-02  0.8199001E-01
       -1   -1    0    0    0  501  0.00000000000E+00  0.00000000000E+00  0.12216185890E+04  0.12216185890E+04  0.50400001928E-02 0. -1.
        1   -1    0    0  501    0  0.00000000000E+00  0.00000000000E+00 -0.20457410198E+04  0.20457410198E+04  0.50400001928E-02 0.  1.
    10030    2    1    2    0    0  0.00000000000E+00  0.00000000000E+00 -0.82412243073E+03  0.32673596088E+04  0.31617180507E+04 0.  0.
        2    1    3    3  502    0  0.28263879889E+03 -0.13942010648E+03 -0.20129481209E+04  0.20374697038E+04  0.25500000920E-02 0.  1.
       -2    1    3    3    0  502 -0.28263879889E+03  0.13942010648E+03  0.11888256901E+04  0.12298899049E+04  0.25500000920E-02 0. -1.
</event>
<event>
 5   0  0.1007567E-05  0.2077455E+04  0.7818609E-02  0.8571240E-01
       -2   -1    0    0    0  501  0.00000000000E+00  0.00000000000E+00  0.81883405861E+03  0.81883405861E+03  0.25500000920E-02 0.  1.
        2   -1    0    0  501    0  0.00000000000E+00  0.00000000000E+00 -0.13176723048E+04  0.13176723048E+04  0.25500000920E-02 0. -1.
    10030    2    1    2    0    0  0.00000000000E+00  0.00000000000E+00 -0.49883824615E+03  0.21365063634E+04  0.20774551367E+04 0.  0.
        3    1    3    3  502    0 -0.28084149151E+03  0.55447134688E+03  0.60649017091E+03  0.86841277943E+03  0.10100000352E+00 0.  1.
       -3    1    3    3    0  502  0.28084149151E+03 -0.55447134688E+03 -0.11053284171E+04  0.12680935839E+04  0.10100000352E+00 0. -1.
</event>
<event>
 5   0  0.3807334E-06  0.3075048E+04  0.7818609E-02  0.8222619E-01
       -1   -1    0    0    0  501  0.00000000000E+00  0.00000000000E+00  0.13560826260E+04  0.13560826260E+04  0.50400001928E-02 0. -1.
        1   -1    0    0  501    0  0.00000000000E+00  0.00000000000E+00 -0.17432414189E+04  0.17432414189E+04  0.50400001928E-02 0.  1.
    10030    2    1    2    0    0  0.00000000000E+00  0.00000000000E+00 -0.38715879287E+03  0.30993240449E+04  0.30750475776E+04 0.  0.
        4    1    3    3  502    0 -0.11975572475E+04 -0.95694465464E+03 -0.31322356163E+03  0.15646076331E+04  0.12699999809E+01 0.  1.
       -4    1    3    3    0  502  0.11975572475E+04  0.95694465464E+03 -0.73935231244E+02  0.15347164118E+04  0.12699999809E+01 0. -1.
</event>
<event>
 5   0  0.3848286E-06  0.2973132E+04  0.7818609E-02  0.8251445E-01
       -1   -1    0    0    0  501  0.00000000000E+00  0.00000000000E+00  0.11074415675E+04  0.11074415675E+04  0.50400001928E-02 0. -1.
        1   -1    0    0  501    0  0.00000000000E+00  0.00000000000E+00 -0.19954807681E+04  0.19954807681E+04  0.50400001928E-02 0.  1.
    10030    2    1    2    0    0  0.00000000000E+00  0.00000000000E+00 -0.88803920055E+03  0.31029223356E+04  0.29731319175E+04 0.  0.
        2    1    3    3  502    0 -0.14816555565E+04 -0.10046748618E+03 -0.37415361369E+03  0.15314659091E+04  0.25500000920E-02 0.  1.
       -2    1    3    3    0  502  0.14816555565E+04  0.10046748618E+03 -0.51388558685E+03  0.15714564265E+04  0.25500000920E-02 0. -1.
</event>
<event>
 5   0  0.3807334E-06  0.1846574E+04  0.7818609E-02  0.8681917E-01
        1   -1    0    0  501    0  0.00000000000E+00  0.00000000000E+00  0.94134806022E+03  0.94134806023E+03  0.50400001928E-02 0.  1.
       -1   -1    0    0    0  501  0.00000000000E+00  0.00000000000E+00 -0.90557221876E+03  0.90557221877E+03  0.50400001928E-02 0. -1.
    10030    2    1    2    0    0  0.00000000000E+00  0.00000000000E+00  0.35775841461E+02  0.18469202790E+04  0.18465737478E+04 0.  0.
        4    1    3    3  502    0  0.32180647446E+03 -0.78639171595E+03 -0.34340791325E+03  0.91646164443E+03  0.12699999809E+01 0. -1.
       -4    1    3    3    0  502 -0.32180647446E+03  0.78639171595E+03  0.37918375471E+03  0.93045863458E+03  0.12699999809E+01 0.  1.
</event>
<event>
 5   0  0.9797278E-06  0.3046105E+04  0.7818609E-02  0.8230686E-01
        2   -1    0    0  501    0  0.00000000000E+00  0.00000000000E+00  0.21073365549E+04  0.21073365549E+04  0.25500000920E-02 0.  1.
       -2   -1    0    0    0  501  0.00000000000E+00  0.00000000000E+00 -0.11007683007E+04  0.11007683007E+04  0.25500000920E-02 0. -1.
    10030    2    1    2    0    0  0.00000000000E+00  0.00000000000E+00  0.10065682542E+04  0.32081048556E+04  0.30461052369E+04 0.  0.
        1    1    3    3  502    0  0.10083215962E+04 -0.64136271571E+03  0.14977643688E+04  0.19160784637E+04  0.50400001928E-02 0.  1.
       -1    1    3    3    0  502 -0.10083215962E+04  0.64136271571E+03 -0.49119611455E+03  0.12920263919E+04  0.50400001928E-02 0. -1.
</event>
<event>
 5   0  0.4250961E-06  0.2647456E+04  0.7818609E-02  0.8352258E-01
        1   -1    0    0  501    0  0.00000000000E+00  0.00000000000E+00  0.17219163558E+04  0.17219163558E+04  0.50400001928E-02 0.  1.
       -1   -1    0    0    0  501  0.00000000000E+00  0.00000000000E+00 -0.10176196732E+04  0.10176196733E+04  0.50400001928E-02 0. -1.
    10030    2    1    2    0    0  0.00000000000E+00  0.00000000000E+00  0.70429668254E+03  0.27395360290E+04  0.26474561068E+04 0.  0.
        1    1    3    3  502    0  0.33226136950E+03  0.12143894877E+04  0.77516544897E+03  0.14785198405E+04  0.50400001928E-02 0.  1.
       -1    1    3    3    0  502 -0.33226136950E+03 -0.12143894877E+04 -0.70868766436E+02  0.12610161885E+04  0.50400001928E-02 0. -1.
</event>
<event>
 5   0  0.3807334E-06  0.3119990E+04  0.7818609E-02  0.8210273E-01
        1   -1    0    0  501    0  0.00000000000E+00  0.00000000000E+00  0.11559268980E+04  0.11559268980E+04  0.50400001928E-02 0. -1.
       -1   -1    0    0    0  501  0.00000000000E+00  0.00000000000E+00 -0.21053101341E+04  0.21053101341E+04  0.50400001928E-02 0.  1.
    10030    2    1    2    0    0  0.00000000000E+00  0.00000000000E+00 -0.94938323606E+03  0.32612370321E+04  0.31199901363E+04 0.  0.
        4    1    3    3  502    0 -0.82939757848E+02 -0.86525633560E+03 -0.18287260632E+04  0.20247933616E+04  0.12699999809E+01 0.  1.
       -4    1    3    3    0  502  0.82939757848E+02  0.86525633560E+03  0.87934282718E+03  0.12364436705E+04  0.12699999809E+01 0. -1.
</event>
<event>
 5   0  0.1119100E-05  0.3036974E+04  0.7818609E-02  0.8233251E-01
       -2   -1    0    0    0  501  0.00000000000E+00  0.00000000000E+00  0.13369192265E+04  0.13369192265E+04  0.25500000920E-02 0.  1.
        2   -1    0    0  501    0  0.00000000000E+00  0.00000000000E+00 -0.17247140642E+04  0.17247140642E+04  0.25500000920E-02 0. -1.
    10030    2    1    2    0    0  0.00000000000E+00  0.00000000000E+00 -0.38779483768E+03  0.30616332908E+04  0.30369744107E+04 0.  0.
        2    1    3    3  502    0 -0.22894830189E+03  0.47355668400E+03 -0.16299389142E+04  0.17127095848E+04  0.25500000920E-02 0. -1.
       -2    1    3    3    0  502  0.22894830189E+03 -0.47355668400E+03  0.12421440765E+04  0.13489237060E+04  0.25500000920E-02 0.  1.
</event>
<event>
 5   0  0.1119100E-05  0.2138895E+04  0.7818609E-02  0.8544301E-01
        2   -1    0    0  501    0  0.00000000000E+00  0.00000000000E+00  0.74376658738E+03  0.74376658739E+03  0.25500000920E-02 0. -1.
       -2   -1    0    0    0  501  0.00000000000E+00  0.00000000000E+00 -0.15377379806E+04  0.15377379806E+04  0.25500000920E-02 0.  1.
    10030    2    1    2    0    0  0.00000000000E+00  0.00000000000E+00 -0.79397139321E+03  0.22815045680E+04  0.21388951635E+04 0.  0.
        2    1    3    3  502    0 -0.61658831557E+03 -0.36868291639E+03  0.44805326338E+03  0.84667583559E+03  0.25500000920E-02 0. -1.
       -2    1    3    3    0  502  0.61658831557E+03  0.36868291639E+03 -0.12420246566E+04  0.14348287324E+04  0.25500000920E-02 0.  1.
</event>
<event>
 5   0  0.1001961E-05  0.3063361E+04  0.7818609E-02  0.8225866E-01
        2   -1    0    0  501    0  0.00000000000E+00  0.00000000000E+00  0.18418715787E+04  0.18418715787E+04  0.25500000920E-02 0.  1.
       -2   -1    0    0    0  501  0.00000000000E+00  0.00000000000E+00 -0.12737292864E+04  0.12737292864E+04  0.25500000920E-02 0. -1.
    10030    2    1    2    0    0  0.00000000000E+00  0.00000000000E+00  0.56814229231E+03  0.31156008651E+04  0.30633614032E+04 0.  0.
        5    1    3    3  502    0 -0.58855248882E+03  0.11912863231E+04 -0.49080479549E+03  0.14164987021E+04  0.46999998093E+01 0. -1.
       -5    1    3    3    0  502  0.58855248882E+03 -0.11912863231E+04  0.10589470878E+04  0.16991021630E+04  0.46999998093E+01 0.  1.
</event>
<event>
 5   0  0.9797278E-06  0.1698805E+04  0.7818609E-02  0.8762046E-01
        2   -1    0    0  501    0  0.00000000000E+00  0.00000000000E+00  0.10817387053E+04  0.10817387053E+04  0.25500000920E-02 0. -1.
       -2   -1    0    0    0  501  0.00000000000E+00  0.00000000000E+00 -0.66696770418E+03  0.66696770418E+03  0.25500000920E-02 0.  1.
    10030    2    1    2    0    0  0.00000000000E+00  0.00000000000E+00  0.41477100110E+03  0.17487064095E+04  0.16988052046E+04 0.  0.
        1    1    3    3  502    0  0.20315986141E+03 -0.82472870747E+03  0.20143552554E+03  0.87294194606E+03  0.50400001928E-02 0.  1.
       -1    1    3    3    0  502 -0.20315986141E+03  0.82472870747E+03  0.21333547557E+03  0.87576446341E+03  0.50400001928E-02 0. -1.
</event>
<event>
 5   0  0.3838525E-06  0.2677776E+04  0.7818609E-02  0.8342252E-01
       -1   -1    0    0    0  501  0.00000000000E+00  0.00000000000E+00  0.87695693693E+03  0.87695693695E+03  0.50400001928E-02 0. -1.
        1   -1    0    0  501    0  0.00000000000E+00  0.00000000000E+00 -0.20441373773E+04  0.20441373773E+04  0.50400001928E-02 0.  1.
    10030    2    1    2    0    0  0.00000000000E+00  0.00000000000E+00 -0.11671804404E+04  0.29210943143E+04  0.26777755344E+04 0.  0.
        3    1    3    3  502    0 -0.12081464648E+04  0.50165267847E+03 -0.27245971939E+03  0.13362288723E+04  0.10100000352E+00 0. -1.
       -3    1    3    3    0  502  0.12081464648E+04 -0.50165267847E+03 -0.89472072100E+03  0.15848654420E+04  0.10100000352E+00 0.  1.
</event>
<event>
 5   0  0.1108153E-05  0.3047758E+04  0.7818609E-02  0.8230223E-01
        2   -1    0    0  501    0  0.00000000000E+00  0.00000000000E+00  0.25614241408E+04  0.25614241408E+04  0.25500000920E-02 0.  1.
       -2   -1    0    0    0  501  0.00000000000E+00  0.00000000000E+00 -0.90660812233E+03  0.90660812234E+03  0.25500000920E-02 0. -1.
    10030    2    1    2    0    0  0.00000000000E+00  0.00000000000E+00  0.16548160185E+04  0.34680322631E+04  0.30477584752E+04 0.  0.
        4    1    3    3  502    0  0.69880130148E+03  0.63764584357E+03 -0.53202815907E+03  0.10853437500E+04  0.12699999809E+01 0. -1.
       -4    1    3    3    0  502 -0.69880130148E+03 -0.63764584357E+03  0.21868441776E+04  0.23826885131E+04  0.12699999809E+01 0.  1.
</event>
<event>
 5   0  0.1001961E-05  0.3033617E+04  0.7818609E-02  0.8234196E-01
       -2   -1    0    0    0  501  0.00000000000E+00  0.00000000000E+00  0.75795687819E+03  0.75795687819E+03  0.25500000920E-02 0. -1.
        2   -1    0    0  501    0  0.00000000000E+00  0.00000000000E+00 -0.30354074167E+04  0.30354074167E+04  0.25500000920E-02 0.  1.
    10030    2    1    2    0    0  0.00000000000E+00  0.00000000000E+00 -0.22774505385E+04  0.37933642949E+04  0.30336169367E+04 0.  0.
        5    1    3    3  502    0 -0.30592699053E+03  0.14311643138E+04 -0.16371223573E+04  0.21959085408E+04  0.46999998093E+01 0. -1.
       -5    1    3    3    0  502  0.30592699053E+03 -0.14311643138E+04 -0.64032818125E+03  0.15974557541E+04  0.46999998093E+01 0.  1.
</event>
<event>
 5   0  0.1007567E-05  0.1709829E+04  0.7818609E-02  0.8755779E-01
       -2   -1    0    0    0  501  0.00000000000E+00  0.00000000000E+00  0.62819784530E+03  0.62819784531E+03  0.25500000920E-02 0. -1.
        2   -1    0    0  501    0  0.00000000000E+00  0.00000000000E+00 -0.11634525408E+04  0.11634525408E+04  0.25500000920E-02 0.  1.
    10030    2    1    2    0    0  0.00000000000E+00  0.00000000000E+00 -0.53525469550E+03  0.17916503861E+04  0.17098285051E+04 0.  0.
        3    1    3    3  502    0  0.69578440173E+03  0.45095036512E+03 -0.49315846660E+02  0.83060473658E+03  0.10100000352E+00 0. -1.
       -3    1    3    3    0  502 -0.69578440173E+03 -0.45095036512E+03 -0.48593884884E+03  0.96104564954E+03  0.10100000352E+00 0.  1.
</event>
<event>
 5   0  0.4250961E-06  0.3025489E+04  0.7818609E-02  0.8236490E-01
        1   -1    0    0  501    0  0.00000000000E+00  0.00000000000E+00  0.12345810731E+04  0.12345810731E+04  0.50400001928E-02 0.  1.
       -1   -1    0    0    0  501  0.00000000000E+00  0.00000000000E+00 -0.18535812269E+04  0.18535812269E+04  0.50400001928E-02 0. -1.
    10030    2    1    2    0    0  0.00000000000E+00  0.00000000000E+00 -0.61900015379E+03  0.30881623000E+04  0.30254892498E+04 0.  0.
        1    1    3    3  502    0 -0.11993771865E+04 -0.59286313903E+03  0.41110156312E+03  0.13996416799E+04  0.50400001928E-02 0.  1.
       -1    1    3    3    0  502  0.11993771865E+04  0.59286313903E+03 -0.10301017169E+04  0.16885206200E+04  0.50400001928E-02 0. -1.
</event>
<event>
 5   0  0.3848286E-06  0.1904487E+04  0.7818609E-02  0.8652626E-01
       -1   -1    0    0    0  501  0.00000000000E+00  0.00000000000E+00  0.82647398513E+03  0.82647398514E+03  0.50400001928E-02 0.  1.
        1   -1    0    0  501    0  0.00000000000E+00  0.00000000000E+00 -0.10971522695E+04  0.10971522696E+04  0.50400001928E-02 0. -1.
    10030    2    1    2    0    0  0.00000000000E+00  0.00000000000E+00 -0.27067828442E+03  0.19236262547E+04  0.19044871315E+04 0.  0.
        2    1    3    3  502    0 -0.95020568377E+02  0.15629704301E+02 -0.10922215684E+04  0.10964584582E+04  0.25500000920E-02 0. -1.
       -2    1    3    3    0  502  0.95020568377E+02 -0.15629704301E+02  0.82154328399E+03  0.82716779649E+03  0.25500000920E-02 0.  1.
</event>
<event>
 5   0  0.3848286E-06  0.3068940E+04  0.7818609E-02  0.8224314E-01
        1   -1    0    0  501    0  0.00000000000E+00  0.00000000000E+00  0.13478027237E+04  0.13478027237E+04  0.50400001928E-02 0.  1.
       -1   -1    0    0    0  501  0.00000000000E+00  0.00000000000E+00 -0.17469906068E+04  0.17469906068E+04  0.50400001928E-02 0. -1.
    10030    2    1    2    0    0  0.00000000000E+00  0.00000000000E+00 -0.39918788309E+03  0.30947933304E+04  0.30689403370E+04 0.  0.
        2    1    3    3  502    0 -0.17739190304E+03  0.13588562264E+04  0.49661357524E+03  0.14575949967E+04  0.25500000920E-02 0.  1.
       -2    1    3    3    0  502  0.17739190304E+03 -0.13588562264E+04 -0.89580145832E+03  0.16371983337E+04  0.25500000920E-02 0. -1.
</event>
<event>
 5   0  0.1119100E-05  0.1693933E+04  0.7818609E-02  0.8764832E-01
        2   -1    0    0  501    0  0.00000000000E+00  0.00000000000E+00  0.14511971231E+04  0.14511971231E+04  0.25500000920E-02 0.  1.
       -2   -1    0    0    0  501  0.00000000000E+00  0.00000000000E+00 -0.49431786283E+03  0.49431786284E+03  0.25500000920E-02 0. -1.
    10030    2    1    2    0    0  0.00000000000E+00  0.00000000000E+00  0.95687926031E+03  0.19455149860E+04  0.16939334821E+04 0.  0.
        2    1    3    3  502    0 -0.65749934297E+03 -0.50013696966E+03  0.26384693628E+03  0.86721253463E+03  0.25500000920E-02 0. -1.
       -2    1    3    3    0  502  0.65749934297E+03  0.50013696966E+03  0.69303232403E+03  0.10783024514E+04  0.25500000920E-02 0.  1.
</event>
<event>
 5   0  0.1108153E-05  0.1625588E+04  0.7818609E-02  0.8804981E-01
        2   -1    0    0  501    0  0.00000000000E+00  0.00000000000E+00  0.12302654579E+04  0.12302654579E+04  0.25500000920E-02 0.  1.
       -2   -1    0    0    0  501  0.00000000000E+00  0.00000000000E+00 -0.53698470967E+03  0.53698470968E+03  0.25500000920E-02 0. -1.
    10030    2    1    2    0    0  0.00000000000E+00  0.00000000000E+00  0.69328074825E+03  0.17672501676E+04  0.16255875735E+04 0.  0.
        4    1    3    3  502    0  0.60114484185E+03 -0.24984832420E+03  0.87570485361E+03  0.10911736386E+04  0.12699999809E+01 0.  1.
       -4    1    3    3    0  502 -0.60114484185E+03  0.24984832420E+03 -0.18242410536E+03  0.67607652903E+03  0.12699999809E+01 0. -1.
</event>
<event>
 5   0  0.1001961E-05  0.2664406E+04  0.7818609E-02  0.8346647E-01
       -2   -1    0    0    0  501  0.00000000000E+00  0.00000000000E+00  0.14211372955E+04  0.14211372955E+04  0.25500000920E-02 0. -1.
        2   -1    0    0  501    0  0.00000000000E+00  0.00000000000E+00 -0.12488337887E+04  0.12488337887E+04  0.25500000920E-02 0.  1.
    10030    2    1    2    0    0  0.00000000000E+00  0.00000000000E+00  0.17230350681E+03  0.26699710842E+04  0.26644055795E+04 0.  0.
        5    1    3    3  502    0  0.45681803576E+03  0.27444852013E+03  0.13096597386E+04  0.14139432198E+04  0.46999998093E+01 0. -1.
       -5    1    3    3    0  502 -0.45681803576E+03 -0.27444852013E+03 -0.11373562318E+04  0.12560278643E+04  0.46999998093E+01 0.  1.
</event>
<event>
 5   0  0.3807334E-06  0.3024230E+04  0.7818609E-02  0.8236845E-01
        1   -1    0    0  501    0  0.00000000000E+00  0.00000000000E+00  0.14077886741E+04  0.14077886741E+04  0.50400001928E-02 0. -1.
       -1   -1    0    0    0  501  0.00000000000E+00  0.00000000000E+00 -0.16241727504E+04  0.16241727504E+04  0.50400001928E-02 0.  1.
    10030    2    1    2    0    0  0.00000000000E+00  0.00000000000E+00 -0.21638407632E+03  0.30319614245E+04  0.30242301518E+04 0.  0.
        4    1    3    3  502    0 -0.93190391420E+03  0.10678710758E+04  0.42012462586E+03  0.14782759735E+04  0.12699999809E+01 0.  1.
       -4    1    3    3    0  502  0.93190391420E+03 -0.10678710758E+04 -0.63650870218E+03  0.15536854510E+04  0.12699999809E+01 0. -1.
</event>
<event>
 5   0  0.3807334E-06  0.1876837E+04  0.7818609E-02  0.8666473E-01
       -1   -1    0    0    0  501  0.00000000000E+00  0.00000000000E+00  0.66399331953E+03  0.66399331955E+03  0.50400001928E-02 0.  1.
        1   -1    0    0  501    0  0.00000000000E+00  0.00000000000E+00 -0.13262628243E+04  0.13262628243E+04  0.50400001928E-02 0. -1.
    10030    2    1    2    0    0  0.00000000000E+00  0.00000000000E+00 -0.66226950477E+03  0.19902561439E+04  0.18768373987E+04 0.  0.
        4    1    3    3  502    0  0.42718333334E+03 -0.80533586935E+02 -0.12130516114E+04  0.12885911235E+04  0.12699999809E+01 0. -1.
       -4    1    3    3    0  502 -0.42718333334E+03  0.80533586935E+02  0.55078210659E+03  0.70166502033E+03  0.12699999809E+01 0.  1.
</event>
<event>
 5   0  0.1119100E-05  0.3116705E+04  0.7818609E-02  0.8211168E-01
       -2   -1    0    0    0  501  0.00000000000E+00  0.00000000000E+00  0.13283510556E+04  0.13283510556E+04  0.25500000920E-02 0.  1.
        2   -1    0    0  501    0  0.00000000000E+00  0.00000000000E+00 -0.18281787088E+04  0.18281787088E+04  0.25500000920E-02 0. -1.
    10030    2    1    2    0    0  0.00000000000E+00  0.00000000000E+00 -0.49982765320E+03  0.31565297644E+04  0.31167053872E+04 0.  0.
        2    1    3    3  502    0 -0.56258432966E+02 -0.47712906298E+03 -0.17513020398E+04  0.18160055035E+04  0.25500000920E-02 0. -1.
       -2    1    3    3    0  502  0.56258432966E+02  0.47712906298E+03  0.12514743866E+04  0.13405242610E+04  0.25500000920E-02 0.  1.
</event>
<event>
 5   0  0.9797278E-06  0.3056091E+04  0.7818609E-02  0.8227893E-01
        2   -1    0    0  501    0  0.00000000000E+00  0.00000000000E+00  0.19737280345E+04  0.19737280345E+04  0.25500000920E-02 0. -1.
       -2   -1    0    0    0  501  0.00000000000E+00  0.00000000000E+00 -0.11830017795E+04  0.11830017795E+04  0.25500000920E-02 0.  1.
    10030    2    1    2    0    0  0.00000000000E+00  0.00000000000E+00  0.79072625506E+03  0.31567298140E+04  0.30560914758E+04 0.  0.
        1    1    3    3  502    0  0.16439632395E+03  0.14905445800E+04  0.69858491277E+03  0.16543186442E+04  0.50400001928E-02 0. -1.
       -1    1    3    3    0  502 -0.16439632395E+03 -0.14905445800E+04  0.92141342287E+02  0.15024111698E+04  0.50400001928E-02 0.  1.
</event>
<event>
 5   0  0.9797278E-06  0.1837194E+04  0.7818609E-02  0.8686766E-01
        2   -1    0    0  501    0  0.00000000000E+00  0.00000000000E+00  0.87580031373E+03  0.87580031373E+03  0.25500000920E-02 0.  1.
       -2   -1    0    0    0  501  0.00000000000E+00  0.00000000000E+00 -0.96348512838E+03  0.96348512839E+03  0.25500000920E-02 0. -1.
    10030    2    1    2    0    0  0.00000000000E+00  0.00000000000E+00 -0.87684814655E+02  0.18392854421E+04  0.18371941408E+04 0.  0.
        1    1    3    3  502    0 -0.26299120586E+03  0.87995451794E+03 -0.25484421634E+02  0.91876753522E+03  0.50400001928E-02 0.  1.
       -1    1    3    3    0  502  0.26299120586E+03 -0.87995451794E+03 -0.62200393021E+02  0.92051790690E+03  0.50400001928E-02 0. -1.
</event>
<event>
 5   0  0.3848286E-06  0.3051978E+04  0.7818609E-02  0.8229042E-01
       -1   -1    0    0    0  501  0.00000000000E+00  0.00000000000E+00  0.18877126213E+04  0.18877126213E+04  0.50400001928E-02 0. -1.
        1   -1    0    0  501    0  0.00000000000E+00  0.00000000000E+00 -0.12335792108E+04  0.12335792108E+04  0.50400001928E-02 0.  1.
    10030    2    1    2    0    0  0.00000000000E+00  0.00000000000E+00  0.65413341043E+03  0.31212918321E+04  0.30519784047E+04 0.  0.
        2    1    3    3  502    0 -0.23718494295E+03  0.32365033638E+03 -0.11786600871E+04  0.12450886869E+04  0.25500000920E-02 0.  1.
       -2    1    3    3    0  502  0.23718494295E+03 -0.32365033638E+03  0.18327934975E+04  0.18762031452E+04  0.25500000920E-02 0. -1.
</event>
<event>
 5   0  0.1001961E-05  0.3078365E+04  0.7818609E-02  0.8221701E-01
       -2   -1    0    0    0  501  0.00000000000E+00  0.00000000000E+00  0.12893056025E+04  0.12893056025E+04  0.25500000920E-02 0. -1.
        2   -1    0    0  501    0  0.00000000000E+00  0.00000000000E+00 -0.18374872419E+04  0.18374872419E+04  0.25500000920E-02 0.  1.
    10030    2    1    2    0    0  0.00000000000E+00  0.00000000000E+00 -0.54818163948E+03  0.31267928444E+04  0.30783648877E+04 0.  0.
        5    1    3    3  502    0 -0.42366782434E+03  0.88055679687E+02  0.12262423238E+04  0.13003617015E+04  0.46999998093E+01 0. -1.
       -5    1    3    3    0  502  0.42366782434E+03 -0.88055679687E+02 -0.17744239633E+04  0.18264311429E+04  0.46999998093E+01 0.  1.
</event>
<event>
 5   0  0.3807334E-06  0.3057901E+04  0.7818609E-02  0.8227388E-01
        1   -1    0    0  501    0  0.00000000000E+00  0.00000000000E+00  0.17332395667E+04  0.17332395667E+04  0.50400001928E-02 0.  1.
       -1   -1    0    0    0  501  0.00000000000E+00  0.00000000000E+00 -0.13487396223E+04  0.13487396223E+04  0.50400001928E-02 0. -1.
    10030    2    1    2    0    0  0.00000000000E+00  0.00000000000E+00  0.38449994444E+03  0.30819791891E+04  0.30579005076E+04 0.  0.
        4    1    3    3  502    0 -0.14694274652E+04  0.41902535367E+03  0.24641271863E+03  0.15477468021E+04  0.12699999809E+01 0. -1.
       -4    1    3    3    0  502  0.14694274652E+04 -0.41902535367E+03  0.13808722582E+03  0.15342323870E+04  0.12699999809E+01 0.  1.
</event>
<event>
 5   0  0.4250961E-06  0.3117253E+04  0.7818609E-02  0.8211019E-01
       -1   -1    0    0    0  501  0.00000000000E+00  0.00000000000E+00  0.15177458624E+04  0.15177458624E+04  0.50400001928E-02 0. -1.
        1   -1    0    0  501    0  0.00000000000E+00  0.00000000000E+00 -0.16006082235E+04  0.16006082236E+04  0.50400001928E-02 0.  1.
    10030    2    1    2    0    0  0.00000000000E+00  0.00000000000E+00 -0.82862361177E+02  0.31183540859E+04  0.31172529628E+04 0.  0.
        1    1    3    3  502    0 -0.51416520971E+03  0.30462481783E+03 -0.14814376180E+04  0.15974415666E+04  0.50400001928E-02 0.  1.
       -1    1    3    3    0  502  0.51416520971E+03 -0.30462481783E+03  0.13985752568E+04  0.15209125194E+04  0.50400001928E-02 0. -1.
</event>
<event>
 5   0  0.4250961E-06  0.3170079E+04  0.7818609E-02  0.8196764E-01
       -1   -1    0    0    0  501  0.00000000000E+00  0.00000000000E+00  0.13789181031E+04  0.13789181031E+04  0.50400001928E-02 0.  1.
        1   -1    0    0  501    0  0.00000000000E+00  0.00000000000E+00 -0.18219722221E+04  0.18219722221E+04  0.50400001928E-02 0. -1.
    10030    2    1    2    0    0  0.00000000000E+00  0.00000000000E+00 -0.44305411902E+03  0.32008903253E+04  0.31700791665E+04 0.  0.
        1    1    3    3  502    0 -0.29601618051E+03  0.64096888620E+03  0.12113795592E+04  0.14021081017E+04  0.50400001928E-02 0.  1.
       -1    1    3    3    0  502  0.29601618051E+03 -0.64096888620E+03 -0.16544336783E+04  0.17987822236E+04  0.50400001928E-02 0. -1.
</event>
<event>
 5   0  0.3848286E-06  0.2580500E+04  0.7818609E-02  0.8374855E-01
       -1   -1    0    0    0  501  0.00000000000E+00  0.00000000000E+00  0.69524213705E+03  0.69524213707E+03  0.50400001928E-02 0.  1.
        1   -1    0    0  501    0  0.00000000000E+00  0.00000000000E+00 -0.23944815376E+04  0.23944815376E+04  0.50400001928E-02 0. -1.
    10030    2    1    2    0    0  0.00000000000E+00  0.00000000000E+00 -0.16992394005E+04  0.30897236747E+04  0.25804995341E+04 0.  0.
        2    1    3    3  502    0  0.66761878211E+03 -0.86969693334E+03 -0.35205453983E+02  0.10969626329E+04  0.25500000920E-02 0.  1.
       -2    1    3    3    0  502 -0.66761878211E+03  0.86969693334E+03 -0.16640339466E+04  0.19927610417E+04  0.25500000920E-02 0. -1.
</event>
<event>
 5   0  0.4250961E-06  0.3175342E+04  0.7818609E-02  0.8195360E-01
        1   -1    0    0  501    0  0.00000000000E+00  0.00000000000E+00  0.19495151048E+04  0.19495151048E+04  0.50400001928E-02 0.  1.
       -1   -1    0    0    0  501  0.00000000000E+00  0.00000000000E+00 -0.12929880192E+04  0.12929880192E+04  0.50400001928E-02 0. -1.
    10030    2    1    2    0    0  0.00000000000E+00  0.00000000000E+00  0.65652708560E+03  0.32425031240E+04  0.31753422957E+04 0.  0.
        1    1    3    3  502    0  0.21500947196E+03  0.81561077800E+03 -0.10452694781E+04  0.13431449275E+04  0.50400001928E-02 0. -1.
       -1    1    3    3    0  502 -0.21500947196E+03 -0.81561077800E+03  0.17017965637E+04  0.18993581965E+04  0.50400001928E-02 0.  1.
</event>
<event>
 5   0  0.1007567E-05  0.2620483E+04  0.7818609E-02  0.8361277E-01
        2   -1    0    0  501    0  0.00000000000E+00  0.00000000000E+00  0.11547568237E+04  0.11547568237E+04  0.25500000920E-02 0.  1.
       -2   -1    0    0    0  501  0.00000000000E+00  0.00000000000E+00 -0.14866618565E+04  0.14866618565E+04  0.25500000920E-02 0. -1.
    10030    2    1    2    0    0  0.00000000000E+00  0.00000000000E+00 -0.33190503286E+03  0.26414186802E+04  0.26204831030E+04 0.  0.
        3    1    3    3  502    0 -0.75864177499E+03  0.49009147712E+03 -0.11227492898E+04  0.14409347579E+04  0.10100000352E+00 0. -1.
       -3    1    3    3    0  502  0.75864177499E+03 -0.49009147712E+03  0.79084425692E+03  0.12004839223E+04  0.10100000352E+00 0.  1.
</event>
<event>
 5   0  0.3838525E-06  0.2908148E+04  0.7818609E-02  0.8270457E-01
        1   -1    0    0  501    0  0.00000000000E+00  0.00000000000E+00  0.77603254168E+03  0.77603254170E+03  0.50400001928E-02 0.  1.
       -1   -1    0    0    0  501  0.00000000000E+00  0.00000000000E+00 -0.27245398736E+04  0.27245398736E+04  0.50400001928E-02 0. -1.
    10030    2    1    2    0    0  0.00000000000E+00  0.00000000000E+00 -0.19485073319E+04  0.35005724153E+04  0.29081482789E+04 0.  0.
        3    1    3    3  502    0  0.16898255075E+03  0.11813048014E+04 -0.19743458366E+04  0.23069628582E+04  0.10100000352E+00 0. -1.
       -3    1    3    3    0  502 -0.16898255075E+03 -0.11813048014E+04  0.25838504689E+02  0.11936095571E+04  0.10100000352E+00 0.  1.
</event>
<event>
 5   0  0.1108153E-05  0.3173488E+04  0.7818609E-02  0.8195854E-01
        2   -1    0    0  501    0  0.00000000000E+00  0.00000000000E+00  0.19148615385E+04  0.19148615385E+04  0.25500000920E-02 0.  1.
       -2   -1    0    0    0  501  0.00000000000E+00  0.00000000000E+00 -0.13148508095E+04  0.13148508095E+04  0.25500000920E-02 0. -1.
    10030    2    1    2    0    0  0.00000000000E+00  0.00000000000E+00  0.60001072894E+03  0.32297123480E+04  0.31734884553E+04 0.  0.
        4    1    3    3  502    0  0.53999834173E+03 -0.13174857979E+03  0.18125391762E+04  0.18958522557E+04  0.12699999809E+01 0.  1.
       -4    1    3    3    0  502 -0.53999834173E+03  0.13174857979E+03 -0.12125284473E+04  0.13338600923E+04  0.12699999809E+01 0. -1.
</event>
<event>
 5   0  0.1007567E-05  0.3054427E+04  0.7818609E-02  0.8228358E-01
        2   -1    0    0  501    0  0.00000000000E+00  0.00000000000E+00  0.15575700850E+04  0.15575700850E+04  0.25500000920E-02 0.  1.
       -2   -1    0    0    0  501  0.00000000000E+00  0.00000000000E+00 -0.14974481983E+04  0.14974481983E+04  0.25500000920E-02 0. -1.
    10030    2    1    2    0    0  0.00000000000E+00  0.00000000000E+00  0.60121886722E+02  0.30550182832E+04  0.30544266352E+04 0.  0.
        3    1    3    3  502    0  0.11961474504E+04 -0.32886691558E+03  0.92099626901E+03  0.15450424942E+04  0.10100000352E+00 0.  1.
       -3    1    3    3    0  502 -0.11961474504E+04  0.32886691558E+03 -0.86087438229E+03  0.15099757890E+04  0.10100000352E+00 0. -1.
</event>
<event>
 5   0  0.1119100E-05  0.2074979E+04  0.7818609E-02  0.8572346E-01
       -2   -1    0    0    0  501  0.00000000000E+00  0.00000000000E+00  0.10890432263E+04  0.10890432263E+04  0.25500000920E-02 0. -1.
        2   -1    0    0  501    0  0.00000000000E+00  0.00000000000E+00 -0.98837593204E+03  0.98837593204E+03  0.25500000920E-02 0.  1.
    10030    2    1    2    0    0  0.00000000000E+00  0.00000000000E+00  0.10066729423E+03  0.20774191583E+04  0.20749786638E+04 0.  0.
        2    1    3    3  502    0 -0.96160661900E+03 -0.63329568985E+02  0.43508525205E+03  0.10573538200E+04  0.25500000920E-02 0. -1.
       -2    1    3    3    0  502  0.96160661900E+03  0.63329568985E+02 -0.33441795781E+03  0.10200653384E+04  0.25500000920E-02 0.  1.
</event>
<event>
 5   0  0.4139628E-06  0.1962192E+04  0.7818609E-02  0.8624504E-01
       -1   -1    0    0    0  501  0.00000000000E+00  0.00000000000E+00  0.82833438329E+03  0.82833438331E+03  0.50400001928E-02 0. -1.
        1   -1    0    0  501    0  0.00000000000E+00  0.00000000000E+00 -0.11620299614E+04  0.11620299614E+04  0.50400001928E-02 0.  1.
    10030    2    1    2    0    0  0.00000000000E+00  0.00000000000E+00 -0.33369557810E+03  0.19903643447E+04  0.19621920104E+04 0.  0.
        5    1    3    3  502    0  0.62323894639E+03 -0.16606727702E+03 -0.91673330771E+03  0.11209046223E+04  0.46999998093E+01 0.  1.
       -5    1    3    3    0  502 -0.62323894639E+03  0.16606727702E+03  0.58303772960E+03  0.86945972243E+03  0.46999998093E+01 0. -1.
</event>
<event>
 5   0  0.4250961E-06  0.3110872E+04  0.7818609E-02  0.8212760E-01
        1   -1    0    0  501    0  0.00000000000E+00  0.00000000000E+00  0.14488065367E+04  0.14488065367E+04  0.50400001928E-02 0.  1.
       -1   -1    0    0    0  501  0.00000000000E+00  0.00000000000E+00 -0.16699132891E+04  0.16699132891E+04  0.50400001928E-02 0. -1.
    10030    2    1    2    0    0  0.00000000000E+00  0.00000000000E+00 -0.22110675233E+03  0.31187198258E+04  0.31108720893E+04 0.  0.
        1    1    3    3  502    0 -0.56457811336E+03  0.14055590798E+04  0.24394368478E+03  0.15342272629E+04  0.50400001928E-02 0. -1.
       -1    1    3    3    0  502  0.56457811336E+03 -0.14055590798E+04 -0.46505043711E+03  0.15844925629E+04  0.50400001928E-02 0.  1.
</event>
<event>
 5   0  0.9797278E-06  0.2059631E+04  0.7818609E-02  0.8579238E-01
       -2   -1    0    0    0  501  0.00000000000E+00  0.00000000000E+00  0.62997036504E+03  0.62997036504E+03  0.25500000920E-02 0. -1.
        2   -1    0    0  501    0  0.00000000000E+00  0.00000000000E+00 -0.16834443272E+04  0.16834443272E+04  0.25500000920E-02 0.  1.
    10030    2    1    2    0    0  0.00000000000E+00  0.00000000000E+00 -0.10534739622E+04  0.23134146923E+04  0.20596310712E+04 0.  0.
        1    1    3    3  502    0 -0.67125910633E+03  0.19315148881E+03 -0.13766974621E+04  0.15437591093E+04  0.50400001928E-02 0.  1.
       -1    1    3    3    0  502  0.67125910633E+03 -0.19315148881E+03  0.32322349990E+03  0.76965558295E+03  0.50400001928E-02 0. -1.
</event>
<event>
 5   0  0.1108153E-05  0.3112758E+04  0.7818609E-02  0.8212245E-01
        2   -1    0    0  501    0  0.00000000000E+00  0.00000000000E+00  0.16953117930E+04  0.16953117930E+04  0.25500000920E-02 0.  1.
       -2   -1    0    0    0  501  0.00000000000E+00  0.00000000000E+00 -0.14288315156E+04  0.14288315156E+04  0.25500000920E-02 0. -1.
    10030    2    1    2    0    0  0.00000000000E+00  0.00000000000E+00  0.26648027739E+03  0.31241433086E+04  0.31127575676E+04 0.  0.
        4    1    3    3  502    0  0.21200921678E+03 -0.13724008825E+04  0.83857752452E+03  0.16222348683E+04  0.12699999809E+01 0. -1.
       -4    1    3    3    0  502 -0.21200921678E+03  0.13724008825E+04 -0.57209724713E+03  0.15019084404E+04  0.12699999809E+01 0.  1.
</event>
<event>
 5   0  0.1001961E-05  0.2506802E+04  0.7818609E-02  0.8400566E-01
       -2   -1    0    0    0  501  0.00000000000E+00  0.00000000000E+00  0.14589925594E+04  0.14589925594E+04  0.25500000920E-02 0.  1.
        2   -1    0    0  501    0  0.00000000000E+00  0.00000000000E+00 -0.10767804463E+04  0.10767804463E+04  0.25500000920E-02 0. -1.
    10030    2    1    2    0    0  0.00000000000E+00  0.00000000000E+00  0.38221211306E+03  0.25357730057E+04  0.25068024727E+04 0.  0.
        5    1    3    3  502    0 -0.57658506436E+03 -0.10300296624E+04 -0.23516776669E+03  0.12036350819E+04  0.46999998093E+01 0. -1.
       -5    1    3    3    0  502  0.57658506436E+03  0.10300296624E+04  0.61737987975E+03  0.13321379237E+04  0.46999998093E+01 0.  1.
</event>
<event>
 5   0  0.1007567E-05  0.3150128E+04  0.7818609E-02  0.8202114E-01
        2   -1    0    0  501    0  0.00000000000E+00  0.00000000000E+00  0.22762279090E+04  0.22762279090E+04  0.25500000920E-02 0. -1.
       -2   -1    0    0    0  501  0.00000000000E+00  0.00000000000E+00 -0.10898852789E+04  0.10898852789E+04  0.25500000920E-02 0.  1.
    10030    2    1    2    0    0  0.00000000000E+00  0.00000000000E+00  0.11863426301E+04  0.33661131880E+04  0.31501284352E+04 0.  0.
        3    1    3    3  502    0  0.25886153802E+03 -0.13846332948E+04 -0.15985054214E+03  0.14176638752E+04  0.10100000352E+00 0.  1.
       -3    1    3    3    0  502 -0.25886153802E+03  0.13846332948E+04  0.13461931723E+04  0.19484493127E+04  0.10100000352E+00 0. -1.
</event>
<event>
 5   0  0.9797278E-06  0.3008124E+04  0.7818609E-02  0.8241415E-01
       -2   -1    0    0    0  501  0.00000000000E+00  0.00000000000E+00  0.16056483398E+04  0.16056483398E+04  0.25500000920E-02 0. -1.
        2   -1    0    0  501    0  0.00000000000E+00  0.00000000000E+00 -0.14089027207E+04  0.14089027207E+04  0.25500000920E-02 0.  1.
    10030    2    1    2    0    0  0.00000000000E+00  0.00000000000E+00  0.19674561906E+03  0.30145510605E+04  0.30081238767E+04 0.  0.
        1    1    3    3  502    0 -0.40638283666E+03  0.10886937946E+04 -0.85855018267E+03  0.14448216515E+04  0.50400001928E-02 0.  1.
       -1    1    3    3    0  502  0.40638283666E+03 -0.10886937946E+04  0.10552958017E+04  0.15697294090E+04  0.50400001928E-02 0. -1.
</event>
<event>
 5   0  0.4139628E-06  0.3168380E+04  0.7818609E-02  0.8197218E-01
        1   -1    0    0  501    0  0.00000000000E+00  0.00000000000E+00  0.10951598855E+04  0.10951598855E+04  0.50400001928E-02 0.  1.
       -1   -1    0    0    0  501  0.00000000000E+00  0.00000000000E+00 -0.22915910192E+04  0.22915910192E+04  0.50400001928E-02 0. -1.
    10030    2    1    2    0    0  0.00000000000E+00  0.00000000000E+00 -0.11964311337E+04  0.33867509048E+04  0.31683803801E+04 0.  0.
        5    1    3    3  502    0 -0.60017045892E+03  0.27152799223E+03  0.94181271720E+03  0.11493325518E+04  0.46999998093E+01 0.  1.
       -5    1    3    3    0  502  0.60017045892E+03 -0.27152799223E+03 -0.21382438509E+04  0.22374183530E+04  0.46999998093E+01 0. -1.
</event>
<event>
 5   0  0.3848286E-06  0.3061022E+04  0.7818609E-02  0.8226517E-01
       -1   -1    0    0    0  501  0.00000000000E+00  0.00000000000E+00  0.13188686676E+04  0.13188686676E+04  0.50400001928E-02 0.  1.
        1   -1    0    0  501    0  0.00000000000E+00  0.00000000000E+00 -0.17761155915E+04  0.17761155915E+04  0.50400001928E-02 0. -1.
    10030    2    1    2    0    0  0.00000000000E+00  0.00000000000E+00 -0.45724692392E+03  0.30949842591E+04  0.30610215312E+04 0.  0.
        2    1    3    3  502    0  0.30237088654E+03 -0.14892273998E+04 -0.41295586201E+03  0.15747250380E+04  0.25500000920E-02 0.  1.
       -2    1    3    3    0  502 -0.30237088654E+03  0.14892273998E+04 -0.44291061911E+02  0.15202592211E+04  0.25500000920E-02 0. -1.
</event>
<event>
 5   0  0.1108153E-05  0.1995923E+04  0.7818609E-02  0.8608529E-01
       -2   -1    0    0    0  501  0.00000000000E+00  0.00000000000E+00  0.14709882337E+04  0.14709882337E+04  0.25500000920E-02 0. -1.
        2   -1    0    0  501    0  0.00000000000E+00  0.00000000000E+00 -0.67704649903E+03  0.67704649903E+03  0.25500000920E-02 0.  1.
    10030    2    1    2    0    0  0.00000000000E+00  0.00000000000E+00  0.79394173466E+03  0.21480347327E+04  0.19959232788E+04 0.  0.
        4    1    3    3  502    0  0.88800284476E+03 -0.44726858676E+03  0.48909591712E+03  0.11080679898E+04  0.12699999809E+01 0.  1.
       -4    1    3    3    0  502 -0.88800284476E+03  0.44726858676E+03  0.30484581754E+03  0.10399667429E+04  0.12699999809E+01 0. -1.
</event>
<event>
 5   0  0.1007567E-05  0.1755106E+04  0.7818609E-02  0.8730545E-01
        2   -1    0    0  501    0  0.00000000000E+00  0.00000000000E+00  0.14657039750E+04  0.14657039750E+04  0.25500000920E-02 0.  1.
       -2   -1    0    0    0  501  0.00000000000E+00  0.00000000000E+00 -0.52541233672E+03  0.52541233673E+03  0.25500000920E-02 0. -1.
    10030    2    1    2    0    0  0.00000000000E+00  0.00000000000E+00  0.94029163828E+03  0.19911163117E+04  0.17551056384E+04 0.  0.
        3    1    3    3  502    0  0.52254887229E+03 -0.95167004445E+02  0.12626408390E+04  0.13698087389E+04  0.10100000352E+00 0.  1.
       -3    1    3    3    0  502 -0.52254887229E+03  0.95167004445E+02 -0.32234920071E+03  0.62130757284E+03  0.10100000352E+00 0. -1.
</event>
<event>
 5   0  0.3493125E-06  0.3100409E+04  0.7818609E-02  0.8215626E-01
        3   -1    0    0  501    0  0.00000000000E+00  0.00000000000E+00  0.16592373717E+04  0.16592373748E+04  0.10100000352E+00 0.  1.
       -3   -1    0    0    0  501  0.00000000000E+00  0.00000000000E+00 -0.14483363550E+04  0.14483363585E+04  0.10100000352E+00 0. -1.
    10030    2    1    2    0    0  0.00000000000E+00  0.00000000000E+00  0.21090101676E+03  0.31075737333E+04  0.31004088874E+04 0.  0.
        4    1    3    3  502    0  0.65670027516E+02 -0.62919836055E+02  0.16565605221E+04  0.16590557057E+04  0.12699999809E+01 0.  1.
       -4    1    3    3    0  502 -0.65670027516E+02  0.62919836055E+02 -0.14456595053E+04  0.14485180277E+04  0.12699999809E+01 0. -1.
</event>
<event>
 5   0  0.1119100E-05  0.2388657E+04  0.7818609E-02  0.8443762E-01
       -2   -1    0    0    0  501  0.00000000000E+00  0.00000000000E+00  0.12297516956E+04  0.12297516956E+04  0.25500000920E-02 0.  1.
        2   -1    0    0  501    0  0.00000000000E+00  0.00000000000E+00 -0.11599261155E+04  0.11599261155E+04  0.25500000920E-02 0. -1.
    10030    2    1    2    0    0  0.00000000000E+00  0.00000000000E+00  0.69825580112E+02  0.23896778110E+04  0.23886574533E+04 0.  0.
        2    1    3    3  502    0  0.21748430978E+03 -0.82553483128E+03 -0.80067685112E+03  0.11704232579E+04  0.25500000920E-02 0. -1.
       -2    1    3    3    0  502 -0.21748430978E+03  0.82553483128E+03  0.87050243123E+03  0.12192545532E+04  0.25500000920E-02 0.  1.
</event>
<event>
 5   0  0.9797278E-06  0.2461044E+04  0.7818609E-02  0.8416997E-01
        2   -1    0    0  501    0  0.00000000000E+00  0.00000000000E+00  0.27701668447E+04  0.27701668447E+04  0.25500000920E-02 0.  1.
       -2   -1    0    0    0  501  0.00000000000E+00  0.00000000000E+00 -0.54660404327E+03  0.54660404328E+03  0.25500000920E-02 0. -1.
    10030    2    1    2    0    0  0.00000000000E+00  0.00000000000E+00  0.22235628014E+04  0.33167708879E+04  0.24610440044E+04 0.  0.
        1    1    3    3  502    0 -0.88858802892E+03  0.44610444301E+03  0.13472820285E+03  0.10033690985E+04  0.50400001928E-02 0. -1.
       -1    1    3    3    0  502  0.88858802892E+03 -0.44610444301E+03  0.20888345985E+04  0.23134017894E+04  0.50400001928E-02 0.  1.
</event>
<event>
 5   0  0.4250961E-06  0.3154747E+04  0.7818609E-02  0.8200872E-01
       -1   -1    0    0    0  501  0.00000000000E+00  0.00000000000E+00  0.81125318471E+03  0.81125318472E+03  0.50400001928E-02 0.  1.
        1   -1    0    0  501    0  0.00000000000E+00  0.00000000000E+00 -0.30669930741E+04  0.30669930741E+04  0.50400001928E-02 0. -1.
    10030    2    1    2    0    0  0.00000000000E+00  0.00000000000E+00 -0.22557398894E+04  0.38782462588E+04  0.31547474693E+04 0.  0.
        1    1    3    3  502    0  0.92008494282E+03 -0.74750385175E+03  0.15134291650E+03  0.11950828376E+04  0.50400001928E-02 0.  1.
       -1    1    3    3    0  502 -0.92008494282E+03  0.74750385175E+03 -0.24070828059E+04  0.26831634212E+04  0.50400001928E-02 0. -1.
</event>
<event>
 5   0  0.1119100E-05  0.3042846E+04  0.7818609E-02  0.8231601E-01
       -2   -1    0    0    0  501  0.00000000000E+00  0.00000000000E+00  0.12673273956E+04  0.12673273956E+04  0.25500000920E-02 0. -1.
        2   -1    0    0  501    0  0.00000000000E+00  0.00000000000E+00 -0.18264643306E+04  0.18264643306E+04  0.25500000920E-02 0.  1.
    10030    2    1    2    0    0  0.00000000000E+00  0.00000000000E+00 -0.55913693505E+03  0.30937917262E+04  0.30428462223E+04 0.  0.
        2    1    3    3  502    0  0.94493029064E+02  0.16675815113E+03 -0.18141397882E+04  0.18242369322E+04  0.25500000920E-02 0.  1.
       -2    1    3    3    0  502 -0.94493029064E+02 -0.16675815113E+03  0.12550028532E+04  0.12695547940E+04  0.25500000920E-02 0. -1.
</event>
<event>
 5   0  0.4139628E-06  0.3087286E+04  0.7818609E-02  0.8219236E-01
       -1   -1    0    0    0  501  0.00000000000E+00  0.00000000000E+00  0.19673179175E+04  0.19673179175E+04  0.50400001928E-02 0.  1.
        1   -1    0    0  501    0  0.00000000000E+00  0.00000000000E+00 -0.12112092562E+04  0.12112092562E+04  0.50400001928E-02 0. -1.
    10030    2    1    2    0    0  0.00000000000E+00  0.00000000000E+00  0.75610866131E+03  0.31785271737E+04  0.30872859741E+04 0.  0.
        5    1    3    3  502    0 -0.88422599815E+03  0.13302975270E+03 -0.91740880326E+03  0.12810985650E+04  0.46999998093E+01 0. -1.
       -5    1    3    3    0  502  0.88422599815E+03 -0.13302975270E+03  0.16735174646E+04  0.18974286087E+04  0.46999998093E+01 0.  1.
</event>
<event>
 5   0  0.3838525E-06  0.2882710E+04  0.7818609E-02  0.8278040E-01
       -1   -1    0    0    0  501  0.00000000000E+00  0.00000000000E+00  0.14088257333E+04  0.14088257333E+04  0.50400001928E-02 0. -1.
        1   -1    0    0  501    0  0.00000000000E+00  0.00000000000E+00 -0.14746357545E+04  0.14746357545E+04  0.50400001928E-02 0.  1.
    10030    2    1    2    0    0  0.00000000000E+00  0.00000000000E+00 -0.65810021192E+02  0.28834614879E+04  0.28827103901E+04 0.  0.
        3    1    3    3  502    0 -0.13288468123E+04 -0.55023214138E+03  0.61541665110E+02  0.14395751619E+04  0.10100000352E+00 0. -1.
       -3    1    3    3    0  502  0.13288468123E+04  0.55023214138E+03 -0.12735168630E+03  0.14438863260E+04  0.10100000352E+00 0.  1.
</event>
<event>
 5   0  0.1001961E-05  0.1986256E+04  0.7818609E-02  0.8613073E-01
        2   -1    0    0  501    0  0.00000000000E+00  0.00000000000E+00  0.16048512652E+04  0.16048512652E+04  0.25500000920E-02 0.  1.
       -2   -1    0    0    0  501  0.00000000000E+00  0.00000000000E+00 -0.61457627221E+03  0.61457627221E+03  0.25500000920E-02 0. -1.
    10030    2    1    2    0    0  0.00000000000E+00  0.00000000000E+00  0.99027499304E+03  0.22194275375E+04  0.19862562856E+04 0.  0.
        5    1    3    3  502    0 -0.78884331481E+03 -0.60215063366E+03  0.45299747610E+03  0.10909115291E+04  0.46999998093E+01 0. -1.
       -5    1    3    3    0  502  0.78884331481E+03  0.60215063366E+03  0.53727751693E+03  0.11285160084E+04  0.46999998093E+01 0.  1.
</event>
<event>
 5   0  0.4139628E-06  0.3164508E+04  0.7818609E-02  0.8198254E-01
       -1   -1    0    0    0  501  0.00000000000E+00  0.00000000000E+00  0.98045280393E+03  0.98045280394E+03  0.50400001928E-02 0.  1.
        1   -1    0    0  501    0  0.00000000000E+00  0.00000000000E+00 -0.25534406272E+04  0.25534406272E+04  0.50400001928E-02 0. -1.
    10030    2    1    2    0    0  0.00000000000E+00  0.00000000000E+00 -0.15729878232E+04  0.35338934311E+04  0.31645081909E+04 0.  0.
        5    1    3    3  502    0  0.13845301074E+04 -0.50423001597E+03 -0.14271777119E+03  0.14803925086E+04  0.46999998093E+01 0.  1.
       -5    1    3    3    0  502 -0.13845301074E+04  0.50423001597E+03 -0.14302700521E+04  0.20535009226E+04  0.46999998093E+01 0. -1.
</event>
<event>
 5   0  0.1007567E-05  0.1841769E+04  0.7818609E-02  0.8684397E-01
       -2   -1    0    0    0  501  0.00000000000E+00  0.00000000000E+00  0.10286090746E+04  0.10286090746E+04  0.25500000920E-02 0. -1.
        2   -1    0    0  501    0  0.00000000000E+00  0.00000000000E+00 -0.82444204258E+03  0.82444204258E+03  0.25500000920E-02 0.  1.
    10030    2    1    2    0    0  0.00000000000E+00  0.00000000000E+00  0.20416703200E+03  0.18530511172E+04  0.18417693302E+04 0.  0.
        3    1    3    3  502    0 -0.77823494703E+03 -0.47973806949E+03  0.21335166487E+03  0.93878495472E+03  0.10100000352E+00 0. -1.
       -3    1    3    3    0  502  0.77823494703E+03  0.47973806949E+03 -0.91846328693E+01  0.91426616244E+03  0.10100000352E+00 0.  1.
</event>
<event>
 5   0  0.4250961E-06  0.3172601E+04  0.7818609E-02  0.8196091E-01
       -1   -1    0    0    0  501  0.00000000000E+00  0.00000000000E+00  0.86996111769E+03  0.86996111770E+03  0.50400001928E-02 0. -1.
        1   -1    0    0  501    0  0.00000000000E+00  0.00000000000E+00 -0.28924854885E+04  0.28924854885E+04  0.50400001928E-02 0.  1.
    10030    2    1    2    0    0  0.00000000000E+00  0.00000000000E+00 -0.20225243708E+04  0.37624466062E+04  0.31726013985E+04 0.  0.
        1    1    3    3  502    0 -0.11491625778E+04 -0.10553468771E+04 -0.13508953375E+04  0.20637950175E+04  0.50400001928E-02 0.  1.
       -1    1    3    3    0  502  0.11491625778E+04  0.10553468771E+04 -0.67162903335E+03  0.16986515887E+04  0.50400001928E-02 0. -1.
</event>
<event>
 5   0  0.3838525E-06  0.2214707E+04  0.7818609E-02  0.8512332E-01
       -1   -1    0    0    0  501  0.00000000000E+00  0.00000000000E+00  0.10620344048E+04  0.10620344048E+04  0.50400001928E-02 0. -1.
        1   -1    0    0  501    0  0.00000000000E+00  0.00000000000E+00 -0.11546061874E+04  0.11546061874E+04  0.50400001928E-02 0.  1.
    10030    2    1    2    0    0  0.00000000000E+00  0.00000000000E+00 -0.92571782623E+02  0.22166405922E+04  0.22147067481E+04 0.  0.
        3    1    3    3  502    0 -0.78816169622E+03 -0.44906947116E+03  0.58938224009E+03  0.10817733979E+04  0.10100000352E+00 0. -1.
       -3    1    3    3    0  502  0.78816169622E+03  0.44906947116E+03 -0.68195402271E+03  0.11348671943E+04  0.10100000352E+00 0.  1.
</event>
<event>
 5   0  0.1007567E-05  0.2676349E+04  0.7818609E-02  0.8342720E-01
        2   -1    0    0  501    0  0.00000000000E+00  0.00000000000E+00  0.21436667847E+04  0.21436667847E+04  0.25500000920E-02 0.  1.
       -2   -1    0    0    0  501  0.00000000000E+00  0.00000000000E+00 -0.83534938350E+03  0.83534938351E+03  0.25500000920E-02 0. -1.
    10030    2    1    2    0    0  0.00000000000E+00  0.00000000000E+00  0.13083174012E+04  0.29790161682E+04  0.26763488017E+04 0.  0.
        3    1    3    3  502    0 -0.52673992243E+03 -0.66825054288E+03 -0.49545168981E+03  0.98462486312E+03  0.10100000352E+00 0. -1.
       -3    1    3    3    0  502  0.52673992243E+03  0.66825054288E+03  0.18037690910E+04  0.19943913051E+04  0.10100000352E+00 0.  1.
</event>
<event>
 5   0  0.1001961E-05  0.3014677E+04  0.7818609E-02  0.8239552E-01
       -2   -1    0    0    0  501  0.00000000000E+00  0.00000000000E+00  0.19483074808E+04  0.19483074808E+04  0.25500000920E-02 0. -1.
        2   -1    0    0  501    0  0.00000000000E+00  0.00000000000E+00 -0.11661758208E+04  0.11661758208E+04  0.25500000920E-02 0.  1.
    10030    2    1    2    0    0  0.00000000000E+00  0.00000000000E+00  0.78213165999E+03  0.31144833016E+04  0.30146768156E+04 0.  0.
        5    1    3    3  502    0  0.25513315065E+03  0.71575875377E+03  0.17359485597E+04  0.18949783667E+04  0.46999998093E+01 0. -1.
       -5    1    3    3    0  502 -0.25513315065E+03 -0.71575875377E+03 -0.95381689973E+03  0.12195049350E+04  0.46999998093E+01 0.  1.
</event>
<event>
 5   0  0.1001961E-05  0.3098663E+04  0.7818609E-02  0.8216105E-01
        2   -1    0    0  501    0  0.00000000000E+00  0.00000000000E+00  0.16589477948E+04  0.16589477948E+04  0.25500000920E-02 0.  1.
       -2   -1    0    0    0  501  0.00000000000E+00  0.00000000000E+00 -0.14469577774E+04  0.14469577775E+04  0.25500000920E-02 0. -1.
    10030    2    1    2    0    0  0.00000000000E+00  0.00000000000E+00  0.21199001737E+03  0.31059055723E+04  0.30986625593E+04 0.  0.
        5    1    3    3  502    0  0.10746538811E+04  0.10876848887E+04 -0.14452107450E+03  0.15358540986E+04  0.46999998093E+01 0. -1.
       -5    1    3    3    0  502 -0.10746538811E+04 -0.10876848887E+04  0.35651109187E+03  0.15700514737E+04  0.46999998093E+01 0.  1.
</event>
<event>
 5   0  0.3807334E-06  0.2694622E+04  0.7818609E-02  0.8336752E-01
        1   -1    0    0  501    0  0.00000000000E+00  0.00000000000E+00  0.22749548089E+04  0.22749548089E+04  0.50400001928E-02 0.  1.
       -1   -1    0    0    0  501  0.00000000000E+00  0.00000000000E+00 -0.79792632999E+03  0.79792633000E+03  0.50400001928E-02 0. -1.
    10030    2    1    2    0    0  0.00000000000E+00  0.00000000000E+00  0.14770284789E+04  0.30728811389E+04  0.26946215627E+04 0.  0.
        4    1    3    3  502    0  0.58729369244E+03  0.88733736183E+03  0.16809389173E+04  0.19894317609E+04  0.12699999809E+01 0.  1.
       -4    1    3    3    0  502 -0.58729369244E+03 -0.88733736183E+03 -0.20391043836E+03  0.10834493780E+04  0.12699999809E+01 0. -1.
</event>
<event>
 5   0  0.4139628E-06  0.3103014E+04  0.7818609E-02  0.8214911E-01
       -1   -1    0    0    0  501  0.00000000000E+00  0.00000000000E+00  0.15880124902E+04  0.15880124902E+04  0.50400001928E-02 0. -1.
        1   -1    0    0  501    0  0.00000000000E+00  0.00000000000E+00 -0.15158402890E+04  0.15158402890E+04  0.50400001928E-02 0.  1.
    10030    2    1    2    0    0  0.00000000000E+00  0.00000000000E+00  0.72172201138E+02  0.31038527792E+04  0.31030135753E+04 0.  0.
        5    1    3    3  502    0  0.20411908696E+03 -0.13461649477E+03  0.15686117519E+04  0.15875613754E+04  0.46999998093E+01 0. -1.
       -5    1    3    3    0  502 -0.20411908696E+03  0.13461649477E+03 -0.14964395508E+04  0.15162914039E+04  0.46999998093E+01 0.  1.
</event>
<event>
 5   0  0.3807334E-06  0.2607426E+04  0.7818609E-02  0.8365683E-01
        1   -1    0    0  501    0  0.00000000000E+00  0.00000000000E+00  0.15433060355E+04  0.15433060355E+04  0.50400001928E-02 0.  1.
       -1   -1    0    0    0  501  0.00000000000E+00  0.00000000000E+00 -0.11013158369E+04  0.11013158369E+04  0.50400001928E-02 0. -1.
    10030    2    1    2    0    0  0.00000000000E+00  0.00000000000E+00  0.44199019853E+03  0.26446218724E+04  0.26074258402E+04 0.  0.
        4    1    3    3  502    0 -0.12615802121E+03 -0.82635053910E+03 -0.79372395652E+03  0.11527230334E+04  0.12699999809E+01 0. -1.
       -4    1    3    3    0  502  0.12615802121E+03  0.82635053910E+03  0.12357141550E+04  0.14918988390E+04  0.12699999809E+01 0.  1.
</event>
<event>
 5   0  0.3838525E-06  0.3247451E+04  0.7818609E-02  0.8176397E-01
        1   -1    0    0  501    0  0.00000000000E+00  0.00000000000E+00  0.21085069458E+04  0.21085069458E+04  0.50400001928E-02 0.  1.
       -1   -1    0    0    0  501  0.00000000000E+00  0.00000000000E+00 -0.12504033445E+04  0.12504033446E+04  0.50400001928E-02 0. -1.
    10030    2    1    2    0    0  0.00000000000E+00  0.00000000000E+00  0.85810360125E+03  0.33589102904E+04  0.32474507769E+04 0.  0.
        3    1    3    3  502    0 -0.15573642426E+04  0.44572978224E+03  0.54434835495E+03  0.17089100517E+04  0.10100000352E+00 0.  1.
       -3    1    3    3    0  502  0.15573642426E+04 -0.44572978224E+03  0.31375524631E+03  0.16500002387E+04  0.10100000352E+00 0. -1.
</event>
<event>
 5   0  0.3807334E-06  0.3081735E+04  0.7818609E-02  0.8220769E-01
        1   -1    0    0  501    0  0.00000000000E+00  0.00000000000E+00  0.16807613226E+04  0.16807613226E+04  0.50400001928E-02 0.  1.
       -1   -1    0    0    0  501  0.00000000000E+00  0.00000000000E+00 -0.14126171674E+04  0.14126171675E+04  0.50400001928E-02 0. -1.
    10030    2    1    2    0    0  0.00000000000E+00  0.00000000000E+00  0.26814415511E+03  0.30933784900E+04  0.30817347703E+04 0.  0.
        4    1    3    3  502    0  0.17041123968E+02  0.75650936378E+03  0.14814080113E+04  0.16634807262E+04  0.12699999809E+01 0.  1.
       -4    1    3    3    0  502 -0.17041123968E+02 -0.75650936378E+03 -0.12132638562E+04  0.14298977639E+04  0.12699999809E+01 0. -1.
</event>
<event>
 5   0  0.1007567E-05  0.2774900E+04  0.7818609E-02  0.8311103E-01
        2   -1    0    0  501    0  0.00000000000E+00  0.00000000000E+00  0.19595320393E+04  0.19595320393E+04  0.25500000920E-02 0.  1.
       -2   -1    0    0    0  501  0.00000000000E+00  0.00000000000E+00 -0.98238645399E+03  0.98238645400E+03  0.25500000920E-02 0. -1.
    10030    2    1    2    0    0  0.00000000000E+00  0.00000000000E+00  0.97714558528E+03  0.29419184933E+04  0.27749001651E+04 0.  0.
        3    1    3    3  502    0  0.16892290667E+03  0.16226621747E+03 -0.96127288626E+03  0.98939923479E+03  0.10100000352E+00 0. -1.
       -3    1    3    3    0  502 -0.16892290667E+03 -0.16226621747E+03  0.19384184715E+04  0.19525192585E+04  0.10100000352E+00 0.  1.
</event>
<event>
 5   0  0.1001961E-05  0.3052200E+04  0.7818609E-02  0.8228980E-01
        2   -1    0    0  501    0  0.00000000000E+00  0.00000000000E+00  0.18555885164E+04  0.18555885164E+04  0.25500000920E-02 0.  1.
       -2   -1    0    0    0  501  0.00000000000E+00  0.00000000000E+00 -0.12551168973E+04  0.12551168973E+04  0.25500000920E-02 0. -1.
    10030    2    1    2    0    0  0.00000000000E+00  0.00000000000E+00  0.60047161915E+03  0.31107054137E+04  0.30521995356E+04 0.  0.
        5    1    3    3  502    0  0.79627178705E+03 -0.12979132104E+04  0.40382539749E+03  0.15753490097E+04  0.46999998093E+01 0. -1.
       -5    1    3    3    0  502 -0.79627178705E+03  0.12979132104E+04  0.19664622166E+03  0.15353564040E+04  0.46999998093E+01 0.  1.
</event>
<event>
 5   0  0.1001961E-05  0.2745600E+04  0.7818609E-02  0.8320359E-01
       -2   -1    0    0    0  501  0.00000000000E+00  0.00000000000E+00  0.15949754606E+04  0.15949754606E+04  0.25500000920E-02 0. -1.
        2   -1    0    0  501    0  0.00000000000E+00  0.00000000000E+00 -0.11815732688E+04  0.11815732688E+04  0.25500000920E-02 0.  1.
    10030    2    1    2    0    0  0.00000000000E+00  0.00000000000E+00  0.41340219185E+03  0.27765487294E+04  0.27456003851E+04 0.  0.
        5    1    3    3  502    0 -0.10230452635E+04  0.49155776362E+03 -0.57421281076E+03  0.12720035724E+04  0.46999998093E+01 0.  1.
       -5    1    3    3    0  502  0.10230452635E+04 -0.49155776362E+03  0.98761500262E+03  0.15045451570E+04  0.46999998093E+01 0. -1.
</event>
<event>
 5   0  0.4250961E-06  0.3144447E+04  0.7818609E-02  0.8203644E-01
        1   -1    0    0  501    0  0.00000000000E+00  0.00000000000E+00  0.25184151347E+04  0.25184151347E+04  0.50400001928E-02 0. -1.
       -1   -1    0    0    0  501  0.00000000000E+00  0.00000000000E+00 -0.98152499502E+03  0.98152499503E+03  0.50400001928E-02 0.  1.
    10030    2    1    2    0    0  0.00000000000E+00  0.00000000000E+00  0.15368901397E+04  0.34999401297E+04  0.31444474253E+04 0.  0.
        1    1    3    3  502    0 -0.15621134138E+04 -0.17526018542E+03  0.80316365871E+03  0.17652156562E+04  0.50400001928E-02 0. -1.
       -1    1    3    3    0  502  0.15621134138E+04  0.17526018542E+03  0.73372648096E+03  0.17347244735E+04  0.50400001928E-02 0.  1.
</event>
<event>
 5   0  0.9797278E-06  0.3090966E+04  0.7818609E-02  0.8218222E-01
       -2   -1    0    0    0  501  0.00000000000E+00  0.00000000000E+00  0.17711703990E+04  0.17711703990E+04  0.25500000920E-02 0.  1.
        2   -1    0    0  501    0  0.00000000000E+00  0.00000000000E+00 -0.13485530198E+04  0.13485530198E+04  0.25500000920E-02 0. -1.
    10030    2    1    2    0    0  0.00000000000E+00  0.00000000000E+00  0.42261737924E+03  0.31197234188E+04  0.30909656680E+04 0.  0.
        1    1    3    3  502    0  0.11244610730E+04 -0.56113035209E+03  0.11192543030E+04  0.16828577395E+04  0.50400001928E-02 0.  1.
       -1    1    3    3    0  502 -0.11244610730E+04  0.56113035209E+03 -0.69663692373E+03  0.14368656793E+04  0.50400001928E-02 0. -1.
</event>
<event>
 5   0  0.9797278E-06  0.2011789E+04  0.7818609E-02  0.8601129E-01
       -2   -1    0    0    0  501  0.00000000000E+00  0.00000000000E+00  0.10962559579E+04  0.10962559579E+04  0.25500000920E-02 0. -1.
        2   -1    0    0  501    0  0.00000000000E+00  0.00000000000E+00 -0.92298128917E+03  0.92298128917E+03  0.25500000920E-02 0.  1.
    10030    2    1    2    0    0  0.00000000000E+00  0.00000000000E+00  0.17327466872E+03  0.20192372471E+04  0.20117889922E+04 0.  0.
        1    1    3    3  502    0 -0.45733072804E+03 -0.72597895891E+03  0.61358285424E+03  0.10548368417E+04  0.50400001928E-02 0. -1.
       -1    1    3    3    0  502  0.45733072804E+03  0.72597895891E+03 -0.44030818552E+03  0.96440040536E+03  0.50400001928E-02 0.  1.
</event>
<event>
 5   0  0.3838525E-06  0.3146014E+04  0.7818609E-02  0.8203222E-01
       -1   -1    0    0    0  501  0.00000000000E+00  0.00000000000E+00  0.12395914953E+04  0.12395914953E+04  0.50400001928E-02 0.  1.
        1   -1    0    0  501    0  0.00000000000E+00  0.00000000000E+00 -0.19961023174E+04  0.19961023174E+04  0.50400001928E-02 0. -1.
    10030    2    1    2    0    0  0.00000000000E+00  0.00000000000E+00 -0.75651082206E+03  0.32356938127E+04  0.31460142761E+04 0.  0.
        3    1    3    3  502    0  0.86821766507E+03 -0.55071721358E+03 -0.16026784904E+04  0.19041191447E+04  0.10100000352E+00 0. -1.
       -3    1    3    3    0  502 -0.86821766507E+03  0.55071721358E+03  0.84616766836E+03  0.13315746680E+04  0.10100000352E+00 0.  1.
</event>
<event>
 5   0  0.1108153E-05  0.2835376E+04  0.7818609E-02  0.8292369E-01
       -2   -1    0    0    0  501  0.00000000000E+00  0.00000000000E+00  0.12752936219E+04  0.12752936219E+04  0.25500000920E-02 0. -1.
        2   -1    0    0  501    0  0.00000000000E+00  0.00000000000E+00 -0.15759815133E+04  0.15759815133E+04  0.25500000920E-02 0.  1.
    10030    2    1    2    0    0  0.00000000000E+00  0.00000000000E+00 -0.30068789146E+03  0.28512751352E+04  0.28353759343E+04 0.  0.
        4    1    3    3  502    0 -0.13331830357E+04 -0.24541294070E+02  0.33387277315E+03  0.13745733604E+04  0.12699999809E+01 0.  1.
       -4    1    3    3    0  502  0.13331830357E+04  0.24541294070E+02 -0.63456066461E+03  0.14767017748E+04  0.12699999809E+01 0. -1.
</event>
<event>
 5   0  0.3848286E-06  0.3136171E+04  0.7818609E-02  0.8205881E-01
       -1   -1    0    0    0  501  0.00000000000E+00  0.00000000000E+00  0.13566499314E+04  0.13566499314E+04  0.50400001928E-02 0. -1.
        1   -1    0    0  501    0  0.00000000000E+00  0.00000000000E+00 -0.18124735141E+04  0.18124735141E+04  0.50400001928E-02 0.  1.
    10030    2    1    2    0    0  0.00000000000E+00  0.00000000000E+00 -0.45582358268E+03  0.31691234454E+04  0.31361709574E+04 0.  0.
        2    1    3    3  502    0 -0.12880290726E+04 -0.89349493954E+03 -0.26756656696E+03  0.15902653762E+04  0.25500000920E-02 0. -1.
       -2    1    3    3    0  502  0.12880290726E+04  0.89349493954E+03 -0.18825701571E+03  0.15788580693E+04  0.25500000920E-02 0.  1.
</event>
<event>
 5   0  0.1119100E-05  0.2030156E+04  0.7818609E-02  0.8592650E-01
       -2   -1    0    0    0  501  0.00000000000E+00  0.00000000000E+00  0.74006393140E+03  0.74006393141E+03  0.25500000920E-02 0. -1.
        2   -1    0    0  501    0  0.00000000000E+00  0.00000000000E+00 -0.13922901811E+04  0.13922901812E+04  0.25500000920E-02 0.  1.
    10030    2    1    2    0    0  0.00000000000E+00  0.00000000000E+00 -0.65222624975E+03  0.21323541126E+04  0.20301563931E+04 0.  0.
        2    1    3    3  502    0  0.14266261684E+03  0.68009323977E+03 -0.11032966816E+04  0.13038953197E+04  0.25500000920E-02 0.  1.
       -2    1    3    3    0  502 -0.14266261684E+03 -0.68009323977E+03  0.45107043184E+03  0.82845879289E+03  0.25500000920E-02 0. -1.
</event>
<event>
 5   0  0.4250961E-06  0.2737988E+04  0.7818609E-02  0.8322783E-01
        1   -1    0    0  501    0  0.00000000000E+00  0.00000000000E+00  0.15923932842E+04  0.15923932842E+04  0.50400001928E-02 0.  1.
       -1   -1    0    0    0  501  0.00000000000E+00  0.00000000000E+00 -0.11769359483E+04  0.11769359483E+04  0.50400001928E-02 0. -1.
    10030    2    1    2    0    0  0.00000000000E+00  0.00000000000E+00  0.41545733590E+03  0.27693292325E+04  0.27379882396E+04 0.  0.
        1    1    3    3  502    0  0.24195742548E+03 -0.13462653793E+04  0.26468517903E+03  0.13932092848E+04  0.50400001928E-02 0. -1.
       -1    1    3    3    0  502 -0.24195742548E+03  0.13462653793E+04  0.15077215687E+03  0.13761199477E+04  0.50400001928E-02 0.  1.
</event>
<event>
 5   0  0.1119100E-05  0.3145064E+04  0.7818609E-02  0.8203478E-01
        2   -1    0    0  501    0  0.00000000000E+00  0.00000000000E+00  0.25691729983E+04  0.25691729983E+04  0.25500000920E-02 0.  1.
       -2   -1    0    0    0  501  0.00000000000E+00  0.00000000000E+00 -0.96251089879E+03  0.96251089879E+03  0.25500000920E-02 0. -1.
    10030    2    1    2    0    0  0.00000000000E+00  0.00000000000E+00  0.16066620995E+04  0.35316838971E+04  0.31450640768E+04 0.  0.
        2    1    3    3  502    0  0.94496399613E+03 -0.10154051093E+04 -0.28586256805E+02  0.13873794232E+04  0.25500000920E-02 0. -1.
       -2    1    3    3    0  502 -0.94496399613E+03  0.10154051093E+04  0.16352483563E+04  0.21443044739E+04  0.25500000920E-02 0.  1.
</event>
<event>
 5   0  0.1001961E-05  0.3118306E+04  0.7818609E-02  0.8210732E-01
       -2   -1    0    0    0  501  0.00000000000E+00  0.00000000000E+00  0.18069066126E+04  0.18069066126E+04  0.25500000920E-02 0.  1.
        2   -1    0    0  501    0  0.00000000000E+00  0.00000000000E+00 -0.13453702641E+04  0.13453702641E+04  0.25500000920E-02 0. -1.
    10030    2    1    2    0    0  0.00000000000E+00  0.00000000000E+00  0.46153634853E+03  0.31522768767E+04  0.31183062239E+04 0.  0.
        5    1    3    3  502    0 -0.74949295192E+03  0.53986983224E+03 -0.10389955910E+04  0.13902276968E+04  0.46999998093E+01 0. -1.
       -5    1    3    3    0  502  0.74949295192E+03 -0.53986983224E+03  0.15005319395E+04  0.17620491799E+04  0.46999998093E+01 0.  1.
</event>
<event>
 5   0  0.1001961E-05  0.1904840E+04  0.7818609E-02  0.8652451E-01
        2   -1    0    0  501    0  0.00000000000E+00  0.00000000000E+00  0.70687203187E+03  0.70687203188E+03  0.25500000920E-02 0.  1.
       -2   -1    0    0    0  501  0.00000000000E+00  0.00000000000E+00 -0.12832646331E+04  0.12832646331E+04  0.25500000920E-02 0. -1.
    10030    2    1    2    0    0  0.00000000000E+00  0.00000000000E+00 -0.57639260120E+03  0.19901366650E+04  0.19048400233E+04 0.  0.
        5    1    3    3  502    0 -0.84360589663E+03  0.39373959868E+03 -0.49814229586E+03  0.10558738643E+04  0.46999998093E+01 0. -1.
       -5    1    3    3    0  502  0.84360589663E+03 -0.39373959868E+03 -0.78250305335E+02  0.93426280065E+03  0.46999998093E+01 0.  1.
</event>
<event>
 5   0  0.1001961E-05  0.3046948E+04  0.7818609E-02  0.8230450E-01
        2   -1    0    0  501    0  0.00000000000E+00  0.00000000000E+00  0.33644754924E+04  0.33644754924E+04  0.25500000920E-02 0. -1.
       -2   -1    0    0    0  501  0.00000000000E+00  0.00000000000E+00 -0.68984676835E+03  0.68984676835E+03  0.25500000920E-02 0.  1.
    10030    2    1    2    0    0  0.00000000000E+00  0.00000000000E+00  0.26746287240E+04  0.40543222607E+04  0.30469476829E+04 0.  0.
        5    1    3    3  502    0 -0.91598775844E+02  0.54287450853E+03 -0.55284067127E+03  0.78022943136E+03  0.46999998093E+01 0.  1.
       -5    1    3    3    0  502  0.91598775844E+02 -0.54287450853E+03  0.32274693953E+04  0.32740928294E+04  0.46999998093E+01 0. -1.
</event>
<event>
 5   0  0.4250961E-06  0.3149350E+04  0.7818609E-02  0.8202323E-01
       -1   -1    0    0    0  501  0.00000000000E+00  0.00000000000E+00  0.11876275797E+04  0.11876275797E+04  0.50400001928E-02 0. -1.
        1   -1    0    0  501    0  0.00000000000E+00  0.00000000000E+00 -0.20878610216E+04  0.20878610216E+04  0.50400001928E-02 0.  1.
    10030    2    1    2    0    0  0.00000000000E+00  0.00000000000E+00 -0.90023344197E+03  0.32754886013E+04  0.31493499849E+04 0.  0.
        1    1    3    3  502    0  0.11796936765E+04  0.10098413217E+04 -0.72161751327E+03  0.17123634255E+04  0.50400001928E-02 0. -1.
       -1    1    3    3    0  502 -0.11796936765E+04 -0.10098413217E+04 -0.17861592870E+03  0.15631251758E+04  0.50400001928E-02 0.  1.
</event>
<event>
 5   0  0.3838525E-06  0.1756611E+04  0.7818609E-02  0.8729720E-01
        1   -1    0    0  501    0  0.00000000000E+00  0.00000000000E+00  0.63472904775E+03  0.63472904777E+03  0.50400001928E-02 0. -1.
       -1   -1    0    0    0  501  0.00000000000E+00  0.00000000000E+00 -0.12153545412E+04  0.12153545412E+04  0.50400001928E-02 0.  1.
    10030    2    1    2    0    0  0.00000000000E+00  0.00000000000E+00 -0.58062549346E+03  0.18500835890E+04  0.17566113180E+04 0.  0.
        3    1    3    3  502    0 -0.80313580686E+03 -0.35538020834E+03 -0.30077107566E+03  0.92832400965E+03  0.10100000352E+00 0. -1.
       -3    1    3    3    0  502  0.80313580686E+03  0.35538020834E+03 -0.27985441781E+03  0.92175957934E+03  0.10100000352E+00 0.  1.
</event>
<event>
 5   0  0.3838525E-06  0.3059368E+04  0.7818609E-02  0.8226978E-01
       -1   -1    0    0    0  501  0.00000000000E+00  0.00000000000E+00  0.15360276815E+04  0.15360276815E+04  0.50400001928E-02 0. -1.
        1   -1    0    0  501    0  0.00000000000E+00  0.00000000000E+00 -0.15233664294E+04  0.15233664294E+04  0.50400001928E-02 0.  1.
    10030    2    1    2    0    0  0.00000000000E+00  0.00000000000E+00  0.12661252094E+02  0.30593941109E+04  0.30593679116E+04 0.  0.
        3    1    3    3  502    0  0.10284447641E+04 -0.30235972826E+03  0.10975837369E+04  0.15342131885E+04  0.10100000352E+00 0. -1.
       -3    1    3    3    0  502 -0.10284447641E+04  0.30235972826E+03 -0.10849224848E+04  0.15251809225E+04  0.10100000352E+00 0.  1.
</event>
<event>
 5   0  0.9797278E-06  0.2507936E+04  0.7818609E-02  0.8400164E-01
       -2   -1    0    0    0  501  0.00000000000E+00  0.00000000000E+00  0.10882639509E+04  0.10882639509E+04  0.25500000920E-02 0. -1.
        2   -1    0    0  501    0  0.00000000000E+00  0.00000000000E+00 -0.14449031589E+04  0.14449031589E+04  0.25500000920E-02 0.  1.
    10030    2    1    2    0    0  0.00000000000E+00  0.00000000000E+00 -0.35663920795E+03  0.25331671098E+04  0.25079362196E+04 0.  0.
        1    1    3    3  502    0  0.17018397519E+03 -0.11558515826E+04  0.28176325398E+03  0.12018094682E+04  0.50400001928E-02 0.  1.
       -1    1    3    3    0  502 -0.17018397519E+03  0.11558515826E+04 -0.63840246194E+03  0.13313576416E+04  0.50400001928E-02 0. -1.
</event>
<event>
 5   0  0.4139628E-06  0.3109704E+04  0.7818609E-02  0.8213080E-01
        1   -1    0    0  501    0  0.00000000000E+00  0.00000000000E+00  0.21725026720E+04  0.21725026720E+04  0.50400001928E-02 0. -1.
       -1   -1    0    0    0  501  0.00000000000E+00  0.00000000000E+00 -0.11128017073E+04  0.11128017073E+04  0.50400001928E-02 0.  1.
    10030    2    1    2    0    0  0.00000000000E+00  0.00000000000E+00  0.10597009647E+04  0.32853043792E+04  0.31097039617E+04 0.  0.
        5    1    3    3  502    0  0.75656485223E+03 -0.21022756230E+03 -0.88792737036E+03  0.11853367069E+04  0.46999998093E+01 0.  1.
       -5    1    3    3    0  502 -0.75656485223E+03  0.21022756230E+03  0.19476283350E+04  0.20999676724E+04  0.46999998093E+01 0. -1.
</event>
<event>
 5   0  0.9797278E-06  0.2786223E+04  0.7818609E-02  0.8307558E-01
       -2   -1    0    0    0  501  0.00000000000E+00  0.00000000000E+00  0.14423923929E+04  0.14423923929E+04  0.25500000920E-02 0.  1.
        2   -1    0    0  501    0  0.00000000000E+00  0.00000000000E+00 -0.13455147396E+04  0.13455147396E+04  0.25500000920E-02 0. -1.
    10030    2    1    2    0    0  0.00000000000E+00  0.00000000000E+00  0.96877653235E+02  0.27879071325E+04  0.27862234116E+04 0.  0.
        1    1    3    3  502    0 -0.13034542272E+04  0.38262345241E+03  0.35744026926E+03  0.14046911314E+04  0.50400001928E-02 0.  1.
       -1    1    3    3    0  502  0.13034542272E+04 -0.38262345241E+03 -0.26056261602E+03  0.13832160010E+04  0.50400001928E-02 0. -1.
</event>
<event>
 5   0  0.1007567E-05  0.2596850E+04  0.7818609E-02  0.8369272E-01
       -2   -1    0    0    0  501  0.00000000000E+00  0.00000000000E+00  0.12879235910E+04  0.12879235910E+04  0.25500000920E-02 0.  1.
        2   -1    0    0  501    0  0.00000000000E+00  0.00000000000E+00 -0.13090124709E+04  0.13090124709E+04  0.25500000920E-02 0. -1.
    10030    2    1    2    0    0  0.00000000000E+00  0.00000000000E+00 -0.21088879957E+02  0.25969360619E+04  0.25968504325E+04 0.  0.
        3    1    3    3  502    0 -0.35866083873E+03  0.12435744602E+04 -0.11443721357E+03  0.12993117107E+04  0.10100000352E+00 0.  1.
       -3    1    3    3    0  502  0.35866083873E+03 -0.12435744602E+04  0.93348333617E+02  0.12976243513E+04  0.10100000352E+00 0. -1.
</event>
<event>
 5   0  0.1119100E-05  0.2020619E+04  0.7818609E-02  0.8597041E-01
       -2   -1    0    0    0  501  0.00000000000E+00  0.00000000000E+00  0.15495256864E+04  0.15495256864E+04  0.25500000920E-02 0.  1.
        2   -1    0    0  501    0  0.00000000000E+00  0.00000000000E+00 -0.65873390645E+03  0.65873390645E+03  0.25500000920E-02 0. -1.
    10030    2    1    2    0    0  0.00000000000E+00  0.00000000000E+00  0.89079177994E+03  0.22082595928E+04  0.20206188246E+04 0.  0.
        2    1    3    3  502    0 -0.39797471392E+03  0.22022957214E+03  0.14313013970E+04  0.15018350863E+04  0.25500000920E-02 0.  1.
       -2    1    3    3    0  502  0.39797471392E+03 -0.22022957214E+03 -0.54050961704E+03  0.70642450657E+03  0.25500000920E-02 0. -1.
</event>
<event>
 5   0  0.3848286E-06  0.1706853E+04  0.7818609E-02  0.8757465E-01
       -1   -1    0    0    0  501  0.00000000000E+00  0.00000000000E+00  0.48692264777E+03  0.48692264779E+03  0.50400001928E-02 0.  1.
        1   -1    0    0  501    0  0.00000000000E+00  0.00000000000E+00 -0.14957958042E+04  0.14957958042E+04  0.50400001928E-02 0. -1.
    10030    2    1    2    0    0  0.00000000000E+00  0.00000000000E+00 -0.10088731565E+04  0.19827184520E+04  0.17068530734E+04 0.  0.
        2    1    3    3  502    0  0.12588166221E+03  0.55019465409E+03  0.23916180348E+03  0.61299161374E+03  0.25500000920E-02 0.  1.
       -2    1    3    3    0  502 -0.12588166221E+03 -0.55019465409E+03 -0.12480349599E+04  0.13697268383E+04  0.25500000920E-02 0. -1.
</event>
<event>
 5   0  0.1001961E-05  0.2975910E+04  0.7818609E-02  0.8250644E-01
       -2   -1    0    0    0  501  0.00000000000E+00  0.00000000000E+00  0.12775010524E+04  0.12775010524E+04  0.25500000920E-02 0.  1.
        2   -1    0    0  501    0  0.00000000000E+00  0.00000000000E+00 -0.17330790100E+04  0.17330790100E+04  0.25500000920E-02 0. -1.
    10030    2    1    2    0    0  0.00000000000E+00  0.00000000000E+00 -0.45557795760E+03  0.30105800624E+04  0.29759101191E+04 0.  0.
        5    1    3    3  502    0 -0.21299487352E+02  0.11590791563E+04 -0.11714314318E+04  0.16480873302E+04  0.46999998093E+01 0. -1.
       -5    1    3    3    0  502  0.21299487352E+02 -0.11590791563E+04  0.71585347419E+03  0.13624927322E+04  0.46999998093E+01 0.  1.
</event>
<event>
 5   0  0.3493125E-06  0.3132783E+04  0.7818609E-02  0.8206798E-01
        3   -1    0    0  501    0  0.00000000000E+00  0.00000000000E+00  0.11005492356E+04  0.11005492403E+04  0.10100000352E+00 0. -1.
       -3   -1    0    0    0  501  0.00000000000E+00  0.00000000000E+00 -0.22294162262E+04  0.22294162285E+04  0.10100000352E+00 0.  1.
    10030    2    1    2    0    0  0.00000000000E+00  0.00000000000E+00 -0.11288669906E+04  0.33299654688E+04  0.31327830025E+04 0.  0.
        3    1    3    3  502    0 -0.60482526317E+02  0.15640397777E+04 -0.62912257950E+03  0.16869125029E+04  0.10100000352E+00 0. -1.
       -3    1    3    3    0  502  0.60482526317E+02 -0.15640397777E+04 -0.49974441106E+03  0.16430529659E+04  0.10100000352E+00 0.  1.
</event>
<event>
 5   0  0.1001961E-05  0.1691380E+04  0.7818609E-02  0.8766296E-01
        2   -1    0    0  501    0  0.00000000000E+00  0.00000000000E+00  0.11942692295E+04  0.11942692295E+04  0.25500000920E-02 0. -1.
       -2   -1    0    0    0  501  0.00000000000E+00  0.00000000000E+00 -0.59885302264E+03  0.59885302265E+03  0.25500000920E-02 0.  1.
    10030    2    1    2    0    0  0.00000000000E+00  0.00000000000E+00  0.59541620690E+03  0.17931222522E+04  0.16913801914E+04 0.  0.
        5    1    3    3  502    0 -0.31079711972E+03  0.55050364584E+03 -0.29779286807E+03  0.69882171974E+03  0.46999998093E+01 0.  1.
       -5    1    3    3    0  502  0.31079711972E+03 -0.55050364584E+03  0.89320907497E+03  0.10943005324E+04  0.46999998093E+01 0. -1.
</event>
<event>
 5   0  0.9797278E-06  0.2740419E+04  0.7818609E-02  0.8322008E-01
       -2   -1    0    0    0  501  0.00000000000E+00  0.00000000000E+00  0.13902819467E+04  0.13902819467E+04  0.25500000920E-02 0. -1.
        2   -1    0    0  501    0  0.00000000000E+00  0.00000000000E+00 -0.13504272979E+04  0.13504272979E+04  0.25500000920E-02 0.  1.
    10030    2    1    2    0    0  0.00000000000E+00  0.00000000000E+00  0.39854648824E+02  0.27407092446E+04  0.27404194516E+04 0.  0.
        1    1    3    3  502    0  0.34369348013E+03  0.11771073969E+04  0.63135738153E+03  0.13792458720E+04  0.50400001928E-02 0.  1.
       -1    1    3    3    0  502 -0.34369348013E+03 -0.11771073969E+04 -0.59150273271E+03  0.13614633726E+04  0.50400001928E-02 0. -1.
</event>
<event>
 5   0  0.1108153E-05  0.3024345E+04  0.7818609E-02  0.8236813E-01
       -2   -1    0    0    0  501  0.00000000000E+00  0.00000000000E+00  0.15480008177E+04  0.15480008177E+04  0.25500000920E-02 0. -1.
        2   -1    0    0  501    0  0.00000000000E+00  0.00000000000E+00 -0.14771732245E+04  0.14771732245E+04  0.25500000920E-02 0.  1.
    10030    2    1    2    0    0  0.00000000000E+00  0.00000000000E+00  0.70827593234E+02  0.30251740422E+04  0.30243447947E+04 0.  0.
        4    1    3    3  502    0 -0.91483918991E+03 -0.17343746804E+03 -0.11564045896E+04  0.14846832950E+04  0.12699999809E+01 0.  1.
       -4    1    3    3    0  502  0.91483918991E+03  0.17343746804E+03  0.12272321828E+04  0.15404907472E+04  0.12699999809E+01 0. -1.
</event>
<event>
 5   0  0.3848286E-06  0.3076720E+04  0.7818609E-02  0.8222156E-01
        1   -1    0    0  501    0  0.00000000000E+00  0.00000000000E+00  0.13946660263E+04  0.13946660263E+04  0.50400001928E-02 0. -1.
       -1   -1    0    0    0  501  0.00000000000E+00  0.00000000000E+00 -0.16968587078E+04  0.16968587078E+04  0.50400001928E-02 0.  1.
    10030    2    1    2    0    0  0.00000000000E+00  0.00000000000E+00 -0.30219268153E+03  0.30915247341E+04  0.30767198060E+04 0.  0.
        2    1    3    3  502    0 -0.10942124691E+04 -0.10691991349E+04 -0.31331504450E+03  0.15616190427E+04  0.25500000920E-02 0. -1.
       -2    1    3    3    0  502  0.10942124691E+04  0.10691991349E+04  0.11122362970E+02  0.15299056914E+04  0.25500000920E-02 0.  1.
</event>
<event>
 5   0  0.3848286E-06  0.3131504E+04  0.7818609E-02  0.8207145E-01
       -1   -1    0    0    0  501  0.00000000000E+00  0.00000000000E+00  0.12893994177E+04  0.12893994177E+04  0.50400001928E-02 0.  1.
        1   -1    0    0  501    0  0.00000000000E+00  0.00000000000E+00 -0.19013344394E+04  0.19013344394E+04  0.50400001928E-02 0. -1.
    10030    2    1    2    0    0  0.00000000000E+00  0.00000000000E+00 -0.61193502170E+03  0.31907338572E+04  0.31315041236E+04 0.  0.
        2    1    3    3  502    0  0.10700779740E+04  0.45839616460E+03 -0.13728565544E+04  0.17999802869E+04  0.25500000920E-02 0. -1.
       -2    1    3    3    0  502 -0.10700779740E+04 -0.45839616460E+03  0.76092153271E+03  0.13907535703E+04  0.25500000920E-02 0.  1.
</event>
<event>
 5   0  0.1001961E-05  0.3053238E+04  0.7818609E-02  0.8228690E-01
       -2   -1    0    0    0  501  0.00000000000E+00  0.00000000000E+00  0.12754680445E+04  0.12754680445E+04  0.25500000920E-02 0.  1.
        2   -1    0    0  501    0  0.00000000000E+00  0.00000000000E+00 -0.18272241521E+04  0.18272241521E+04  0.25500000920E-02 0. -1.
    10030    2    1    2    0    0  0.00000000000E+00  0.00000000000E+00 -0.55175610755E+03  0.31026921966E+04  0.30532382915E+04 0.  0.
        5    1    3    3  502    0  0.12333197087E+04 -0.88446041700E+03 -0.10829424720E+03  0.15215444348E+04  0.46999998093E+01 0.  1.
       -5    1    3    3    0  502 -0.12333197087E+04  0.88446041700E+03 -0.44346186036E+03  0.15811477618E+04  0.46999998093E+01 0. -1.
</event>
<event>
 5   0  0.1007567E-05  0.3643736E+04  0.7818609E-02  0.8080546E-01
        2   -1    0    0  501    0  0.00000000000E+00  0.00000000000E+00  0.17970269874E+04  0.17970269874E+04  0.25500000920E-02 0. -1.
       -2   -1    0    0    0  501  0.00000000000E+00  0.00000000000E+00 -0.18470519277E+04  0.18470519277E+04  0.25500000920E-02 0.  1.
    10030    2    1    2    0    0  0.00000000000E+00  0.00000000000E+00 -0.50024940250E+02  0.36440789151E+04  0.36437355344E+04 0.  0.
        3    1    3    3  502    0 -0.15509499195E+04  0.84960927441E+03 -0.46314116503E+03  0.18280539710E+04  0.10100000352E+00 0. -1.
       -3    1    3    3    0  502  0.15509499195E+04 -0.84960927441E+03  0.41311622478E+03  0.18160249440E+04  0.10100000352E+00 0.  1.
</event>
<event>
 5   0  0.3848286E-06  0.3158740E+04  0.7818609E-02  0.8199800E-01
       -1   -1    0    0    0  501  0.00000000000E+00  0.00000000000E+00  0.10738440661E+04  0.10738440661E+04  0.50400001928E-02 0.  1.
        1   -1    0    0  501    0  0.00000000000E+00  0.00000000000E+00 -0.23228783889E+04  0.23228783889E+04  0.50400001928E-02 0. -1.
    10030    2    1    2    0    0  0.00000000000E+00  0.00000000000E+00 -0.12490343228E+04  0.33967224550E+04  0.31587397323E+04 0.  0.
        2    1    3    3  502    0  0.15291021382E+02 -0.13825513018E+04 -0.14453956695E+04  0.20002126284E+04  0.25500000920E-02 0.  1.
       -2    1    3    3    0  502 -0.15291021382E+02  0.13825513018E+04  0.19636134668E+03  0.13965098266E+04  0.25500000920E-02 0. -1.
</event>
<event>
 5   0  0.1108153E-05  0.2963456E+04  0.7818609E-02  0.8254244E-01
       -2   -1    0    0    0  501  0.00000000000E+00  0.00000000000E+00  0.10959724940E+04  0.10959724940E+04  0.25500000920E-02 0. -1.
        2   -1    0    0  501    0  0.00000000000E+00  0.00000000000E+00 -0.20032599138E+04  0.20032599138E+04  0.25500000920E-02 0.  1.
    10030    2    1    2    0    0  0.00000000000E+00  0.00000000000E+00 -0.90728741986E+03  0.30992324078E+04  0.29634559311E+04 0.  0.
        4    1    3    3  502    0 -0.23615498433E+02 -0.14760732884E+04 -0.58661515462E+03  0.15885430423E+04  0.12699999809E+01 0.  1.
       -4    1    3    3    0  502  0.23615498433E+02  0.14760732884E+04 -0.32067226524E+03  0.15106893656E+04  0.12699999809E+01 0. -1.
</event>
<event>
 5   0  0.3807334E-06  0.3048053E+04  0.7818609E-02  0.8230141E-01
       -1   -1    0    0    0  501  0.00000000000E+00  0.00000000000E+00  0.13708565255E+04  0.13708565255E+04  0.50400001928E-02 0.  1.
        1   -1    0    0  501    0  0.00000000000E+00  0.00000000000E+00 -0.16943103572E+04  0.16943103572E+04  0.50400001928E-02 0. -1.
    10030    2    1    2    0    0  0.00000000000E+00  0.00000000000E+00 -0.32345383167E+03  0.30651668827E+04  0.30480527616E+04 0.  0.
        4    1    3    3  502    0  0.14721492596E+04 -0.33486667689E+03  0.47517482101E+02  0.15105027831E+04  0.12699999809E+01 0.  1.
       -4    1    3    3    0  502 -0.14721492596E+04  0.33486667689E+03 -0.37097131377E+03  0.15546640995E+04  0.12699999809E+01 0. -1.
</event>
<event>
 5   0  0.3838525E-06  0.3291846E+04  0.7818609E-02  0.8164973E-01
       -1   -1    0    0    0  501  0.00000000000E+00  0.00000000000E+00  0.25374222875E+04  0.25374222875E+04  0.50400001928E-02 0. -1.
        1   -1    0    0  501    0  0.00000000000E+00  0.00000000000E+00 -0.10676434769E+04  0.10676434769E+04  0.50400001928E-02 0.  1.
    10030    2    1    2    0    0  0.00000000000E+00  0.00000000000E+00  0.14697788106E+04  0.36050657645E+04  0.32918458977E+04 0.  0.
        3    1    3    3  502    0  0.71560316000E+03  0.25702231701E+03  0.23335514189E+04  0.24543045021E+04  0.10100000352E+00 0. -1.
       -3    1    3    3    0  502 -0.71560316000E+03 -0.25702231701E+03 -0.86377260827E+03  0.11507612624E+04  0.10100000352E+00 0.  1.
</event>
<event>
 5   0  0.1007567E-05  0.3111732E+04  0.7818609E-02  0.8212525E-01
        2   -1    0    0  501    0  0.00000000000E+00  0.00000000000E+00  0.17661528754E+04  0.17661528754E+04  0.25500000920E-02 0.  1.
       -2   -1    0    0    0  501  0.00000000000E+00  0.00000000000E+00 -0.13706172087E+04  0.13706172087E+04  0.25500000920E-02 0. -1.
    10030    2    1    2    0    0  0.00000000000E+00  0.00000000000E+00  0.39553566674E+03  0.31367700841E+04  0.31117323305E+04 0.  0.
        3    1    3    3  502    0 -0.11094182644E+04  0.14674197603E+03 -0.89184455678E+03  0.14309887549E+04  0.10100000352E+00 0. -1.
       -3    1    3    3    0  502  0.11094182644E+04 -0.14674197603E+03  0.12873802235E+04  0.17057813292E+04  0.10100000352E+00 0.  1.
</event>
<event>
 5   0  0.3848286E-06  0.3096943E+04  0.7818609E-02  0.8216577E-01
       -1   -1    0    0    0  501  0.00000000000E+00  0.00000000000E+00  0.16124031408E+04  0.16124031409E+04  0.50400001928E-02 0. -1.
        1   -1    0    0  501    0  0.00000000000E+00  0.00000000000E+00 -0.14870747398E+04  0.14870747398E+04  0.50400001928E-02 0.  1.
    10030    2    1    2    0    0  0.00000000000E+00  0.00000000000E+00  0.12532840101E+03  0.30994778807E+04  0.30969429967E+04 0.  0.
        2    1    3    3  502    0 -0.50821776792E+03  0.34725822046E+03 -0.13593754379E+04  0.14922383028E+04  0.25500000920E-02 0.  1.
       -2    1    3    3    0  502  0.50821776792E+03 -0.34725822046E+03  0.14847038389E+04  0.16072395779E+04  0.25500000920E-02 0. -1.
</event>
<event>
 5   0  0.9797278E-06  0.3058594E+04  0.7818609E-02  0.8227194E-01
       -2   -1    0    0    0  501  0.00000000000E+00  0.00000000000E+00  0.13710472393E+04  0.13710472393E+04  0.25500000920E-02 0. -1.
        2   -1    0    0  501    0  0.00000000000E+00  0.00000000000E+00 -0.17058125312E+04  0.17058125312E+04  0.25500000920E-02 0.  1.
    10030    2    1    2    0    0  0.00000000000E+00  0.00000000000E+00 -0.33476529197E+03  0.30768597705E+04  0.30585941618E+04 0.  0.
        1    1    3    3  502    0  0.14688305605E+04  0.29587707174E+03  0.14062075689E+03  0.15049188198E+04  0.50400001928E-02 0. -1.
       -1    1    3    3    0  502 -0.14688305605E+04 -0.29587707174E+03 -0.47538604886E+03  0.15719409507E+04  0.50400001928E-02 0.  1.
</event>
<event>
 5   0  0.1007567E-05  0.3076161E+04  0.7818609E-02  0.8222311E-01
       -2   -1    0    0    0  501  0.00000000000E+00  0.00000000000E+00  0.13120976336E+04  0.13120976336E+04  0.25500000920E-02 0. -1.
        2   -1    0    0  501    0  0.00000000000E+00  0.00000000000E+00 -0.18029849837E+04  0.18029849837E+04  0.25500000920E-02 0.  1.
    10030    2    1    2    0    0  0.00000000000E+00  0.00000000000E+00 -0.49088735002E+03  0.31150826173E+04  0.30761614591E+04 0.  0.
        3    1    3    3  502    0  0.68874002141E+03  0.44312960621E+03 -0.15638245492E+04  0.17652971126E+04  0.10100000352E+00 0.  1.
       -3    1    3    3    0  502 -0.68874002141E+03 -0.44312960621E+03  0.10729371992E+04  0.13497855047E+04  0.10100000352E+00 0. -1.
</event>
<event>
 5   0  0.4250961E-06  0.2959292E+04  0.7818609E-02  0.8255452E-01
       -1   -1    0    0    0  501  0.00000000000E+00  0.00000000000E+00  0.10113754050E+04  0.10113754050E+04  0.50400001928E-02 0. -1.
        1   -1    0    0  501    0  0.00000000000E+00  0.00000000000E+00 -0.21647281347E+04  0.21647281347E+04  0.50400001928E-02 0.  1.
    10030    2    1    2    0    0  0.00000000000E+00  0.00000000000E+00 -0.11533527297E+04  0.31761035398E+04  0.29592923438E+04 0.  0.
        1    1    3    3  502    0 -0.11035465317E+04  0.79256568815E+03 -0.12055924228E+04  0.18164328800E+04  0.50400001928E-02 0. -1.
       -1    1    3    3    0  502  0.11035465317E+04 -0.79256568815E+03  0.52239693087E+02  0.13596706598E+04  0.50400001928E-02 0.  1.
</event>
<event>
 5   0  0.4250961E-06  0.3179489E+04  0.7818609E-02  0.8194255E-01
        1   -1    0    0  501    0  0.00000000000E+00  0.00000000000E+00  0.17502387406E+04  0.17502387406E+04  0.50400001928E-02 0. -1.
       -1   -1    0    0    0  501  0.00000000000E+00  0.00000000000E+00 -0.14439674552E+04  0.14439674552E+04  0.50400001928E-02 0.  1.
    10030    2    1    2    0    0  0.00000000000E+00  0.00000000000E+00  0.30627128546E+03  0.31942061958E+04  0.31794891289E+04 0.  0.
        1    1    3    3  502    0  0.17226695481E+03  0.79743720604E+03 -0.12176234227E+04  0.14656700860E+04  0.50400001928E-02 0.  1.
       -1    1    3    3    0  502 -0.17226695481E+03 -0.79743720604E+03  0.15238947082E+04  0.17285361098E+04  0.50400001928E-02 0. -1.
</event>
<event>
 5   0  0.9797278E-06  0.3091228E+04  0.7818609E-02  0.8218149E-01
       -2   -1    0    0    0  501  0.00000000000E+00  0.00000000000E+00  0.89837753601E+03  0.89837753601E+03  0.25500000920E-02 0. -1.
        2   -1    0    0  501    0  0.00000000000E+00  0.00000000000E+00 -0.26591529151E+04  0.26591529151E+04  0.25500000920E-02 0.  1.
    10030    2    1    2    0    0  0.00000000000E+00  0.00000000000E+00 -0.17607753791E+04  0.35575304511E+04  0.30912283926E+04 0.  0.
        1    1    3    3  502    0 -0.39320264603E+03  0.76411819279E+03  0.59809818789E+03  0.10469987468E+04  0.50400001928E-02 0. -1.
       -1    1    3    3    0  502  0.39320264603E+03 -0.76411819279E+03 -0.23588735670E+04  0.25105317043E+04  0.50400001928E-02 0.  1.
</event>
<event>
 5   0  0.3848286E-06  0.3067097E+04  0.7818609E-02  0.8224826E-01
        1   -1    0    0  501    0  0.00000000000E+00  0.00000000000E+00  0.20194308234E+04  0.20194308234E+04  0.50400001928E-02 0.  1.
       -1   -1    0    0    0  501  0.00000000000E+00  0.00000000000E+00 -0.11645712501E+04  0.11645712501E+04  0.50400001928E-02 0. -1.
    10030    2    1    2    0    0  0.00000000000E+00  0.00000000000E+00  0.85485957331E+03  0.31840020736E+04  0.30670970500E+04 0.  0.
        2    1    3    3  502    0 -0.13968597791E+04  0.63201938782E+03  0.46194350215E+03  0.16012674818E+04  0.25500000920E-02 0. -1.
       -2    1    3    3    0  502  0.13968597791E+04 -0.63201938782E+03  0.39291607116E+03  0.15827345918E+04  0.25500000920E-02 0.  1.
</event>
<event>
 5   0  0.4250961E-06  0.3006682E+04  0.7818609E-02  0.8241825E-01
       -1   -1    0    0    0  501  0.00000000000E+00  0.00000000000E+00  0.15579959340E+04  0.15579959340E+04  0.50400001928E-02 0.  1.
        1   -1    0    0  501    0  0.00000000000E+00  0.00000000000E+00 -0.14506037730E+04  0.14506037731E+04  0.50400001928E-02 0. -1.
    10030    2    1    2    0    0  0.00000000000E+00  0.00000000000E+00  0.10739216092E+03  0.30085997070E+04  0.30066824110E+04 0.  0.
        1    1    3    3  502    0  0.74380941049E+02 -0.91881486870E+03 -0.11346139288E+04  0.14618830510E+04  0.50400001928E-02 0. -1.
       -1    1    3    3    0  502 -0.74380941049E+02  0.91881486870E+03  0.12420060897E+04  0.15467166561E+04  0.50400001928E-02 0.  1.
</event>
<event>
 5   0  0.1007567E-05  0.3155684E+04  0.7818609E-02  0.8200620E-01
       -2   -1    0    0    0  501  0.00000000000E+00  0.00000000000E+00  0.11391160841E+04  0.11391160841E+04  0.25500000920E-02 0.  1.
        2   -1    0    0  501    0  0.00000000000E+00  0.00000000000E+00 -0.21855420079E+04  0.21855420079E+04  0.25500000920E-02 0. -1.
    10030    2    1    2    0    0  0.00000000000E+00  0.00000000000E+00 -0.10464259237E+04  0.33246580920E+04  0.31556844289E+04 0.  0.
        3    1    3    3  502    0  0.10083385275E+04  0.59162458299E+03  0.59315780444E+03  0.13109547759E+04  0.10100000352E+00 0. -1.
       -3    1    3    3    0  502 -0.10083385275E+04 -0.59162458299E+03 -0.16395837282E+04  0.20137033161E+04  0.10100000352E+00 0.  1.
</event>
<event>
 5   0  0.3807334E-06  0.2557124E+04  0.7818609E-02  0.8382913E-01
       -1   -1    0    0    0  501  0.00000000000E+00  0.00000000000E+00  0.18488762847E+04  0.18488762847E+04  0.50400001928E-02 0. -1.
        1   -1    0    0  501    0  0.00000000000E+00  0.00000000000E+00 -0.88417007309E+03  0.88417007311E+03  0.50400001928E-02 0.  1.
    10030    2    1    2    0    0  0.00000000000E+00  0.00000000000E+00  0.96470621164E+03  0.27330463579E+04  0.25571242284E+04 0.  0.
        4    1    3    3  502    0 -0.12569604839E+04 -0.12952416805E+03  0.69068159862E+03  0.14400586279E+04  0.12699999809E+01 0.  1.
       -4    1    3    3    0  502  0.12569604839E+04  0.12952416805E+03  0.27402461302E+03  0.12929877299E+04  0.12699999809E+01 0. -1.
</event>
<event>
 5   0  0.3807334E-06  0.2334765E+04  0.7818609E-02  0.8464339E-01
        1   -1    0    0  501    0  0.00000000000E+00  0.00000000000E+00  0.80714808995E+03  0.80714808996E+03  0.50400001928E-02 0.  1.
       -1   -1    0    0    0  501  0.00000000000E+00  0.00000000000E+00 -0.16883911724E+04  0.16883911724E+04  0.50400001928E-02 0. -1.
    10030    2    1    2    0    0  0.00000000000E+00  0.00000000000E+00 -0.88124308244E+03  0.24955392624E+04  0.23347648360E+04 0.  0.
        4    1    3    3  502    0  0.11887443169E+03  0.26859558726E+03 -0.16482479104E+04  0.16742154900E+04  0.12699999809E+01 0. -1.
       -4    1    3    3    0  502 -0.11887443169E+03 -0.26859558726E+03  0.76700482795E+03  0.82132377234E+03  0.12699999809E+01 0.  1.
</event>
<event>
 5   0  0.3807334E-06  0.3145157E+04  0.7818609E-02  0.8203453E-01
        1   -1    0    0  501    0  0.00000000000E+00  0.00000000000E+00  0.85268058683E+03  0.85268058684E+03  0.50400001928E-02 0.  1.
       -1   -1    0    0    0  501  0.00000000000E+00  0.00000000000E+00 -0.29002699170E+04  0.29002699170E+04  0.50400001928E-02 0. -1.
    10030    2    1    2    0    0  0.00000000000E+00  0.00000000000E+00 -0.20475893302E+04  0.37529505039E+04  0.31451574554E+04 0.  0.
        4    1    3    3  502    0 -0.40112021566E+02 -0.33137831190E+03 -0.28575100559E+04  0.28769403700E+04  0.12699999809E+01 0. -1.
       -4    1    3    3    0  502  0.40112021566E+02  0.33137831190E+03  0.80992072570E+03  0.87601013390E+03  0.12699999809E+01 0.  1.
</event>
<event>
 5   0  0.1119100E-05  0.3148656E+04  0.7818609E-02  0.8202510E-01
        2   -1    0    0  501    0  0.00000000000E+00  0.00000000000E+00  0.21289613048E+04  0.21289613048E+04  0.25500000920E-02 0.  1.
       -2   -1    0    0    0  501  0.00000000000E+00  0.00000000000E+00 -0.11641865179E+04  0.11641865179E+04  0.25500000920E-02 0. -1.
    10030    2    1    2    0    0  0.00000000000E+00  0.00000000000E+00  0.96477478688E+03  0.32931478227E+04  0.31486556167E+04 0.  0.
        2    1    3    3  502    0  0.55186763932E+03  0.13609981195E+04 -0.11076628122E+03  0.14728010530E+04  0.25500000920E-02 0. -1.
       -2    1    3    3    0  502 -0.55186763932E+03 -0.13609981195E+04  0.10755410681E+04  0.18203467697E+04  0.25500000920E-02 0.  1.
</event>
<event>
 5   0  0.1108153E-05  0.2844212E+04  0.7818609E-02  0.8289672E-01
        2   -1    0    0  501    0  0.00000000000E+00  0.00000000000E+00  0.14676931283E+04  0.14676931283E+04  0.25500000920E-02 0.  1.
       -2   -1    0    0    0  501  0.00000000000E+00  0.00000000000E+00 -0.13779345193E+04  0.13779345193E+04  0.25500000920E-02 0. -1.
    10030    2    1    2    0    0  0.00000000000E+00  0.00000000000E+00  0.89758608956E+02  0.28456276476E+04  0.28442116836E+04 0.  0.
        4    1    3    3  502    0  0.56658890617E+02 -0.40957388513E+03  0.14062265417E+04  0.14657543099E+04  0.12699999809E+01 0.  1.
       -4    1    3    3    0  502 -0.56658890617E+02  0.40957388513E+03 -0.13164679328E+04  0.13798733377E+04  0.12699999809E+01 0. -1.
</event>
<event>
 5   0  0.1007567E-05  0.3272762E+04  0.7818609E-02  0.8169861E-01
       -2   -1    0    0    0  501  0.00000000000E+00  0.00000000000E+00  0.11926237120E+04  0.11926237120E+04  0.25500000920E-02 0.  1.
        2   -1    0    0  501    0  0.00000000000E+00  0.00000000000E+00 -0.22452538457E+04  0.22452538457E+04  0.25500000920E-02 0. -1.
    10030    2    1    2    0    0  0.00000000000E+00  0.00000000000E+00 -0.10526301337E+04  0.34378775577E+04  0.32727621214E+04 0.  0.
        3    1    3    3  502    0 -0.12350601152E+04 -0.92133599717E+03  0.52396388755E+02  0.15417454069E+04  0.10100000352E+00 0.  1.
       -3    1    3    3    0  502  0.12350601152E+04  0.92133599717E+03 -0.11050265224E+04  0.18961321508E+04  0.10100000352E+00 0. -1.
</event>
<event>
 5   0  0.3838525E-06  0.3149052E+04  0.7818609E-02  0.8202404E-01
        1   -1    0    0  501    0  0.00000000000E+00  0.00000000000E+00  0.21950193018E+04  0.21950193018E+04  0.50400001928E-02 0.  1.
       -1   -1    0    0    0  501  0.00000000000E+00  0.00000000000E+00 -0.11294349195E+04  0.11294349195E+04  0.50400001928E-02 0. -1.
    10030    2    1    2    0    0  0.00000000000E+00  0.00000000000E+00  0.10655843823E+04  0.33244542213E+04  0.31490515705E+04 0.  0.
        3    1    3    3  502    0 -0.29199972449E+03  0.59640090626E+03  0.20399584591E+04  0.21453177865E+04  0.10100000352E+00 0.  1.
       -3    1    3    3    0  502  0.29199972449E+03 -0.59640090626E+03 -0.97437407678E+03  0.11791364348E+04  0.10100000352E+00 0. -1.
</event>
<event>
 5   0  0.1001961E-05  0.1739093E+04  0.7818609E-02  0.8739377E-01
       -2   -1    0    0    0  501  0.00000000000E+00  0.00000000000E+00  0.31999268431E+03  0.31999268432E+03  0.25500000920E-02 0.  1.
        2   -1    0    0  501    0  0.00000000000E+00  0.00000000000E+00 -0.23629015871E+04  0.23629015871E+04  0.25500000920E-02 0. -1.
    10030    2    1    2    0    0  0.00000000000E+00  0.00000000000E+00 -0.20429089028E+04  0.26828942714E+04  0.17390931219E+04 0.  0.
        5    1    3    3  502    0  0.51066886052E+03  0.44531766014E+03 -0.18621871569E+04  0.19816290271E+04  0.46999998093E+01 0. -1.
       -5    1    3    3    0  502 -0.51066886052E+03 -0.44531766014E+03 -0.18072174590E+03  0.70126524438E+03  0.46999998093E+01 0.  1.
</event>
<event>
 5   0  0.1119100E-05  0.1817584E+04  0.7818609E-02  0.8697004E-01
        2   -1    0    0  501    0  0.00000000000E+00  0.00000000000E+00  0.51839882823E+03  0.51839882824E+03  0.25500000920E-02 0. -1.
       -2   -1    0    0    0  501  0.00000000000E+00  0.00000000000E+00 -0.15931807634E+04  0.15931807634E+04  0.25500000920E-02 0.  1.
    10030    2    1    2    0    0  0.00000000000E+00  0.00000000000E+00 -0.10747819352E+04  0.21115795916E+04  0.18175841559E+04 0.  0.
        2    1    3    3  502    0 -0.16835891212E+03 -0.29008319996E+03 -0.15186474541E+04  0.15552437353E+04  0.25500000920E-02 0.  1.
       -2    1    3    3    0  502  0.16835891212E+03  0.29008319996E+03  0.44386551893E+03  0.55633585638E+03  0.25500000920E-02 0. -1.
</event>
<event>
 5   0  0.3838525E-06  0.3072153E+04  0.7818609E-02  0.8223422E-01
       -1   -1    0    0    0  501  0.00000000000E+00  0.00000000000E+00  0.20810240494E+04  0.20810240494E+04  0.50400001928E-02 0. -1.
        1   -1    0    0  501    0  0.00000000000E+00  0.00000000000E+00 -0.11338320081E+04  0.11338320081E+04  0.50400001928E-02 0.  1.
    10030    2    1    2    0    0  0.00000000000E+00  0.00000000000E+00  0.94719204126E+03  0.32148560575E+04  0.30721534316E+04 0.  0.
        3    1    3    3  502    0  0.46259397470E+03  0.58555792159E+03  0.18785936460E+04  0.20213820425E+04  0.10100000352E+00 0. -1.
       -3    1    3    3    0  502 -0.46259397470E+03 -0.58555792159E+03 -0.93140160471E+03  0.11934740150E+04  0.10100000352E+00 0.  1.
</event>
<event>
 5   0  0.1001961E-05  0.1897407E+04  0.7818609E-02  0.8656148E-01
       -2   -1    0    0    0  501  0.00000000000E+00  0.00000000000E+00  0.92784870005E+03  0.92784870005E+03  0.25500000920E-02 0. -1.
        2   -1    0    0  501    0  0.00000000000E+00  0.00000000000E+00 -0.97002716612E+03  0.97002716612E+03  0.25500000920E-02 0.  1.
    10030    2    1    2    0    0  0.00000000000E+00  0.00000000000E+00 -0.42178466071E+02  0.18978758662E+04  0.18974071204E+04 0.  0.
        5    1    3    3  502    0  0.88857003313E+03  0.25493368949E+03  0.19219680407E+03  0.94419785602E+03  0.46999998093E+01 0. -1.
       -5    1    3    3    0  502 -0.88857003313E+03 -0.25493368949E+03 -0.23437527014E+03  0.95367801016E+03  0.46999998093E+01 0.  1.
</event>
<event>
 5   0  0.3493125E-06  0.3070360E+04  0.7818609E-02  0.8223920E-01
       -3   -1    0    0    0  501  0.00000000000E+00  0.00000000000E+00  0.16007081547E+04  0.16007081579E+04  0.10100000352E+00 0.  1.
        3   -1    0    0  501    0  0.00000000000E+00  0.00000000000E+00 -0.14723348196E+04  0.14723348231E+04  0.10100000352E+00 0. -1.
    10030    2    1    2    0    0  0.00000000000E+00  0.00000000000E+00  0.12837333507E+03  0.30730429810E+04  0.30703604756E+04 0.  0.
        2    1    3    3  502    0 -0.88022061575E+03  0.12319532072E+04  0.31794579907E+03  0.15471220276E+04  0.25500000920E-02 0. -1.
       -2    1    3    3    0  502  0.88022061575E+03 -0.12319532072E+04 -0.18957246400E+03  0.15259209534E+04  0.25500000920E-02 0.  1.
</event>
<event>
 5   0  0.1001961E-05  0.3051241E+04  0.7818609E-02  0.8229248E-01
        2   -1    0    0  501    0  0.00000000000E+00  0.00000000000E+00  0.15963104596E+04  0.15963104596E+04  0.25500000920E-02 0. -1.
       -2   -1    0    0    0  501  0.00000000000E+00  0.00000000000E+00 -0.14580604645E+04  0.14580604645E+04  0.25500000920E-02 0.  1.
    10030    2    1    2    0    0  0.00000000000E+00  0.00000000000E+00  0.13824999519E+03  0.30543709241E+04  0.30512405151E+04 0.  0.
        5    1    3    3  502    0 -0.84155271801E+03 -0.11353543790E+04  0.64439235429E+03  0.15532237892E+04  0.46999998093E+01 0. -1.
       -5    1    3    3    0  502  0.84155271801E+03  0.11353543790E+04 -0.50614235910E+03  0.15011471349E+04  0.46999998093E+01 0.  1.
</event>
<event>
 5   0  0.9797278E-06  0.2781035E+04  0.7818609E-02  0.8309181E-01
       -2   -1    0    0    0  501  0.00000000000E+00  0.00000000000E+00  0.23881641178E+04  0.23881641178E+04  0.25500000920E-02 0. -1.
        2   -1    0    0  501    0  0.00000000000E+00  0.00000000000E+00 -0.80963386417E+03  0.80963386417E+03  0.25500000920E-02 0.  1.
    10030    2    1    2    0    0  0.00000000000E+00  0.00000000000E+00  0.15785302537E+04  0.31977979820E+04  0.27810347305E+04 0.  0.
        1    1    3    3  502    0 -0.92677251031E+03  0.94055229472E+03  0.12904673608E+04  0.18463076434E+04  0.50400001928E-02 0.  1.
       -1    1    3    3    0  502  0.92677251031E+03 -0.94055229472E+03  0.28806289289E+03  0.13514903386E+04  0.50400001928E-02 0. -1.
</event>
<event>
 5   0  0.1108153E-05  0.2028317E+04  0.7818609E-02  0.8593495E-01
       -2   -1    0    0    0  501  0.00000000000E+00  0.00000000000E+00  0.12468923500E+04  0.12468923500E+04  0.25500000920E-02 0. -1.
        2   -1    0    0  501    0  0.00000000000E+00  0.00000000000E+00 -0.82486484726E+03  0.82486484727E+03  0.25500000920E-02 0.  1.
    10030    2    1    2    0    0  0.00000000000E+00  0.00000000000E+00  0.42202750276E+03  0.20717571973E+04  0.20283172019E+04 0.  0.
        4    1    3    3  502    0 -0.62399606036E+03 -0.62651678608E+03  0.71825973352E+03  0.11392071911E+04  0.12699999809E+01 0. -1.
       -4    1    3    3    0  502  0.62399606036E+03  0.62651678608E+03 -0.29623223076E+03  0.93255000618E+03  0.12699999809E+01 0.  1.
</event>
<event>
 5   0  0.3838525E-06  0.2969778E+04  0.7818609E-02  0.8252414E-01
        1   -1    0    0  501    0  0.00000000000E+00  0.00000000000E+00  0.25159505491E+04  0.25159505491E+04  0.50400001928E-02 0.  1.
       -1   -1    0    0    0  501  0.00000000000E+00  0.00000000000E+00 -0.87636680585E+03  0.87636680586E+03  0.50400001928E-02 0. -1.
    10030    2    1    2    0    0  0.00000000000E+00  0.00000000000E+00  0.16395837432E+04  0.33923173550E+04  0.29697781374E+04 0.  0.
        3    1    3    3  502    0 -0.12541967395E+04 -0.72704920275E+03  0.11868984890E+04  0.18735896130E+04  0.10100000352E+00 0.  1.
       -3    1    3    3    0  502  0.12541967395E+04  0.72704920275E+03  0.45268525426E+03  0.15187277420E+04  0.10100000352E+00 0. -1.
</event>
<event>
 5   0  0.3807334E-06  0.3097606E+04  0.7818609E-02  0.8216395E-01
       -1   -1    0    0    0  501  0.00000000000E+00  0.00000000000E+00  0.97876985937E+03  0.97876985938E+03  0.50400001928E-02 0.  1.
        1   -1    0    0  501    0  0.00000000000E+00  0.00000000000E+00 -0.24508215285E+04  0.24508215285E+04  0.50400001928E-02 0. -1.
    10030    2    1    2    0    0  0.00000000000E+00  0.00000000000E+00 -0.14720516691E+04  0.34295913879E+04  0.30976056836E+04 0.  0.
        4    1    3    3  502    0  0.38653194650E+03 -0.13908079909E+04 -0.13574605692E+04  0.19815283554E+04  0.12699999809E+01 0. -1.
       -4    1    3    3    0  502 -0.38653194650E+03  0.13908079909E+04 -0.11459109990E+03  0.14480630325E+04  0.12699999809E+01 0.  1.
</event>
<event>
 5   0  0.9797278E-06  0.1997424E+04  0.7818609E-02  0.8607826E-01
        2   -1    0    0  501    0  0.00000000000E+00  0.00000000000E+00  0.17624511241E+04  0.17624511241E+04  0.25500000920E-02 0. -1.
       -2   -1    0    0    0  501  0.00000000000E+00  0.00000000000E+00 -0.56593078066E+03  0.56593078067E+03  0.25500000920E-02 0.  1.
    10030    2    1    2    0    0  0.00000000000E+00  0.00000000000E+00  0.11965203434E+04  0.23283819048E+04  0.19974236812E+04 0.  0.
        1    1    3    3  502    0  0.40398826475E+02  0.81046157662E+03 -0.80394486267E+02  0.81544055934E+03  0.50400001928E-02 0.  1.
       -1    1    3    3    0  502 -0.40398826475E+02 -0.81046157662E+03  0.12769148297E+04  0.15129413454E+04  0.50400001928E-02 0. -1.
</event>
<event>
 5   0  0.4250961E-06  0.3007596E+04  0.7818609E-02  0.8241565E-01
        1   -1    0    0  501    0  0.00000000000E+00  0.00000000000E+00  0.18032220659E+04  0.18032220659E+04  0.50400001928E-02 0.  1.
       -1   -1    0    0    0  501  0.00000000000E+00  0.00000000000E+00 -0.12540929032E+04  0.12540929032E+04  0.50400001928E-02 0. -1.
    10030    2    1    2    0    0  0.00000000000E+00  0.00000000000E+00  0.54912916265E+03  0.30573149691E+04  0.30075957147E+04 0.  0.
        1    1    3    3  502    0  0.14691256514E+04 -0.18169559348E+03  0.54363739745E+03  0.15769860773E+04  0.50400001928E-02 0. -1.
       -1    1    3    3    0  502 -0.14691256514E+04  0.18169559348E+03  0.54917652006E+01  0.14803288917E+04  0.50400001928E-02 0.  1.
</event>
<event>
 5   0  0.1108153E-05  0.3010025E+04  0.7818609E-02  0.8240874E-01
       -2   -1    0    0    0  501  0.00000000000E+00  0.00000000000E+00  0.10377939928E+04  0.10377939928E+04  0.25500000920E-02 0.  1.
        2   -1    0    0  501    0  0.00000000000E+00  0.00000000000E+00 -0.21825742174E+04  0.21825742174E+04  0.25500000920E-02 0. -1.
    10030    2    1    2    0    0  0.00000000000E+00  0.00000000000E+00 -0.11447802246E+04  0.32203682102E+04  0.30100248581E+04 0.  0.
        4    1    3    3  502    0  0.66463937197E+03  0.10016403387E+04  0.39644714542E+03  0.12657807136E+04  0.12699999809E+01 0.  1.
       -4    1    3    3    0  502 -0.66463937197E+03 -0.10016403387E+04 -0.15412273700E+04  0.19545874966E+04  0.12699999809E+01 0. -1.
</event>
<event>
 5   0  0.1001961E-05  0.1814216E+04  0.7818609E-02  0.8698776E-01
        2   -1    0    0  501    0  0.00000000000E+00  0.00000000000E+00  0.30552201930E+04  0.30552201930E+04  0.25500000920E-02 0. -1.
       -2   -1    0    0    0  501  0.00000000000E+00  0.00000000000E+00 -0.26932428886E+03  0.26932428887E+03  0.25500000920E-02 0.  1.
    10030    2    1    2    0    0  0.00000000000E+00  0.00000000000E+00  0.27858959041E+04  0.33245444818E+04  0.18142160906E+04 0.  0.
        5    1    3    3  502    0  0.31277776627E+03 -0.15069805659E+03  0.29286226768E+04  0.29491342303E+04  0.46999998093E+01 0. -1.
       -5    1    3    3    0  502 -0.31277776627E+03  0.15069805659E+03 -0.14272677267E+03  0.37541025155E+03  0.46999998093E+01 0.  1.
</event>
<event>
 5   0  0.1001961E-05  0.3048789E+04  0.7818609E-02  0.8229935E-01
       -2   -1    0    0    0  501  0.00000000000E+00  0.00000000000E+00  0.87209376769E+03  0.87209376770E+03  0.25500000920E-02 0. -1.
        2   -1    0    0  501    0  0.00000000000E+00  0.00000000000E+00 -0.26645970719E+04  0.26645970719E+04  0.25500000920E-02 0.  1.
    10030    2    1    2    0    0  0.00000000000E+00  0.00000000000E+00 -0.17925033042E+04  0.35366908396E+04  0.30487889397E+04 0.  0.
        5    1    3    3  502    0 -0.10245644893E+04 -0.11739933312E+03 -0.21985083831E+04  0.24283690405E+04  0.46999998093E+01 0.  1.
       -5    1    3    3    0  502  0.10245644893E+04  0.11739933312E+03  0.40600507898E+03  0.11083217991E+04  0.46999998093E+01 0. -1.
</event>
<event>
 5   0  0.3807334E-06  0.2980642E+04  0.7818609E-02  0.8249280E-01
       -1   -1    0    0    0  501  0.00000000000E+00  0.00000000000E+00  0.78275995165E+03  0.78275995166E+03  0.50400001928E-02 0. -1.
        1   -1    0    0  501    0  0.00000000000E+00  0.00000000000E+00 -0.28374684672E+04  0.28374684673E+04  0.50400001928E-02 0.  1.
    10030    2    1    2    0    0  0.00000000000E+00  0.00000000000E+00 -0.20547085156E+04  0.36202284189E+04  0.29806419981E+04 0.  0.
        4    1    3    3  502    0 -0.69009100363E+03 -0.19600386390E+03  0.55924811660E+03  0.90961704952E+03  0.12699999809E+01 0. -1.
       -4    1    3    3    0  502  0.69009100363E+03  0.19600386390E+03 -0.26139566322E+04  0.27106113694E+04  0.12699999809E+01 0.  1.
</event>
<event>
 5   0  0.3807334E-06  0.3346696E+04  0.7818609E-02  0.8151114E-01
       -1   -1    0    0    0  501  0.00000000000E+00  0.00000000000E+00  0.12717981008E+04  0.12717981008E+04  0.50400001928E-02 0.  1.
        1   -1    0    0  501    0  0.00000000000E+00  0.00000000000E+00 -0.22016804089E+04  0.22016804089E+04  0.50400001928E-02 0. -1.
    10030    2    1    2    0    0  0.00000000000E+00  0.00000000000E+00 -0.92988230813E+03  0.34734785097E+04  0.33466956615E+04 0.  0.
        4    1    3    3  502    0  0.14635065610E+04 -0.57466278736E+02  0.37499897734E+03  0.15118795167E+04  0.12699999809E+01 0. -1.
       -4    1    3    3    0  502 -0.14635065610E+04  0.57466278736E+02 -0.13048812855E+04  0.19615989930E+04  0.12699999809E+01 0.  1.
</event>
<event>
 5   0  0.4250961E-06  0.3138817E+04  0.7818609E-02  0.8205165E-01
       -1   -1    0    0    0  501  0.00000000000E+00  0.00000000000E+00  0.14786847200E+04  0.14786847200E+04  0.50400001928E-02 0. -1.
        1   -1    0    0  501    0  0.00000000000E+00  0.00000000000E+00 -0.16656985451E+04  0.16656985452E+04  0.50400001928E-02 0.  1.
    10030    2    1    2    0    0  0.00000000000E+00  0.00000000000E+00 -0.18701382514E+03  0.31443832652E+04  0.31388169662E+04 0.  0.
        1    1    3    3  502    0  0.37698196780E+03  0.10938058060E+04  0.96880582685E+03  0.15090100316E+04  0.50400001928E-02 0. -1.
       -1    1    3    3    0  502 -0.37698196780E+03 -0.10938058060E+04 -0.11558196520E+04  0.16353732336E+04  0.50400001928E-02 0.  1.
</event>
<event>
 5   0  0.1001961E-05  0.3128112E+04  0.7818609E-02  0.8208065E-01
       -2   -1    0    0    0  501  0.00000000000E+00  0.00000000000E+00  0.12711717273E+04  0.12711717273E+04  0.25500000920E-02 0. -1.
        2   -1    0    0  501    0  0.00000000000E+00  0.00000000000E+00 -0.19244222356E+04  0.19244222356E+04  0.25500000920E-02 0.  1.
    10030    2    1    2    0    0  0.00000000000E+00  0.00000000000E+00 -0.65325050838E+03  0.31955939629E+04  0.31281119783E+04 0.  0.
        5    1    3    3  502    0  0.91881676783E+03 -0.70503206715E+03  0.74721953400E+03  0.13782792136E+04  0.46999998093E+01 0. -1.
       -5    1    3    3    0  502 -0.91881676783E+03  0.70503206715E+03 -0.14004700424E+04  0.18173147493E+04  0.46999998093E+01 0.  1.
</event>
<event>
 5   0  0.9797278E-06  0.3091327E+04  0.7818609E-02  0.8218122E-01
       -2   -1    0    0    0  501  0.00000000000E+00  0.00000000000E+00  0.18177672650E+04  0.18177672650E+04  0.25500000920E-02 0.  1.
        2   -1    0    0  501    0  0.00000000000E+00  0.00000000000E+00 -0.13142909450E+04  0.13142909450E+04  0.25500000920E-02 0. -1.
    10030    2    1    2    0    0  0.00000000000E+00  0.00000000000E+00  0.50347632001E+03  0.31320582100E+04  0.30913266127E+04 0.  0.
        1    1    3    3  502    0  0.43489701649E+03 -0.13145103419E+04  0.94781461670E+03  0.16779229427E+04  0.50400001928E-02 0.  1.
       -1    1    3    3    0  502 -0.43489701649E+03  0.13145103419E+04 -0.44433829669E+03  0.14541352674E+04  0.50400001928E-02 0. -1.
</event>
<event>
 5   0  0.9797278E-06  0.1846701E+04  0.7818609E-02  0.8681851E-01
        2   -1    0    0  501    0  0.00000000000E+00  0.00000000000E+00  0.90060814045E+03  0.90060814046E+03  0.25500000920E-02 0.  1.
       -2   -1    0    0    0  501  0.00000000000E+00  0.00000000000E+00 -0.94666766290E+03  0.94666766290E+03  0.25500000920E-02 0. -1.
    10030    2    1    2    0    0  0.00000000000E+00  0.00000000000E+00 -0.46059522445E+02  0.18472758034E+04  0.18467014957E+04 0.  0.
        1    1    3    3  502    0  0.60442953283E+03  0.28170889347E+03  0.61582497754E+03  0.90770885409E+03  0.50400001928E-02 0.  1.
       -1    1    3    3    0  502 -0.60442953283E+03 -0.28170889347E+03 -0.66188449998E+03  0.93956694927E+03  0.50400001928E-02 0. -1.
</event>
<event>
 5   0  0.9797278E-06  0.3101079E+04  0.7818609E-02  0.8215442E-01
       -2   -1    0    0    0  501  0.00000000000E+00  0.00000000000E+00  0.12799265082E+04  0.12799265082E+04  0.25500000920E-02 0. -1.
        2   -1    0    0  501    0  0.00000000000E+00  0.00000000000E+00 -0.18783680868E+04  0.18783680868E+04  0.25500000920E-02 0.  1.
    10030    2    1    2    0    0  0.00000000000E+00  0.00000000000E+00 -0.59844157864E+03  0.31582945950E+04  0.31010792357E+04 0.  0.
        1    1    3    3  502    0 -0.31844494515E+03 -0.30220923364E+03 -0.18137474152E+04  0.18661235999E+04  0.50400001928E-02 0.  1.
       -1    1    3    3    0  502  0.31844494515E+03  0.30220923364E+03  0.12153058366E+04  0.12921709951E+04  0.50400001928E-02 0. -1.
</event>
<event>
 5   0  0.3848286E-06  0.3097283E+04  0.7818609E-02  0.8216484E-01
       -1   -1    0    0    0  501  0.00000000000E+00  0.00000000000E+00  0.17600668647E+04  0.17600668648E+04  0.50400001928E-02 0.  1.
        1   -1    0    0  501    0  0.00000000000E+00  0.00000000000E+00 -0.13626131050E+04  0.13626131050E+04  0.50400001928E-02 0. -1.
    10030    2    1    2    0    0  0.00000000000E+00  0.00000000000E+00  0.39745375975E+03  0.31226799698E+04  0.30972827934E+04 0.  0.
        2    1    3    3  502    0 -0.98752709893E+03  0.81601355339E+03  0.10760358616E+04  0.16730036061E+04  0.25500000920E-02 0.  1.
       -2    1    3    3    0  502  0.98752709893E+03 -0.81601355339E+03 -0.67858210188E+03  0.14496763637E+04  0.25500000920E-02 0. -1.
</event>
<event>
 5   0  0.4139628E-06  0.1711602E+04  0.7818609E-02  0.8754775E-01
       -1   -1    0    0    0  501  0.00000000000E+00  0.00000000000E+00  0.18863344646E+04  0.18863344646E+04  0.50400001928E-02 0.  1.
        1   -1    0    0  501    0  0.00000000000E+00  0.00000000000E+00 -0.38826394541E+03  0.38826394544E+03  0.50400001928E-02 0. -1.
    10030    2    1    2    0    0  0.00000000000E+00  0.00000000000E+00  0.14980705192E+04  0.22745984100E+04  0.17116023622E+04 0.  0.
        5    1    3    3  502    0 -0.42945171006E+02 -0.47181957304E+03  0.16961391466E+04  0.17610701553E+04  0.46999998093E+01 0.  1.
       -5    1    3    3    0  502  0.42945171006E+02  0.47181957304E+03 -0.19806862745E+03  0.51352825471E+03  0.46999998093E+01 0. -1.
</event>
<event>
 5   0  0.1001961E-05  0.2080077E+04  0.7818609E-02  0.8570071E-01
       -2   -1    0    0    0  501  0.00000000000E+00  0.00000000000E+00  0.86650555647E+03  0.86650555648E+03  0.25500000920E-02 0.  1.
        2   -1    0    0  501    0  0.00000000000E+00  0.00000000000E+00 -0.12483244358E+04  0.12483244358E+04  0.25500000920E-02 0. -1.
    10030    2    1    2    0    0  0.00000000000E+00  0.00000000000E+00 -0.38181887931E+03  0.21148299923E+04  0.20800769792E+04 0.  0.
        5    1    3    3  502    0  0.34116230573E+03  0.97854547750E+03 -0.10160685998E+03  0.10412919929E+04  0.46999998093E+01 0. -1.
       -5    1    3    3    0  502 -0.34116230573E+03 -0.97854547750E+03 -0.28021201932E+03  0.10735379994E+04  0.46999998093E+01 0.  1.
</event>
<event>
 5   0  0.3807334E-06  0.3115858E+04  0.7818609E-02  0.8211399E-01
        1   -1    0    0  501    0  0.00000000000E+00  0.00000000000E+00  0.23362002337E+04  0.23362002337E+04  0.50400001928E-02 0.  1.
       -1   -1    0    0    0  501  0.00000000000E+00  0.00000000000E+00 -0.10389274757E+04  0.10389274757E+04  0.50400001928E-02 0. -1.
    10030    2    1    2    0    0  0.00000000000E+00  0.00000000000E+00  0.12972727580E+04  0.33751277094E+04  0.31158578989E+04 0.  0.
        4    1    3    3  502    0 -0.14167246670E+04  0.51121136769E+03  0.10801498917E+04  0.18534214971E+04  0.12699999809E+01 0.  1.
       -4    1    3    3    0  502  0.14167246670E+04 -0.51121136769E+03  0.21712286632E+03  0.15217062123E+04  0.12699999809E+01 0. -1.
</event>
<event>
 5   0  0.1119100E-05  0.3045987E+04  0.7818609E-02  0.8230720E-01
       -2   -1    0    0    0  501  0.00000000000E+00  0.00000000000E+00  0.84258827422E+03  0.84258827422E+03  0.25500000920E-02 0.  1.
        2   -1    0    0  501    0  0.00000000000E+00  0.00000000000E+00 -0.27528382872E+04  0.27528382872E+04  0.25500000920E-02 0. -1.
    10030    2    1    2    0    0  0.00000000000E+00  0.00000000000E+00 -0.19102500130E+04  0.35954265614E+04  0.30459870398E+04 0.  0.
        2    1    3    3  502    0 -0.13083099916E+04 -0.69781840710E+03 -0.13655239556E+04  0.20157582288E+04  0.25500000920E-02 0. -1.
       -2    1    3    3    0  502  0.13083099916E+04  0.69781840710E+03 -0.54472605731E+03  0.15796683326E+04  0.25500000920E-02 0.  1.
</event>
<event>
 5   0  0.4250961E-06  0.3104626E+04  0.7818609E-02  0.8214470E-01
        1   -1    0    0  501    0  0.00000000000E+00  0.00000000000E+00  0.12302759605E+04  0.12302759605E+04  0.50400001928E-02 0. -1.
       -1   -1    0    0    0  501  0.00000000000E+00  0.00000000000E+00 -0.19586461336E+04  0.19586461336E+04  0.50400001928E-02 0.  1.
    10030    2    1    2    0    0  0.00000000000E+00  0.00000000000E+00 -0.72837017306E+03  0.31889220941E+04  0.31046257445E+04 0.  0.
        1    1    3    3  502    0 -0.12931548898E+04 -0.52547348191E+03  0.33344939432E+03  0.14351168760E+04  0.50400001928E-02 0. -1.
       -1    1    3    3    0  502  0.12931548898E+04  0.52547348191E+03 -0.10618195674E+04  0.17538052181E+04  0.50400001928E-02 0.  1.
</event>
<event>
 5   0  0.1007567E-05  0.3093221E+04  0.7818609E-02  0.8217601E-01
        2   -1    0    0  501    0  0.00000000000E+00  0.00000000000E+00  0.17836440989E+04  0.17836440989E+04  0.25500000920E-02 0.  1.
       -2   -1    0    0    0  501  0.00000000000E+00  0.00000000000E+00 -0.13410767723E+04  0.13410767723E+04  0.25500000920E-02 0. -1.
    10030    2    1    2    0    0  0.00000000000E+00  0.00000000000E+00  0.44256732660E+03  0.31247208712E+04  0.30932207623E+04 0.  0.
        3    1    3    3  502    0 -0.11350573924E+04  0.10351917028E+04  0.40501676222E+02  0.15367555243E+04  0.10100000352E+00 0.  1.
       -3    1    3    3    0  502  0.11350573924E+04 -0.10351917028E+04  0.40206565037E+03  0.15879653469E+04  0.10100000352E+00 0. -1.
</event>
<event>
 5   0  0.1001961E-05  0.3072697E+04  0.7818609E-02  0.8223271E-01
       -2   -1    0    0    0  501  0.00000000000E+00  0.00000000000E+00  0.11344405667E+04  0.11344405667E+04  0.25500000920E-02 0. -1.
        2   -1    0    0  501    0  0.00000000000E+00  0.00000000000E+00 -0.20806431880E+04  0.20806431880E+04  0.25500000920E-02 0.  1.
    10030    2    1    2    0    0  0.00000000000E+00  0.00000000000E+00 -0.94620262127E+03  0.32150837547E+04  0.30726965599E+04 0.  0.
        5    1    3    3  502    0 -0.12614428110E+03 -0.14783635055E+04 -0.89016035750E+03  0.17302828053E+04  0.46999998093E+01 0.  1.
       -5    1    3    3    0  502  0.12614428110E+03  0.14783635055E+04 -0.56042263774E+02  0.14848009495E+04  0.46999998093E+01 0. -1.
</event>
<event>
 5   0  0.4250961E-06  0.2939072E+04  0.7818609E-02  0.8261346E-01
        1   -1    0    0  501    0  0.00000000000E+00  0.00000000000E+00  0.73317324310E+03  0.73317324311E+03  0.50400001928E-02 0. -1.
       -1   -1    0    0    0  501  0.00000000000E+00  0.00000000000E+00 -0.29454649325E+04  0.29454649325E+04  0.50400001928E-02 0.  1.
    10030    2    1    2    0    0  0.00000000000E+00  0.00000000000E+00 -0.22122916894E+04  0.36786381756E+04  0.29390720148E+04 0.  0.
        1    1    3    3  502    0 -0.95278666912E+03 -0.55585843800E+03 -0.23214256375E+04  0.25701747082E+04  0.50400001928E-02 0.  1.
       -1    1    3    3    0  502  0.95278666912E+03  0.55585843800E+03  0.10913394815E+03  0.11084634674E+04  0.50400001928E-02 0. -1.
</event>
<event>
 5   0  0.3807334E-06  0.3192760E+04  0.7818609E-02  0.8190732E-01
        1   -1    0    0  501    0  0.00000000000E+00  0.00000000000E+00  0.17532694553E+04  0.17532694553E+04  0.50400001928E-02 0.  1.
       -1   -1    0    0    0  501  0.00000000000E+00  0.00000000000E+00 -0.14535293991E+04  0.14535293991E+04  0.50400001928E-02 0. -1.
    10030    2    1    2    0    0  0.00000000000E+00  0.00000000000E+00  0.29974005615E+03  0.32067988544E+04  0.31927597453E+04 0.  0.
        4    1    3    3  502    0  0.13974102612E+02  0.72616360621E+03  0.15777110365E+04  0.17368599788E+04  0.12699999809E+01 0.  1.
       -4    1    3    3    0  502 -0.13974102612E+02 -0.72616360621E+03 -0.12779709803E+04  0.14699388756E+04  0.12699999809E+01 0. -1.
</event>
<event>
 5   0  0.4139628E-06  0.3019982E+04  0.7818609E-02  0.8238048E-01
        1   -1    0    0  501    0  0.00000000000E+00  0.00000000000E+00  0.15188708568E+04  0.15188708568E+04  0.50400001928E-02 0.  1.
       -1   -1    0    0    0  501  0.00000000000E+00  0.00000000000E+00 -0.15011630724E+04  0.15011630724E+04  0.50400001928E-02 0. -1.
    10030    2    1    2    0    0  0.00000000000E+00  0.00000000000E+00  0.17707784357E+02  0.30200339292E+04  0.30199820145E+04 0.  0.
        5    1    3    3  502    0 -0.83568536005E+03  0.13426723399E+03 -0.12416287350E+04  0.15026848361E+04  0.46999998093E+01 0. -1.
       -5    1    3    3    0  502  0.83568536005E+03 -0.13426723399E+03  0.12593365194E+04  0.15173490930E+04  0.46999998093E+01 0.  1.
</event>
<event>
 5   0  0.4139628E-06  0.3123436E+04  0.7818609E-02  0.8209335E-01
        1   -1    0    0  501    0  0.00000000000E+00  0.00000000000E+00  0.21108887518E+04  0.21108887518E+04  0.50400001928E-02 0. -1.
       -1   -1    0    0    0  501  0.00000000000E+00  0.00000000000E+00 -0.11554201226E+04  0.11554201226E+04  0.50400001928E-02 0.  1.
    10030    2    1    2    0    0  0.00000000000E+00  0.00000000000E+00  0.95546862917E+03  0.32663088744E+04  0.31234361466E+04 0.  0.
        5    1    3    3  502    0 -0.11273830454E+04  0.17388567887E+03  0.15931606187E+04  0.19594416570E+04  0.46999998093E+01 0. -1.
       -5    1    3    3    0  502  0.11273830454E+04 -0.17388567887E+03 -0.63769198952E+03  0.13068672174E+04  0.46999998093E+01 0.  1.
</event>
<event>
 5   0  0.1001961E-05  0.2081420E+04  0.7818609E-02  0.8569472E-01
        2   -1    0    0  501    0  0.00000000000E+00  0.00000000000E+00  0.14474314359E+04  0.14474314359E+04  0.25500000920E-02 0.  1.
       -2   -1    0    0    0  501  0.00000000000E+00  0.00000000000E+00 -0.74827561190E+03  0.74827561191E+03  0.25500000920E-02 0. -1.
    10030    2    1    2    0    0  0.00000000000E+00  0.00000000000E+00  0.69915582396E+03  0.21957070478E+04  0.20814203260E+04 0.  0.
        5    1    3    3  502    0 -0.74109645768E+03 -0.59935779835E+03 -0.91219455220E+02  0.95749506998E+03  0.46999998093E+01 0. -1.
       -5    1    3    3    0  502  0.74109645768E+03  0.59935779835E+03  0.79037527918E+03  0.12382119778E+04  0.46999998093E+01 0.  1.
</event>
<event>
 5   0  0.1001961E-05  0.3051456E+04  0.7818609E-02  0.8229188E-01
       -2   -1    0    0    0  501  0.00000000000E+00  0.00000000000E+00  0.18444668394E+04  0.18444668394E+04  0.25500000920E-02 0. -1.
        2   -1    0    0  501    0  0.00000000000E+00  0.00000000000E+00 -0.12620701499E+04  0.12620701499E+04  0.25500000920E-02 0.  1.
    10030    2    1    2    0    0  0.00000000000E+00  0.00000000000E+00  0.58239668953E+03  0.31065369893E+04  0.30514564001E+04 0.  0.
        5    1    3    3  502    0  0.51529728053E+03  0.54938429614E+03 -0.10595787311E+04  0.13000321418E+04  0.46999998093E+01 0.  1.
       -5    1    3    3    0  502 -0.51529728053E+03 -0.54938429614E+03  0.16419754206E+04  0.18065048475E+04  0.46999998093E+01 0. -1.
</event>
<event>
 5   0  0.1007567E-05  0.3134343E+04  0.7818609E-02  0.8206376E-01
       -2   -1    0    0    0  501  0.00000000000E+00  0.00000000000E+00  0.12199744779E+04  0.12199744779E+04  0.25500000920E-02 0.  1.
        2   -1    0    0  501    0  0.00000000000E+00  0.00000000000E+00 -0.20131781240E+04  0.20131781240E+04  0.25500000920E-02 0. -1.
    10030    2    1    2    0    0  0.00000000000E+00  0.00000000000E+00 -0.79320364609E+03  0.32331526018E+04  0.31343426301E+04 0.  0.
        3    1    3    3  502    0 -0.33304078622E+03  0.46835990686E+03  0.11073561497E+04  0.12476036311E+04  0.10100000352E+00 0.  1.
       -3    1    3    3    0  502  0.33304078622E+03 -0.46835990686E+03 -0.19005597958E+04  0.19855489708E+04  0.10100000352E+00 0. -1.
</event>
<event>
 5   0  0.1001961E-05  0.3078042E+04  0.7818609E-02  0.8221790E-01
        2   -1    0    0  501    0  0.00000000000E+00  0.00000000000E+00  0.19989538075E+04  0.19989538075E+04  0.25500000920E-02 0. -1.
       -2   -1    0    0    0  501  0.00000000000E+00  0.00000000000E+00 -0.11849127256E+04  0.11849127256E+04  0.25500000920E-02 0.  1.
    10030    2    1    2    0    0  0.00000000000E+00  0.00000000000E+00  0.81404108197E+03  0.31838665331E+04  0.30780421078E+04 0.  0.
        5    1    3    3  502    0  0.13581264687E+04 -0.71917206334E+03  0.32142437161E+03  0.15700483045E+04  0.46999998093E+01 0. -1.
       -5    1    3    3    0  502 -0.13581264687E+04  0.71917206334E+03  0.49261671036E+03  0.16138182286E+04  0.46999998093E+01 0.  1.
</event>
<event>
 5   0  0.3848286E-06  0.2912216E+04  0.7818609E-02  0.8269252E-01
       -1   -1    0    0    0  501  0.00000000000E+00  0.00000000000E+00  0.24084406737E+04  0.24084406737E+04  0.50400001928E-02 0. -1.
        1   -1    0    0  501    0  0.00000000000E+00  0.00000000000E+00 -0.88034151045E+03  0.88034151047E+03  0.50400001928E-02 0.  1.
    10030    2    1    2    0    0  0.00000000000E+00  0.00000000000E+00  0.15280991632E+04  0.32887821842E+04  0.29122158578E+04 0.  0.
        2    1    3    3  502    0 -0.11303319137E+04  0.76058062152E+02  0.17971114663E+04  0.21243927806E+04  0.25500000920E-02 0. -1.
       -2    1    3    3    0  502  0.11303319137E+04 -0.76058062152E+02 -0.26901230307E+03  0.11643894036E+04  0.25500000920E-02 0.  1.
</event>
<event>
 5   0  0.1007567E-05  0.3577593E+04  0.7818609E-02  0.8095644E-01
       -2   -1    0    0    0  501  0.00000000000E+00  0.00000000000E+00  0.22851152242E+04  0.22851152242E+04  0.25500000920E-02 0.  1.
        2   -1    0    0  501    0  0.00000000000E+00  0.00000000000E+00 -0.14002761331E+04  0.14002761331E+04  0.25500000920E-02 0. -1.
    10030    2    1    2    0    0  0.00000000000E+00  0.00000000000E+00  0.88483909118E+03  0.36853913573E+04  0.35775926598E+04 0.  0.
        3    1    3    3  502    0  0.15527080865E+04  0.66778146086E+03  0.10456914169E+04  0.19875374289E+04  0.10100000352E+00 0.  1.
       -3    1    3    3    0  502 -0.15527080865E+04 -0.66778146086E+03 -0.16085232573E+03  0.16978539285E+04  0.10100000352E+00 0. -1.
</event>
<event>
 5   0  0.1108153E-05  0.3068075E+04  0.7818609E-02  0.8224554E-01
       -2   -1    0    0    0  501  0.00000000000E+00  0.00000000000E+00  0.14083613050E+04  0.14083613050E+04  0.25500000920E-02 0.  1.
        2   -1    0    0  501    0  0.00000000000E+00  0.00000000000E+00 -0.16709282600E+04  0.16709282600E+04  0.25500000920E-02 0. -1.
    10030    2    1    2    0    0  0.00000000000E+00  0.00000000000E+00 -0.26256695504E+03  0.30792895650E+04  0.30680747741E+04 0.  0.
        4    1    3    3  502    0 -0.79567864421E+03  0.88539951767E+03 -0.11024112987E+04  0.16224515695E+04  0.12699999809E+01 0. -1.
       -4    1    3    3    0  502  0.79567864421E+03 -0.88539951767E+03  0.83984434370E+03  0.14568379956E+04  0.12699999809E+01 0.  1.
</event>
<event>
 5   0  0.1007567E-05  0.2915004E+04  0.7818609E-02  0.8268427E-01
       -2   -1    0    0    0  501  0.00000000000E+00  0.00000000000E+00  0.97588039629E+03  0.97588039629E+03  0.25500000920E-02 0.  1.
        2   -1    0    0  501    0  0.00000000000E+00  0.00000000000E+00 -0.21768153504E+04  0.21768153504E+04  0.25500000920E-02 0. -1.
    10030    2    1    2    0    0  0.00000000000E+00  0.00000000000E+00 -0.12009349541E+04  0.31526957467E+04  0.29150035519E+04 0.  0.
        3    1    3    3  502    0  0.91953403797E+01  0.66866818202E+03  0.80016344835E+03  0.10428150585E+04  0.10100000352E+00 0.  1.
       -3    1    3    3    0  502 -0.91953403797E+01 -0.66866818202E+03 -0.20010984025E+04  0.21098806882E+04  0.10100000352E+00 0. -1.
</event>
<event>
 5   0  0.3848286E-06  0.3092381E+04  0.7818609E-02  0.8217832E-01
       -1   -1    0    0    0  501  0.00000000000E+00  0.00000000000E+00  0.12784869673E+04  0.12784869673E+04  0.50400001928E-02 0.  1.
        1   -1    0    0  501    0  0.00000000000E+00  0.00000000000E+00 -0.18699487145E+04  0.18699487145E+04  0.50400001928E-02 0. -1.
    10030    2    1    2    0    0  0.00000000000E+00  0.00000000000E+00 -0.59146174723E+03  0.31484356819E+04  0.30923809992E+04 0.  0.
        2    1    3    3  502    0  0.27407660316E+03 -0.33023696419E+03 -0.18080965392E+04  0.18583292313E+04  0.25500000920E-02 0. -1.
       -2    1    3    3    0  502 -0.27407660316E+03  0.33023696419E+03  0.12166347919E+04  0.12901064506E+04  0.25500000920E-02 0.  1.
</event>
<event>
 5   0  0.1119100E-05  0.3009433E+04  0.7818609E-02  0.8241042E-01
        2   -1    0    0  501    0  0.00000000000E+00  0.00000000000E+00  0.22988181007E+04  0.22988181007E+04  0.25500000920E-02 0. -1.
       -2   -1    0    0    0  501  0.00000000000E+00  0.00000000000E+00 -0.98492854064E+03  0.98492854064E+03  0.25500000920E-02 0.  1.
    10030    2    1    2    0    0  0.00000000000E+00  0.00000000000E+00  0.13138895601E+04  0.32837466413E+04  0.30094328749E+04 0.  0.
        2    1    3    3  502    0 -0.12410816213E+04 -0.40610932539E+02 -0.27036611877E+03  0.12708385723E+04  0.25500000920E-02 0.  1.
       -2    1    3    3    0  502  0.12410816213E+04  0.40610932539E+02  0.15842556788E+04  0.20129080691E+04  0.25500000920E-02 0. -1.
</event>
<event>
 5   0  0.3807334E-06  0.2974602E+04  0.7818609E-02  0.8251021E-01
       -1   -1    0    0    0  501  0.00000000000E+00  0.00000000000E+00  0.18610389595E+04  0.18610389595E+04  0.50400001928E-02 0. -1.
        1   -1    0    0  501    0  0.00000000000E+00  0.00000000000E+00 -0.11886179909E+04  0.11886179909E+04  0.50400001928E-02 0.  1.
    10030    2    1    2    0    0  0.00000000000E+00  0.00000000000E+00  0.67242096859E+03  0.30496569504E+04  0.29746020836E+04 0.  0.
        4    1    3    3  502    0  0.12185146684E+04  0.84429062873E+03  0.21293465779E+03  0.14976473030E+04  0.12699999809E+01 0.  1.
       -4    1    3    3    0  502 -0.12185146684E+04 -0.84429062873E+03  0.45948631080E+03  0.15520096474E+04  0.12699999809E+01 0. -1.
</event>
<event>
 5   0  0.3807334E-06  0.3148295E+04  0.7818609E-02  0.8202607E-01
       -1   -1    0    0    0  501  0.00000000000E+00  0.00000000000E+00  0.19521379587E+04  0.19521379587E+04  0.50400001928E-02 0.  1.
        1   -1    0    0  501    0  0.00000000000E+00  0.00000000000E+00 -0.12693473092E+04  0.12693473092E+04  0.50400001928E-02 0. -1.
    10030    2    1    2    0    0  0.00000000000E+00  0.00000000000E+00  0.68279064951E+03  0.32214852679E+04  0.31482954531E+04 0.  0.
        4    1    3    3  502    0  0.13912376425E+04 -0.55272848259E+03  0.83942205754E+03  0.17162989125E+04  0.12699999809E+01 0.  1.
       -4    1    3    3    0  502 -0.13912376425E+04  0.55272848259E+03 -0.15663140804E+03  0.15051863554E+04  0.12699999809E+01 0. -1.
</event>
<event>
 5   0  0.1108153E-05  0.1945132E+04  0.7818609E-02  0.8632712E-01
        2   -1    0    0  501    0  0.00000000000E+00  0.00000000000E+00  0.73664858082E+03  0.73664858082E+03  0.25500000920E-02 0. -1.
       -2   -1    0    0    0  501  0.00000000000E+00  0.00000000000E+00 -0.12840371978E+04  0.12840371978E+04  0.25500000920E-02 0.  1.
    10030    2    1    2    0    0  0.00000000000E+00  0.00000000000E+00 -0.54738861697E+03  0.20206857786E+04  0.19451315426E+04 0.  0.
        4    1    3    3  502    0  0.80779009679E+03  0.22128664465E+03  0.23986603075E+03  0.87122324646E+03  0.12699999809E+01 0. -1.
       -4    1    3    3    0  502 -0.80779009679E+03 -0.22128664465E+03 -0.78725464772E+03  0.11494625322E+04  0.12699999809E+01 0.  1.
</event>
<event>
 5   0  0.3838525E-06  0.3120374E+04  0.7818609E-02  0.8210169E-01
       -1   -1    0    0    0  501  0.00000000000E+00  0.00000000000E+00  0.27926613742E+04  0.27926613742E+04  0.50400001928E-02 0. -1.
        1   -1    0    0  501    0  0.00000000000E+00  0.00000000000E+00 -0.87163591621E+03  0.87163591622E+03  0.50400001928E-02 0.  1.
    10030    2    1    2    0    0  0.00000000000E+00  0.00000000000E+00  0.19210254580E+04  0.36642972904E+04  0.31203743080E+04 0.  0.
        3    1    3    3  502    0  0.13042926232E+04 -0.61570848468E+02  0.19633060352E+04  0.23578678534E+04  0.10100000352E+00 0. -1.
       -3    1    3    3    0  502 -0.13042926232E+04  0.61570848468E+02 -0.42280577221E+02  0.13064294370E+04  0.10100000352E+00 0.  1.
</event>
<event>
 5   0  0.3848286E-06  0.2392849E+04  0.7818609E-02  0.8442186E-01
        1   -1    0    0  501    0  0.00000000000E+00  0.00000000000E+00  0.14938900468E+04  0.14938900468E+04  0.50400001928E-02 0. -1.
       -1   -1    0    0    0  501  0.00000000000E+00  0.00000000000E+00 -0.95819040365E+03  0.95819040366E+03  0.50400001928E-02 0.  1.
    10030    2    1    2    0    0  0.00000000000E+00  0.00000000000E+00  0.53569964314E+03  0.24520804505E+04  0.23928486011E+04 0.  0.
        2    1    3    3  502    0  0.26540405636E+03 -0.33091638244E+03 -0.87854051413E+03  0.97559130802E+03  0.25500000920E-02 0.  1.
       -2    1    3    3    0  502 -0.26540405636E+03  0.33091638244E+03  0.14142401573E+04  0.14764891424E+04  0.25500000920E-02 0. -1.
</event>
<event>
 5   0  0.1007567E-05  0.2895842E+04  0.7818609E-02  0.8274116E-01
       -2   -1    0    0    0  501  0.00000000000E+00  0.00000000000E+00  0.14777350898E+04  0.14777350898E+04  0.25500000920E-02 0.  1.
        2   -1    0    0  501    0  0.00000000000E+00  0.00000000000E+00 -0.14187085355E+04  0.14187085355E+04  0.25500000920E-02 0. -1.
    10030    2    1    2    0    0  0.00000000000E+00  0.00000000000E+00  0.59026554301E+02  0.28964436253E+04  0.28958421125E+04 0.  0.
        3    1    3    3  502    0  0.43345381880E+03 -0.13787947252E+04  0.11623923240E+03  0.14499891988E+04  0.10100000352E+00 0.  1.
       -3    1    3    3    0  502 -0.43345381880E+03  0.13787947252E+04 -0.57212678101E+02  0.14464544265E+04  0.10100000352E+00 0. -1.
</event>
<event>
 5   0  0.1007567E-05  0.3107443E+04  0.7818609E-02  0.8213698E-01
        2   -1    0    0  501    0  0.00000000000E+00  0.00000000000E+00  0.19650446555E+04  0.19650446555E+04  0.25500000920E-02 0.  1.
       -2   -1    0    0    0  501  0.00000000000E+00  0.00000000000E+00 -0.12284961763E+04  0.12284961763E+04  0.25500000920E-02 0. -1.
    10030    2    1    2    0    0  0.00000000000E+00  0.00000000000E+00  0.73654847914E+03  0.31935408318E+04  0.31074425790E+04 0.  0.
        3    1    3    3  502    0  0.56315975668E+02  0.44551175165E+03  0.18968992215E+04  0.19493278012E+04  0.10100000352E+00 0.  1.
       -3    1    3    3    0  502 -0.56315975668E+02 -0.44551175165E+03 -0.11603507423E+04  0.12442130306E+04  0.10100000352E+00 0. -1.
</event>
<event>
 5   0  0.1108153E-05  0.3127459E+04  0.7818609E-02  0.8208242E-01
       -2   -1    0    0    0  501  0.00000000000E+00  0.00000000000E+00  0.16272847644E+04  0.16272847644E+04  0.25500000920E-02 0.  1.
        2   -1    0    0  501    0  0.00000000000E+00  0.00000000000E+00 -0.15026564413E+04  0.15026564413E+04  0.25500000920E-02 0. -1.
    10030    2    1    2    0    0  0.00000000000E+00  0.00000000000E+00  0.12462832305E+03  0.31299412057E+04  0.31274589897E+04 0.  0.
        4    1    3    3  502    0  0.45444252098E+03  0.92760151856E+03 -0.11126217748E+04  0.15181868821E+04  0.12699999809E+01 0. -1.
       -4    1    3    3    0  502 -0.45444252098E+03 -0.92760151856E+03  0.12372500979E+04  0.16117543236E+04  0.12699999809E+01 0.  1.
</event>
<event>
 5   0  0.4250961E-06  0.1618424E+04  0.7818609E-02  0.8809309E-01
       -1   -1    0    0    0  501  0.00000000000E+00  0.00000000000E+00  0.10027277148E+04  0.10027277149E+04  0.50400001928E-02 0. -1.
        1   -1    0    0  501    0  0.00000000000E+00  0.00000000000E+00 -0.65304246957E+03  0.65304246959E+03  0.50400001928E-02 0.  1.
    10030    2    1    2    0    0  0.00000000000E+00  0.00000000000E+00  0.34968524527E+03  0.16557701844E+04  0.16184236568E+04 0.  0.
        1    1    3    3  502    0  0.27325241054E+03  0.76117466180E+03  0.14645272666E+03  0.82188937625E+03  0.50400001928E-02 0. -1.
       -1    1    3    3    0  502 -0.27325241054E+03 -0.76117466180E+03  0.20323251862E+03  0.83388080820E+03  0.50400001928E-02 0.  1.
</event>
<event>
 5   0  0.1108153E-05  0.3015332E+04  0.7818609E-02  0.8239366E-01
       -2   -1    0    0    0  501  0.00000000000E+00  0.00000000000E+00  0.12259687429E+04  0.12259687429E+04  0.25500000920E-02 0. -1.
        2   -1    0    0  501    0  0.00000000000E+00  0.00000000000E+00 -0.18540902809E+04  0.18540902809E+04  0.25500000920E-02 0.  1.
    10030    2    1    2    0    0  0.00000000000E+00  0.00000000000E+00 -0.62812153803E+03  0.30800590237E+04  0.30153319756E+04 0.  0.
        4    1    3    3  502    0 -0.44527448146E+03  0.79672423949E+03 -0.15398268539E+04  0.17900020197E+04  0.12699999809E+01 0.  1.
       -4    1    3    3    0  502  0.44527448146E+03 -0.79672423949E+03  0.91170531591E+03  0.12900570040E+04  0.12699999809E+01 0. -1.
</event>
<event>
 5   0  0.3838525E-06  0.3122315E+04  0.7818609E-02  0.8209640E-01
        1   -1    0    0  501    0  0.00000000000E+00  0.00000000000E+00  0.21375206157E+04  0.21375206157E+04  0.50400001928E-02 0. -1.
       -1   -1    0    0    0  501  0.00000000000E+00  0.00000000000E+00 -0.11402057718E+04  0.11402057718E+04  0.50400001928E-02 0.  1.
    10030    2    1    2    0    0  0.00000000000E+00  0.00000000000E+00  0.99731484393E+03  0.32777263875E+04  0.31223153866E+04 0.  0.
        3    1    3    3  502    0 -0.13415804009E+04 -0.47737216129E+03  0.11704237088E+04  0.18432617342E+04  0.10100000352E+00 0. -1.
       -3    1    3    3    0  502  0.13415804009E+04  0.47737216129E+03 -0.17310886492E+03  0.14344646533E+04  0.10100000352E+00 0.  1.
</event>
<event>
 5   0  0.1007567E-05  0.2844420E+04  0.7818609E-02  0.8289609E-01
        2   -1    0    0  501    0  0.00000000000E+00  0.00000000000E+00  0.14638411560E+04  0.14638411560E+04  0.25500000920E-02 0.  1.
       -2   -1    0    0    0  501  0.00000000000E+00  0.00000000000E+00 -0.13817627639E+04  0.13817627639E+04  0.25500000920E-02 0. -1.
    10030    2    1    2    0    0  0.00000000000E+00  0.00000000000E+00  0.82078392074E+02  0.28456039199E+04  0.28444199420E+04 0.  0.
        3    1    3    3  502    0 -0.73587934613E+03 -0.91161238085E+03  0.84767851026E+03  0.14460686055E+04  0.10100000352E+00 0.  1.
       -3    1    3    3    0  502  0.73587934613E+03  0.91161238085E+03 -0.76560011818E+03  0.13995353144E+04  0.10100000352E+00 0. -1.
</event>
<event>
 5   0  0.1007567E-05  0.3093116E+04  0.7818609E-02  0.8217630E-01
       -2   -1    0    0    0  501  0.00000000000E+00  0.00000000000E+00  0.16641925750E+04  0.16641925750E+04  0.25500000920E-02 0.  1.
        2   -1    0    0  501    0  0.00000000000E+00  0.00000000000E+00 -0.14372388163E+04  0.14372388163E+04  0.25500000920E-02 0. -1.
    10030    2    1    2    0    0  0.00000000000E+00  0.00000000000E+00  0.22695375866E+03  0.31014313913E+04  0.30931163357E+04 0.  0.
        3    1    3    3  502    0 -0.26802689174E+03  0.14192858655E+04 -0.44084866282E+03  0.15101517594E+04  0.10100000352E+00 0. -1.
       -3    1    3    3    0  502  0.26802689174E+03 -0.14192858655E+04  0.66780242148E+03  0.15912796319E+04  0.10100000352E+00 0.  1.
</event>
<event>
 5   0  0.3807334E-06  0.3028913E+04  0.7818609E-02  0.8235522E-01
       -1   -1    0    0    0  501  0.00000000000E+00  0.00000000000E+00  0.91292266100E+03  0.91292266101E+03  0.50400001928E-02 0. -1.
        1   -1    0    0  501    0  0.00000000000E+00  0.00000000000E+00 -0.25123475921E+04  0.25123475921E+04  0.50400001928E-02 0.  1.
    10030    2    1    2    0    0  0.00000000000E+00  0.00000000000E+00 -0.15994249311E+04  0.34252702531E+04  0.30289133690E+04 0.  0.
        4    1    3    3  502    0 -0.57208193595E+03 -0.21345570708E+03 -0.23669754236E+04  0.24444662708E+04  0.12699999809E+01 0.  1.
       -4    1    3    3    0  502  0.57208193595E+03  0.21345570708E+03  0.76755049249E+03  0.98080398232E+03  0.12699999809E+01 0. -1.
</event>
<event>
 5   0  0.4250961E-06  0.3074530E+04  0.7818609E-02  0.8222763E-01
       -1   -1    0    0    0  501  0.00000000000E+00  0.00000000000E+00  0.99116934306E+03  0.99116934307E+03  0.50400001928E-02 0.  1.
        1   -1    0    0  501    0  0.00000000000E+00  0.00000000000E+00 -0.23842387924E+04  0.23842387924E+04  0.50400001928E-02 0. -1.
    10030    2    1    2    0    0  0.00000000000E+00  0.00000000000E+00 -0.13930694493E+04  0.33754081354E+04  0.30745304666E+04 0.  0.
        1    1    3    3  502    0  0.14416897895E+04 -0.26732179253E+03 -0.12035208714E+04  0.18969430350E+04  0.50400001928E-02 0.  1.
       -1    1    3    3    0  502 -0.14416897895E+04  0.26732179253E+03 -0.18954857787E+03  0.14784651005E+04  0.50400001928E-02 0. -1.
</event>
<event>
 5   0  0.9797278E-06  0.3043185E+04  0.7818609E-02  0.8231506E-01
       -2   -1    0    0    0  501  0.00000000000E+00  0.00000000000E+00  0.12721687128E+04  0.12721687128E+04  0.25500000920E-02 0.  1.
        2   -1    0    0  501    0  0.00000000000E+00  0.00000000000E+00 -0.18199190084E+04  0.18199190084E+04  0.25500000920E-02 0. -1.
    10030    2    1    2    0    0  0.00000000000E+00  0.00000000000E+00 -0.54775029556E+03  0.30920877213E+04  0.30431851882E+04 0.  0.
        1    1    3    3  502    0  0.61319429489E+03 -0.98303897963E+03  0.72831720767E+03  0.13685097127E+04  0.50400001928E-02 0. -1.
       -1    1    3    3    0  502 -0.61319429489E+03  0.98303897963E+03 -0.12760675032E+04  0.17235780086E+04  0.50400001928E-02 0.  1.
</event>
<event>
 5   0  0.3807334E-06  0.3033394E+04  0.7818609E-02  0.8234259E-01
       -1   -1    0    0    0  501  0.00000000000E+00  0.00000000000E+00  0.11780354855E+04  0.11780354855E+04  0.50400001928E-02 0. -1.
        1   -1    0    0  501    0  0.00000000000E+00  0.00000000000E+00 -0.19527169671E+04  0.19527169671E+04  0.50400001928E-02 0.  1.
    10030    2    1    2    0    0  0.00000000000E+00  0.00000000000E+00 -0.77468148165E+03  0.31307524526E+04  0.30333940597E+04 0.  0.
        4    1    3    3  502    0 -0.78963438811E+03 -0.59060917704E+03 -0.15767280071E+04  0.18596812867E+04  0.12699999809E+01 0.  1.
       -4    1    3    3    0  502  0.78963438811E+03  0.59060917704E+03  0.80204652544E+03  0.12710711659E+04  0.12699999809E+01 0. -1.
</event>
<event>
 5   0  0.1001961E-05  0.3195887E+04  0.7818609E-02  0.8189904E-01
        2   -1    0    0  501    0  0.00000000000E+00  0.00000000000E+00  0.20294953907E+04  0.20294953907E+04  0.25500000920E-02 0. -1.
       -2   -1    0    0    0  501  0.00000000000E+00  0.00000000000E+00 -0.12581571736E+04  0.12581571736E+04  0.25500000920E-02 0.  1.
    10030    2    1    2    0    0  0.00000000000E+00  0.00000000000E+00  0.77133821713E+03  0.32876525643E+04  0.31958874727E+04 0.  0.
        5    1    3    3  502    0  0.14516920205E+03 -0.62662003421E+03  0.18904330504E+04  0.19968690424E+04  0.46999998093E+01 0. -1.
       -5    1    3    3    0  502 -0.14516920205E+03  0.62662003421E+03 -0.11190948333E+04  0.12907835219E+04  0.46999998093E+01 0.  1.
</event>
<event>
 5   0  0.3848286E-06  0.2059301E+04  0.7818609E-02  0.8579387E-01
       -1   -1    0    0    0  501  0.00000000000E+00  0.00000000000E+00  0.13734733853E+04  0.13734733853E+04  0.50400001928E-02 0.  1.
        1   -1    0    0  501    0  0.00000000000E+00  0.00000000000E+00 -0.77189679000E+03  0.77189679001E+03  0.50400001928E-02 0. -1.
    10030    2    1    2    0    0  0.00000000000E+00  0.00000000000E+00  0.60157659527E+03  0.21453701753E+04  0.20593005582E+04 0.  0.
        2    1    3    3  502    0 -0.60253710731E+03 -0.67462710374E+03 -0.21171476832E+03  0.92897569286E+03  0.25500000920E-02 0. -1.
       -2    1    3    3    0  502  0.60253710731E+03  0.67462710374E+03  0.81329136360E+03  0.12163944824E+04  0.25500000920E-02 0.  1.
</event>
<event>
 5   0  0.4139628E-06  0.2877796E+04  0.7818609E-02  0.8279514E-01
       -1   -1    0    0    0  501  0.00000000000E+00  0.00000000000E+00  0.18072671461E+04  0.18072671461E+04  0.50400001928E-02 0.  1.
        1   -1    0    0  501    0  0.00000000000E+00  0.00000000000E+00 -0.11456126643E+04  0.11456126643E+04  0.50400001928E-02 0. -1.
    10030    2    1    2    0    0  0.00000000000E+00  0.00000000000E+00  0.66165448179E+03  0.29528798104E+04  0.28777964698E+04 0.  0.
        5    1    3    3  502    0  0.11073823051E+04  0.64293202476E+03  0.10042654827E+04  0.16273378284E+04  0.46999998093E+01 0.  1.
       -5    1    3    3    0  502 -0.11073823051E+04 -0.64293202476E+03 -0.34261100091E+03  0.13255419820E+04  0.46999998093E+01 0. -1.
</event>
<event>
 5   0  0.4250961E-06  0.3016376E+04  0.7818609E-02  0.8239070E-01
       -1   -1    0    0    0  501  0.00000000000E+00  0.00000000000E+00  0.12947446466E+04  0.12947446467E+04  0.50400001928E-02 0.  1.
        1   -1    0    0  501    0  0.00000000000E+00  0.00000000000E+00 -0.17568182719E+04  0.17568182719E+04  0.50400001928E-02 0. -1.
    10030    2    1    2    0    0  0.00000000000E+00  0.00000000000E+00 -0.46207362529E+03  0.30515629186E+04  0.30163760062E+04 0.  0.
        1    1    3    3  502    0  0.84550144024E+03 -0.11611228696E+04  0.23427649080E+03  0.14553228088E+04  0.50400001928E-02 0. -1.
       -1    1    3    3    0  502 -0.84550144024E+03  0.11611228696E+04 -0.69635011609E+03  0.15962401098E+04  0.50400001928E-02 0.  1.
</event>
<event>
 5   0  0.1001961E-05  0.3089603E+04  0.7818609E-02  0.8218597E-01
        2   -1    0    0  501    0  0.00000000000E+00  0.00000000000E+00  0.26408136050E+04  0.26408136050E+04  0.25500000920E-02 0. -1.
       -2   -1    0    0    0  501  0.00000000000E+00  0.00000000000E+00 -0.90366541769E+03  0.90366541769E+03  0.25500000920E-02 0.  1.
    10030    2    1    2    0    0  0.00000000000E+00  0.00000000000E+00  0.17371481873E+04  0.35444790227E+04  0.30896031651E+04 0.  0.
        5    1    3    3  502    0  0.67888000188E+03 -0.82700559461E+03  0.21468833431E+04  0.23987385205E+04  0.46999998093E+01 0. -1.
       -5    1    3    3    0  502 -0.67888000188E+03  0.82700559461E+03 -0.40973515585E+03  0.11457405022E+04  0.46999998093E+01 0.  1.
</event>
<event>
 5   0  0.3848286E-06  0.3067526E+04  0.7818609E-02  0.8224707E-01
        1   -1    0    0  501    0  0.00000000000E+00  0.00000000000E+00  0.28702207640E+04  0.28702207640E+04  0.50400001928E-02 0.  1.
       -1   -1    0    0    0  501  0.00000000000E+00  0.00000000000E+00 -0.81959845074E+03  0.81959845075E+03  0.50400001928E-02 0. -1.
    10030    2    1    2    0    0  0.00000000000E+00  0.00000000000E+00  0.20506223132E+04  0.36898192147E+04  0.30675257074E+04 0.  0.
        2    1    3    3  502    0 -0.12461635967E+04  0.59939663506E+03  0.22721368912E+03  0.14013657967E+04  0.25500000920E-02 0. -1.
       -2    1    3    3    0  502  0.12461635967E+04 -0.59939663506E+03  0.18234086241E+04  0.22884534180E+04  0.25500000920E-02 0.  1.
</event>
<event>
 5   0  0.3838525E-06  0.3313833E+04  0.7818609E-02  0.8159385E-01
       -1   -1    0    0    0  501  0.00000000000E+00  0.00000000000E+00  0.24381189939E+04  0.24381189939E+04  0.50400001928E-02 0.  1.
        1   -1    0    0  501    0  0.00000000000E+00  0.00000000000E+00 -0.11260203476E+04  0.11260203476E+04  0.50400001928E-02 0. -1.
    10030    2    1    2    0    0  0.00000000000E+00  0.00000000000E+00  0.13120986462E+04  0.35641393415E+04  0.33138325830E+04 0.  0.
        3    1    3    3  502    0  0.88437293113E+03  0.82380095624E+03 -0.56296676467E+03  0.13333023232E+04  0.10100000352E+00 0. -1.
       -3    1    3    3    0  502 -0.88437293113E+03 -0.82380095624E+03  0.18750654109E+04  0.22308370183E+04  0.10100000352E+00 0.  1.
</event>
<event>
 5   0  0.1007567E-05  0.3115138E+04  0.7818609E-02  0.8211596E-01
        2   -1    0    0  501    0  0.00000000000E+00  0.00000000000E+00  0.15061466746E+04  0.15061466746E+04  0.25500000920E-02 0.  1.
       -2   -1    0    0    0  501  0.00000000000E+00  0.00000000000E+00 -0.16107472388E+04  0.16107472388E+04  0.25500000920E-02 0. -1.
    10030    2    1    2    0    0  0.00000000000E+00  0.00000000000E+00 -0.10460056419E+03  0.31168939133E+04  0.31151382616E+04 0.  0.
        3    1    3    3  502    0 -0.92609795656E+03  0.14740224283E+03  0.11920391254E+04  0.15166878825E+04  0.10100000352E+00 0.  1.
       -3    1    3    3    0  502  0.92609795656E+03 -0.14740224283E+03 -0.12966396896E+04  0.16002060308E+04  0.10100000352E+00 0. -1.
</event>
<event>
 5   0  0.1001961E-05  0.3123985E+04  0.7818609E-02  0.8209186E-01
       -2   -1    0    0    0  501  0.00000000000E+00  0.00000000000E+00  0.10331605373E+04  0.10331605373E+04  0.25500000920E-02 0. -1.
        2   -1    0    0  501    0  0.00000000000E+00  0.00000000000E+00 -0.23615115704E+04  0.23615115704E+04  0.25500000920E-02 0.  1.
    10030    2    1    2    0    0  0.00000000000E+00  0.00000000000E+00 -0.13283510331E+04  0.33946721077E+04  0.31239849955E+04 0.  0.
        5    1    3    3  502    0 -0.45931036975E+03  0.40562184906E+03  0.89708599595E+03  0.10864071402E+04  0.46999998093E+01 0. -1.
       -5    1    3    3    0  502  0.45931036975E+03 -0.40562184906E+03 -0.22254370290E+04  0.23082649675E+04  0.46999998093E+01 0.  1.
</event>
<event>
 5   0  0.9797278E-06  0.3062479E+04  0.7818609E-02  0.8226111E-01
       -2   -1    0    0    0  501  0.00000000000E+00  0.00000000000E+00  0.18913503115E+04  0.18913503115E+04  0.25500000920E-02 0. -1.
        2   -1    0    0  501    0  0.00000000000E+00  0.00000000000E+00 -0.12396929843E+04  0.12396929843E+04  0.25500000920E-02 0.  1.
    10030    2    1    2    0    0  0.00000000000E+00  0.00000000000E+00  0.65165732725E+03  0.31310432958E+04  0.30624785465E+04 0.  0.
        1    1    3    3  502    0  0.96059642543E+02 -0.38826482328E+03 -0.11853422318E+04  0.12510048898E+04  0.50400001928E-02 0.  1.
       -1    1    3    3    0  502 -0.96059642543E+02  0.38826482328E+03  0.18369995590E+04  0.18800384060E+04  0.50400001928E-02 0. -1.
</event>
<event>
 5   0  0.3807334E-06  0.3180922E+04  0.7818609E-02  0.8193874E-01
       -1   -1    0    0    0  501  0.00000000000E+00  0.00000000000E+00  0.19019759536E+04  0.19019759536E+04  0.50400001928E-02 0. -1.
        1   -1    0    0  501    0  0.00000000000E+00  0.00000000000E+00 -0.13299678012E+04  0.13299678012E+04  0.50400001928E-02 0.  1.
    10030    2    1    2    0    0  0.00000000000E+00  0.00000000000E+00  0.57200815246E+03  0.32319437548E+04  0.31809223675E+04 0.  0.
        4    1    3    3  502    0 -0.10647480742E+04 -0.11089021334E+04 -0.12822721848E+03  0.15426588201E+04  0.12699999809E+01 0.  1.
       -4    1    3    3    0  502  0.10647480742E+04  0.11089021334E+04  0.70023537094E+03  0.16892849347E+04  0.12699999809E+01 0. -1.
</event>
<event>
 5   0  0.3838525E-06  0.2902948E+04  0.7818609E-02  0.8272001E-01
        1   -1    0    0  501    0  0.00000000000E+00  0.00000000000E+00  0.18156945101E+04  0.18156945101E+04  0.50400001928E-02 0.  1.
       -1   -1    0    0    0  501  0.00000000000E+00  0.00000000000E+00 -0.11603147110E+04  0.11603147110E+04  0.50400001928E-02 0. -1.
    10030    2    1    2    0    0  0.00000000000E+00  0.00000000000E+00  0.65537979914E+03  0.29760092211E+04  0.29029481916E+04 0.  0.
        3    1    3    3  502    0 -0.13333822860E+04 -0.50578744418E+03  0.60476563957E+03  0.15490225138E+04  0.10100000352E+00 0.  1.
       -3    1    3    3    0  502  0.13333822860E+04  0.50578744418E+03  0.50614159573E+02  0.14269867073E+04  0.10100000352E+00 0. -1.
</event>
<event>
 5   0  0.4250961E-06  0.3068326E+04  0.7818609E-02  0.8224485E-01
       -1   -1    0    0    0  501  0.00000000000E+00  0.00000000000E+00  0.11123312012E+04  0.11123312012E+04  0.50400001928E-02 0. -1.
        1   -1    0    0  501    0  0.00000000000E+00  0.00000000000E+00 -0.21159663398E+04  0.21159663398E+04  0.50400001928E-02 0.  1.
    10030    2    1    2    0    0  0.00000000000E+00  0.00000000000E+00 -0.10036351387E+04  0.32282975410E+04  0.30683255241E+04 0.  0.
        1    1    3    3  502    0 -0.80696136162E+03  0.12155377337E+04 -0.10008196304E+04  0.17692819317E+04  0.50400001928E-02 0. -1.
       -1    1    3    3    0  502  0.80696136162E+03 -0.12155377337E+04 -0.28155082368E+01  0.14590156093E+04  0.50400001928E-02 0.  1.
</event>
<event>
 5   0  0.1119100E-05  0.2966801E+04  0.7818609E-02  0.8253275E-01
       -2   -1    0    0    0  501  0.00000000000E+00  0.00000000000E+00  0.10940061130E+04  0.10940061131E+04  0.25500000920E-02 0. -1.
        2   -1    0    0  501    0  0.00000000000E+00  0.00000000000E+00 -0.20113941064E+04  0.20113941064E+04  0.25500000920E-02 0.  1.
    10030    2    1    2    0    0  0.00000000000E+00  0.00000000000E+00 -0.91738799333E+03  0.31054002194E+04  0.29668012728E+04 0.  0.
        2    1    3    3  502    0 -0.22447226839E+03 -0.10257276511E+04  0.63809943556E+03  0.12286886926E+04  0.25500000920E-02 0. -1.
       -2    1    3    3    0  502  0.22447226839E+03  0.10257276511E+04 -0.15554874289E+04  0.18767115269E+04  0.25500000920E-02 0.  1.
</event>
<event>
 5   0  0.4250961E-06  0.2990892E+04  0.7818609E-02  0.8246337E-01
       -1   -1    0    0    0  501  0.00000000000E+00  0.00000000000E+00  0.13909416096E+04  0.13909416097E+04  0.50400001928E-02 0. -1.
        1   -1    0    0  501    0  0.00000000000E+00  0.00000000000E+00 -0.16078017113E+04  0.16078017113E+04  0.50400001928E-02 0.  1.
    10030    2    1    2    0    0  0.00000000000E+00  0.00000000000E+00 -0.21686010163E+03  0.29987433209E+04  0.29908917067E+04 0.  0.
        1    1    3    3  502    0 -0.11478754333E+03  0.14481718249E+04 -0.46429912162E+03  0.15251070418E+04  0.50400001928E-02 0. -1.
       -1    1    3    3    0  502  0.11478754333E+03 -0.14481718249E+04  0.24743901999E+03  0.14736362791E+04  0.50400001928E-02 0.  1.
</event>
<event>
 5   0  0.3493125E-06  0.2984536E+04  0.7818609E-02  0.8248160E-01
        4   -1    0    0  501    0  0.00000000000E+00  0.00000000000E+00  0.14004570477E+04  0.14004576235E+04  0.12699999809E+01 0. -1.
       -4   -1    0    0    0  501  0.00000000000E+00  0.00000000000E+00 -0.15900969665E+04  0.15900974737E+04  0.12699999809E+01 0.  1.
    10030    2    1    2    0    0  0.00000000000E+00  0.00000000000E+00 -0.18963991881E+03  0.29905550972E+04  0.29845362270E+04 0.  0.
        5    1    3    3  502    0  0.14308248852E+03  0.94488952829E+03 -0.12432347810E+04  0.15681019195E+04  0.46999998093E+01 0.  1.
       -5    1    3    3    0  502 -0.14308248852E+03 -0.94488952829E+03  0.10535948622E+04  0.14224531777E+04  0.46999998093E+01 0. -1.
</event>
<event>
 5   0  0.3807334E-06  0.3102613E+04  0.7818609E-02  0.8215021E-01
       -1   -1    0    0    0  501  0.00000000000E+00  0.00000000000E+00  0.11311863890E+04  0.11311863890E+04  0.50400001928E-02 0. -1.
        1   -1    0    0  501    0  0.00000000000E+00  0.00000000000E+00 -0.21274586575E+04  0.21274586575E+04  0.50400001928E-02 0.  1.
    10030    2    1    2    0    0  0.00000000000E+00  0.00000000000E+00 -0.99627226851E+03  0.32586450465E+04  0.31026132705E+04 0.  0.
        4    1    3    3  502    0  0.28740540647E+03  0.84118866529E+03  0.83715870950E+03  0.12210800777E+04  0.12699999809E+01 0. -1.
       -4    1    3    3    0  502 -0.28740540647E+03 -0.84118866529E+03 -0.18334309780E+04  0.20375649689E+04  0.12699999809E+01 0.  1.
</event>
<event>
 5   0  0.1007567E-05  0.1772503E+04  0.7818609E-02  0.8721060E-01
       -2   -1    0    0    0  501  0.00000000000E+00  0.00000000000E+00  0.49831130302E+03  0.49831130302E+03  0.25500000920E-02 0. -1.
        2   -1    0    0  501    0  0.00000000000E+00  0.00000000000E+00 -0.15762066286E+04  0.15762066286E+04  0.25500000920E-02 0.  1.
    10030    2    1    2    0    0  0.00000000000E+00  0.00000000000E+00 -0.10778953256E+04  0.20745179316E+04  0.17725028394E+04 0.  0.
        3    1    3    3  502    0 -0.18147387000E+03  0.49028295100E+03  0.29862205851E+03  0.60206750582E+03  0.10100000352E+00 0. -1.
       -3    1    3    3    0  502  0.18147387000E+03 -0.49028295100E+03 -0.13765173841E+04  0.14724504258E+04  0.10100000352E+00 0.  1.
</event>
<event>
 5   0  0.1007567E-05  0.2459795E+04  0.7818609E-02  0.8417450E-01
       -2   -1    0    0    0  501  0.00000000000E+00  0.00000000000E+00  0.84215067341E+03  0.84215067341E+03  0.25500000920E-02 0.  1.
        2   -1    0    0  501    0  0.00000000000E+00  0.00000000000E+00 -0.17961724207E+04  0.17961724207E+04  0.25500000920E-02 0. -1.
    10030    2    1    2    0    0  0.00000000000E+00  0.00000000000E+00 -0.95402174726E+03  0.26383230941E+04  0.24597949619E+04 0.  0.
        3    1    3    3  502    0  0.10345454045E+04  0.20544202825E+03  0.20148057685E+03  0.10738179799E+04  0.10100000352E+00 0.  1.
       -3    1    3    3    0  502 -0.10345454045E+04 -0.20544202825E+03 -0.11555023241E+04  0.15645051141E+04  0.10100000352E+00 0. -1.
</event>
<event>
 5   0  0.3848286E-06  0.2702481E+04  0.7818609E-02  0.8334200E-01
        1   -1    0    0  501    0  0.00000000000E+00  0.00000000000E+00  0.19835672347E+04  0.19835672347E+04  0.50400001928E-02 0. -1.
       -1   -1    0    0    0  501  0.00000000000E+00  0.00000000000E+00 -0.92048879802E+03  0.92048879803E+03  0.50400001928E-02 0.  1.
    10030    2    1    2    0    0  0.00000000000E+00  0.00000000000E+00  0.10630784366E+04  0.29040560327E+04  0.27024813928E+04 0.  0.
        2    1    3    3  502    0  0.20644357403E+03 -0.56804744814E+03  0.18302162891E+04  0.19274305480E+04  0.25500000920E-02 0. -1.
       -2    1    3    3    0  502 -0.20644357403E+03  0.56804744814E+03 -0.76713785246E+03  0.97662548466E+03  0.25500000920E-02 0.  1.
</event>
<event>
 5   0  0.4139628E-06  0.1721637E+04  0.7818609E-02  0.8749119E-01
        1   -1    0    0  501    0  0.00000000000E+00  0.00000000000E+00  0.93268074068E+03  0.93268074069E+03  0.50400001928E-02 0.  1.
       -1   -1    0    0    0  501  0.00000000000E+00  0.00000000000E+00 -0.79449331907E+03  0.79449331909E+03  0.50400001928E-02 0. -1.
    10030    2    1    2    0    0  0.00000000000E+00  0.00000000000E+00  0.13818742161E+03  0.17271740598E+04  0.17216371480E+04 0.  0.
        5    1    3    3  502    0  0.46622265643E+03  0.26785639747E+03 -0.60528535063E+03  0.80963143511E+03  0.46999998093E+01 0. -1.
       -5    1    3    3    0  502 -0.46622265643E+03 -0.26785639747E+03  0.74347277224E+03  0.91754262467E+03  0.46999998093E+01 0.  1.
</event>
<event>
 5   0  0.1001961E-05  0.3084286E+04  0.7818609E-02  0.8220064E-01
       -2   -1    0    0    0  501  0.00000000000E+00  0.00000000000E+00  0.15884322388E+04  0.15884322388E+04  0.25500000920E-02 0.  1.
        2   -1    0    0  501    0  0.00000000000E+00  0.00000000000E+00 -0.14972028598E+04  0.14972028598E+04  0.25500000920E-02 0. -1.
    10030    2    1    2    0    0  0.00000000000E+00  0.00000000000E+00  0.91229379048E+02  0.30856350986E+04  0.30842861673E+04 0.  0.
        5    1    3    3  502    0 -0.61433284897E+03 -0.62955876645E+03  0.13128312596E+04  0.15802838657E+04  0.46999998093E+01 0.  1.
       -5    1    3    3    0  502  0.61433284897E+03  0.62955876645E+03 -0.12216018806E+04  0.15053512329E+04  0.46999998093E+01 0. -1.
</event>
<event>
 5   0  0.9797278E-06  0.2604070E+04  0.7818609E-02  0.8366820E-01
        2   -1    0    0  501    0  0.00000000000E+00  0.00000000000E+00  0.17065867316E+04  0.17065867316E+04  0.25500000920E-02 0. -1.
       -2   -1    0    0    0  501  0.00000000000E+00  0.00000000000E+00 -0.99338353004E+03  0.99338353004E+03  0.25500000920E-02 0.  1.
    10030    2    1    2    0    0  0.00000000000E+00  0.00000000000E+00  0.71320320156E+03  0.26999702616E+04  0.26040700081E+04 0.  0.
        1    1    3    3  502    0 -0.59880984214E+03 -0.10691676564E+03 -0.83700690550E+03  0.10346907662E+04  0.50400001928E-02 0.  1.
       -1    1    3    3    0  502  0.59880984214E+03  0.10691676564E+03  0.15502101071E+04  0.16652794954E+04  0.50400001928E-02 0. -1.
</event>
<event>
 5   0  0.4139628E-06  0.3110328E+04  0.7818609E-02  0.8212909E-01
        1   -1    0    0  501    0  0.00000000000E+00  0.00000000000E+00  0.14657024877E+04  0.14657024877E+04  0.50400001928E-02 0.  1.
       -1   -1    0    0    0  501  0.00000000000E+00  0.00000000000E+00 -0.16500861178E+04  0.16500861178E+04  0.50400001928E-02 0. -1.
    10030    2    1    2    0    0  0.00000000000E+00  0.00000000000E+00 -0.18438363011E+03  0.31157886055E+04  0.31103281678E+04 0.  0.
        5    1    3    3  502    0 -0.13555465680E+04 -0.41945340550E+03  0.54537314718E+03  0.15201649966E+04  0.46999998093E+01 0.  1.
       -5    1    3    3    0  502  0.13555465680E+04  0.41945340550E+03 -0.72975677728E+03  0.15956236089E+04  0.46999998093E+01 0. -1.
</event>
<event>
 5   0  0.3807334E-06  0.3137259E+04  0.7818609E-02  0.8205586E-01
       -1   -1    0    0    0  501  0.00000000000E+00  0.00000000000E+00  0.20773778220E+04  0.20773778220E+04  0.50400001928E-02 0.  1.
        1   -1    0    0  501    0  0.00000000000E+00  0.00000000000E+00 -0.11844731849E+04  0.11844731849E+04  0.50400001928E-02 0. -1.
    10030    2    1    2    0    0  0.00000000000E+00  0.00000000000E+00  0.89290463705E+03  0.32618510069E+04  0.31372588832E+04 0.  0.
        4    1    3    3  502    0 -0.13148997316E+04 -0.56807776210E+03  0.11113189932E+04  0.18129272367E+04  0.12699999809E+01 0.  1.
       -4    1    3    3    0  502  0.13148997316E+04  0.56807776210E+03 -0.21841435618E+03  0.14489237702E+04  0.12699999809E+01 0. -1.
</event>
<event>
 5   0  0.1108153E-05  0.2136013E+04  0.7818609E-02  0.8545543E-01
        2   -1    0    0  501    0  0.00000000000E+00  0.00000000000E+00  0.13959345616E+04  0.13959345616E+04  0.25500000920E-02 0. -1.
       -2   -1    0    0    0  501  0.00000000000E+00  0.00000000000E+00 -0.81711390965E+03  0.81711390966E+03  0.25500000920E-02 0.  1.
    10030    2    1    2    0    0  0.00000000000E+00  0.00000000000E+00  0.57882065194E+03  0.22130484713E+04  0.21360126847E+04 0.  0.
        4    1    3    3  502    0 -0.52091272320E+03  0.42922159040E+03 -0.56812046390E+03  0.88223790060E+03  0.12699999809E+01 0.  1.
       -4    1    3    3    0  502  0.52091272320E+03 -0.42922159040E+03  0.11469411158E+04  0.13308105707E+04  0.12699999809E+01 0. -1.
</event>
<event>
 5   0  0.1007567E-05  0.3117318E+04  0.7818609E-02  0.8211001E-01
        2   -1    0    0  501    0  0.00000000000E+00  0.00000000000E+00  0.26208153297E+04  0.26208153297E+04  0.25500000920E-02 0. -1.
       -2   -1    0    0    0  501  0.00000000000E+00  0.00000000000E+00 -0.92697024423E+03  0.92697024423E+03  0.25500000920E-02 0.  1.
    10030    2    1    2    0    0  0.00000000000E+00  0.00000000000E+00  0.16938450855E+04  0.35477855739E+04  0.31173179666E+04 0.  0.
        3    1    3    3  502    0  0.63981292306E+02  0.10004995449E+04  0.22051759081E+04  0.24223735758E+04  0.10100000352E+00 0. -1.
       -3    1    3    3    0  502 -0.63981292306E+02 -0.10004995449E+04 -0.51133082261E+03  0.11254119981E+04  0.10100000352E+00 0.  1.
</event>
<event>
 5   0  0.1001961E-05  0.3124480E+04  0.7818609E-02  0.8209052E-01
        2   -1    0    0  501    0  0.00000000000E+00  0.00000000000E+00  0.12563353271E+04  0.12563353271E+04  0.25500000920E-02 0.  1.
       -2   -1    0    0    0  501  0.00000000000E+00  0.00000000000E+00 -0.19426290838E+04  0.19426290838E+04  0.25500000920E-02 0. -1.
    10030    2    1    2    0    0  0.00000000000E+00  0.00000000000E+00 -0.68629375676E+03  0.31989644109E+04  0.31244798257E+04 0.  0.
        5    1    3    3  502    0 -0.33683379792E+03 -0.88582856219E+03 -0.16146965154E+04  0.18722756677E+04  0.46999998093E+01 0. -1.
       -5    1    3    3    0  502  0.33683379792E+03  0.88582856219E+03  0.92840275864E+03  0.13266887432E+04  0.46999998093E+01 0.  1.
</event>
<event>
 5   0  0.1001961E-05  0.2864678E+04  0.7818609E-02  0.8283465E-01
       -2   -1    0    0    0  501  0.00000000000E+00  0.00000000000E+00  0.78810696627E+03  0.78810696627E+03  0.25500000920E-02 0.  1.
        2   -1    0    0  501    0  0.00000000000E+00  0.00000000000E+00 -0.26031937073E+04  0.26031937073E+04  0.25500000920E-02 0. -1.
    10030    2    1    2    0    0  0.00000000000E+00  0.00000000000E+00 -0.18150867410E+04  0.33913006735E+04  0.28646780589E+04 0.  0.
        5    1    3    3  502    0  0.11741300892E+04 -0.57788720598E+03 -0.21823332213E+03  0.13267188707E+04  0.46999998093E+01 0.  1.
       -5    1    3    3    0  502 -0.11741300892E+04  0.57788720598E+03 -0.15968534189E+04  0.20645818028E+04  0.46999998093E+01 0. -1.
</event>
<event>
 5   0  0.1001961E-05  0.3207237E+04  0.7818609E-02  0.8186908E-01
        2   -1    0    0  501    0  0.00000000000E+00  0.00000000000E+00  0.17966482916E+04  0.17966482916E+04  0.25500000920E-02 0. -1.
       -2   -1    0    0    0  501  0.00000000000E+00  0.00000000000E+00 -0.14313279179E+04  0.14313279179E+04  0.25500000920E-02 0.  1.
    10030    2    1    2    0    0  0.00000000000E+00  0.00000000000E+00  0.36532037367E+03  0.32279762096E+04  0.32072373523E+04 0.  0.
        5    1    3    3  502    0 -0.73361260580E+03  0.14259442195E+04  0.17445911363E+03  0.16130599631E+04  0.46999998093E+01 0. -1.
       -5    1    3    3    0  502  0.73361260580E+03 -0.14259442195E+04  0.19086126004E+03  0.16149162464E+04  0.46999998093E+01 0.  1.
</event>
<event>
 5   0  0.4139628E-06  0.3039003E+04  0.7818609E-02  0.8232680E-01
        1   -1    0    0  501    0  0.00000000000E+00  0.00000000000E+00  0.19931266465E+04  0.19931266465E+04  0.50400001928E-02 0. -1.
       -1   -1    0    0    0  501  0.00000000000E+00  0.00000000000E+00 -0.11584238369E+04  0.11584238369E+04  0.50400001928E-02 0.  1.
    10030    2    1    2    0    0  0.00000000000E+00  0.00000000000E+00  0.83470280959E+03  0.31515504834E+04  0.30390034006E+04 0.  0.
        5    1    3    3  502    0 -0.12785515909E+04 -0.47151633318E+03  0.11144370550E+04  0.17604016196E+04  0.46999998093E+01 0. -1.
       -5    1    3    3    0  502  0.12785515909E+04  0.47151633318E+03 -0.27973424536E+03  0.13911488637E+04  0.46999998093E+01 0.  1.
</event>
<event>
 5   0  0.9797278E-06  0.2986303E+04  0.7818609E-02  0.8247653E-01
        2   -1    0    0  501    0  0.00000000000E+00  0.00000000000E+00  0.14108241528E+04  0.14108241528E+04  0.25500000920E-02 0. -1.
       -2   -1    0    0    0  501  0.00000000000E+00  0.00000000000E+00 -0.15802825701E+04  0.15802825701E+04  0.25500000920E-02 0.  1.
    10030    2    1    2    0    0  0.00000000000E+00  0.00000000000E+00 -0.16945841729E+03  0.29911067229E+04  0.29863026090E+04 0.  0.
        1    1    3    3  502    0  0.14403177797E+02 -0.85065747124E+03 -0.13137627878E+04  0.15651831355E+04  0.50400001928E-02 0.  1.
       -1    1    3    3    0  502 -0.14403177797E+02  0.85065747124E+03  0.11443043705E+04  0.14259235875E+04  0.50400001928E-02 0. -1.
</event>
<event>
 5   0  0.3848286E-06  0.3132416E+04  0.7818609E-02  0.8206898E-01
        1   -1    0    0  501    0  0.00000000000E+00  0.00000000000E+00  0.13547691503E+04  0.13547691503E+04  0.50400001928E-02 0. -1.
       -1   -1    0    0    0  501  0.00000000000E+00  0.00000000000E+00 -0.18106461288E+04  0.18106461288E+04  0.50400001928E-02 0.  1.
    10030    2    1    2    0    0  0.00000000000E+00  0.00000000000E+00 -0.45587697848E+03  0.31654152791E+04  0.31324160115E+04 0.  0.
        2    1    3    3  502    0  0.57631561777E+03 -0.11845456322E+04 -0.10840466232E+04  0.17060026751E+04  0.25500000920E-02 0.  1.
       -2    1    3    3    0  502 -0.57631561777E+03  0.11845456322E+04  0.62816964474E+03  0.14594126040E+04  0.25500000920E-02 0. -1.
</event>
<event>
 5   0  0.3848286E-06  0.3089475E+04  0.7818609E-02  0.8218632E-01
       -1   -1    0    0    0  501  0.00000000000E+00  0.00000000000E+00  0.15152086537E+04  0.15152086537E+04  0.50400001928E-02 0.  1.
        1   -1    0    0  501    0  0.00000000000E+00  0.00000000000E+00 -0.15748413942E+04  0.15748413942E+04  0.50400001928E-02 0. -1.
    10030    2    1    2    0    0  0.00000000000E+00  0.00000000000E+00 -0.59632740528E+02  0.30900500479E+04  0.30894745888E+04 0.  0.
        2    1    3    3  502    0 -0.14202867551E+04  0.47218602958E+03  0.35240556043E+03  0.15376487870E+04  0.25500000920E-02 0.  1.
       -2    1    3    3    0  502  0.14202867551E+04 -0.47218602958E+03 -0.41203830096E+03  0.15524012608E+04  0.25500000920E-02 0. -1.
</event>
<event>
 5   0  0.3838525E-06  0.2091943E+04  0.7818609E-02  0.8564801E-01
        1   -1    0    0  501    0  0.00000000000E+00  0.00000000000E+00  0.17597647560E+04  0.17597647561E+04  0.50400001928E-02 0.  1.
       -1   -1    0    0    0  501  0.00000000000E+00  0.00000000000E+00 -0.62170630126E+03  0.62170630128E+03  0.50400001928E-02 0. -1.
    10030    2    1    2    0    0  0.00000000000E+00  0.00000000000E+00  0.11380584548E+04  0.23814710573E+04  0.20919434386E+04 0.  0.
        3    1    3    3  502    0  0.56456630820E+03 -0.20246744036E+03  0.15445591724E+04  0.16569222154E+04  0.10100000352E+00 0.  1.
       -3    1    3    3    0  502 -0.56456630820E+03  0.20246744036E+03 -0.40650071758E+03  0.72454884193E+03  0.10100000352E+00 0. -1.
</event>
<event>
 5   0  0.9797278E-06  0.3140318E+04  0.7818609E-02  0.8204759E-01
        2   -1    0    0  501    0  0.00000000000E+00  0.00000000000E+00  0.21919150077E+04  0.21919150077E+04  0.25500000920E-02 0. -1.
       -2   -1    0    0    0  501  0.00000000000E+00  0.00000000000E+00 -0.11247692545E+04  0.11247692545E+04  0.25500000920E-02 0.  1.
    10030    2    1    2    0    0  0.00000000000E+00  0.00000000000E+00  0.10671457531E+04  0.33166842622E+04  0.31403175694E+04 0.  0.
        1    1    3    3  502    0 -0.99503036239E+02  0.38512358504E+03  0.21378192728E+04  0.21745096627E+04  0.50400001928E-02 0. -1.
       -1    1    3    3    0  502  0.99503036239E+02 -0.38512358504E+03 -0.10706735197E+04  0.11421745995E+04  0.50400001928E-02 0.  1.
</event>
<event>
 5   0  0.3807334E-06  0.3140117E+04  0.7818609E-02  0.8204814E-01
       -1   -1    0    0    0  501  0.00000000000E+00  0.00000000000E+00  0.15081085872E+04  0.15081085872E+04  0.50400001928E-02 0. -1.
        1   -1    0    0  501    0  0.00000000000E+00  0.00000000000E+00 -0.16345528064E+04  0.16345528064E+04  0.50400001928E-02 0.  1.
    10030    2    1    2    0    0  0.00000000000E+00  0.00000000000E+00 -0.12644421919E+03  0.31426613936E+04  0.31401166370E+04 0.  0.
        4    1    3    3  502    0 -0.49363717376E+03  0.82751113588E+03  0.11773909465E+04  0.15214149313E+04  0.12699999809E+01 0. -1.
       -4    1    3    3    0  502  0.49363717376E+03 -0.82751113588E+03 -0.13038351657E+04  0.16212464623E+04  0.12699999809E+01 0.  1.
</event>
<event>
 5   0  0.3807334E-06  0.2784825E+04  0.7818609E-02  0.8307995E-01
       -1   -1    0    0    0  501  0.00000000000E+00  0.00000000000E+00  0.12885794214E+04  0.12885794214E+04  0.50400001928E-02 0. -1.
        1   -1    0    0  501    0  0.00000000000E+00  0.00000000000E+00 -0.15046127082E+04  0.15046127082E+04  0.50400001928E-02 0.  1.
    10030    2    1    2    0    0  0.00000000000E+00  0.00000000000E+00 -0.21603328686E+03  0.27931921296E+04  0.27848252893E+04 0.  0.
        4    1    3    3  502    0 -0.89973649040E+03  0.95126099810E+03 -0.58313606851E+03  0.14333431292E+04  0.12699999809E+01 0.  1.
       -4    1    3    3    0  502  0.89973649040E+03 -0.95126099810E+03  0.36710278166E+03  0.13598490004E+04  0.12699999809E+01 0. -1.
</event>
<event>
 5   0  0.4139628E-06  0.1808839E+04  0.7818609E-02  0.8701613E-01
        1   -1    0    0  501    0  0.00000000000E+00  0.00000000000E+00  0.16680382513E+04  0.16680382513E+04  0.50400001928E-02 0.  1.
       -1   -1    0    0    0  501  0.00000000000E+00  0.00000000000E+00 -0.49038114387E+03  0.49038114390E+03  0.50400001928E-02 0. -1.
    10030    2    1    2    0    0  0.00000000000E+00  0.00000000000E+00  0.11776571075E+04  0.21584193952E+04  0.18088388604E+04 0.  0.
        5    1    3    3  502    0  0.87469730832E+03 -0.14097320355E+03  0.37211557590E+03  0.96096873889E+03  0.46999998093E+01 0.  1.
       -5    1    3    3    0  502 -0.87469730832E+03  0.14097320355E+03  0.80554153155E+03  0.11974506563E+04  0.46999998093E+01 0. -1.
</event>
<event>
 5   0  0.1119100E-05  0.2742787E+04  0.7818609E-02  0.8321254E-01
        2   -1    0    0  501    0  0.00000000000E+00  0.00000000000E+00  0.20602390379E+04  0.20602390379E+04  0.25500000920E-02 0.  1.
       -2   -1    0    0    0  501  0.00000000000E+00  0.00000000000E+00 -0.91286509378E+03  0.91286509379E+03  0.25500000920E-02 0. -1.
    10030    2    1    2    0    0  0.00000000000E+00  0.00000000000E+00  0.11473739441E+04  0.29731041317E+04  0.27427871245E+04 0.  0.
        2    1    3    3  502    0 -0.64297119999E+03  0.11337238758E+04  0.10360978832E+04  0.16650046889E+04  0.25500000920E-02 0.  1.
       -2    1    3    3    0  502  0.64297119999E+03 -0.11337238758E+04  0.11127606100E+03  0.13080994428E+04  0.25500000920E-02 0. -1.
</event>
<event>
 5   0  0.1108153E-05  0.3052651E+04  0.7818609E-02  0.8228854E-01
        2   -1    0    0  501    0  0.00000000000E+00  0.00000000000E+00  0.18042588992E+04  0.18042588992E+04  0.25500000920E-02 0. -1.
       -2   -1    0    0    0  501  0.00000000000E+00  0.00000000000E+00 -0.12912057397E+04  0.12912057397E+04  0.25500000920E-02 0.  1.
    10030    2    1    2    0    0  0.00000000000E+00  0.00000000000E+00  0.51305315956E+03  0.30954646389E+04  0.30526509440E+04 0.  0.
        4    1    3    3  502    0  0.10527016093E+04  0.86072732169E+03  0.95952877661E+03  0.16642503677E+04  0.12699999809E+01 0. -1.
       -4    1    3    3    0  502 -0.10527016093E+04 -0.86072732169E+03 -0.44647561705E+03  0.14312142712E+04  0.12699999809E+01 0.  1.
</event>
<event>
 5   0  0.1001961E-05  0.2199399E+04  0.7818609E-02  0.8518678E-01
        2   -1    0    0  501    0  0.00000000000E+00  0.00000000000E+00  0.55596919503E+03  0.55596919503E+03  0.25500000920E-02 0.  1.
       -2   -1    0    0    0  501  0.00000000000E+00  0.00000000000E+00 -0.21751915258E+04  0.21751915258E+04  0.25500000920E-02 0. -1.
    10030    2    1    2    0    0  0.00000000000E+00  0.00000000000E+00 -0.16192223308E+04  0.27311607209E+04  0.21993994468E+04 0.  0.
        5    1    3    3  502    0 -0.28469220088E+03 -0.51839185980E+03 -0.19608769340E+04  0.20481309064E+04  0.46999998093E+01 0. -1.
       -5    1    3    3    0  502  0.28469220088E+03  0.51839185980E+03  0.34165460319E+03  0.68302981445E+03  0.46999998093E+01 0.  1.
</event>
<event>
 5   0  0.1007567E-05  0.3466434E+04  0.7818609E-02  0.8121791E-01
       -2   -1    0    0    0  501  0.00000000000E+00  0.00000000000E+00  0.12065462276E+04  0.12065462276E+04  0.25500000920E-02 0.  1.
        2   -1    0    0  501    0  0.00000000000E+00  0.00000000000E+00 -0.24897854101E+04  0.24897854101E+04  0.25500000920E-02 0. -1.
    10030    2    1    2    0    0  0.00000000000E+00  0.00000000000E+00 -0.12832391825E+04  0.36963316377E+04  0.34664340144E+04 0.  0.
        3    1    3    3  502    0 -0.11862300651E+04  0.12377597631E+04 -0.91316571227E+03  0.19424372903E+04  0.10100000352E+00 0. -1.
       -3    1    3    3    0  502  0.11862300651E+04 -0.12377597631E+04 -0.37007347020E+03  0.17538943474E+04  0.10100000352E+00 0.  1.
</event>
<event>
 5   0  0.1001961E-05  0.3096928E+04  0.7818609E-02  0.8216581E-01
       -2   -1    0    0    0  501  0.00000000000E+00  0.00000000000E+00  0.17685450452E+04  0.17685450453E+04  0.25500000920E-02 0. -1.
        2   -1    0    0  501    0  0.00000000000E+00  0.00000000000E+00 -0.13557704892E+04  0.13557704892E+04  0.25500000920E-02 0.  1.
    10030    2    1    2    0    0  0.00000000000E+00  0.00000000000E+00  0.41277455605E+03  0.31243155345E+04  0.30969282725E+04 0.  0.
        5    1    3    3  502    0 -0.40850097274E+03 -0.13476079788E+04 -0.44335702096E+03  0.14763156327E+04  0.46999998093E+01 0.  1.
       -5    1    3    3    0  502  0.40850097274E+03  0.13476079788E+04  0.85613157701E+03  0.16479999018E+04  0.46999998093E+01 0. -1.
</event>
<event>
 5   0  0.1119100E-05  0.3066225E+04  0.7818609E-02  0.8225069E-01
        2   -1    0    0  501    0  0.00000000000E+00  0.00000000000E+00  0.13441298538E+04  0.13441298538E+04  0.25500000920E-02 0.  1.
       -2   -1    0    0    0  501  0.00000000000E+00  0.00000000000E+00 -0.17486655913E+04  0.17486655913E+04  0.25500000920E-02 0. -1.
    10030    2    1    2    0    0  0.00000000000E+00  0.00000000000E+00 -0.40453573743E+03  0.30927954451E+04  0.30662247965E+04 0.  0.
        2    1    3    3  502    0 -0.21193495881E+03  0.32459266982E+03  0.12938782902E+04  0.13507027274E+04  0.25500000920E-02 0.  1.
       -2    1    3    3    0  502  0.21193495881E+03 -0.32459266982E+03 -0.16984140276E+04  0.17420927177E+04  0.25500000920E-02 0. -1.
</event>
<event>
 5   0  0.4250961E-06  0.2830457E+04  0.7818609E-02  0.8293875E-01
       -1   -1    0    0    0  501  0.00000000000E+00  0.00000000000E+00  0.10322364551E+04  0.10322364551E+04  0.50400001928E-02 0. -1.
        1   -1    0    0  501    0  0.00000000000E+00  0.00000000000E+00 -0.19403221830E+04  0.19403221830E+04  0.50400001928E-02 0.  1.
    10030    2    1    2    0    0  0.00000000000E+00  0.00000000000E+00 -0.90808572791E+03  0.29725586380E+04  0.28304567065E+04 0.  0.
        1    1    3    3  502    0 -0.22814107649E+03  0.13607860041E+04 -0.12346289213E+03  0.13852905780E+04  0.50400001928E-02 0. -1.
       -1    1    3    3    0  502  0.22814107649E+03 -0.13607860041E+04 -0.78462283579E+03  0.15872680600E+04  0.50400001928E-02 0.  1.
</event>
<event>
 5   0  0.3807334E-06  0.2010481E+04  0.7818609E-02  0.8601736E-01
       -1   -1    0    0    0  501  0.00000000000E+00  0.00000000000E+00  0.48173834173E+03  0.48173834176E+03  0.50400001928E-02 0. -1.
        1   -1    0    0  501    0  0.00000000000E+00  0.00000000000E+00 -0.20976284133E+04  0.20976284133E+04  0.50400001928E-02 0.  1.
    10030    2    1    2    0    0  0.00000000000E+00  0.00000000000E+00 -0.16158900715E+04  0.25793667550E+04  0.20104805728E+04 0.  0.
        4    1    3    3  502    0 -0.67818669452E+03 -0.72875253207E+03 -0.62884003369E+03  0.11774798710E+04  0.12699999809E+01 0.  1.
       -4    1    3    3    0  502  0.67818669452E+03  0.72875253207E+03 -0.98705003783E+03  0.14018868841E+04  0.12699999809E+01 0. -1.
</event>
<event>
 5   0  0.9797278E-06  0.3117586E+04  0.7818609E-02  0.8210928E-01
       -2   -1    0    0    0  501  0.00000000000E+00  0.00000000000E+00  0.15003511470E+04  0.15003511470E+04  0.25500000920E-02 0. -1.
        2   -1    0    0  501    0  0.00000000000E+00  0.00000000000E+00 -0.16195111466E+04  0.16195111466E+04  0.25500000920E-02 0.  1.
    10030    2    1    2    0    0  0.00000000000E+00  0.00000000000E+00 -0.11915999965E+03  0.31198622936E+04  0.31175858650E+04 0.  0.
        1    1    3    3  502    0 -0.20341915551E+03 -0.60789689948E+03 -0.14815036526E+04  0.16142400893E+04  0.50400001928E-02 0.  1.
       -1    1    3    3    0  502  0.20341915551E+03  0.60789689948E+03  0.13623436530E+04  0.15056222043E+04  0.50400001928E-02 0. -1.
</event>
<event>
 5   0  0.1108153E-05  0.1638076E+04  0.7818609E-02  0.8797492E-01
       -2   -1    0    0    0  501  0.00000000000E+00  0.00000000000E+00  0.56040345520E+03  0.56040345520E+03  0.25500000920E-02 0. -1.
        2   -1    0    0  501    0  0.00000000000E+00  0.00000000000E+00 -0.11970365872E+04  0.11970365872E+04  0.25500000920E-02 0.  1.
    10030    2    1    2    0    0  0.00000000000E+00  0.00000000000E+00 -0.63663313201E+03  0.17574400424E+04  0.16380762369E+04 0.  0.
        4    1    3    3  502    0 -0.49103002135E+03 -0.61828083228E+03 -0.84637683744E+02  0.79406978273E+03  0.12699999809E+01 0. -1.
       -4    1    3    3    0  502  0.49103002135E+03  0.61828083228E+03 -0.55199544826E+03  0.96337025968E+03  0.12699999809E+01 0.  1.
</event>
<event>
 5   0  0.3848286E-06  0.3079363E+04  0.7818609E-02  0.8221424E-01
       -1   -1    0    0    0  501  0.00000000000E+00  0.00000000000E+00  0.30967287445E+04  0.30967287445E+04  0.50400001928E-02 0. -1.
        1   -1    0    0  501    0  0.00000000000E+00  0.00000000000E+00 -0.76552373047E+03  0.76552373049E+03  0.50400001928E-02 0.  1.
    10030    2    1    2    0    0  0.00000000000E+00  0.00000000000E+00  0.23312050140E+04  0.38622524750E+04  0.30793631425E+04 0.  0.
        2    1    3    3  502    0 -0.27210501958E+03 -0.11394219423E+04  0.24187707559E+04  0.26875221811E+04  0.25500000920E-02 0. -1.
       -2    1    3    3    0  502  0.27210501958E+03  0.11394219423E+04 -0.87565741876E+02  0.11747302939E+04  0.25500000920E-02 0.  1.
</event>
<event>
 5   0  0.3848286E-06  0.2991522E+04  0.7818609E-02  0.8246156E-01
       -1   -1    0    0    0  501  0.00000000000E+00  0.00000000000E+00  0.17499740061E+04  0.17499740061E+04  0.50400001928E-02 0. -1.
        1   -1    0    0  501    0  0.00000000000E+00  0.00000000000E+00 -0.12784770898E+04  0.12784770898E+04  0.50400001928E-02 0.  1.
    10030    2    1    2    0    0  0.00000000000E+00  0.00000000000E+00  0.47149691626E+03  0.30284510959E+04  0.29915224716E+04 0.  0.
        2    1    3    3  502    0 -0.90903604833E+03  0.53207968101E+03 -0.83936244132E+03  0.13468424674E+04  0.25500000920E-02 0.  1.
       -2    1    3    3    0  502  0.90903604833E+03 -0.53207968101E+03  0.13108593576E+04  0.16816086285E+04  0.25500000920E-02 0. -1.
</event>
<event>
 5   0  0.1119100E-05  0.3093433E+04  0.7818609E-02  0.8217542E-01
        2   -1    0    0  501    0  0.00000000000E+00  0.00000000000E+00  0.10293779917E+04  0.10293779917E+04  0.25500000920E-02 0. -1.
       -2   -1    0    0    0  501  0.00000000000E+00  0.00000000000E+00 -0.23240558316E+04  0.23240558316E+04  0.25500000920E-02 0.  1.
    10030    2    1    2    0    0  0.00000000000E+00  0.00000000000E+00 -0.12946778399E+04  0.33534338233E+04  0.30934329956E+04 0.  0.
        2    1    3    3  502    0 -0.60663616965E+03  0.45048163573E+02 -0.21889374817E+04  0.22718899794E+04  0.25500000920E-02 0.  1.
       -2    1    3    3    0  502  0.60663616965E+03 -0.45048163573E+02  0.89425964183E+03  0.10815438440E+04  0.25500000920E-02 0. -1.
</event>
<event>
 5   0  0.1007567E-05  0.3108097E+04  0.7818609E-02  0.8213519E-01
       -2   -1    0    0    0  501  0.00000000000E+00  0.00000000000E+00  0.27909220189E+04  0.27909220189E+04  0.25500000920E-02 0. -1.
        2   -1    0    0  501    0  0.00000000000E+00  0.00000000000E+00 -0.86532929065E+03  0.86532929065E+03  0.25500000920E-02 0.  1.
    10030    2    1    2    0    0  0.00000000000E+00  0.00000000000E+00  0.19255927282E+04  0.36562513095E+04  0.31080968909E+04 0.  0.
        3    1    3    3  502    0 -0.10733004642E+04  0.57319990287E+03  0.21000024364E+04  0.24270439342E+04  0.10100000352E+00 0. -1.
       -3    1    3    3    0  502  0.10733004642E+04 -0.57319990287E+03 -0.17440970821E+03  0.12292073754E+04  0.10100000352E+00 0.  1.
</event>
<event>
 5   0  0.1119100E-05  0.3116185E+04  0.7818609E-02  0.8211310E-01
        2   -1    0    0  501    0  0.00000000000E+00  0.00000000000E+00  0.22295155251E+04  0.22295155251E+04  0.25500000920E-02 0. -1.
       -2   -1    0    0    0  501  0.00000000000E+00  0.00000000000E+00 -0.10888700817E+04  0.10888700817E+04  0.25500000920E-02 0.  1.
    10030    2    1    2    0    0  0.00000000000E+00  0.00000000000E+00  0.11406454434E+04  0.33183856069E+04  0.31161853296E+04 0.  0.
        2    1    3    3  502    0  0.39060608635E+03  0.90865962297E+03  0.18523589467E+04  0.20998735897E+04  0.25500000920E-02 0. -1.
       -2    1    3    3    0  502 -0.39060608635E+03 -0.90865962297E+03 -0.71171350336E+03  0.12185120172E+04  0.25500000920E-02 0.  1.
</event>
<event>
 5   0  0.9797278E-06  0.3049539E+04  0.7818609E-02  0.8229725E-01
       -2   -1    0    0    0  501  0.00000000000E+00  0.00000000000E+00  0.18122593247E+04  0.18122593247E+04  0.25500000920E-02 0.  1.
        2   -1    0    0  501    0  0.00000000000E+00  0.00000000000E+00 -0.12828859045E+04  0.12828859045E+04  0.25500000920E-02 0. -1.
    10030    2    1    2    0    0  0.00000000000E+00  0.00000000000E+00  0.52937342021E+03  0.30951452293E+04  0.30495389442E+04 0.  0.
        1    1    3    3  502    0  0.11094323343E+04  0.87069499868E+03 -0.32361271985E+03  0.14469537233E+04  0.50400001928E-02 0. -1.
       -1    1    3    3    0  502 -0.11094323343E+04 -0.87069499868E+03  0.85298614006E+03  0.16481915059E+04  0.50400001928E-02 0.  1.
</event>
<event>
 5   0  0.3838525E-06  0.2980079E+04  0.7818609E-02  0.8249442E-01
        1   -1    0    0  501    0  0.00000000000E+00  0.00000000000E+00  0.28749759642E+04  0.28749759642E+04  0.50400001928E-02 0. -1.
       -1   -1    0    0    0  501  0.00000000000E+00  0.00000000000E+00 -0.77225630180E+03  0.77225630181E+03  0.50400001928E-02 0.  1.
    10030    2    1    2    0    0  0.00000000000E+00  0.00000000000E+00  0.21027196624E+04  0.36472322661E+04  0.29800793989E+04 0.  0.
        3    1    3    3  502    0 -0.99359289395E+03  0.74539893139E+02  0.24072823821E+04  0.26053390398E+04  0.10100000352E+00 0. -1.
       -3    1    3    3    0  502  0.99359289395E+03 -0.74539893139E+02 -0.30456271969E+03  0.10418932263E+04  0.10100000352E+00 0.  1.
</event>
<event>
 5   0  0.1001961E-05  0.3049741E+04  0.7818609E-02  0.8229668E-01
        2   -1    0    0  501    0  0.00000000000E+00  0.00000000000E+00  0.24731652183E+04  0.24731652183E+04  0.25500000920E-02 0. -1.
       -2   -1    0    0    0  501  0.00000000000E+00  0.00000000000E+00 -0.94018356319E+03  0.94018356319E+03  0.25500000920E-02 0.  1.
    10030    2    1    2    0    0  0.00000000000E+00  0.00000000000E+00  0.15329816552E+04  0.34133487815E+04  0.30497405053E+04 0.  0.
        5    1    3    3  502    0  0.13773851283E+04 -0.37195654762E+03  0.13688649965E+04  0.19772088745E+04  0.46999998093E+01 0. -1.
       -5    1    3    3    0  502 -0.13773851283E+04  0.37195654762E+03  0.16411665870E+03  0.14361399070E+04  0.46999998093E+01 0.  1.
</event>
<event>
 5   0  0.1108153E-05  0.3076261E+04  0.7818609E-02  0.8222283E-01
       -2   -1    0    0    0  501  0.00000000000E+00  0.00000000000E+00  0.12695873387E+04  0.12695873387E+04  0.25500000920E-02 0.  1.
        2   -1    0    0  501    0  0.00000000000E+00  0.00000000000E+00 -0.18634761416E+04  0.18634761416E+04  0.25500000920E-02 0. -1.
    10030    2    1    2    0    0  0.00000000000E+00  0.00000000000E+00 -0.59388880286E+03  0.31330634803E+04  0.30762611822E+04 0.  0.
        4    1    3    3  502    0  0.45019412420E+03  0.86871119078E+03 -0.15056651865E+04  0.17956511769E+04  0.12699999809E+01 0. -1.
       -4    1    3    3    0  502 -0.45019412420E+03 -0.86871119078E+03  0.91177638365E+03  0.13374123033E+04  0.12699999809E+01 0.  1.
</event>
<event>
 5   0  0.1119100E-05  0.3060440E+04  0.7818609E-02  0.8226679E-01
       -2   -1    0    0    0  501  0.00000000000E+00  0.00000000000E+00  0.19161910005E+04  0.19161910005E+04  0.25500000920E-02 0.  1.
        2   -1    0    0  501    0  0.00000000000E+00  0.00000000000E+00 -0.12219937170E+04  0.12219937170E+04  0.25500000920E-02 0. -1.
    10030    2    1    2    0    0  0.00000000000E+00  0.00000000000E+00  0.69419728344E+03  0.31381847175E+04  0.30604400750E+04 0.  0.
        2    1    3    3  502    0 -0.98069203613E+03  0.11382887040E+04  0.49704661739E+02  0.15033058893E+04  0.25500000920E-02 0. -1.
       -2    1    3    3    0  502  0.98069203613E+03 -0.11382887040E+04  0.64449262170E+03  0.16348788282E+04  0.25500000920E-02 0.  1.
</event>
<event>
 5   0  0.3838525E-06  0.3188831E+04  0.7818609E-02  0.8191773E-01
       -1   -1    0    0    0  501  0.00000000000E+00  0.00000000000E+00  0.11742310594E+04  0.11742310594E+04  0.50400001928E-02 0. -1.
        1   -1    0    0  501    0  0.00000000000E+00  0.00000000000E+00 -0.21649581737E+04  0.21649581737E+04  0.50400001928E-02 0.  1.
    10030    2    1    2    0    0  0.00000000000E+00  0.00000000000E+00 -0.99072711427E+03  0.33391892331E+04  0.31888312152E+04 0.  0.
        3    1    3    3  502    0  0.14229890619E+03 -0.12823673514E+04 -0.14762522469E+04  0.19606212560E+04  0.10100000352E+00 0.  1.
       -3    1    3    3    0  502 -0.14229890619E+03  0.12823673514E+04  0.48552513265E+03  0.13785679771E+04  0.10100000352E+00 0. -1.
</event>
<event>
 5   0  0.4139628E-06  0.3120053E+04  0.7818609E-02  0.8210256E-01
        1   -1    0    0  501    0  0.00000000000E+00  0.00000000000E+00  0.15478019834E+04  0.15478019834E+04  0.50400001928E-02 0.  1.
       -1   -1    0    0    0  501  0.00000000000E+00  0.00000000000E+00 -0.15723479518E+04  0.15723479518E+04  0.50400001928E-02 0. -1.
    10030    2    1    2    0    0  0.00000000000E+00  0.00000000000E+00 -0.24545968427E+02  0.31201499353E+04  0.31200533832E+04 0.  0.
        5    1    3    3  502    0  0.56948014045E+03 -0.16361428615E+02  0.14400411684E+04  0.15486497291E+04  0.46999998093E+01 0.  1.
       -5    1    3    3    0  502 -0.56948014045E+03  0.16361428615E+02 -0.14645871368E+04  0.15715002062E+04  0.46999998093E+01 0. -1.
</event>
<event>
 5   0  0.9797278E-06  0.3367117E+04  0.7818609E-02  0.8146024E-01
        2   -1    0    0  501    0  0.00000000000E+00  0.00000000000E+00  0.18456145604E+04  0.18456145604E+04  0.25500000920E-02 0.  1.
       -2   -1    0    0    0  501  0.00000000000E+00  0.00000000000E+00 -0.15357323624E+04  0.15357323624E+04  0.25500000920E-02 0. -1.
    10030    2    1    2    0    0  0.00000000000E+00  0.00000000000E+00  0.30988219803E+03  0.33813469228E+04  0.33671174669E+04 0.  0.
        1    1    3    3  502    0 -0.27328175704E+03 -0.18827602827E+03 -0.15025609909E+04  0.15387723396E+04  0.50400001928E-02 0. -1.
       -1    1    3    3    0  502  0.27328175704E+03  0.18827602827E+03  0.18124431890E+04  0.18425745832E+04  0.50400001928E-02 0.  1.
</event>
<event>
 5   0  0.1001961E-05  0.2921303E+04  0.7818609E-02  0.8266567E-01
       -2   -1    0    0    0  501  0.00000000000E+00  0.00000000000E+00  0.95111440753E+03  0.95111440754E+03  0.25500000920E-02 0. -1.
        2   -1    0    0  501    0  0.00000000000E+00  0.00000000000E+00 -0.22431606347E+04  0.22431606347E+04  0.25500000920E-02 0.  1.
    10030    2    1    2    0    0  0.00000000000E+00  0.00000000000E+00 -0.12920462271E+04  0.31942750422E+04  0.29213027218E+04 0.  0.
        5    1    3    3  502    0  0.54016896902E+03  0.12862138481E+04 -0.17273608857E+03  0.14056985539E+04  0.46999998093E+01 0. -1.
       -5    1    3    3    0  502 -0.54016896902E+03 -0.12862138481E+04 -0.11193101386E+04  0.17885764883E+04  0.46999998093E+01 0.  1.
</event>
<event>
 5   0  0.1001961E-05  0.3071565E+04  0.7818609E-02  0.8223585E-01
       -2   -1    0    0    0  501  0.00000000000E+00  0.00000000000E+00  0.20329614017E+04  0.20329614017E+04  0.25500000920E-02 0.  1.
        2   -1    0    0  501    0  0.00000000000E+00  0.00000000000E+00 -0.11601930354E+04  0.11601930354E+04  0.25500000920E-02 0. -1.
    10030    2    1    2    0    0  0.00000000000E+00  0.00000000000E+00  0.87276836627E+03  0.31931544372E+04  0.30715648517E+04 0.  0.
        5    1    3    3  502    0  0.91432496605E+03 -0.53549461773E+03  0.15920839821E+04  0.19124586597E+04  0.46999998093E+01 0.  1.
       -5    1    3    3    0  502 -0.91432496605E+03  0.53549461773E+03 -0.71931561581E+03  0.12806957774E+04  0.46999998093E+01 0. -1.
</event>
<event>
 5   0  0.3807334E-06  0.3025350E+04  0.7818609E-02  0.8236529E-01
        1   -1    0    0  501    0  0.00000000000E+00  0.00000000000E+00  0.16001575171E+04  0.16001575171E+04  0.50400001928E-02 0. -1.
       -1   -1    0    0    0  501  0.00000000000E+00  0.00000000000E+00 -0.14299753517E+04  0.14299753517E+04  0.50400001928E-02 0.  1.
    10030    2    1    2    0    0  0.00000000000E+00  0.00000000000E+00  0.17018216538E+03  0.30301328688E+04  0.30253501009E+04 0.  0.
        4    1    3    3  502    0  0.94205328641E+03  0.10995132353E+04 -0.35354011518E+03  0.14904314727E+04  0.12699999809E+01 0.  1.
       -4    1    3    3    0  502 -0.94205328641E+03 -0.10995132353E+04  0.52372228056E+03  0.15397013961E+04  0.12699999809E+01 0. -1.
</event>
<event>
 5   0  0.3807334E-06  0.2194968E+04  0.7818609E-02  0.8520525E-01
       -1   -1    0    0    0  501  0.00000000000E+00  0.00000000000E+00  0.57923957342E+03  0.57923957344E+03  0.50400001928E-02 0. -1.
        1   -1    0    0  501    0  0.00000000000E+00  0.00000000000E+00 -0.20794004147E+04  0.20794004147E+04  0.50400001928E-02 0.  1.
    10030    2    1    2    0    0  0.00000000000E+00  0.00000000000E+00 -0.15001608413E+04  0.26586399882E+04  0.21949678897E+04 0.  0.
        4    1    3    3  502    0  0.10066062911E+04 -0.41352785962E+03 -0.92226400438E+03  0.14264760855E+04  0.12699999809E+01 0.  1.
       -4    1    3    3    0  502 -0.10066062911E+04  0.41352785962E+03 -0.57789683693E+03  0.12321639026E+04  0.12699999809E+01 0. -1.
</event>
<event>
 5   0  0.3848286E-06  0.3006114E+04  0.7818609E-02  0.8241987E-01
       -1   -1    0    0    0  501  0.00000000000E+00  0.00000000000E+00  0.12794078889E+04  0.12794078889E+04  0.50400001928E-02 0.  1.
        1   -1    0    0  501    0  0.00000000000E+00  0.00000000000E+00 -0.17658010321E+04  0.17658010321E+04  0.50400001928E-02 0. -1.
    10030    2    1    2    0    0  0.00000000000E+00  0.00000000000E+00 -0.48639314318E+03  0.30452089211E+04  0.30061136178E+04 0.  0.
        2    1    3    3  502    0 -0.78577703660E+01 -0.75312290458E+03  0.10744596508E+04  0.13121430544E+04  0.25500000920E-02 0.  1.
       -2    1    3    3    0  502  0.78577703660E+01  0.75312290458E+03 -0.15608527940E+04  0.17330658667E+04  0.25500000920E-02 0. -1.
</event>
<event>
 5   0  0.9797278E-06  0.2903722E+04  0.7818609E-02  0.8271771E-01
        2   -1    0    0  501    0  0.00000000000E+00  0.00000000000E+00  0.16696897185E+04  0.16696897185E+04  0.25500000920E-02 0.  1.
       -2   -1    0    0    0  501  0.00000000000E+00  0.00000000000E+00 -0.12624502775E+04  0.12624502775E+04  0.25500000920E-02 0. -1.
    10030    2    1    2    0    0  0.00000000000E+00  0.00000000000E+00  0.40723944097E+03  0.29321399960E+04  0.29037219209E+04 0.  0.
        1    1    3    3  502    0 -0.11616123206E+04  0.16642245089E+03 -0.65965090544E+03  0.13461719551E+04  0.50400001928E-02 0. -1.
       -1    1    3    3    0  502  0.11616123206E+04 -0.16642245089E+03  0.10668903464E+04  0.15859680409E+04  0.50400001928E-02 0.  1.
</event>
<event>
 5   0  0.1001961E-05  0.3028656E+04  0.7818609E-02  0.8235595E-01
       -2   -1    0    0    0  501  0.00000000000E+00  0.00000000000E+00  0.12808210034E+04  0.12808210034E+04  0.25500000920E-02 0. -1.
        2   -1    0    0  501    0  0.00000000000E+00  0.00000000000E+00 -0.17904053018E+04  0.17904053018E+04  0.25500000920E-02 0.  1.
    10030    2    1    2    0    0  0.00000000000E+00  0.00000000000E+00 -0.50958429841E+03  0.30712263052E+04  0.30286556193E+04 0.  0.
        5    1    3    3  502    0 -0.13467136853E+04  0.11565463797E+03 -0.94714280996E+03  0.16504894237E+04  0.46999998093E+01 0.  1.
       -5    1    3    3    0  502  0.13467136853E+04 -0.11565463797E+03  0.43755851154E+03  0.14207368815E+04  0.46999998093E+01 0. -1.
</event>
<event>
 5   0  0.1007567E-05  0.3266758E+04  0.7818609E-02  0.8171406E-01
        2   -1    0    0  501    0  0.00000000000E+00  0.00000000000E+00  0.10179964534E+04  0.10179964534E+04  0.25500000920E-02 0.  1.
       -2   -1    0    0    0  501  0.00000000000E+00  0.00000000000E+00 -0.26207625198E+04  0.26207625198E+04  0.25500000920E-02 0. -1.
    10030    2    1    2    0    0  0.00000000000E+00  0.00000000000E+00 -0.16027660664E+04  0.36387589732E+04  0.32667579956E+04 0.  0.
        3    1    3    3  502    0  0.37530248416E+03 -0.19159273229E+03 -0.25591772103E+04  0.25936360063E+04  0.10100000352E+00 0. -1.
       -3    1    3    3    0  502 -0.37530248416E+03  0.19159273229E+03  0.95641114383E+03  0.10451229669E+04  0.10100000352E+00 0.  1.
</event>
<event>
 5   0  0.3807334E-06  0.3044618E+04  0.7818609E-02  0.8231103E-01
       -1   -1    0    0    0  501  0.00000000000E+00  0.00000000000E+00  0.86655812777E+03  0.86655812778E+03  0.50400001928E-02 0.  1.
        1   -1    0    0  501    0  0.00000000000E+00  0.00000000000E+00 -0.26742870099E+04  0.26742870099E+04  0.50400001928E-02 0. -1.
    10030    2    1    2    0    0  0.00000000000E+00  0.00000000000E+00 -0.18077288821E+04  0.35408451377E+04  0.30446182976E+04 0.  0.
        4    1    3    3  502    0 -0.60743763011E+03  0.57971257595E+02  0.71810654337E+03  0.94234800457E+03  0.12699999809E+01 0.  1.
       -4    1    3    3    0  502  0.60743763011E+03 -0.57971257595E+02 -0.25258354255E+04  0.25984971331E+04  0.12699999809E+01 0. -1.
</event>
<event>
 5   0  0.9797278E-06  0.2843470E+04  0.7818609E-02  0.8289898E-01
       -2   -1    0    0    0  501  0.00000000000E+00  0.00000000000E+00  0.12718620684E+04  0.12718620684E+04  0.25500000920E-02 0. -1.
        2   -1    0    0  501    0  0.00000000000E+00  0.00000000000E+00 -0.15892690809E+04  0.15892690809E+04  0.25500000920E-02 0.  1.
    10030    2    1    2    0    0  0.00000000000E+00  0.00000000000E+00 -0.31740701251E+03  0.28611311493E+04  0.28434704574E+04 0.  0.
        1    1    3    3  502    0  0.30011081466E+03  0.76048152941E+03  0.10116770395E+04  0.13007263701E+04  0.50400001928E-02 0. -1.
       -1    1    3    3    0  502 -0.30011081466E+03 -0.76048152941E+03 -0.13290840520E+04  0.15604047792E+04  0.50400001928E-02 0.  1.
</event>
<event>
 5   0  0.3807334E-06  0.1529715E+04  0.7818609E-02  0.8864930E-01
       -1   -1    0    0    0  501  0.00000000000E+00  0.00000000000E+00  0.27038873265E+03  0.27038873270E+03  0.50400001928E-02 0.  1.
        1   -1    0    0  501    0  0.00000000000E+00  0.00000000000E+00 -0.21635762978E+04  0.21635762978E+04  0.50400001928E-02 0. -1.
    10030    2    1    2    0    0  0.00000000000E+00  0.00000000000E+00 -0.18931875652E+04  0.24339650305E+04  0.15297145528E+04 0.  0.
        4    1    3    3  502    0 -0.13157229849E+03 -0.63369170603E+03 -0.15951178958E+04  0.17214177769E+04  0.12699999809E+01 0. -1.
       -4    1    3    3    0  502  0.13157229849E+03  0.63369170603E+03 -0.29806966936E+03  0.71254725367E+03  0.12699999809E+01 0.  1.
</event>
<event>
 5   0  0.1007567E-05  0.3229736E+04  0.7818609E-02  0.8181008E-01
        2   -1    0    0  501    0  0.00000000000E+00  0.00000000000E+00  0.10589893711E+04  0.10589893711E+04  0.25500000920E-02 0. -1.
       -2   -1    0    0    0  501  0.00000000000E+00  0.00000000000E+00 -0.24625350677E+04  0.24625350677E+04  0.25500000920E-02 0.  1.
    10030    2    1    2    0    0  0.00000000000E+00  0.00000000000E+00 -0.14035456966E+04  0.35215244388E+04  0.32297358794E+04 0.  0.
        3    1    3    3  502    0  0.10167166460E+04 -0.12272476340E+04 -0.98599315424E+03  0.18740416228E+04  0.10100000352E+00 0.  1.
       -3    1    3    3    0  502 -0.10167166460E+04  0.12272476340E+04 -0.41755254232E+03  0.16474828161E+04  0.10100000352E+00 0. -1.
</event>
<event>
 5   0  0.1108153E-05  0.3194934E+04  0.7818609E-02  0.8190156E-01
        2   -1    0    0  501    0  0.00000000000E+00  0.00000000000E+00  0.13576882706E+04  0.13576882706E+04  0.25500000920E-02 0. -1.
       -2   -1    0    0    0  501  0.00000000000E+00  0.00000000000E+00 -0.18795926051E+04  0.18795926051E+04  0.25500000920E-02 0.  1.
    10030    2    1    2    0    0  0.00000000000E+00  0.00000000000E+00 -0.52190433450E+03  0.32372808757E+04  0.31949340108E+04 0.  0.
        4    1    3    3  502    0  0.12152314965E+04  0.10362945495E+04 -0.22577549815E+03  0.16129693649E+04  0.12699999809E+01 0.  1.
       -4    1    3    3    0  502 -0.12152314965E+04 -0.10362945495E+04 -0.29612883635E+03  0.16243115108E+04  0.12699999809E+01 0. -1.
</event>
<event>
 5   0  0.4250961E-06  0.2532553E+04  0.7818609E-02  0.8391479E-01
       -1   -1    0    0    0  501  0.00000000000E+00  0.00000000000E+00  0.22125026169E+04  0.22125026169E+04  0.50400001928E-02 0. -1.
        1   -1    0    0  501    0  0.00000000000E+00  0.00000000000E+00 -0.72472535846E+03  0.72472535847E+03  0.50400001928E-02 0.  1.
    10030    2    1    2    0    0  0.00000000000E+00  0.00000000000E+00  0.14877772584E+04  0.29372279753E+04  0.25325534562E+04 0.  0.
        1    1    3    3  502    0  0.76470383703E+03 -0.10068865239E+04  0.66299949588E+03  0.14276416784E+04  0.50400001928E-02 0.  1.
       -1    1    3    3    0  502 -0.76470383703E+03  0.10068865239E+04  0.82477776252E+03  0.15095862969E+04  0.50400001928E-02 0. -1.
</event>
<event>
 5   0  0.9797278E-06  0.2411003E+04  0.7818609E-02  0.8435396E-01
       -2   -1    0    0    0  501  0.00000000000E+00  0.00000000000E+00  0.77227170455E+03  0.77227170455E+03  0.25500000920E-02 0.  1.
        2   -1    0    0  501    0  0.00000000000E+00  0.00000000000E+00 -0.18817651604E+04  0.18817651604E+04  0.25500000920E-02 0. -1.
    10030    2    1    2    0    0  0.00000000000E+00  0.00000000000E+00 -0.11094934558E+04  0.26540368649E+04  0.24110031007E+04 0.  0.
        1    1    3    3  502    0 -0.89156194065E+01  0.57638144166E+03  0.61072074938E+03  0.83980645884E+03  0.50400001928E-02 0.  1.
       -1    1    3    3    0  502  0.89156194065E+01 -0.57638144166E+03 -0.17202142052E+04  0.18142304061E+04  0.50400001928E-02 0. -1.
</event>
<event>
 5   0  0.4139628E-06  0.3128018E+04  0.7818609E-02  0.8208091E-01
       -1   -1    0    0    0  501  0.00000000000E+00  0.00000000000E+00  0.14746617100E+04  0.14746617100E+04  0.50400001928E-02 0. -1.
        1   -1    0    0  501    0  0.00000000000E+00  0.00000000000E+00 -0.16587693550E+04  0.16587693550E+04  0.50400001928E-02 0.  1.
    10030    2    1    2    0    0  0.00000000000E+00  0.00000000000E+00 -0.18410764506E+03  0.31334310650E+04  0.31280176812E+04 0.  0.
        5    1    3    3  502    0 -0.56014878676E+03 -0.11522281893E+04 -0.99065983974E+03  0.16195139615E+04  0.46999998093E+01 0.  1.
       -5    1    3    3    0  502  0.56014878676E+03  0.11522281893E+04  0.80655219468E+03  0.15139171035E+04  0.46999998093E+01 0. -1.
</event>
<event>
 5   0  0.4139628E-06  0.2938817E+04  0.7818609E-02  0.8261421E-01
        1   -1    0    0  501    0  0.00000000000E+00  0.00000000000E+00  0.26275663672E+04  0.26275663672E+04  0.50400001928E-02 0. -1.
       -1   -1    0    0    0  501  0.00000000000E+00  0.00000000000E+00 -0.82173423492E+03  0.82173423493E+03  0.50400001928E-02 0.  1.
    10030    2    1    2    0    0  0.00000000000E+00  0.00000000000E+00  0.18058321323E+04  0.34493006021E+04  0.29388169310E+04 0.  0.
        5    1    3    3  502    0  0.86979368403E+03 -0.11287256336E+04  0.48205439254E+03  0.15043141747E+04  0.46999998093E+01 0.  1.
       -5    1    3    3    0  502 -0.86979368403E+03  0.11287256336E+04  0.13237777397E+04  0.19449864274E+04  0.46999998093E+01 0. -1.
</event>
<event>
 5   0  0.3807334E-06  0.3047071E+04  0.7818609E-02  0.8230416E-01
       -1   -1    0    0    0  501  0.00000000000E+00  0.00000000000E+00  0.15177955808E+04  0.15177955809E+04  0.50400001928E-02 0.  1.
        1   -1    0    0  501    0  0.00000000000E+00  0.00000000000E+00 -0.15292972072E+04  0.15292972072E+04  0.50400001928E-02 0. -1.
    10030    2    1    2    0    0  0.00000000000E+00  0.00000000000E+00 -0.11501626357E+02  0.30470927881E+04  0.30470710808E+04 0.  0.
        4    1    3    3  502    0  0.66623489204E+03 -0.13455500222E+04 -0.26418085755E+03  0.15245218700E+04  0.12699999809E+01 0. -1.
       -4    1    3    3    0  502 -0.66623489204E+03  0.13455500222E+04  0.25267923119E+03  0.15225709181E+04  0.12699999809E+01 0.  1.
</event>
<event>
 5   0  0.3838525E-06  0.2228937E+04  0.7818609E-02  0.8506480E-01
        1   -1    0    0  501    0  0.00000000000E+00  0.00000000000E+00  0.19461069634E+04  0.19461069634E+04  0.50400001928E-02 0.  1.
       -1   -1    0    0    0  501  0.00000000000E+00  0.00000000000E+00 -0.63821768196E+03  0.63821768198E+03  0.50400001928E-02 0. -1.
    10030    2    1    2    0    0  0.00000000000E+00  0.00000000000E+00  0.13078892814E+04  0.25843246453E+04  0.22289368542E+04 0.  0.
        3    1    3    3  502    0  0.25393176908E+03  0.15801285687E+03  0.18987080521E+04  0.19221190607E+04  0.10100000352E+00 0.  1.
       -3    1    3    3    0  502 -0.25393176908E+03 -0.15801285687E+03 -0.59081877070E+03  0.66220558462E+03  0.10100000352E+00 0. -1.
</event>
<event>
 5   0  0.3838525E-06  0.3074800E+04  0.7818609E-02  0.8222688E-01
       -1   -1    0    0    0  501  0.00000000000E+00  0.00000000000E+00  0.16509073184E+04  0.16509073184E+04  0.50400001928E-02 0. -1.
        1   -1    0    0  501    0  0.00000000000E+00  0.00000000000E+00 -0.14316968716E+04  0.14316968716E+04  0.50400001928E-02 0.  1.
    10030    2    1    2    0    0  0.00000000000E+00  0.00000000000E+00  0.21921044685E+03  0.30826041900E+04  0.30748000540E+04 0.  0.
        3    1    3    3  502    0 -0.77864556291E+03 -0.62052249572E+03  0.12840142046E+04  0.16248167799E+04  0.10100000352E+00 0. -1.
       -3    1    3    3    0  502  0.77864556291E+03  0.62052249572E+03 -0.10648037577E+04  0.14577874101E+04  0.10100000352E+00 0.  1.
</event>
<event>
 5   0  0.3807334E-06  0.3052356E+04  0.7818609E-02  0.8228936E-01
       -1   -1    0    0    0  501  0.00000000000E+00  0.00000000000E+00  0.94867596610E+03  0.94867596612E+03  0.50400001928E-02 0.  1.
        1   -1    0    0  501    0  0.00000000000E+00  0.00000000000E+00 -0.24552324562E+04  0.24552324562E+04  0.50400001928E-02 0. -1.
    10030    2    1    2    0    0  0.00000000000E+00  0.00000000000E+00 -0.15065564900E+04  0.34039084223E+04  0.30523564814E+04 0.  0.
        4    1    3    3  502    0 -0.12901810250E+04 -0.17972601433E+03  0.13351288146E+03  0.13094639437E+04  0.12699999809E+01 0.  1.
       -4    1    3    3    0  502  0.12901810250E+04  0.17972601433E+03 -0.16400693715E+04  0.20944444786E+04  0.12699999809E+01 0. -1.
</event>
<event>
 5   0  0.3838525E-06  0.3012257E+04  0.7818609E-02  0.8240239E-01
        1   -1    0    0  501    0  0.00000000000E+00  0.00000000000E+00  0.24746913239E+04  0.24746913239E+04  0.50400001928E-02 0. -1.
       -1   -1    0    0    0  501  0.00000000000E+00  0.00000000000E+00 -0.91664899390E+03  0.91664899391E+03  0.50400001928E-02 0.  1.
    10030    2    1    2    0    0  0.00000000000E+00  0.00000000000E+00  0.15580423300E+04  0.33913403178E+04  0.30122571685E+04 0.  0.
        3    1    3    3  502    0  0.24408677785E+03  0.10489445139E+04 -0.40636266231E+03  0.11510836512E+04  0.10100000352E+00 0.  1.
       -3    1    3    3    0  502 -0.24408677785E+03 -0.10489445139E+04  0.19644049923E+04  0.22402566667E+04  0.10100000352E+00 0. -1.
</event>
<event>
 5   0  0.4250961E-06  0.3092346E+04  0.7818609E-02  0.8217842E-01
       -1   -1    0    0    0  501  0.00000000000E+00  0.00000000000E+00  0.91170732390E+03  0.91170732392E+03  0.50400001928E-02 0. -1.
        1   -1    0    0  501    0  0.00000000000E+00  0.00000000000E+00 -0.26221686769E+04  0.26221686769E+04  0.50400001928E-02 0.  1.
    10030    2    1    2    0    0  0.00000000000E+00  0.00000000000E+00 -0.17104613530E+04  0.35338760008E+04  0.30923456387E+04 0.  0.
        1    1    3    3  502    0  0.80562594437E+03  0.13001516115E+04 -0.59659059216E+03  0.16417514153E+04  0.50400001928E-02 0. -1.
       -1    1    3    3    0  502 -0.80562594437E+03 -0.13001516115E+04 -0.11138707608E+04  0.18921245855E+04  0.50400001928E-02 0.  1.
</event>
<event>
 5   0  0.4139628E-06  0.2764429E+04  0.7818609E-02  0.8314397E-01
       -1   -1    0    0    0  501  0.00000000000E+00  0.00000000000E+00  0.10116137447E+04  0.10116137447E+04  0.50400001928E-02 0.  1.
        1   -1    0    0  501    0  0.00000000000E+00  0.00000000000E+00 -0.18885839139E+04  0.18885839139E+04  0.50400001928E-02 0. -1.
    10030    2    1    2    0    0  0.00000000000E+00  0.00000000000E+00 -0.87697016920E+03  0.29001976587E+04  0.27644293772E+04 0.  0.
        5    1    3    3  502    0  0.30052950709E+03  0.12211960259E+04 -0.10401103470E+04  0.16320200189E+04  0.46999998093E+01 0. -1.
       -5    1    3    3    0  502 -0.30052950709E+03 -0.12211960259E+04  0.16314017776E+03  0.12681776397E+04  0.46999998093E+01 0.  1.
</event>
<event>
 5   0  0.1007567E-05  0.3206818E+04  0.7818609E-02  0.8187019E-01
       -2   -1    0    0    0  501  0.00000000000E+00  0.00000000000E+00  0.21374454524E+04  0.21374454524E+04  0.25500000920E-02 0.  1.
        2   -1    0    0  501    0  0.00000000000E+00  0.00000000000E+00 -0.12028007612E+04  0.12028007612E+04  0.25500000920E-02 0. -1.
    10030    2    1    2    0    0  0.00000000000E+00  0.00000000000E+00  0.93464469126E+03  0.33402462136E+04  0.32068183717E+04 0.  0.
        3    1    3    3  502    0  0.14440966421E+04  0.42638692734E+03 -0.10669705790E+03  0.15095049506E+04  0.10100000352E+00 0. -1.
       -3    1    3    3    0  502 -0.14440966421E+04 -0.42638692734E+03  0.10413417492E+04  0.18307412630E+04  0.10100000352E+00 0.  1.
</event>
<event>
 5   0  0.1119100E-05  0.2885089E+04  0.7818609E-02  0.8277328E-01
       -2   -1    0    0    0  501  0.00000000000E+00  0.00000000000E+00  0.12749118440E+04  0.12749118440E+04  0.25500000920E-02 0.  1.
        2   -1    0    0  501    0  0.00000000000E+00  0.00000000000E+00 -0.16322186224E+04  0.16322186224E+04  0.25500000920E-02 0. -1.
    10030    2    1    2    0    0  0.00000000000E+00  0.00000000000E+00 -0.35730677835E+03  0.29071304664E+04  0.28850891520E+04 0.  0.
        2    1    3    3  502    0  0.13365672269E+04  0.46769247459E+03 -0.45605031401E+03  0.14876592660E+04  0.25500000920E-02 0. -1.
       -2    1    3    3    0  502 -0.13365672269E+04 -0.46769247459E+03  0.98743535653E+02  0.14194712004E+04  0.25500000920E-02 0.  1.
</event>
<event>
 5   0  0.4139628E-06  0.3148480E+04  0.7818609E-02  0.8202557E-01
        1   -1    0    0  501    0  0.00000000000E+00  0.00000000000E+00  0.16616732038E+04  0.16616732038E+04  0.50400001928E-02 0. -1.
       -1   -1    0    0    0  501  0.00000000000E+00  0.00000000000E+00 -0.14914077723E+04  0.14914077723E+04  0.50400001928E-02 0.  1.
    10030    2    1    2    0    0  0.00000000000E+00  0.00000000000E+00  0.17026543142E+03  0.31530809761E+04  0.31484804787E+04 0.  0.
        5    1    3    3  502    0  0.10885167274E+04 -0.63204086947E+03 -0.86169357327E+03  0.15254121511E+04  0.46999998093E+01 0.  1.
       -5    1    3    3    0  502 -0.10885167274E+04  0.63204086947E+03  0.10319590047E+04  0.16276688250E+04  0.46999998093E+01 0. -1.
</event>
<event>
 5   0  0.1007567E-05  0.3061955E+04  0.7818609E-02  0.8226257E-01
        2   -1    0    0  501    0  0.00000000000E+00  0.00000000000E+00  0.19997468058E+04  0.19997468058E+04  0.25500000920E-02 0. -1.
       -2   -1    0    0    0  501  0.00000000000E+00  0.00000000000E+00 -0.11720942422E+04  0.11720942422E+04  0.25500000920E-02 0.  1.
    10030    2    1    2    0    0  0.00000000000E+00  0.00000000000E+00  0.82765256357E+03  0.31718410480E+04  0.30619547462E+04 0.  0.
        3    1    3    3  502    0 -0.29723177190E+03  0.62100551717E+03 -0.10026897844E+04  0.12162982334E+04  0.10100000352E+00 0.  1.
       -3    1    3    3    0  502  0.29723177190E+03 -0.62100551717E+03  0.18303423480E+04  0.19555428146E+04  0.10100000352E+00 0. -1.
</event>
<event>
 5   0  0.9797278E-06  0.2365451E+04  0.7818609E-02  0.8452553E-01
        2   -1    0    0  501    0  0.00000000000E+00  0.00000000000E+00  0.11364604869E+04  0.11364604869E+04  0.25500000920E-02 0.  1.
       -2   -1    0    0    0  501  0.00000000000E+00  0.00000000000E+00 -0.12308740977E+04  0.12308740977E+04  0.25500000920E-02 0. -1.
    10030    2    1    2    0    0  0.00000000000E+00  0.00000000000E+00 -0.94413610875E+02  0.23673345846E+04  0.23654511421E+04 0.  0.
        1    1    3    3  502    0  0.73580278901E+03  0.16245278526E+02 -0.97377880755E+03  0.12206206698E+04  0.50400001928E-02 0. -1.
       -1    1    3    3    0  502 -0.73580278901E+03 -0.16245278526E+02  0.87936519667E+03  0.11467139149E+04  0.50400001928E-02 0.  1.
</event>
<event>
 5   0  0.1108153E-05  0.3110657E+04  0.7818609E-02  0.8212819E-01
        2   -1    0    0  501    0  0.00000000000E+00  0.00000000000E+00  0.24397458116E+04  0.24397458116E+04  0.25500000920E-02 0. -1.
       -2   -1    0    0    0  501  0.00000000000E+00  0.00000000000E+00 -0.99151578753E+03  0.99151578753E+03  0.25500000920E-02 0.  1.
    10030    2    1    2    0    0  0.00000000000E+00  0.00000000000E+00  0.14482300241E+04  0.34312615991E+04  0.31106568372E+04 0.  0.
        4    1    3    3  502    0 -0.14239534634E+04  0.12509672341E+03  0.47950295368E+02  0.14302424619E+04  0.12699999809E+01 0.  1.
       -4    1    3    3    0  502  0.14239534634E+04 -0.12509672341E+03  0.14002797287E+04  0.20010191372E+04  0.12699999809E+01 0. -1.
</event>
<event>
 5   0  0.1119100E-05  0.3067796E+04  0.7818609E-02  0.8224632E-01
        2   -1    0    0  501    0  0.00000000000E+00  0.00000000000E+00  0.16124351161E+04  0.16124351162E+04  0.25500000920E-02 0.  1.
       -2   -1    0    0    0  501  0.00000000000E+00  0.00000000000E+00 -0.14591857944E+04  0.14591857944E+04  0.25500000920E-02 0. -1.
    10030    2    1    2    0    0  0.00000000000E+00  0.00000000000E+00  0.15324932172E+03  0.30716209106E+04  0.30677955707E+04 0.  0.
        2    1    3    3  502    0  0.80883969232E+03 -0.38171289155E+03  0.13243390592E+04  0.15980614266E+04  0.25500000920E-02 0.  1.
       -2    1    3    3    0  502 -0.80883969232E+03  0.38171289155E+03 -0.11710897375E+04  0.14735594840E+04  0.25500000920E-02 0. -1.
</event>
<event>
 5   0  0.4139628E-06  0.2607952E+04  0.7818609E-02  0.8365505E-01
        1   -1    0    0  501    0  0.00000000000E+00  0.00000000000E+00  0.99126606634E+03  0.99126606635E+03  0.50400001928E-02 0. -1.
       -1   -1    0    0    0  501  0.00000000000E+00  0.00000000000E+00 -0.17153351627E+04  0.17153351627E+04  0.50400001928E-02 0.  1.
    10030    2    1    2    0    0  0.00000000000E+00  0.00000000000E+00 -0.72406909634E+03  0.27066012290E+04  0.26079521002E+04 0.  0.
        5    1    3    3  502    0 -0.10050403025E+04 -0.55824182002E+03  0.27653778655E+03  0.11824699475E+04  0.46999998093E+01 0. -1.
       -5    1    3    3    0  502  0.10050403025E+04  0.55824182002E+03 -0.10006068829E+04  0.15241312816E+04  0.46999998093E+01 0.  1.
</event>
<event>
 5   0  0.1119100E-05  0.3103397E+04  0.7818609E-02  0.8214806E-01
       -2   -1    0    0    0  501  0.00000000000E+00  0.00000000000E+00  0.10048117643E+04  0.10048117643E+04  0.25500000920E-02 0.  1.
        2   -1    0    0  501    0  0.00000000000E+00  0.00000000000E+00 -0.23962382714E+04  0.23962382714E+04  0.25500000920E-02 0. -1.
    10030    2    1    2    0    0  0.00000000000E+00  0.00000000000E+00 -0.13914265071E+04  0.34010500357E+04  0.31033971098E+04 0.  0.
        2    1    3    3  502    0  0.62582010044E+03  0.12815877690E+04 -0.25815696342E+02  0.14264587124E+04  0.25500000920E-02 0.  1.
       -2    1    3    3    0  502 -0.62582010044E+03 -0.12815877690E+04 -0.13656108107E+04  0.19745913233E+04  0.25500000920E-02 0. -1.
</event>
<event>
 5   0  0.4139628E-06  0.3126226E+04  0.7818609E-02  0.8208577E-01
       -1   -1    0    0    0  501  0.00000000000E+00  0.00000000000E+00  0.13904850235E+04  0.13904850235E+04  0.50400001928E-02 0.  1.
        1   -1    0    0  501    0  0.00000000000E+00  0.00000000000E+00 -0.17571721232E+04  0.17571721232E+04  0.50400001928E-02 0. -1.
    10030    2    1    2    0    0  0.00000000000E+00  0.00000000000E+00 -0.36668709974E+03  0.31476571467E+04  0.31262255331E+04 0.  0.
        5    1    3    3  502    0 -0.12176318322E+04  0.65507208853E+01  0.80349252355E+03  0.14588668603E+04  0.46999998093E+01 0.  1.
       -5    1    3    3    0  502  0.12176318322E+04 -0.65507208853E+01 -0.11701796233E+04  0.16887902864E+04  0.46999998093E+01 0. -1.
</event>
<event>
 5   0  0.3848286E-06  0.2673374E+04  0.7818609E-02  0.8343696E-01
       -1   -1    0    0    0  501  0.00000000000E+00  0.00000000000E+00  0.17850918368E+04  0.17850918368E+04  0.50400001928E-02 0.  1.
        1   -1    0    0  501    0  0.00000000000E+00  0.00000000000E+00 -0.10009187799E+04  0.10009187799E+04  0.50400001928E-02 0. -1.
    10030    2    1    2    0    0  0.00000000000E+00  0.00000000000E+00  0.78417305686E+03  0.27860106167E+04  0.26733738559E+04 0.  0.
        2    1    3    3  502    0  0.11402653903E+04 -0.53444874681E+03 -0.75006791968E+02  0.12615334487E+04  0.25500000920E-02 0. -1.
       -2    1    3    3    0  502 -0.11402653903E+04  0.53444874681E+03  0.85917984883E+03  0.15244771680E+04  0.25500000920E-02 0.  1.
</event>
<event>
 5   0  0.3848286E-06  0.2949633E+04  0.7818609E-02  0.8258261E-01
       -1   -1    0    0    0  501  0.00000000000E+00  0.00000000000E+00  0.95659565984E+03  0.95659565986E+03  0.50400001928E-02 0. -1.
        1   -1    0    0  501    0  0.00000000000E+00  0.00000000000E+00 -0.22737757292E+04  0.22737757293E+04  0.50400001928E-02 0.  1.
    10030    2    1    2    0    0  0.00000000000E+00  0.00000000000E+00 -0.13171800694E+04  0.32303713891E+04  0.29496331935E+04 0.  0.
        2    1    3    3  502    0  0.29580797905E+03 -0.81614896705E+03 -0.19643255038E+04  0.21475977700E+04  0.25500000920E-02 0.  1.
       -2    1    3    3    0  502 -0.29580797905E+03  0.81614896705E+03  0.64714543442E+03  0.10827736191E+04  0.25500000920E-02 0. -1.
</event>
<event>
 5   0  0.3807334E-06  0.1643265E+04  0.7818609E-02  0.8794401E-01
        1   -1    0    0  501    0  0.00000000000E+00  0.00000000000E+00  0.11493025943E+04  0.11493025943E+04  0.50400001928E-02 0.  1.
       -1   -1    0    0    0  501  0.00000000000E+00  0.00000000000E+00 -0.58738206541E+03  0.58738206543E+03  0.50400001928E-02 0. -1.
    10030    2    1    2    0    0  0.00000000000E+00  0.00000000000E+00  0.56192052890E+03  0.17366846598E+04  0.16432647159E+04 0.  0.
        4    1    3    3  502    0  0.36817952452E+03 -0.22900965583E+03 -0.45662467677E+03  0.62968983879E+03  0.12699999809E+01 0. -1.
       -4    1    3    3    0  502 -0.36817952452E+03  0.22900965583E+03  0.10185452057E+04  0.11069948210E+04  0.12699999809E+01 0.  1.
</event>
<event>
 5   0  0.9797278E-06  0.3069997E+04  0.7818609E-02  0.8224021E-01
       -2   -1    0    0    0  501  0.00000000000E+00  0.00000000000E+00  0.19929821108E+04  0.19929821108E+04  0.25500000920E-02 0. -1.
        2   -1    0    0  501    0  0.00000000000E+00  0.00000000000E+00 -0.11822586464E+04  0.11822586464E+04  0.25500000920E-02 0.  1.
    10030    2    1    2    0    0  0.00000000000E+00  0.00000000000E+00  0.81072346443E+03  0.31752407573E+04  0.30699969594E+04 0.  0.
        1    1    3    3  502    0  0.12371012423E+04  0.51732833260E+03  0.11780829438E+04  0.17849166675E+04  0.50400001928E-02 0. -1.
       -1    1    3    3    0  502 -0.12371012423E+04 -0.51732833260E+03 -0.36735947940E+03  0.13903240898E+04  0.50400001928E-02 0.  1.
</event>
<event>
 5   0  0.1108153E-05  0.1862896E+04  0.7818609E-02  0.8673549E-01
       -2   -1    0    0    0  501  0.00000000000E+00  0.00000000000E+00  0.46012323469E+03  0.46012323469E+03  0.25500000920E-02 0. -1.
        2   -1    0    0  501    0  0.00000000000E+00  0.00000000000E+00 -0.18855723254E+04  0.18855723254E+04  0.25500000920E-02 0.  1.
    10030    2    1    2    0    0  0.00000000000E+00  0.00000000000E+00 -0.14254490907E+04  0.23456955601E+04  0.18628962801E+04 0.  0.
        4    1    3    3  502    0  0.46449128026E+03  0.23673914283E+03  0.25919860599E+03  0.58222255318E+03  0.12699999809E+01 0. -1.
       -4    1    3    3    0  502 -0.46449128026E+03 -0.23673914283E+03 -0.16846476967E+04  0.17634730069E+04  0.12699999809E+01 0.  1.
</event>
<event>
 5   0  0.3838525E-06  0.3056050E+04  0.7818609E-02  0.8227904E-01
        1   -1    0    0  501    0  0.00000000000E+00  0.00000000000E+00  0.14066228104E+04  0.14066228104E+04  0.50400001928E-02 0. -1.
       -1   -1    0    0    0  501  0.00000000000E+00  0.00000000000E+00 -0.16599051364E+04  0.16599051364E+04  0.50400001928E-02 0.  1.
    10030    2    1    2    0    0  0.00000000000E+00  0.00000000000E+00 -0.25328232605E+03  0.30665279468E+04  0.30560500179E+04 0.  0.
        3    1    3    3  502    0 -0.86031058475E+03  0.79784256888E+03 -0.11088605748E+04  0.16143911705E+04  0.10100000352E+00 0.  1.
       -3    1    3    3    0  502  0.86031058475E+03 -0.79784256888E+03  0.85557824876E+03  0.14521367762E+04  0.10100000352E+00 0. -1.
</event>
<event>
 5   0  0.1007567E-05  0.2983281E+04  0.7818609E-02  0.8248521E-01
       -2   -1    0    0    0  501  0.00000000000E+00  0.00000000000E+00  0.12518517552E+04  0.12518517552E+04  0.25500000920E-02 0. -1.
        2   -1    0    0  501    0  0.00000000000E+00  0.00000000000E+00 -0.17773602568E+04  0.17773602568E+04  0.25500000920E-02 0.  1.
    10030    2    1    2    0    0  0.00000000000E+00  0.00000000000E+00 -0.52550850158E+03  0.30292120120E+04  0.29832811179E+04 0.  0.
        3    1    3    3  502    0  0.14066950441E+04  0.21184222812E+03 -0.71835318032E+03  0.15936434289E+04  0.10100000352E+00 0.  1.
       -3    1    3    3    0  502 -0.14066950441E+04 -0.21184222812E+03  0.19284467874E+03  0.14355685831E+04  0.10100000352E+00 0. -1.
</event>
<event>
 5   0  0.3838525E-06  0.1699487E+04  0.7818609E-02  0.8761657E-01
        1   -1    0    0  501    0  0.00000000000E+00  0.00000000000E+00  0.11957264897E+04  0.11957264897E+04  0.50400001928E-02 0.  1.
       -1   -1    0    0    0  501  0.00000000000E+00  0.00000000000E+00 -0.60387079875E+03  0.60387079877E+03  0.50400001928E-02 0. -1.
    10030    2    1    2    0    0  0.00000000000E+00  0.00000000000E+00  0.59185569095E+03  0.17995972885E+04  0.16994873468E+04 0.  0.
        3    1    3    3  502    0 -0.14216070359E+03  0.76899209223E+03 -0.56078039838E+02  0.78403013992E+03  0.10100000352E+00 0.  1.
       -3    1    3    3    0  502  0.14216070359E+03 -0.76899209223E+03  0.64793373079E+03  0.10155671486E+04  0.10100000352E+00 0. -1.
</event>
<event>
 5   0  0.3848286E-06  0.2210260E+04  0.7818609E-02  0.8514170E-01
        1   -1    0    0  501    0  0.00000000000E+00  0.00000000000E+00  0.89315338108E+03  0.89315338109E+03  0.50400001928E-02 0. -1.
       -1   -1    0    0    0  501  0.00000000000E+00  0.00000000000E+00 -0.13674162261E+04  0.13674162261E+04  0.50400001928E-02 0.  1.
    10030    2    1    2    0    0  0.00000000000E+00  0.00000000000E+00 -0.47426284498E+03  0.22605696072E+04  0.22102600984E+04 0.  0.
        2    1    3    3  502    0 -0.10750541980E+04  0.14526403745E+03 -0.21454123998E+02  0.10850361508E+04  0.25500000920E-02 0. -1.
       -2    1    3    3    0  502  0.10750541980E+04 -0.14526403745E+03 -0.45280872098E+03  0.11755334563E+04  0.25500000920E-02 0.  1.
</event>
<event>
 5   0  0.1119100E-05  0.3092906E+04  0.7818609E-02  0.8217687E-01
       -2   -1    0    0    0  501  0.00000000000E+00  0.00000000000E+00  0.14931560920E+04  0.14931560920E+04  0.25500000920E-02 0. -1.
        2   -1    0    0  501    0  0.00000000000E+00  0.00000000000E+00 -0.16016526621E+04  0.16016526621E+04  0.25500000920E-02 0.  1.
    10030    2    1    2    0    0  0.00000000000E+00  0.00000000000E+00 -0.10849657011E+03  0.30948087542E+04  0.30929063547E+04 0.  0.
        2    1    3    3  502    0  0.13761811352E+04  0.30041008007E+03  0.58442065714E+03  0.15250141762E+04  0.25500000920E-02 0. -1.
       -2    1    3    3    0  502 -0.13761811352E+04 -0.30041008007E+03 -0.69291722724E+03  0.15697945779E+04  0.25500000920E-02 0.  1.
</event>
<event>
 5   0  0.4139628E-06  0.1987273E+04  0.7818609E-02  0.8612594E-01
       -1   -1    0    0    0  501  0.00000000000E+00  0.00000000000E+00  0.70969939375E+03  0.70969939376E+03  0.50400001928E-02 0.  1.
        1   -1    0    0  501    0  0.00000000000E+00  0.00000000000E+00 -0.13911717161E+04  0.13911717162E+04  0.50400001928E-02 0. -1.
    10030    2    1    2    0    0  0.00000000000E+00  0.00000000000E+00 -0.68147232240E+03  0.21008711099E+04  0.19872732309E+04 0.  0.
        5    1    3    3  502    0 -0.64185390494E+03  0.60412326139E+03  0.14412051175E+03  0.89315965099E+03  0.46999998093E+01 0.  1.
       -5    1    3    3    0  502  0.64185390494E+03 -0.60412326139E+03 -0.82559283415E+03  0.12077114589E+04  0.46999998093E+01 0. -1.
</event>
<event>
 5   0  0.4250961E-06  0.3094193E+04  0.7818609E-02  0.8217333E-01
        1   -1    0    0  501    0  0.00000000000E+00  0.00000000000E+00  0.21327588764E+04  0.21327588764E+04  0.50400001928E-02 0. -1.
       -1   -1    0    0    0  501  0.00000000000E+00  0.00000000000E+00 -0.11222586587E+04  0.11222586587E+04  0.50400001928E-02 0.  1.
    10030    2    1    2    0    0  0.00000000000E+00  0.00000000000E+00  0.10105002177E+04  0.32550175352E+04  0.30941926999E+04 0.  0.
        1    1    3    3  502    0 -0.10235234360E+04 -0.98808061440E+03 -0.13429924819E+03  0.14289645946E+04  0.50400001928E-02 0.  1.
       -1    1    3    3    0  502  0.10235234360E+04  0.98808061440E+03  0.11447994659E+04  0.18260529406E+04  0.50400001928E-02 0. -1.
</event>
<event>
 5   0  0.1108153E-05  0.2903282E+04  0.7818609E-02  0.8271902E-01
        2   -1    0    0  501    0  0.00000000000E+00  0.00000000000E+00  0.14895282123E+04  0.14895282123E+04  0.25500000920E-02 0. -1.
       -2   -1    0    0    0  501  0.00000000000E+00  0.00000000000E+00 -0.14147171924E+04  0.14147171924E+04  0.25500000920E-02 0.  1.
    10030    2    1    2    0    0  0.00000000000E+00  0.00000000000E+00  0.74811019950E+02  0.29042454047E+04  0.29032817091E+04 0.  0.
        4    1    3    3  502    0 -0.13355996585E+04 -0.25904145635E+03 -0.46905360121E+03  0.14390767240E+04  0.12699999809E+01 0. -1.
       -4    1    3    3    0  502  0.13355996585E+04  0.25904145635E+03  0.54386462116E+03  0.14651686807E+04  0.12699999809E+01 0.  1.
</event>
<event>
 5   0  0.4250961E-06  0.3083007E+04  0.7818609E-02  0.8220417E-01
        1   -1    0    0  501    0  0.00000000000E+00  0.00000000000E+00  0.20872665958E+04  0.20872665958E+04  0.50400001928E-02 0. -1.
       -1   -1    0    0    0  501  0.00000000000E+00  0.00000000000E+00 -0.11384421823E+04  0.11384421823E+04  0.50400001928E-02 0.  1.
    10030    2    1    2    0    0  0.00000000000E+00  0.00000000000E+00  0.94882441348E+03  0.32257087781E+04  0.30830065445E+04 0.  0.
        1    1    3    3  502    0  0.14566929188E+04  0.31106709152E+03  0.88966459726E+03  0.17349985852E+04  0.50400001928E-02 0. -1.
       -1    1    3    3    0  502 -0.14566929188E+04 -0.31106709152E+03  0.59159816223E+02  0.14907101928E+04  0.50400001928E-02 0.  1.
</event>
<event>
 5   0  0.9797278E-06  0.3081956E+04  0.7818609E-02  0.8220707E-01
        2   -1    0    0  501    0  0.00000000000E+00  0.00000000000E+00  0.16288062422E+04  0.16288062422E+04  0.25500000920E-02 0. -1.
       -2   -1    0    0    0  501  0.00000000000E+00  0.00000000000E+00 -0.14578854631E+04  0.14578854631E+04  0.25500000920E-02 0.  1.
    10030    2    1    2    0    0  0.00000000000E+00  0.00000000000E+00  0.17092077918E+03  0.30866917053E+04  0.30819558353E+04 0.  0.
        1    1    3    3  502    0  0.52680690158E+03  0.13065940752E+04 -0.53991833382E+03  0.15087164731E+04  0.50400001928E-02 0.  1.
       -1    1    3    3    0  502 -0.52680690158E+03 -0.13065940752E+04  0.71083911299E+03  0.15779752322E+04  0.50400001928E-02 0. -1.
</event>
<event>
 5   0  0.1001961E-05  0.3112730E+04  0.7818609E-02  0.8212253E-01
        2   -1    0    0  501    0  0.00000000000E+00  0.00000000000E+00  0.21673265847E+04  0.21673265847E+04  0.25500000920E-02 0.  1.
       -2   -1    0    0    0  501  0.00000000000E+00  0.00000000000E+00 -0.11176310484E+04  0.11176310484E+04  0.25500000920E-02 0. -1.
    10030    2    1    2    0    0  0.00000000000E+00  0.00000000000E+00  0.10496955362E+04  0.32849576331E+04  0.31127296594E+04 0.  0.
        5    1    3    3  502    0 -0.13159274186E+04  0.82667999475E+03  0.43539579646E+03  0.16138947842E+04  0.46999998093E+01 0.  1.
       -5    1    3    3    0  502  0.13159274186E+04 -0.82667999475E+03  0.61429973979E+03  0.16710628490E+04  0.46999998093E+01 0. -1.
</event>
<event>
 5   0  0.3807334E-06  0.3138126E+04  0.7818609E-02  0.8205352E-01
        1   -1    0    0  501    0  0.00000000000E+00  0.00000000000E+00  0.17261182233E+04  0.17261182233E+04  0.50400001928E-02 0.  1.
       -1   -1    0    0    0  501  0.00000000000E+00  0.00000000000E+00 -0.14262977692E+04  0.14262977692E+04  0.50400001928E-02 0. -1.
    10030    2    1    2    0    0  0.00000000000E+00  0.00000000000E+00  0.29982045410E+03  0.31524159925E+04  0.31381259193E+04 0.  0.
        4    1    3    3  502    0  0.14287346470E+04  0.63776725035E+03  0.31359264611E+02  0.15649328335E+04  0.12699999809E+01 0. -1.
       -4    1    3    3    0  502 -0.14287346470E+04 -0.63776725035E+03  0.26846118949E+03  0.15874831590E+04  0.12699999809E+01 0.  1.
</event>
<event>
 5   0  0.1001961E-05  0.3114413E+04  0.7818609E-02  0.8211794E-01
       -2   -1    0    0    0  501  0.00000000000E+00  0.00000000000E+00  0.12512789902E+04  0.12512789902E+04  0.25500000920E-02 0.  1.
        2   -1    0    0  501    0  0.00000000000E+00  0.00000000000E+00 -0.19379306232E+04  0.19379306232E+04  0.25500000920E-02 0. -1.
    10030    2    1    2    0    0  0.00000000000E+00  0.00000000000E+00 -0.68665163297E+03  0.31892096134E+04  0.31144128650E+04 0.  0.
        5    1    3    3  502    0  0.36073824344E+02 -0.11210219581E+04  0.76283851121E+03  0.13564424925E+04  0.46999998093E+01 0.  1.
       -5    1    3    3    0  502 -0.36073824344E+02  0.11210219581E+04 -0.14494901442E+04  0.18327671209E+04  0.46999998093E+01 0. -1.
</event>
<event>
 5   0  0.3848286E-06  0.3110389E+04  0.7818609E-02  0.8212892E-01
       -1   -1    0    0    0  501  0.00000000000E+00  0.00000000000E+00  0.10933978069E+04  0.10933978069E+04  0.50400001928E-02 0.  1.
        1   -1    0    0  501    0  0.00000000000E+00  0.00000000000E+00 -0.22120313603E+04  0.22120313603E+04  0.50400001928E-02 0. -1.
    10030    2    1    2    0    0  0.00000000000E+00  0.00000000000E+00 -0.11186335535E+04  0.33054291672E+04  0.31103891963E+04 0.  0.
        2    1    3    3  502    0  0.17450068347E+03 -0.14003994355E+04  0.13516069694E+03  0.14176873708E+04  0.25500000920E-02 0.  1.
       -2    1    3    3    0  502 -0.17450068347E+03  0.14003994355E+04 -0.12537942504E+04  0.18877417964E+04  0.25500000920E-02 0. -1.
</event>
<event>
 5   0  0.1119100E-05  0.3163031E+04  0.7818609E-02  0.8198649E-01
       -2   -1    0    0    0  501  0.00000000000E+00  0.00000000000E+00  0.23645627335E+04  0.23645627335E+04  0.25500000920E-02 0.  1.
        2   -1    0    0  501    0  0.00000000000E+00  0.00000000000E+00 -0.10577818607E+04  0.10577818607E+04  0.25500000920E-02 0. -1.
    10030    2    1    2    0    0  0.00000000000E+00  0.00000000000E+00  0.13067808728E+04  0.34223445941E+04  0.31630311841E+04 0.  0.
        2    1    3    3  502    0  0.36528240498E+03 -0.96178390359E+03 -0.64621973986E+03  0.12149318766E+04  0.25500000920E-02 0. -1.
       -2    1    3    3    0  502 -0.36528240498E+03  0.96178390359E+03  0.19530006126E+04  0.22074127175E+04  0.25500000920E-02 0.  1.
</event>
<event>
 5   0  0.4139628E-06  0.3203119E+04  0.7818609E-02  0.8187994E-01
       -1   -1    0    0    0  501  0.00000000000E+00  0.00000000000E+00  0.17598750684E+04  0.17598750684E+04  0.50400001928E-02 0. -1.
        1   -1    0    0  501    0  0.00000000000E+00  0.00000000000E+00 -0.14574859949E+04  0.14574859949E+04  0.50400001928E-02 0.  1.
    10030    2    1    2    0    0  0.00000000000E+00  0.00000000000E+00  0.30238907353E+03  0.32173610633E+04  0.32031192703E+04 0.  0.
        5    1    3    3  502    0  0.64275738201E+03 -0.14666696636E+04  0.17803827052E+03  0.16112034850E+04  0.46999998093E+01 0.  1.
       -5    1    3    3    0  502 -0.64275738201E+03  0.14666696636E+04  0.12435080301E+03  0.16061575783E+04  0.46999998093E+01 0. -1.
</event>
</LesHouchesEvents>
