<LesHouchesEvents version="3.0">
<header>
<!--
#*********************************************************************
#                                                                    *
#                        MadGraph5_aMC@NLO                           *
#                                                                    *
#                           Going Beyond                             *
#                                                                    *
#                   http://madgraph.hep.uiuc.edu                     *
#                   http://madgraph.phys.ucl.ac.be                   *
#                   http://amcatnlo.cern.ch                          *
#                                                                    *
#                     The MadGraph5_aMC@NLO team                     *
#                                                                    *
#....................................................................*
#                                                                    *
# This file contains all the information necessary to reproduce      *
# the events generated:                                              *
#                                                                    *
# 1. software version                                                *
# 2. proc_card          : code generation info including model       *
# 3. param_card         : model primary parameters in the LH format  *
# 4. run_card           : running parameters (collider and cuts)     *
# 5. pythia_card        : present only if pythia has been run        *
# 6. pgs_card           : present only if pgs has been run           *
# 7. delphes_cards      : present only if delphes has been run       *
#                                                                    *
#                                                                    *
#*********************************************************************
-->
<MGVersion>
#5.2.2.3
</MGVersion>
<MG5ProcCard>
#************************************************************
#*                     MadGraph5_aMC@NLO                    *
#*                                                          *
#*                *                       *                 *
#*                  *        * *        *                   *
#*                    * * * * 5 * * * *                     *
#*                  *        * *        *                   *
#*                *                       *                 *
#*                                                          *
#*                                                          *
#*         VERSION 2.2.3                 2015-02-10         *
#*                                                          *
#*    The MadGraph5_aMC@NLO Development Team - Find us at   *
#*    https://server06.fynu.ucl.ac.be/projects/madgraph     *
#*                                                          *
#************************************************************
#*                                                          *
#*               Command File for MadGraph5_aMC@NLO         *
#*                                                          *
#*     run as ./bin/mg5_aMC  filename                       *
#*                                                          *
#************************************************************
set group_subprocesses Auto
set ignore_six_quark_processes False
set loop_optimized_output True
set gauge unitary
set complex_mass_scheme False
import model sm
define p = g u c d s u~ c~ d~ s~
define j = g u c d s u~ c~ d~ s~
define l+ = e+ mu+
define l- = e- mu-
define vl = ve vm vt
define vl~ = ve~ vm~ vt~
import model Zprime_UFO
generate p p > zph, zph > j j
add process p p > zph, zph > b b~
output Dijet_signal
</MG5ProcCard>
<MGProcCard>
#*********************************************************************
#                        MadGraph/MadEvent                           *
#                   http://madgraph.hep.uiuc.edu                     *
#                                                                    *
#                          proc_card.dat                             *
#*********************************************************************
#                                                                    *
#            This Files is generated by MADGRAPH 5                   *
#                                                                    *
# WARNING: This Files is generated for MADEVENT (compatibility issue)*
#          This files is NOT a valid MG4 proc_card.dat               *
#          Running this in MG4 will NEVER reproduce the result of MG5*
#                                                                    *
#*********************************************************************
#*********************************************************************
# Process(es) requested : mg2 input                                  *
#*********************************************************************
# Begin PROCESS # This is TAG. Do not modify this line
p p > zph , zph > j j           #Process
# Be carefull the coupling are here in MG5 convention
          
end_coup           # End the couplings input

done               # this tells MG there are no more procs
# End PROCESS  # This is TAG. Do not modify this line
#*********************************************************************
# Model information                                                  *
#*********************************************************************
# Begin MODEL  # This is TAG. Do not modify this line
Zprime_UFO
# End   MODEL  # This is TAG. Do not modify this line
#*********************************************************************
# Start multiparticle definitions                                    *
#*********************************************************************
# Begin MULTIPARTICLES # This is TAG. Do not modify this line

# End  MULTIPARTICLES # This is TAG. Do not modify this line
</MGProcCard>
<MGRunCard>
#*********************************************************************
#                       MadGraph5_aMC@NLO                            *
#                                                                    *
#                     run_card.dat MadEvent                          *
#                                                                    *
#  This file is used to set the parameters of the run.               *
#                                                                    *
#  Some notation/conventions:                                        *
#                                                                    *
#   Lines starting with a '# ' are info or comments                  *
#                                                                    *
#   mind the format:   value    = variable     ! comment             *
#*********************************************************************
#
#*******************                                                 
# Running parameters
#*******************                                                 
#                                                                    
#*********************************************************************
# Tag name for the run (one word)                                    *
#*********************************************************************
  tag_1     = run_tag ! name of the run 
#*********************************************************************
# Run to generate the grid pack                                      *
#*********************************************************************
  .false.     = gridpack  !True = setting up the grid pack
#*********************************************************************
# Number of events and rnd seed                                      *
# Warning: Do not generate more than 1M events in a single run       *
# If you want to run Pythia, avoid more than 50k events in a run.    *
#*********************************************************************
  2000 = nevents ! Number of unweighted events requested 
 939 = iseed   ! rnd seed (0=assigned automatically=default))
#*********************************************************************
# Collider type and energy                                           *
# lpp: 0=No PDF, 1=proton, -1=antiproton, 2=photon from proton,      *
#                                         3=photon from electron     *
#*********************************************************************
        1     = lpp1    ! beam 1 type 
        1     = lpp2    ! beam 2 type
     4000     = ebeam1  ! beam 1 total energy in GeV
     4000     = ebeam2  ! beam 2 total energy in GeV
#*********************************************************************
# Beam polarization from -100 (left-handed) to 100 (right-handed)    *
#*********************************************************************
        0     = polbeam1 ! beam polarization for beam 1
        0     = polbeam2 ! beam polarization for beam 2
#*********************************************************************
# PDF CHOICE: this automatically fixes also alpha_s and its evol.    *
#*********************************************************************
 'nn23lo1'    = pdlabel     ! PDF set                                     
 230000    = lhaid     ! if pdlabel=lhapdf, this is the lhapdf number
#*********************************************************************
# Renormalization and factorization scales                           *
#*********************************************************************
 F        = fixed_ren_scale  ! if .true. use fixed ren scale
 F        = fixed_fac_scale  ! if .true. use fixed fac scale
 91.1880  = scale            ! fixed ren scale
 91.1880  = dsqrt_q2fact1    ! fixed fact scale for pdf1
 91.1880  = dsqrt_q2fact2    ! fixed fact scale for pdf2
 1        = scalefact        ! scale factor for event-by-event scales
#*********************************************************************
# Matching - Warning! ickkw > 1 is still beta
#*********************************************************************
 0        = ickkw            ! 0 no matching, 1 MLM, 2 CKKW matching
 1        = highestmult      ! for ickkw=2, highest mult group
 1        = ktscheme         ! for ickkw=1, 1 Durham kT, 2 Pythia pTE
 1        = alpsfact         ! scale factor for QCD emission vx
 F        = chcluster        ! cluster only according to channel diag
 T        = pdfwgt           ! for ickkw=1, perform pdf reweighting
 5        = asrwgtflavor     ! highest quark flavor for a_s reweight
 T        = clusinfo         ! include clustering tag in output
 3.0      = lhe_version       ! Change the way clustering information pass to shower.        
#*********************************************************************
#**********************************************************
#
#**********************************************************
# Automatic ptj and mjj cuts if xqcut > 0
# (turn off for VBF and single top processes)
#**********************************************************
   T  = auto_ptj_mjj  ! Automatic setting of ptj and mjj
#**********************************************************
#                                                                    
#**********************************
# BW cutoff (M+/-bwcutoff*Gamma)
#**********************************
  15  = bwcutoff      ! (M+/-bwcutoff*Gamma)
#**********************************************************
# Apply pt/E/eta/dr/mij cuts on decay products or not
# (note that etmiss/ptll/ptheavy/ht/sorted cuts always apply)
#**********************************************************
   T  = cut_decays    ! Cut decay products 
#*************************************************************
# Number of helicities to sum per event (0 = all helicities)
# 0 gives more stable result, but longer run time (needed for
# long decay chains e.g.).
# Use >=2 if most helicities contribute, e.g. pure QCD.
#*************************************************************
   0  = nhel          ! Number of helicities used per event
#*******************                                                 
# Standard Cuts
#*******************                                                 
#                                                                    
#*********************************************************************
# Minimum and maximum pt's (for max, -1 means no cut)                *
#*********************************************************************
 20  = ptj       ! minimum pt for the jets 
  0  = ptb       ! minimum pt for the b 
 10  = pta       ! minimum pt for the photons 
 10  = ptl       ! minimum pt for the charged leptons 
  0  = misset    ! minimum missing Et (sum of neutrino's momenta)
  0  = ptheavy   ! minimum pt for one heavy final state
 1.0 = ptonium   ! minimum pt for the quarkonium states
 -1  = ptjmax    ! maximum pt for the jets
 -1  = ptbmax    ! maximum pt for the b
 -1  = ptamax    ! maximum pt for the photons
 -1  = ptlmax    ! maximum pt for the charged leptons
 -1  = missetmax ! maximum missing Et (sum of neutrino's momenta)
#*********************************************************************
# Minimum and maximum E's (in the center of mass frame)              *
#*********************************************************************
  0  = ej     ! minimum E for the jets 
  0  = eb     ! minimum E for the b 
  0  = ea     ! minimum E for the photons 
  0  = el     ! minimum E for the charged leptons 
 -1   = ejmax ! maximum E for the jets
 -1   = ebmax ! maximum E for the b
 -1   = eamax ! maximum E for the photons
 -1   = elmax ! maximum E for the charged leptons
#*********************************************************************
# Maximum and minimum absolute rapidity (for max, -1 means no cut)   *
#*********************************************************************
   5  = etaj    ! max rap for the jets 
  -1  = etab    ! max rap for the b
 2.5  = etaa    ! max rap for the photons 
 2.5  = etal    ! max rap for the charged leptons 
 0.6  = etaonium ! max rap for the quarkonium states
   0  = etajmin ! min rap for the jets
   0  = etabmin ! min rap for the b
   0  = etaamin ! min rap for the photons
   0  = etalmin ! main rap for the charged leptons
#*********************************************************************
# Minimum and maximum DeltaR distance                                *
#*********************************************************************
 0.4 = drjj    ! min distance between jets 
 0   = drbb    ! min distance between b's 
 0.4 = drll    ! min distance between leptons 
 0.4 = draa    ! min distance between gammas 
 0   = drbj    ! min distance between b and jet 
 0.4 = draj    ! min distance between gamma and jet 
 0.4 = drjl    ! min distance between jet and lepton 
 0   = drab    ! min distance between gamma and b 
 0   = drbl    ! min distance between b and lepton 
 0.4 = dral    ! min distance between gamma and lepton 
 -1  = drjjmax ! max distance between jets
 -1  = drbbmax ! max distance between b's
 -1  = drllmax ! max distance between leptons
 -1  = draamax ! max distance between gammas
 -1  = drbjmax ! max distance between b and jet
 -1  = drajmax ! max distance between gamma and jet
 -1  = drjlmax ! max distance between jet and lepton
 -1  = drabmax ! max distance between gamma and b
 -1  = drblmax ! max distance between b and lepton
 -1  = dralmax ! maxdistance between gamma and lepton
#*********************************************************************
# Minimum and maximum invariant mass for pairs                       *
# WARNING: for four lepton final state mmll cut require to have      *
#          different lepton masses for each flavor!                  *           
#*********************************************************************
 0   = mmjj    ! min invariant mass of a jet pair 
 0   = mmbb    ! min invariant mass of a b pair 
 0   = mmaa    ! min invariant mass of gamma gamma pair
 0   = mmll    ! min invariant mass of l+l- (same flavour) lepton pair
 -1  = mmjjmax ! max invariant mass of a jet pair
 -1  = mmbbmax ! max invariant mass of a b pair
 -1  = mmaamax ! max invariant mass of gamma gamma pair
 -1  = mmllmax ! max invariant mass of l+l- (same flavour) lepton pair
#*********************************************************************
# Minimum and maximum invariant mass for all letpons                 *
#*********************************************************************
 0   = mmnl    ! min invariant mass for all letpons (l+- and vl) 
 -1  = mmnlmax ! max invariant mass for all letpons (l+- and vl) 
#*********************************************************************
# Minimum and maximum pt for 4-momenta sum of leptons                *
#*********************************************************************
 0   = ptllmin  ! Minimum pt for 4-momenta sum of leptons(l and vl)
 -1  = ptllmax  ! Maximum pt for 4-momenta sum of leptons(l and vl)
#*********************************************************************
# Inclusive cuts                                                     *
#*********************************************************************
 0  = xptj ! minimum pt for at least one jet  
 0  = xptb ! minimum pt for at least one b 
 0  = xpta ! minimum pt for at least one photon 
 0  = xptl ! minimum pt for at least one charged lepton 
#*********************************************************************
# Control the pt's of the jets sorted by pt                          *
#*********************************************************************
 0   = ptj1min ! minimum pt for the leading jet in pt
 0   = ptj2min ! minimum pt for the second jet in pt
 0   = ptj3min ! minimum pt for the third jet in pt
 0   = ptj4min ! minimum pt for the fourth jet in pt
 -1  = ptj1max ! maximum pt for the leading jet in pt 
 -1  = ptj2max ! maximum pt for the second jet in pt
 -1  = ptj3max ! maximum pt for the third jet in pt
 -1  = ptj4max ! maximum pt for the fourth jet in pt
 0   = cutuse  ! reject event if fails any (0) / all (1) jet pt cuts
#*********************************************************************
# Control the pt's of leptons sorted by pt                           *
#*********************************************************************
 0   = ptl1min ! minimum pt for the leading lepton in pt
 0   = ptl2min ! minimum pt for the second lepton in pt
 0   = ptl3min ! minimum pt for the third lepton in pt
 0   = ptl4min ! minimum pt for the fourth lepton in pt
 -1  = ptl1max ! maximum pt for the leading lepton in pt 
 -1  = ptl2max ! maximum pt for the second lepton in pt
 -1  = ptl3max ! maximum pt for the third lepton in pt
 -1  = ptl4max ! maximum pt for the fourth lepton in pt
#*********************************************************************
# Control the Ht(k)=Sum of k leading jets                            *
#*********************************************************************
 0   = htjmin ! minimum jet HT=Sum(jet pt)
 -1  = htjmax ! maximum jet HT=Sum(jet pt)
 0   = ihtmin  !inclusive Ht for all partons (including b)
 -1  = ihtmax  !inclusive Ht for all partons (including b)
 0   = ht2min ! minimum Ht for the two leading jets
 0   = ht3min ! minimum Ht for the three leading jets
 0   = ht4min ! minimum Ht for the four leading jets
 -1  = ht2max ! maximum Ht for the two leading jets
 -1  = ht3max ! maximum Ht for the three leading jets
 -1  = ht4max ! maximum Ht for the four leading jets
#***********************************************************************
# Photon-isolation cuts, according to hep-ph/9801442                   *
# When ptgmin=0, all the other parameters are ignored                  *
# When ptgmin>0, pta and draj are not going to be used                 *
#***********************************************************************
   0 = ptgmin ! Min photon transverse momentum
 0.4 = R0gamma ! Radius of isolation code
 1.0 = xn ! n parameter of eq.(3.4) in hep-ph/9801442
 1.0 = epsgamma ! epsilon_gamma parameter of eq.(3.4) in hep-ph/9801442
 .true. = isoEM ! isolate photons from EM energy (photons and leptons)
#*********************************************************************
# WBF cuts                                                           *
#*********************************************************************
 0   = xetamin ! minimum rapidity for two jets in the WBF case  
 0   = deltaeta ! minimum rapidity for two jets in the WBF case 
#*********************************************************************
# KT DURHAM CUT                                                      *
#*********************************************************************
 -1    =  ktdurham        
 0.4  =  dparameter 
#*********************************************************************
# maximal pdg code for quark to be considered as a light jet         *
# (otherwise b cuts are applied)                                     *
#*********************************************************************
 4 = maxjetflavor    ! Maximum jet pdg code
#*********************************************************************
# Jet measure cuts                                                   *
#*********************************************************************
 0   = xqcut   ! minimum kt jet measure between partons
#*********************************************************************
#
#*********************************************************************
# Store info for systematics studies                                 *
# WARNING: If use_syst is T, matched Pythia output is                *
#          meaningful ONLY if plotted taking matchscale              *
#          reweighting into account!                                 *
#*********************************************************************
   F  = use_syst      ! Enable systematics studies
#
#**************************************
# Parameter of the systematics study
#  will be used by SysCalc (if installed)
#**************************************                                  
#
0.5 1 2 = sys_scalefact  # factorization/renormalization scale factor
0.5 1 2 = sys_alpsfact  # \alpha_s emission scale factors
30 50 = sys_matchscale # variation of merging scale
# PDF sets and number of members (0 or none for all members).
CT10nlo.LHgrid = sys_pdf # matching scales
# MSTW2008nlo68cl.LHgrid 1  = sys_pdf
</MGRunCard>
<slha>
######################################################################
## PARAM_CARD AUTOMATICALY GENERATED BY MG5 FOLLOWING UFO MODEL   ####
######################################################################
##                                                                  ##
##  Width set on Auto will be computed following the information    ##
##        present in the decay.py files of the model.               ##
##        See  arXiv:1402.1178 for more details.                    ##
##                                                                  ##
######################################################################

###################################
## INFORMATION FOR CKMBLOCK
###################################
Block ckmblock 
    1 2.277360e-01 # cabi 

###################################
## INFORMATION FOR FRBLOCK
###################################
Block frblock 
    1 4.000000e-01 # gz 

###################################
## INFORMATION FOR MASS
###################################
Block mass 
    1 5.040000e-03 # MD 
    2 2.550000e-03 # MU 
    3 1.010000e-01 # MS 
    4 1.270000e+00 # MC 
    5 4.700000e+00 # MB 
    6 1.720000e+02 # MT 
   11 5.110000e-04 # Me 
   13 1.056600e-01 # MM 
   15 1.777000e+00 # MTA 
   23 9.118760e+01 # MZ 
   25 1.200000e+02 # MH 
  10030 1.800000e+03 # MZph 
  10031 3.000000e+02 # MZpl 
## Dependent parameters, given by model restrictions.
## Those values should be edited following the 
## analytical expression. MG5 ignores those values 
## but they are important for interfacing the output of MG5
## to external program such as Pythia.
  12 0.000000 # ve : 0.0 
  14 0.000000 # vm : 0.0 
  16 0.000000 # vt : 0.0 
  21 0.000000 # g : 0.0 
  22 0.000000 # a : 0.0 
  24 79.824360 # w+ : cmath.sqrt(MZ__exp__2/2. + cmath.sqrt(MZ__exp__4/4. - (aEW*cmath.pi*MZ__exp__2)/(Gf*sqrt__2))) 

###################################
## INFORMATION FOR SMINPUTS
###################################
Block sminputs 
    1 1.279000e+02 # aEWM1 
    2 1.166370e-05 # Gf 
    3 1.184000e-01 # aS 

###################################
## INFORMATION FOR YUKAWA
###################################
Block yukawa 
    1 5.040000e-03 # ymdo 
    2 2.550000e-03 # ymup 
    3 1.010000e-01 # yms 
    4 1.270000e+00 # ymc 
    5 4.700000e+00 # ymb 
    6 1.720000e+02 # ymt 
   11 5.110000e-04 # yme 
   13 1.056600e-01 # ymm 
   15 1.777000e+00 # ymtau 

###################################
## INFORMATION FOR DECAY
###################################
DECAY   6 1.508336e+00 # WT 
DECAY  23 2.495200e+00 # WZ 
DECAY  24 2.085000e+00 # WW 
DECAY  25 5.753088e-03 # WH 
## Dependent parameters, given by model restrictions.
## Those values should be edited following the 
## analytical expression. MG5 ignores those values 
## but they are important for interfacing the output of MG5
## to external program such as Pythia.
DECAY  1 0.000000 # d : 0.0 
DECAY  2 0.000000 # u : 0.0 
DECAY  3 0.000000 # s : 0.0 
DECAY  4 0.000000 # c : 0.0 
DECAY  5 0.000000 # b : 0.0 
DECAY  11 0.000000 # e- : 0.0 
DECAY  12 0.000000 # ve : 0.0 
DECAY  13 0.000000 # mu- : 0.0 
DECAY  14 0.000000 # vm : 0.0 
DECAY  15 0.000000 # ta- : 0.0 
DECAY  16 0.000000 # vt : 0.0 
DECAY  21 0.000000 # g : 0.0 
DECAY  22 0.000000 # a : 0.0 
DECAY  10030 0.308725 # zph : (gz__exp__2*MZph*(5 + cmath.sqrt(1 - (4*MT__exp__2)/MZph__exp__2)))/(144.*cmath.pi) 
DECAY  10031 0.132629 # zpl : (5*gz__exp__2*MZpl)/(144.*cmath.pi) 
#===========================================================
# QUANTUM NUMBERS OF NEW STATE(S) (NON SM PDG CODE)
#===========================================================

Block QNUMBERS 10030  # zph 
        1 0  # 3 times electric charge
        2 3  # number of spin states (2S+1)
        3 1  # colour rep (1: singlet, 3: triplet, 8: octet)
        4 0  # Particle/Antiparticle distinction (0=own anti)
Block QNUMBERS 10031  # zpl 
        1 0  # 3 times electric charge
        2 3  # number of spin states (2S+1)
        3 1  # colour rep (1: singlet, 3: triplet, 8: octet)
        4 0  # Particle/Antiparticle distinction (0=own anti)
</slha>
## END BANNER##
<MGGenerationInfo>
#  Number of Events        :         3961
#  Integrated weight (pb)  :  0.11574E-01
#  Max wgt                 :  0.40157E-05
#  Average wgt             :  0.29220E-05
</MGGenerationInfo>
</header>
<init>
     2212     2212  0.40000000000E+04  0.40000000000E+04 0 0  247000  247000 2   1
  0.11581616078E-01  0.22420743895E-04  0.40157290000E-05   0
</init>
<event>
 5   0  0.3984648E-05  0.1799460E+04  0.7818609E-02  0.8706587E-01
       -2   -1    0    0    0  501  0.00000000000E+00  0.00000000000E+00  0.95680321342E+03  0.95680321342E+03  0.25500000920E-02 0.  1.
        2   -1    0    0  501    0  0.00000000000E+00  0.00000000000E+00 -0.84606073117E+03  0.84606073118E+03  0.25500000920E-02 0. -1.
    10030    2    1    2    0    0  0.00000000000E+00  0.00000000000E+00  0.11074248224E+03  0.18028639446E+04  0.17994595037E+04 0.  0.
        1    1    3    3  502    0 -0.37584811692E+03  0.79400737602E+03  0.25017187373E+03  0.91339777020E+03  0.50400001928E-02 0.  1.
       -1    1    3    3    0  502  0.37584811692E+03 -0.79400737602E+03 -0.13942939149E+03  0.88946617440E+03  0.50400001928E-02 0. -1.
</event>
<event>
 5   0  0.3984648E-05  0.1794401E+04  0.7818609E-02  0.8709283E-01
        2   -1    0    0  501    0  0.00000000000E+00  0.00000000000E+00  0.81718807651E+03  0.81718807651E+03  0.25500000920E-02 0. -1.
       -2   -1    0    0    0  501  0.00000000000E+00  0.00000000000E+00 -0.98504690122E+03  0.98504690122E+03  0.25500000920E-02 0.  1.
    10030    2    1    2    0    0  0.00000000000E+00  0.00000000000E+00 -0.16785882471E+03  0.18022349777E+04  0.17944008276E+04 0.  0.
        1    1    3    3  502    0  0.51394555255E+03 -0.28837960836E+03  0.59553413331E+03  0.83783275984E+03  0.50400001928E-02 0. -1.
       -1    1    3    3    0  502 -0.51394555255E+03  0.28837960836E+03 -0.76339295802E+03  0.96440221790E+03  0.50400001928E-02 0.  1.
</event>
<event>
 5   0  0.3983176E-05  0.1797025E+04  0.7818609E-02  0.8707883E-01
       -2   -1    0    0    0  501  0.00000000000E+00  0.00000000000E+00  0.36454508287E+03  0.36454508288E+03  0.25500000920E-02 0.  1.
        2   -1    0    0  501    0  0.00000000000E+00  0.00000000000E+00 -0.22146090399E+04  0.22146090400E+04  0.25500000920E-02 0. -1.
    10030    2    1    2    0    0  0.00000000000E+00  0.00000000000E+00 -0.18500639571E+04  0.25791541228E+04  0.17970251373E+04 0.  0.
        3    1    3    3  502    0 -0.25147716044E+03 -0.84534744518E+03 -0.67864021687E+03  0.11128367443E+04  0.10100000352E+00 0.  1.
       -3    1    3    3    0  502  0.25147716044E+03  0.84534744518E+03 -0.11714237402E+04  0.14663173785E+04  0.10100000352E+00 0. -1.
</event>
<event>
 5   0  0.3984648E-05  0.1793321E+04  0.7818609E-02  0.8709859E-01
        2   -1    0    0  501    0  0.00000000000E+00  0.00000000000E+00  0.17999535386E+04  0.17999535386E+04  0.25500000920E-02 0. -1.
       -2   -1    0    0    0  501  0.00000000000E+00  0.00000000000E+00 -0.44667828804E+03  0.44667828805E+03  0.25500000920E-02 0.  1.
    10030    2    1    2    0    0  0.00000000000E+00  0.00000000000E+00  0.13532752506E+04  0.22466318267E+04  0.17933211260E+04 0.  0.
        1    1    3    3  502    0 -0.29645356725E+03 -0.80272695883E+03  0.34107831690E+03  0.92118928905E+03  0.50400001928E-02 0.  1.
       -1    1    3    3    0  502  0.29645356725E+03  0.80272695883E+03  0.10121969337E+04  0.13254425376E+04  0.50400001928E-02 0. -1.
</event>
<event>
 5   0  0.3983176E-05  0.1798809E+04  0.7818609E-02  0.8706933E-01
        2   -1    0    0  501    0  0.00000000000E+00  0.00000000000E+00  0.11338347990E+04  0.11338347990E+04  0.25500000920E-02 0. -1.
       -2   -1    0    0    0  501  0.00000000000E+00  0.00000000000E+00 -0.71344465302E+03  0.71344465303E+03  0.25500000920E-02 0.  1.
    10030    2    1    2    0    0  0.00000000000E+00  0.00000000000E+00  0.42039014597E+03  0.18472794520E+04  0.17988089112E+04 0.  0.
        3    1    3    3  502    0  0.65101567285E+03  0.61513634642E+03  0.29434345927E+03  0.94278959116E+03  0.10100000352E+00 0. -1.
       -3    1    3    3    0  502 -0.65101567285E+03 -0.61513634642E+03  0.12604668670E+03  0.90448986087E+03  0.10100000352E+00 0.  1.
</event>
<event>
 5   0  0.2038338E-05  0.1805349E+04  0.7818609E-02  0.8703460E-01
       -1   -1    0    0    0  501  0.00000000000E+00  0.00000000000E+00  0.10176679941E+04  0.10176679941E+04  0.50400001928E-02 0.  1.
        1   -1    0    0  501    0  0.00000000000E+00  0.00000000000E+00 -0.80067456205E+03  0.80067456207E+03  0.50400001928E-02 0. -1.
    10030    2    1    2    0    0  0.00000000000E+00  0.00000000000E+00  0.21699343201E+03  0.18183425562E+04  0.18053485818E+04 0.  0.
        1    1    3    3  502    0  0.37541059924E+03 -0.48768669666E+03 -0.55659647553E+03  0.82980182497E+03  0.50400001928E-02 0. -1.
       -1    1    3    3    0  502 -0.37541059924E+03  0.48768669666E+03  0.77358990755E+03  0.98854073118E+03  0.50400001928E-02 0.  1.
</event>
<event>
 5   0  0.1960300E-05  0.1798630E+04  0.7818609E-02  0.8707028E-01
       -1   -1    0    0    0  501  0.00000000000E+00  0.00000000000E+00  0.60488592990E+03  0.60488592993E+03  0.50400001928E-02 0.  1.
        1   -1    0    0  501    0  0.00000000000E+00  0.00000000000E+00 -0.13370577632E+04  0.13370577633E+04  0.50400001928E-02 0. -1.
    10030    2    1    2    0    0  0.00000000000E+00  0.00000000000E+00 -0.73217183334E+03  0.19419436932E+04  0.17986299547E+04 0.  0.
        3    1    3    3  502    0  0.19853950558E+03  0.45659461033E+03  0.44250013237E+03  0.66611031429E+03  0.10100000352E+00 0.  1.
       -3    1    3    3    0  502 -0.19853950558E+03 -0.45659461033E+03 -0.11746719657E+04  0.12758333789E+04  0.10100000352E+00 0. -1.
</event>
<event>
 5   0  0.3984648E-05  0.1799694E+04  0.7818609E-02  0.8706462E-01
        2   -1    0    0  501    0  0.00000000000E+00  0.00000000000E+00  0.80681402660E+03  0.80681402660E+03  0.25500000920E-02 0. -1.
       -2   -1    0    0    0  501  0.00000000000E+00  0.00000000000E+00 -0.10036070480E+04  0.10036070480E+04  0.25500000920E-02 0.  1.
    10030    2    1    2    0    0  0.00000000000E+00  0.00000000000E+00 -0.19679302137E+03  0.18104210746E+04  0.17996935778E+04 0.  0.
        1    1    3    3  502    0  0.23985623033E+03  0.71363953397E+03 -0.59419520465E+03  0.95910392394E+03  0.50400001928E-02 0.  1.
       -1    1    3    3    0  502 -0.23985623033E+03 -0.71363953397E+03  0.39740218328E+03  0.85131715064E+03  0.50400001928E-02 0. -1.
</event>
<event>
 5   0  0.2001811E-05  0.1799082E+04  0.7818609E-02  0.8706788E-01
       -1   -1    0    0    0  501  0.00000000000E+00  0.00000000000E+00  0.91204896039E+03  0.91204896041E+03  0.50400001928E-02 0.  1.
        1   -1    0    0  501    0  0.00000000000E+00  0.00000000000E+00 -0.88720469730E+03  0.88720469731E+03  0.50400001928E-02 0. -1.
    10030    2    1    2    0    0  0.00000000000E+00  0.00000000000E+00  0.24844263094E+02  0.17992536577E+04  0.17990821236E+04 0.  0.
        2    1    3    3  502    0  0.18927727010E+02 -0.62240692704E+03 -0.63681268416E+03  0.89066213369E+03  0.25500000920E-02 0. -1.
       -2    1    3    3    0  502 -0.18927727010E+02  0.62240692704E+03  0.66165694725E+03  0.90859152403E+03  0.25500000920E-02 0.  1.
</event>
<event>
 5   0  0.3984648E-05  0.1806651E+04  0.7818609E-02  0.8702771E-01
        2   -1    0    0  501    0  0.00000000000E+00  0.00000000000E+00  0.12818955558E+04  0.12818955558E+04  0.25500000920E-02 0.  1.
       -2   -1    0    0    0  501  0.00000000000E+00  0.00000000000E+00 -0.63655466672E+03  0.63655466673E+03  0.25500000920E-02 0. -1.
    10030    2    1    2    0    0  0.00000000000E+00  0.00000000000E+00  0.64534088907E+03  0.19184502225E+04  0.18066506007E+04 0.  0.
        1    1    3    3  502    0  0.39896055372E+03 -0.37111526698E+03 -0.44240119424E+03  0.70186528729E+03  0.50400001928E-02 0. -1.
       -1    1    3    3    0  502 -0.39896055372E+03  0.37111526698E+03  0.10877420833E+04  0.12165849352E+04  0.50400001928E-02 0.  1.
</event>
<event>
 5   0  0.1446750E-05  0.1798649E+04  0.7818609E-02  0.8707018E-01
       -4   -1    0    0    0  501  0.00000000000E+00  0.00000000000E+00  0.12836455141E+04  0.12836461423E+04  0.12699999809E+01 0. -1.
        4   -1    0    0  501    0  0.00000000000E+00  0.00000000000E+00 -0.63006696076E+03  0.63006824070E+03  0.12699999809E+01 0.  1.
    10030    2    1    2    0    0  0.00000000000E+00  0.00000000000E+00  0.65357855332E+03  0.19137143830E+04  0.17986488858E+04 0.  0.
        1    1    3    3  502    0  0.29853367130E+02 -0.41662971105E+03  0.11741776571E+04  0.12462602898E+04  0.50400001928E-02 0. -1.
       -1    1    3    3    0  502 -0.29853367130E+02  0.41662971105E+03 -0.52059910375E+03  0.66745409318E+03  0.50400001928E-02 0.  1.
</event>
<event>
 5   0  0.3993393E-05  0.1802051E+04  0.7818609E-02  0.8705210E-01
       -2   -1    0    0    0  501  0.00000000000E+00  0.00000000000E+00  0.30849356938E+03  0.30849356939E+03  0.25500000920E-02 0.  1.
        2   -1    0    0  501    0  0.00000000000E+00  0.00000000000E+00 -0.26316488065E+04  0.26316488065E+04  0.25500000920E-02 0. -1.
    10030    2    1    2    0    0  0.00000000000E+00  0.00000000000E+00 -0.23231552371E+04  0.29401423759E+04  0.18020507581E+04 0.  0.
        5    1    3    3  502    0  0.16170908000E+03  0.10363395630E+03  0.27468523980E+03  0.33520724100E+03  0.46999998093E+01 0.  1.
       -5    1    3    3    0  502 -0.16170908000E+03 -0.10363395630E+03 -0.25978404769E+04  0.26049351349E+04  0.46999998093E+01 0. -1.
</event>
<event>
 5   0  0.2054876E-05  0.1800190E+04  0.7818609E-02  0.8706199E-01
        1   -1    0    0  501    0  0.00000000000E+00  0.00000000000E+00  0.49306846605E+03  0.49306846608E+03  0.50400001928E-02 0.  1.
       -1   -1    0    0    0  501  0.00000000000E+00  0.00000000000E+00 -0.16431201882E+04  0.16431201882E+04  0.50400001928E-02 0. -1.
    10030    2    1    2    0    0  0.00000000000E+00  0.00000000000E+00 -0.11500517222E+04  0.21361886543E+04  0.18001897131E+04 0.  0.
        5    1    3    3  502    0  0.35568423074E+03  0.40030326702E+02 -0.15550226377E+04  0.15956914466E+04  0.46999998093E+01 0. -1.
       -5    1    3    3    0  502 -0.35568423074E+03 -0.40030326702E+02  0.40497091556E+03  0.54049720767E+03  0.46999998093E+01 0.  1.
</event>
<event>
 5   0  0.2038338E-05  0.1799485E+04  0.7818609E-02  0.8706574E-01
       -1   -1    0    0    0  501  0.00000000000E+00  0.00000000000E+00  0.11318904869E+04  0.11318904869E+04  0.50400001928E-02 0.  1.
        1   -1    0    0  501    0  0.00000000000E+00  0.00000000000E+00 -0.71520730264E+03  0.71520730266E+03  0.50400001928E-02 0. -1.
    10030    2    1    2    0    0  0.00000000000E+00  0.00000000000E+00  0.41668318425E+03  0.18470977896E+04  0.17994847508E+04 0.  0.
        1    1    3    3  502    0  0.47505076190E+03 -0.75437138741E+03  0.33316058103E+03  0.95170656681E+03  0.50400001928E-02 0.  1.
       -1    1    3    3    0  502 -0.47505076190E+03  0.75437138741E+03  0.83522603221E+02  0.89539122276E+03  0.50400001928E-02 0. -1.
</event>
<event>
 5   0  0.1960300E-05  0.1801705E+04  0.7818609E-02  0.8705394E-01
       -1   -1    0    0    0  501  0.00000000000E+00  0.00000000000E+00  0.12010219632E+04  0.12010219632E+04  0.50400001928E-02 0. -1.
        1   -1    0    0  501    0  0.00000000000E+00  0.00000000000E+00 -0.67570355938E+03  0.67570355940E+03  0.50400001928E-02 0.  1.
    10030    2    1    2    0    0  0.00000000000E+00  0.00000000000E+00  0.52531840383E+03  0.18767255226E+04  0.18017045434E+04 0.  0.
        3    1    3    3  502    0 -0.20922310703E+03  0.81417304277E+03 -0.74681874245E+02  0.84393687242E+03  0.10100000352E+00 0.  1.
       -3    1    3    3    0  502  0.20922310703E+03 -0.81417304277E+03  0.60000027808E+03  0.10327886502E+04  0.10100000352E+00 0. -1.
</event>
<event>
 5   0  0.1960300E-05  0.1805710E+04  0.7818609E-02  0.8703269E-01
        1   -1    0    0  501    0  0.00000000000E+00  0.00000000000E+00  0.19521744493E+04  0.19521744493E+04  0.50400001928E-02 0. -1.
       -1   -1    0    0    0  501  0.00000000000E+00  0.00000000000E+00 -0.41755877616E+03  0.41755877619E+03  0.50400001928E-02 0.  1.
    10030    2    1    2    0    0  0.00000000000E+00  0.00000000000E+00  0.15346156732E+04  0.23697332255E+04  0.18057104684E+04 0.  0.
        3    1    3    3  502    0 -0.36922699823E+03  0.21326606277E+03  0.18117120762E+04  0.18612124132E+04  0.10100000352E+00 0. -1.
       -3    1    3    3    0  502  0.36922699823E+03 -0.21326606277E+03 -0.27709640307E+03  0.50852081230E+03  0.10100000352E+00 0.  1.
</event>
<event>
 5   0  0.3984648E-05  0.1793185E+04  0.7818609E-02  0.8709932E-01
        2   -1    0    0  501    0  0.00000000000E+00  0.00000000000E+00  0.15582992372E+04  0.15582992372E+04  0.25500000920E-02 0. -1.
       -2   -1    0    0    0  501  0.00000000000E+00  0.00000000000E+00 -0.51586870943E+03  0.51586870944E+03  0.25500000920E-02 0.  1.
    10030    2    1    2    0    0  0.00000000000E+00  0.00000000000E+00  0.10424305278E+04  0.20741679466E+04  0.17931846714E+04 0.  0.
        1    1    3    3  502    0  0.80714608479E+03  0.11827322642E+03  0.90892876728E+02  0.82081354359E+03  0.50400001928E-02 0.  1.
       -1    1    3    3    0  502 -0.80714608479E+03 -0.11827322642E+03  0.95153765103E+03  0.12533544030E+04  0.50400001928E-02 0. -1.
</event>
<event>
 5   0  0.1906857E-05  0.1798436E+04  0.7818609E-02  0.8707131E-01
        1   -1    0    0  501    0  0.00000000000E+00  0.00000000000E+00  0.14793127097E+04  0.14793127097E+04  0.50400001928E-02 0. -1.
       -1   -1    0    0    0  501  0.00000000000E+00  0.00000000000E+00 -0.54660072913E+03  0.54660072915E+03  0.50400001928E-02 0.  1.
    10030    2    1    2    0    0  0.00000000000E+00  0.00000000000E+00  0.93271198053E+03  0.20259134388E+04  0.17984364384E+04 0.  0.
        4    1    3    3  502    0  0.12881086089E+03 -0.45131108480E+03 -0.39767995127E+03  0.61516249048E+03  0.12699999809E+01 0.  1.
       -4    1    3    3    0  502 -0.12881086089E+03  0.45131108480E+03  0.13303919318E+04  0.14107509483E+04  0.12699999809E+01 0. -1.
</event>
<event>
 5   0  0.2038338E-05  0.1801788E+04  0.7818609E-02  0.8705349E-01
        1   -1    0    0  501    0  0.00000000000E+00  0.00000000000E+00  0.14633224550E+04  0.14633224550E+04  0.50400001928E-02 0. -1.
       -1   -1    0    0    0  501  0.00000000000E+00  0.00000000000E+00 -0.55463509815E+03  0.55463509817E+03  0.50400001928E-02 0.  1.
    10030    2    1    2    0    0  0.00000000000E+00  0.00000000000E+00  0.90868735687E+03  0.20179575532E+04  0.18017879936E+04 0.  0.
        1    1    3    3  502    0 -0.20486578788E+03  0.24906507798E+03 -0.48777208928E+03  0.58474354654E+03  0.50400001928E-02 0.  1.
       -1    1    3    3    0  502  0.20486578788E+03 -0.24906507798E+03  0.13964594462E+04  0.14332140067E+04  0.50400001928E-02 0. -1.
</event>
<event>
 5   0  0.4015729E-05  0.1802441E+04  0.7818609E-02  0.8705002E-01
        2   -1    0    0  501    0  0.00000000000E+00  0.00000000000E+00  0.20393019395E+04  0.20393019395E+04  0.25500000920E-02 0.  1.
       -2   -1    0    0    0  501  0.00000000000E+00  0.00000000000E+00 -0.39827285185E+03  0.39827285186E+03  0.25500000920E-02 0. -1.
    10030    2    1    2    0    0  0.00000000000E+00  0.00000000000E+00  0.16410290877E+04  0.24375747914E+04  0.18024412326E+04 0.  0.
        2    1    3    3  502    0 -0.41836152918E+03  0.25188142466E+03 -0.20383894428E+03  0.52917004487E+03  0.25500000920E-02 0. -1.
       -2    1    3    3    0  502  0.41836152918E+03 -0.25188142466E+03  0.18448680319E+04  0.19084047465E+04  0.25500000920E-02 0.  1.
</event>
<event>
 5   0  0.1960300E-05  0.1801961E+04  0.7818609E-02  0.8705257E-01
        1   -1    0    0  501    0  0.00000000000E+00  0.00000000000E+00  0.16957248065E+04  0.16957248065E+04  0.50400001928E-02 0.  1.
       -1   -1    0    0    0  501  0.00000000000E+00  0.00000000000E+00 -0.47871332435E+03  0.47871332437E+03  0.50400001928E-02 0. -1.
    10030    2    1    2    0    0  0.00000000000E+00  0.00000000000E+00  0.12170114822E+04  0.21744381309E+04  0.18019612197E+04 0.  0.
        3    1    3    3  502    0 -0.28984157559E+03  0.55899169537E+03 -0.16912847624E+03  0.65198489715E+03  0.10100000352E+00 0. -1.
       -3    1    3    3    0  502  0.28984157559E+03 -0.55899169537E+03  0.13861399584E+04  0.15224532337E+04  0.10100000352E+00 0.  1.
</event>
<event>
 5   0  0.3983176E-05  0.1799331E+04  0.7818609E-02  0.8706656E-01
        2   -1    0    0  501    0  0.00000000000E+00  0.00000000000E+00  0.11061122015E+04  0.11061122015E+04  0.25500000920E-02 0. -1.
       -2   -1    0    0    0  501  0.00000000000E+00  0.00000000000E+00 -0.73175002789E+03  0.73175002789E+03  0.25500000920E-02 0.  1.
    10030    2    1    2    0    0  0.00000000000E+00  0.00000000000E+00  0.37436217361E+03  0.18378622294E+04  0.17993305803E+04 0.  0.
        3    1    3    3  502    0 -0.46310014480E+03 -0.47466585004E+03 -0.43380882722E+03  0.79243897057E+03  0.10100000352E+00 0.  1.
       -3    1    3    3    0  502  0.46310014480E+03  0.47466585004E+03  0.80817100083E+03  0.10454232588E+04  0.10100000352E+00 0. -1.
</event>
<event>
 5   0  0.2038338E-05  0.1796449E+04  0.7818609E-02  0.8708190E-01
        1   -1    0    0  501    0  0.00000000000E+00  0.00000000000E+00  0.12378918701E+04  0.12378918701E+04  0.50400001928E-02 0.  1.
       -1   -1    0    0    0  501  0.00000000000E+00  0.00000000000E+00 -0.65175886859E+03  0.65175886861E+03  0.50400001928E-02 0. -1.
    10030    2    1    2    0    0  0.00000000000E+00  0.00000000000E+00  0.58613300155E+03  0.18896507388E+04  0.17964487243E+04 0.  0.
        1    1    3    3  502    0  0.26083240327E+03 -0.84831585777E+03  0.43856745049E+03  0.98995694138E+03  0.50400001928E-02 0.  1.
       -1    1    3    3    0  502 -0.26083240327E+03  0.84831585777E+03  0.14756555106E+03  0.89969379737E+03  0.50400001928E-02 0. -1.
</event>
<event>
 5   0  0.4015729E-05  0.1800216E+04  0.7818609E-02  0.8706185E-01
        2   -1    0    0  501    0  0.00000000000E+00  0.00000000000E+00  0.95205989006E+03  0.95205989006E+03  0.25500000920E-02 0.  1.
       -2   -1    0    0    0  501  0.00000000000E+00  0.00000000000E+00 -0.85099113301E+03  0.85099113302E+03  0.25500000920E-02 0. -1.
    10030    2    1    2    0    0  0.00000000000E+00  0.00000000000E+00  0.10106875704E+03  0.18030510231E+04  0.18002161254E+04 0.  0.
        2    1    3    3  502    0  0.72574428023E+03  0.47025013283E+03  0.30063659303E+03  0.91554481528E+03  0.25500000920E-02 0.  1.
       -2    1    3    3    0  502 -0.72574428023E+03 -0.47025013283E+03 -0.19956783598E+03  0.88750620780E+03  0.25500000920E-02 0. -1.
</event>
<event>
 5   0  0.2001811E-05  0.1798180E+04  0.7818609E-02  0.8707268E-01
        1   -1    0    0  501    0  0.00000000000E+00  0.00000000000E+00  0.74816034500E+03  0.74816034502E+03  0.50400001928E-02 0.  1.
       -1   -1    0    0    0  501  0.00000000000E+00  0.00000000000E+00 -0.10804679313E+04  0.10804679313E+04  0.50400001928E-02 0. -1.
    10030    2    1    2    0    0  0.00000000000E+00  0.00000000000E+00 -0.33230758632E+03  0.18286282763E+04  0.17981804807E+04 0.  0.
        2    1    3    3  502    0 -0.40417259741E+03  0.31713606489E+03  0.58419669347E+03  0.77795664971E+03  0.25500000920E-02 0.  1.
       -2    1    3    3    0  502  0.40417259741E+03 -0.31713606489E+03 -0.91650427979E+03  0.10506716266E+04  0.25500000920E-02 0. -1.
</event>
<event>
 5   0  0.3983176E-05  0.1800256E+04  0.7818609E-02  0.8706163E-01
        2   -1    0    0  501    0  0.00000000000E+00  0.00000000000E+00  0.16094926853E+04  0.16094926853E+04  0.25500000920E-02 0.  1.
       -2   -1    0    0    0  501  0.00000000000E+00  0.00000000000E+00 -0.50340749940E+03  0.50340749941E+03  0.25500000920E-02 0. -1.
    10030    2    1    2    0    0  0.00000000000E+00  0.00000000000E+00  0.11060851859E+04  0.21129001847E+04  0.18002563018E+04 0.  0.
        3    1    3    3  502    0 -0.65930054156E+03 -0.41627439914E+03  0.10808912373E+04  0.13327743457E+04  0.10100000352E+00 0. -1.
       -3    1    3    3    0  502  0.65930054156E+03  0.41627439914E+03  0.25193948620E+02  0.78012583903E+03  0.10100000352E+00 0.  1.
</event>
<event>
 5   0  0.3993393E-05  0.1806554E+04  0.7818609E-02  0.8702822E-01
       -2   -1    0    0    0  501  0.00000000000E+00  0.00000000000E+00  0.52656869672E+03  0.52656869672E+03  0.25500000920E-02 0. -1.
        2   -1    0    0  501    0  0.00000000000E+00  0.00000000000E+00 -0.15494834508E+04  0.15494834508E+04  0.25500000920E-02 0.  1.
    10030    2    1    2    0    0  0.00000000000E+00  0.00000000000E+00 -0.10229147541E+04  0.20760521475E+04  0.18065541578E+04 0.  0.
        5    1    3    3  502    0  0.60179406651E+03  0.66156916225E+03 -0.36583546486E+03  0.96627508106E+03  0.46999998093E+01 0. -1.
       -5    1    3    3    0  502 -0.60179406651E+03 -0.66156916225E+03 -0.65707928923E+03  0.11097770665E+04  0.46999998093E+01 0.  1.
</event>
<event>
 5   0  0.2001811E-05  0.1799893E+04  0.7818609E-02  0.8706356E-01
       -1   -1    0    0    0  501  0.00000000000E+00  0.00000000000E+00  0.11998842795E+04  0.11998842795E+04  0.50400001928E-02 0. -1.
        1   -1    0    0  501    0  0.00000000000E+00  0.00000000000E+00 -0.67498480849E+03  0.67498480851E+03  0.50400001928E-02 0.  1.
    10030    2    1    2    0    0  0.00000000000E+00  0.00000000000E+00  0.52489947096E+03  0.18748690880E+04  0.17998929530E+04 0.  0.
        2    1    3    3  502    0  0.51891897596E+03 -0.14006283237E+03 -0.48942752689E+03  0.72693452573E+03  0.25500000920E-02 0.  1.
       -2    1    3    3    0  502 -0.51891897596E+03  0.14006283237E+03  0.10143269979E+04  0.11479345622E+04  0.25500000920E-02 0. -1.
</event>
<event>
 5   0  0.3983176E-05  0.1796677E+04  0.7818609E-02  0.8708069E-01
       -2   -1    0    0    0  501  0.00000000000E+00  0.00000000000E+00  0.10666138500E+04  0.10666138500E+04  0.25500000920E-02 0.  1.
        2   -1    0    0  501    0  0.00000000000E+00  0.00000000000E+00 -0.75661112818E+03  0.75661112818E+03  0.25500000920E-02 0. -1.
    10030    2    1    2    0    0  0.00000000000E+00  0.00000000000E+00  0.31000272185E+03  0.18232249782E+04  0.17966768306E+04 0.  0.
        3    1    3    3  502    0 -0.33017320483E+03  0.83424807455E+03  0.10930596121E+03  0.90384290584E+03  0.10100000352E+00 0.  1.
       -3    1    3    3    0  502  0.33017320483E+03 -0.83424807455E+03  0.20069676064E+03  0.91938207238E+03  0.10100000352E+00 0. -1.
</event>
<event>
 5   0  0.3984648E-05  0.1800406E+04  0.7818609E-02  0.8706084E-01
        2   -1    0    0  501    0  0.00000000000E+00  0.00000000000E+00  0.25300407397E+04  0.25300407397E+04  0.25500000920E-02 0. -1.
       -2   -1    0    0    0  501  0.00000000000E+00  0.00000000000E+00 -0.32029728237E+03  0.32029728238E+03  0.25500000920E-02 0.  1.
    10030    2    1    2    0    0  0.00000000000E+00  0.00000000000E+00  0.22097434573E+04  0.28503380221E+04  0.18004057023E+04 0.  0.
        1    1    3    3  502    0  0.91471325947E+02  0.39424762891E+02 -0.31154623011E+03  0.32708159368E+03  0.50400001928E-02 0.  1.
       -1    1    3    3    0  502 -0.91471325947E+02 -0.39424762891E+02  0.25212896874E+04  0.25232564284E+04  0.50400001928E-02 0. -1.
</event>
<event>
 5   0  0.2054876E-05  0.1799732E+04  0.7818609E-02  0.8706442E-01
        1   -1    0    0  501    0  0.00000000000E+00  0.00000000000E+00  0.11193385811E+04  0.11193385812E+04  0.50400001928E-02 0.  1.
       -1   -1    0    0    0  501  0.00000000000E+00  0.00000000000E+00 -0.72342617658E+03  0.72342617660E+03  0.50400001928E-02 0. -1.
    10030    2    1    2    0    0  0.00000000000E+00  0.00000000000E+00  0.39591240456E+03  0.18427647578E+04  0.17997320135E+04 0.  0.
        5    1    3    3  502    0  0.58057472007E+03  0.47298232383E+03  0.70884293501E+03  0.10311448399E+04  0.46999998093E+01 0.  1.
       -5    1    3    3    0  502 -0.58057472007E+03 -0.47298232383E+03 -0.31293053045E+03  0.81161991790E+03  0.46999998093E+01 0. -1.
</event>
<event>
 5   0  0.3983176E-05  0.1801364E+04  0.7818609E-02  0.8705574E-01
       -2   -1    0    0    0  501  0.00000000000E+00  0.00000000000E+00  0.11922124693E+04  0.11922124693E+04  0.25500000920E-02 0.  1.
        2   -1    0    0  501    0  0.00000000000E+00  0.00000000000E+00 -0.68043918935E+03  0.68043918935E+03  0.25500000920E-02 0. -1.
    10030    2    1    2    0    0  0.00000000000E+00  0.00000000000E+00  0.51177327993E+03  0.18726516586E+04  0.18013640233E+04 0.  0.
        3    1    3    3  502    0 -0.13458914289E+03  0.92747281151E+02  0.11766653084E+04  0.11879636163E+04  0.10100000352E+00 0.  1.
       -3    1    3    3    0  502  0.13458914289E+03 -0.92747281151E+02 -0.66489202847E+03  0.68468804230E+03  0.10100000352E+00 0. -1.
</event>
<event>
 5   0  0.1906857E-05  0.1797040E+04  0.7818609E-02  0.8707875E-01
       -1   -1    0    0    0  501  0.00000000000E+00  0.00000000000E+00  0.23713863804E+04  0.23713863804E+04  0.50400001928E-02 0.  1.
        1   -1    0    0  501    0  0.00000000000E+00  0.00000000000E+00 -0.34044974093E+03  0.34044974097E+03  0.50400001928E-02 0. -1.
    10030    2    1    2    0    0  0.00000000000E+00  0.00000000000E+00  0.20309366395E+04  0.27118361214E+04  0.17970396533E+04 0.  0.
        4    1    3    3  502    0 -0.74253181312E+03 -0.33103086092E+03  0.43806628604E+03  0.92349261407E+03  0.12699999809E+01 0. -1.
       -4    1    3    3    0  502  0.74253181312E+03  0.33103086092E+03  0.15928703534E+04  0.17883435073E+04  0.12699999809E+01 0.  1.
</event>
<event>
 5   0  0.2038338E-05  0.1799468E+04  0.7818609E-02  0.8706582E-01
        1   -1    0    0  501    0  0.00000000000E+00  0.00000000000E+00  0.14652743175E+04  0.14652743175E+04  0.50400001928E-02 0.  1.
       -1   -1    0    0    0  501  0.00000000000E+00  0.00000000000E+00 -0.55247084511E+03  0.55247084513E+03  0.50400001928E-02 0. -1.
    10030    2    1    2    0    0  0.00000000000E+00  0.00000000000E+00  0.91280347239E+03  0.20177451626E+04  0.17994680776E+04 0.  0.
        1    1    3    3  502    0 -0.44691284872E+03  0.43842781816E+03  0.11809836442E+04  0.13366646603E+04  0.50400001928E-02 0.  1.
       -1    1    3    3    0  502  0.44691284872E+03 -0.43842781816E+03 -0.26818017185E+03  0.68108050235E+03  0.50400001928E-02 0. -1.
</event>
<event>
 5   0  0.1960300E-05  0.1798355E+04  0.7818609E-02  0.8707175E-01
        1   -1    0    0  501    0  0.00000000000E+00  0.00000000000E+00  0.13084338792E+04  0.13084338793E+04  0.50400001928E-02 0. -1.
       -1   -1    0    0    0  501  0.00000000000E+00  0.00000000000E+00 -0.61792976374E+03  0.61792976376E+03  0.50400001928E-02 0.  1.
    10030    2    1    2    0    0  0.00000000000E+00  0.00000000000E+00  0.69050411550E+03  0.19263636430E+04  0.17983550683E+04 0.  0.
        3    1    3    3  502    0 -0.34386438962E+02 -0.30556100619E+03 -0.55986113352E+03  0.63874443616E+03  0.10100000352E+00 0.  1.
       -3    1    3    3    0  502  0.34386438962E+02  0.30556100619E+03  0.12503652490E+04  0.12876192069E+04  0.10100000352E+00 0. -1.
</event>
<event>
 5   0  0.3909859E-05  0.1803281E+04  0.7818609E-02  0.8704557E-01
        2   -1    0    0  501    0  0.00000000000E+00  0.00000000000E+00  0.72134901561E+03  0.72134901562E+03  0.25500000920E-02 0.  1.
       -2   -1    0    0    0  501  0.00000000000E+00  0.00000000000E+00 -0.11269935658E+04  0.11269935658E+04  0.25500000920E-02 0. -1.
    10030    2    1    2    0    0  0.00000000000E+00  0.00000000000E+00 -0.40564455023E+03  0.18483425815E+04  0.18032811199E+04 0.  0.
        4    1    3    3  502    0  0.23969792584E+03  0.74716846275E+03  0.25239070304E+03  0.82426845582E+03  0.12699999809E+01 0.  1.
       -4    1    3    3    0  502 -0.23969792584E+03 -0.74716846275E+03 -0.65803525326E+03  0.10240741256E+04  0.12699999809E+01 0. -1.
</event>
<event>
 5   0  0.3909859E-05  0.1800083E+04  0.7818609E-02  0.8706255E-01
        2   -1    0    0  501    0  0.00000000000E+00  0.00000000000E+00  0.43125045407E+03  0.43125045408E+03  0.25500000920E-02 0. -1.
       -2   -1    0    0    0  501  0.00000000000E+00  0.00000000000E+00 -0.18784331116E+04  0.18784331116E+04  0.25500000920E-02 0.  1.
    10030    2    1    2    0    0  0.00000000000E+00  0.00000000000E+00 -0.14471826575E+04  0.23096835656E+04  0.18000834784E+04 0.  0.
        4    1    3    3  502    0  0.26564851860E+03  0.35763084477E+03  0.27985742219E+03  0.52610906305E+03  0.12699999809E+01 0. -1.
       -4    1    3    3    0  502 -0.26564851860E+03 -0.35763084477E+03 -0.17270400797E+04  0.17835745026E+04  0.12699999809E+01 0.  1.
</event>
<event>
 5   0  0.2001811E-05  0.1796023E+04  0.7818609E-02  0.8708417E-01
       -1   -1    0    0    0  501  0.00000000000E+00  0.00000000000E+00  0.41901743324E+03  0.41901743328E+03  0.50400001928E-02 0.  1.
        1   -1    0    0  501    0  0.00000000000E+00  0.00000000000E+00 -0.19245618734E+04  0.19245618734E+04  0.50400001928E-02 0. -1.
    10030    2    1    2    0    0  0.00000000000E+00  0.00000000000E+00 -0.15055444401E+04  0.23435793067E+04  0.17960233588E+04 0.  0.
        2    1    3    3  502    0 -0.42710224808E+03 -0.23801047005E+03  0.23009964065E+03  0.54038056849E+03  0.25500000920E-02 0.  1.
       -2    1    3    3    0  502  0.42710224808E+03  0.23801047005E+03 -0.17356440808E+04  0.18031987382E+04  0.25500000920E-02 0. -1.
</event>
<event>
 5   0  0.1960300E-05  0.1798518E+04  0.7818609E-02  0.8707088E-01
        1   -1    0    0  501    0  0.00000000000E+00  0.00000000000E+00  0.87539477147E+03  0.87539477149E+03  0.50400001928E-02 0. -1.
       -1   -1    0    0    0  501  0.00000000000E+00  0.00000000000E+00 -0.92377334964E+03  0.92377334965E+03  0.50400001928E-02 0.  1.
    10030    2    1    2    0    0  0.00000000000E+00  0.00000000000E+00 -0.48378578167E+02  0.17991681211E+04  0.17985175677E+04 0.  0.
        3    1    3    3  502    0  0.60617345259E+03  0.53798011496E+03  0.36556361543E+03  0.88910383299E+03  0.10100000352E+00 0. -1.
       -3    1    3    3    0  502 -0.60617345259E+03 -0.53798011496E+03 -0.41394219359E+03  0.91006428815E+03  0.10100000352E+00 0.  1.
</event>
<event>
 5   0  0.2054876E-05  0.1797817E+04  0.7818609E-02  0.8707461E-01
        1   -1    0    0  501    0  0.00000000000E+00  0.00000000000E+00  0.88672392869E+03  0.88672392871E+03  0.50400001928E-02 0. -1.
       -1   -1    0    0    0  501  0.00000000000E+00  0.00000000000E+00 -0.91126048918E+03  0.91126048920E+03  0.50400001928E-02 0.  1.
    10030    2    1    2    0    0  0.00000000000E+00  0.00000000000E+00 -0.24536560491E+02  0.17979844179E+04  0.17978169885E+04 0.  0.
        5    1    3    3  502    0 -0.69532518484E+03 -0.53489080140E+03  0.18378341459E+03  0.89631674958E+03  0.46999998093E+01 0. -1.
       -5    1    3    3    0  502  0.69532518484E+03  0.53489080140E+03 -0.20831997508E+03  0.90166766833E+03  0.46999998093E+01 0.  1.
</event>
<event>
 5   0  0.4015729E-05  0.1801219E+04  0.7818609E-02  0.8705652E-01
        2   -1    0    0  501    0  0.00000000000E+00  0.00000000000E+00  0.20112845605E+04  0.20112845605E+04  0.25500000920E-02 0.  1.
       -2   -1    0    0    0  501  0.00000000000E+00  0.00000000000E+00 -0.40327326920E+03  0.40327326920E+03  0.25500000920E-02 0. -1.
    10030    2    1    2    0    0  0.00000000000E+00  0.00000000000E+00  0.16080112913E+04  0.24145578297E+04  0.18012188096E+04 0.  0.
        2    1    3    3  502    0 -0.47393253624E+03  0.12704568602E+03  0.18163769391E+04  0.18814828833E+04  0.25500000920E-02 0.  1.
       -2    1    3    3    0  502  0.47393253624E+03 -0.12704568602E+03 -0.20836564784E+03  0.53307494637E+03  0.25500000920E-02 0. -1.
</event>
<event>
 5   0  0.3983176E-05  0.1801907E+04  0.7818609E-02  0.8705286E-01
       -2   -1    0    0    0  501  0.00000000000E+00  0.00000000000E+00  0.52479166857E+03  0.52479166857E+03  0.25500000920E-02 0. -1.
        2   -1    0    0  501    0  0.00000000000E+00  0.00000000000E+00 -0.15467421679E+04  0.15467421679E+04  0.25500000920E-02 0.  1.
    10030    2    1    2    0    0  0.00000000000E+00  0.00000000000E+00 -0.10219504993E+04  0.20715338364E+04  0.18019072153E+04 0.  0.
        3    1    3    3  502    0 -0.44441029558E+03 -0.11044016017E+03 -0.14029755772E+04  0.14758177463E+04  0.10100000352E+00 0.  1.
       -3    1    3    3    0  502  0.44441029558E+03  0.11044016017E+03  0.38102507795E+03  0.59571609012E+03  0.10100000352E+00 0. -1.
</event>
<event>
 5   0  0.3984648E-05  0.1799681E+04  0.7818609E-02  0.8706469E-01
        2   -1    0    0  501    0  0.00000000000E+00  0.00000000000E+00  0.10171312908E+04  0.10171312908E+04  0.25500000920E-02 0. -1.
       -2   -1    0    0    0  501  0.00000000000E+00  0.00000000000E+00 -0.79607523978E+03  0.79607523979E+03  0.25500000920E-02 0.  1.
    10030    2    1    2    0    0  0.00000000000E+00  0.00000000000E+00  0.22105605098E+03  0.18132065305E+04  0.17996811231E+04 0.  0.
        1    1    3    3  502    0  0.62970474438E+02  0.31394495153E+03  0.95779180280E+03  0.10098969506E+04  0.50400001928E-02 0. -1.
       -1    1    3    3    0  502 -0.62970474438E+02 -0.31394495153E+03 -0.73673575182E+03  0.80330957998E+03  0.50400001928E-02 0.  1.
</event>
<event>
 5   0  0.4015729E-05  0.1799282E+04  0.7818609E-02  0.8706682E-01
       -2   -1    0    0    0  501  0.00000000000E+00  0.00000000000E+00  0.93278550475E+03  0.93278550475E+03  0.25500000920E-02 0. -1.
        2   -1    0    0  501    0  0.00000000000E+00  0.00000000000E+00 -0.86767375986E+03  0.86767375987E+03  0.25500000920E-02 0.  1.
    10030    2    1    2    0    0  0.00000000000E+00  0.00000000000E+00  0.65111744889E+02  0.18004592646E+04  0.17992815300E+04 0.  0.
        2    1    3    3  502    0 -0.99310205513E+02  0.16217329186E+03  0.91244412711E+03  0.93204987990E+03  0.25500000920E-02 0. -1.
       -2    1    3    3    0  502  0.99310205513E+02 -0.16217329186E+03 -0.84733238222E+03  0.86840938472E+03  0.25500000920E-02 0.  1.
</event>
<event>
 5   0  0.3983176E-05  0.1800134E+04  0.7818609E-02  0.8706228E-01
       -2   -1    0    0    0  501  0.00000000000E+00  0.00000000000E+00  0.46255266043E+03  0.46255266044E+03  0.25500000920E-02 0. -1.
        2   -1    0    0  501    0  0.00000000000E+00  0.00000000000E+00 -0.17514126637E+04  0.17514126638E+04  0.25500000920E-02 0.  1.
    10030    2    1    2    0    0  0.00000000000E+00  0.00000000000E+00 -0.12888600033E+04  0.22139653242E+04  0.18001339807E+04 0.  0.
        3    1    3    3  502    0 -0.31753078792E+03 -0.65298888795E+03  0.97280318210E+01  0.72616453636E+03  0.10100000352E+00 0. -1.
       -3    1    3    3    0  502  0.31753078792E+03  0.65298888795E+03 -0.12985880351E+04  0.14878007878E+04  0.10100000352E+00 0.  1.
</event>
<event>
 5   0  0.1960300E-05  0.1798823E+04  0.7818609E-02  0.8706926E-01
        1   -1    0    0  501    0  0.00000000000E+00  0.00000000000E+00  0.79291944910E+03  0.79291944911E+03  0.50400001928E-02 0.  1.
       -1   -1    0    0    0  501  0.00000000000E+00  0.00000000000E+00 -0.10202057000E+04  0.10202057000E+04  0.50400001928E-02 0. -1.
    10030    2    1    2    0    0  0.00000000000E+00  0.00000000000E+00 -0.22728625094E+03  0.18131251492E+04  0.17988228836E+04 0.  0.
        3    1    3    3  502    0 -0.34344705337E+02  0.79277046678E+03 -0.54042001180E+03  0.96006164966E+03  0.10100000352E+00 0. -1.
       -3    1    3    3    0  502  0.34344705337E+02 -0.79277046678E+03  0.31313376086E+03  0.85306349950E+03  0.10100000352E+00 0.  1.
</event>
<event>
 5   0  0.3993393E-05  0.1804672E+04  0.7818609E-02  0.8703819E-01
       -2   -1    0    0    0  501  0.00000000000E+00  0.00000000000E+00  0.54362172045E+03  0.54362172046E+03  0.25500000920E-02 0.  1.
        2   -1    0    0  501    0  0.00000000000E+00  0.00000000000E+00 -0.14977507991E+04  0.14977507991E+04  0.25500000920E-02 0. -1.
    10030    2    1    2    0    0  0.00000000000E+00  0.00000000000E+00 -0.95412907864E+03  0.20413725196E+04  0.18046715670E+04 0.  0.
        5    1    3    3  502    0 -0.11416619612E+03 -0.72258980802E+03  0.12043842301E+03  0.74141584466E+03  0.46999998093E+01 0.  1.
       -5    1    3    3    0  502  0.11416619612E+03  0.72258980802E+03 -0.10745675016E+04  0.12999566749E+04  0.46999998093E+01 0. -1.
</event>
<event>
 5   0  0.2054876E-05  0.1799450E+04  0.7818609E-02  0.8706592E-01
       -1   -1    0    0    0  501  0.00000000000E+00  0.00000000000E+00  0.84964041201E+03  0.84964041202E+03  0.50400001928E-02 0. -1.
        1   -1    0    0  501    0  0.00000000000E+00  0.00000000000E+00 -0.95276239760E+03  0.95276239761E+03  0.50400001928E-02 0.  1.
    10030    2    1    2    0    0  0.00000000000E+00  0.00000000000E+00 -0.10312198559E+03  0.18024028096E+04  0.17994504006E+04 0.  0.
        5    1    3    3  502    0  0.44290995614E+02  0.73894294316E+03  0.46063402477E+03  0.87189687481E+03  0.46999998093E+01 0. -1.
       -5    1    3    3    0  502 -0.44290995614E+02 -0.73894294316E+03 -0.56375601036E+03  0.93050593483E+03  0.46999998093E+01 0.  1.
</event>
<event>
 5   0  0.1960300E-05  0.1795810E+04  0.7818609E-02  0.8708531E-01
       -1   -1    0    0    0  501  0.00000000000E+00  0.00000000000E+00  0.44145780522E+03  0.44145780525E+03  0.50400001928E-02 0. -1.
        1   -1    0    0  501    0  0.00000000000E+00  0.00000000000E+00 -0.18262972553E+04  0.18262972553E+04  0.50400001928E-02 0.  1.
    10030    2    1    2    0    0  0.00000000000E+00  0.00000000000E+00 -0.13848394501E+04  0.22677550605E+04  0.17958097650E+04 0.  0.
        3    1    3    3  502    0 -0.50546915165E+03 -0.61604037533E+03 -0.16987476274E+03  0.81477742514E+03  0.10100000352E+00 0. -1.
       -3    1    3    3    0  502  0.50546915165E+03  0.61604037533E+03 -0.12149646873E+04  0.14529776354E+04  0.10100000352E+00 0.  1.
</event>
<event>
 5   0  0.3983176E-05  0.1800179E+04  0.7818609E-02  0.8706204E-01
       -2   -1    0    0    0  501  0.00000000000E+00  0.00000000000E+00  0.46194271664E+03  0.46194271664E+03  0.25500000920E-02 0.  1.
        2   -1    0    0  501    0  0.00000000000E+00  0.00000000000E+00 -0.17538122699E+04  0.17538122699E+04  0.25500000920E-02 0. -1.
    10030    2    1    2    0    0  0.00000000000E+00  0.00000000000E+00 -0.12918695532E+04  0.22157549865E+04  0.18001786627E+04 0.  0.
        3    1    3    3  502    0 -0.14959611095E+03  0.49140935949E+02  0.44485847062E+03  0.47190348280E+03  0.10100000352E+00 0.  1.
       -3    1    3    3    0  502  0.14959611095E+03 -0.49140935949E+02 -0.17367280239E+04  0.17438515037E+04  0.10100000352E+00 0. -1.
</event>
<event>
 5   0  0.2038338E-05  0.1802164E+04  0.7818609E-02  0.8705150E-01
        1   -1    0    0  501    0  0.00000000000E+00  0.00000000000E+00  0.62176610477E+03  0.62176610479E+03  0.50400001928E-02 0.  1.
       -1   -1    0    0    0  501  0.00000000000E+00  0.00000000000E+00 -0.13058743041E+04  0.13058743041E+04  0.50400001928E-02 0. -1.
    10030    2    1    2    0    0  0.00000000000E+00  0.00000000000E+00 -0.68410819932E+03  0.19276404089E+04  0.18021635657E+04 0.  0.
        1    1    3    3  502    0  0.41357434194E+03 -0.79335423816E+03 -0.45672722968E+03  0.10045170212E+04  0.50400001928E-02 0.  1.
       -1    1    3    3    0  502 -0.41357434194E+03  0.79335423816E+03 -0.22738096964E+03  0.92312338769E+03  0.50400001928E-02 0. -1.
</event>
<event>
 5   0  0.1960300E-05  0.1796913E+04  0.7818609E-02  0.8707943E-01
       -1   -1    0    0    0  501  0.00000000000E+00  0.00000000000E+00  0.60534139241E+03  0.60534139243E+03  0.50400001928E-02 0.  1.
        1   -1    0    0  501    0  0.00000000000E+00  0.00000000000E+00 -0.13335026039E+04  0.13335026039E+04  0.50400001928E-02 0. -1.
    10030    2    1    2    0    0  0.00000000000E+00  0.00000000000E+00 -0.72816121146E+03  0.19388439963E+04  0.17969132678E+04 0.  0.
        3    1    3    3  502    0 -0.27507930715E+03 -0.84882570989E+03 -0.25065562439E+03  0.92682358798E+03  0.10100000352E+00 0. -1.
       -3    1    3    3    0  502  0.27507930715E+03  0.84882570989E+03 -0.47750558708E+03  0.10120204083E+04  0.10100000352E+00 0.  1.
</event>
<event>
 5   0  0.2001811E-05  0.1798836E+04  0.7818609E-02  0.8706919E-01
        1   -1    0    0  501    0  0.00000000000E+00  0.00000000000E+00  0.31326558648E+03  0.31326558652E+03  0.50400001928E-02 0.  1.
       -1   -1    0    0    0  501  0.00000000000E+00  0.00000000000E+00 -0.25823227644E+04  0.25823227644E+04  0.50400001928E-02 0. -1.
    10030    2    1    2    0    0  0.00000000000E+00  0.00000000000E+00 -0.22690571779E+04  0.28955883509E+04  0.17988361297E+04 0.  0.
        2    1    3    3  502    0  0.84205157439E+03  0.31114993545E+03 -0.10450819329E+04  0.13777014854E+04  0.25500000920E-02 0.  1.
       -2    1    3    3    0  502 -0.84205157439E+03 -0.31114993545E+03 -0.12239752450E+04  0.15178868656E+04  0.25500000920E-02 0. -1.
</event>
<event>
 5   0  0.2054876E-05  0.1798995E+04  0.7818609E-02  0.8706834E-01
        1   -1    0    0  501    0  0.00000000000E+00  0.00000000000E+00  0.57288381098E+03  0.57288381100E+03  0.50400001928E-02 0.  1.
       -1   -1    0    0    0  501  0.00000000000E+00  0.00000000000E+00 -0.14123206477E+04  0.14123206477E+04  0.50400001928E-02 0. -1.
    10030    2    1    2    0    0  0.00000000000E+00  0.00000000000E+00 -0.83943683674E+03  0.19852044587E+04  0.17989948694E+04 0.  0.
        5    1    3    3  502    0 -0.86970991625E+03 -0.10102991300E+03 -0.19230169630E+03  0.89643985528E+03  0.46999998093E+01 0.  1.
       -5    1    3    3    0  502  0.86970991625E+03  0.10102991300E+03 -0.64713514043E+03  0.10887646034E+04  0.46999998093E+01 0. -1.
</event>
<event>
 5   0  0.3909859E-05  0.1798622E+04  0.7818609E-02  0.8707032E-01
        2   -1    0    0  501    0  0.00000000000E+00  0.00000000000E+00  0.19401539350E+04  0.19401539350E+04  0.25500000920E-02 0. -1.
       -2   -1    0    0    0  501  0.00000000000E+00  0.00000000000E+00 -0.41685380061E+03  0.41685380062E+03  0.25500000920E-02 0.  1.
    10030    2    1    2    0    0  0.00000000000E+00  0.00000000000E+00  0.15233001344E+04  0.23570077357E+04  0.17986222968E+04 0.  0.
        4    1    3    3  502    0  0.48384419626E+03  0.13024903918E+03  0.17402767194E+04  0.18109761708E+04  0.12699999809E+01 0. -1.
       -4    1    3    3    0  502 -0.48384419626E+03 -0.13024903918E+03 -0.21697658495E+03  0.54603156481E+03  0.12699999809E+01 0.  1.
</event>
<event>
 5   0  0.3984648E-05  0.1798505E+04  0.7818609E-02  0.8707095E-01
       -2   -1    0    0    0  501  0.00000000000E+00  0.00000000000E+00  0.54940698152E+03  0.54940698153E+03  0.25500000920E-02 0. -1.
        2   -1    0    0  501    0  0.00000000000E+00  0.00000000000E+00 -0.14718693916E+04  0.14718693916E+04  0.25500000920E-02 0.  1.
    10030    2    1    2    0    0  0.00000000000E+00  0.00000000000E+00 -0.92246241007E+03  0.20212763731E+04  0.17985052901E+04 0.  0.
        1    1    3    3  502    0  0.21841438538E+03  0.76991921650E+03 -0.34412063182E+00  0.80030029497E+03  0.50400001928E-02 0. -1.
       -1    1    3    3    0  502 -0.21841438538E+03 -0.76991921650E+03 -0.92211828943E+03  0.12209760782E+04  0.50400001928E-02 0.  1.
</event>
<event>
 5   0  0.1906857E-05  0.1796863E+04  0.7818609E-02  0.8707969E-01
        1   -1    0    0  501    0  0.00000000000E+00  0.00000000000E+00  0.94385995239E+03  0.94385995240E+03  0.50400001928E-02 0. -1.
       -1   -1    0    0    0  501  0.00000000000E+00  0.00000000000E+00 -0.85518991539E+03  0.85518991540E+03  0.50400001928E-02 0.  1.
    10030    2    1    2    0    0  0.00000000000E+00  0.00000000000E+00  0.88670037001E+02  0.17990498678E+04  0.17968633925E+04 0.  0.
        4    1    3    3  502    0 -0.31458765474E+03  0.84138195632E+03  0.27316953202E+02  0.89868616200E+03  0.12699999809E+01 0. -1.
       -4    1    3    3    0  502  0.31458765474E+03 -0.84138195632E+03  0.61353083799E+02  0.90036370580E+03  0.12699999809E+01 0.  1.
</event>
<event>
 5   0  0.4015729E-05  0.1798580E+04  0.7818609E-02  0.8707055E-01
        2   -1    0    0  501    0  0.00000000000E+00  0.00000000000E+00  0.18440858358E+04  0.18440858358E+04  0.25500000920E-02 0. -1.
       -2   -1    0    0    0  501  0.00000000000E+00  0.00000000000E+00 -0.43854922361E+03  0.43854922362E+03  0.25500000920E-02 0.  1.
    10030    2    1    2    0    0  0.00000000000E+00  0.00000000000E+00  0.14055366122E+04  0.22826350594E+04  0.17985798971E+04 0.  0.
        2    1    3    3  502    0  0.25243075892E+03  0.86011172830E+03  0.79436532880E+03  0.11977185599E+04  0.25500000920E-02 0. -1.
       -2    1    3    3    0  502 -0.25243075892E+03 -0.86011172830E+03  0.61117128338E+03  0.10849164995E+04  0.25500000920E-02 0.  1.
</event>
<event>
 5   0  0.2054876E-05  0.1799873E+04  0.7818609E-02  0.8706367E-01
        1   -1    0    0  501    0  0.00000000000E+00  0.00000000000E+00  0.11426501758E+04  0.11426501758E+04  0.50400001928E-02 0.  1.
       -1   -1    0    0    0  501  0.00000000000E+00  0.00000000000E+00 -0.70877812123E+03  0.70877812124E+03  0.50400001928E-02 0. -1.
    10030    2    1    2    0    0  0.00000000000E+00  0.00000000000E+00  0.43387205459E+03  0.18514282971E+04  0.17998727120E+04 0.  0.
        5    1    3    3  502    0  0.44237239214E+03  0.70325916879E+03 -0.13879721775E+03  0.84235001601E+03  0.46999998093E+01 0. -1.
       -5    1    3    3    0  502 -0.44237239214E+03 -0.70325916879E+03  0.57266927234E+03  0.10090782811E+04  0.46999998093E+01 0.  1.
</event>
<event>
 5   0  0.4015729E-05  0.1795110E+04  0.7818609E-02  0.8708904E-01
       -2   -1    0    0    0  501  0.00000000000E+00  0.00000000000E+00  0.72818302722E+03  0.72818302722E+03  0.25500000920E-02 0.  1.
        2   -1    0    0  501    0  0.00000000000E+00  0.00000000000E+00 -0.11063219093E+04  0.11063219093E+04  0.25500000920E-02 0. -1.
    10030    2    1    2    0    0  0.00000000000E+00  0.00000000000E+00 -0.37813888212E+03  0.18345049366E+04  0.17951098429E+04 0.  0.
        2    1    3    3  502    0 -0.13004009692E+03  0.80434002281E+03 -0.57380391814E+03  0.99655618787E+03  0.25500000920E-02 0. -1.
       -2    1    3    3    0  502  0.13004009692E+03 -0.80434002281E+03  0.19566503602E+03  0.83794874869E+03  0.25500000920E-02 0.  1.
</event>
<event>
 5   0  0.1906857E-05  0.1802091E+04  0.7818609E-02  0.8705188E-01
       -1   -1    0    0    0  501  0.00000000000E+00  0.00000000000E+00  0.64507887615E+03  0.64507887617E+03  0.50400001928E-02 0. -1.
        1   -1    0    0  501    0  0.00000000000E+00  0.00000000000E+00 -0.12585789867E+04  0.12585789867E+04  0.50400001928E-02 0.  1.
    10030    2    1    2    0    0  0.00000000000E+00  0.00000000000E+00 -0.61350011051E+03  0.19036578628E+04  0.18020906950E+04 0.  0.
        4    1    3    3  502    0 -0.58840832593E+03 -0.19136828824E+02 -0.10273170392E+04  0.11840491917E+04  0.12699999809E+01 0.  1.
       -4    1    3    3    0  502  0.58840832593E+03  0.19136828824E+02  0.41381692873E+03  0.71960867119E+03  0.12699999809E+01 0. -1.
</event>
<event>
 5   0  0.1906857E-05  0.1799003E+04  0.7818609E-02  0.8706830E-01
        1   -1    0    0  501    0  0.00000000000E+00  0.00000000000E+00  0.87043303631E+03  0.87043303632E+03  0.50400001928E-02 0.  1.
       -1   -1    0    0    0  501  0.00000000000E+00  0.00000000000E+00 -0.92954023331E+03  0.92954023333E+03  0.50400001928E-02 0. -1.
    10030    2    1    2    0    0  0.00000000000E+00  0.00000000000E+00 -0.59107197002E+02  0.17999732697E+04  0.17990025322E+04 0.  0.
        4    1    3    3  502    0 -0.39917729772E+03  0.66659494324E+03  0.42391229687E+03  0.88509580369E+03  0.12699999809E+01 0.  1.
       -4    1    3    3    0  502  0.39917729772E+03 -0.66659494324E+03 -0.48301949387E+03  0.91487746596E+03  0.12699999809E+01 0. -1.
</event>
<event>
 5   0  0.2001811E-05  0.1793911E+04  0.7818609E-02  0.8709544E-01
        1   -1    0    0  501    0  0.00000000000E+00  0.00000000000E+00  0.16032045324E+04  0.16032045324E+04  0.50400001928E-02 0. -1.
       -1   -1    0    0    0  501  0.00000000000E+00  0.00000000000E+00 -0.50182550941E+03  0.50182550943E+03  0.50400001928E-02 0.  1.
    10030    2    1    2    0    0  0.00000000000E+00  0.00000000000E+00  0.11013790230E+04  0.21050300418E+04  0.17939107349E+04 0.  0.
        2    1    3    3  502    0 -0.40553259927E+03  0.28002400263E+03 -0.32872525439E+03  0.59239380820E+03  0.25500000920E-02 0.  1.
       -2    1    3    3    0  502  0.40553259927E+03 -0.28002400263E+03  0.14301042774E+04  0.15126362336E+04  0.25500000920E-02 0. -1.
</event>
<event>
 5   0  0.4015729E-05  0.1800271E+04  0.7818609E-02  0.8706156E-01
       -2   -1    0    0    0  501  0.00000000000E+00  0.00000000000E+00  0.36663877199E+03  0.36663877200E+03  0.25500000920E-02 0.  1.
        2   -1    0    0  501    0  0.00000000000E+00  0.00000000000E+00 -0.22099234193E+04  0.22099234193E+04  0.25500000920E-02 0. -1.
    10030    2    1    2    0    0  0.00000000000E+00  0.00000000000E+00 -0.18432846474E+04  0.25765621913E+04  0.18002706560E+04 0.  0.
        2    1    3    3  502    0  0.69613757059E+03  0.15160723764E+03 -0.13428091375E+03  0.72499905897E+03  0.25500000920E-02 0.  1.
       -2    1    3    3    0  502 -0.69613757059E+03 -0.15160723764E+03 -0.17090037336E+04  0.18515631324E+04  0.25500000920E-02 0. -1.
</event>
<event>
 5   0  0.1446750E-05  0.1792744E+04  0.7818609E-02  0.8710168E-01
       -3   -1    0    0    0  501  0.00000000000E+00  0.00000000000E+00  0.72419940242E+03  0.72419940947E+03  0.10100000352E+00 0. -1.
        3   -1    0    0  501    0  0.00000000000E+00  0.00000000000E+00 -0.11094766646E+04  0.11094766692E+04  0.10100000352E+00 0.  1.
    10030    2    1    2    0    0  0.00000000000E+00  0.00000000000E+00 -0.38527726215E+03  0.18336760786E+04  0.17927435379E+04 0.  0.
        2    1    3    3  502    0 -0.38902386456E+03 -0.60308627939E+03  0.35668016339E+03  0.80141959456E+03  0.25500000920E-02 0. -1.
       -2    1    3    3    0  502  0.38902386456E+03  0.60308627939E+03 -0.74195742555E+03  0.10322564841E+04  0.25500000920E-02 0.  1.
</event>
<event>
 5   0  0.3993393E-05  0.1763801E+04  0.7818609E-02  0.8725790E-01
       -2   -1    0    0    0  501  0.00000000000E+00  0.00000000000E+00  0.94213520643E+03  0.94213520644E+03  0.25500000920E-02 0.  1.
        2   -1    0    0  501    0  0.00000000000E+00  0.00000000000E+00 -0.82551684799E+03  0.82551684800E+03  0.25500000920E-02 0. -1.
    10030    2    1    2    0    0  0.00000000000E+00  0.00000000000E+00  0.11661835844E+03  0.17676520544E+04  0.17638009933E+04 0.  0.
        5    1    3    3  502    0 -0.48868950628E+03  0.36656326254E+03 -0.57911438655E+03  0.84177290388E+03  0.46999998093E+01 0. -1.
       -5    1    3    3    0  502  0.48868950628E+03 -0.36656326254E+03  0.69573274499E+03  0.92587915056E+03  0.46999998093E+01 0.  1.
</event>
<event>
 5   0  0.3993393E-05  0.1799958E+04  0.7818609E-02  0.8706322E-01
        2   -1    0    0  501    0  0.00000000000E+00  0.00000000000E+00  0.18816151620E+04  0.18816151620E+04  0.25500000920E-02 0. -1.
       -2   -1    0    0    0  501  0.00000000000E+00  0.00000000000E+00 -0.43046106208E+03  0.43046106209E+03  0.25500000920E-02 0.  1.
    10030    2    1    2    0    0  0.00000000000E+00  0.00000000000E+00  0.14511540999E+04  0.23120762241E+04  0.17999578451E+04 0.  0.
        5    1    3    3  502    0 -0.41702635986E+03 -0.79602659161E+03  0.78811932694E+03  0.11952922165E+04  0.46999998093E+01 0.  1.
       -5    1    3    3    0  502  0.41702635986E+03  0.79602659161E+03  0.66303477296E+03  0.11167840076E+04  0.46999998093E+01 0. -1.
</event>
<event>
 5   0  0.3909859E-05  0.1797982E+04  0.7818609E-02  0.8707373E-01
        2   -1    0    0  501    0  0.00000000000E+00  0.00000000000E+00  0.17984077640E+04  0.17984077640E+04  0.25500000920E-02 0.  1.
       -2   -1    0    0    0  501  0.00000000000E+00  0.00000000000E+00 -0.44938923282E+03  0.44938923283E+03  0.25500000920E-02 0. -1.
    10030    2    1    2    0    0  0.00000000000E+00  0.00000000000E+00  0.13490185312E+04  0.22477969968E+04  0.17979822973E+04 0.  0.
        4    1    3    3  502    0 -0.67663222845E+03 -0.15452523813E+03 -0.39816215083E+02  0.69519505585E+03  0.12699999809E+01 0. -1.
       -4    1    3    3    0  502  0.67663222845E+03  0.15452523813E+03  0.13888347462E+04  0.15526019410E+04  0.12699999809E+01 0.  1.
</event>
<event>
 5   0  0.1906857E-05  0.1799272E+04  0.7818609E-02  0.8706686E-01
        1   -1    0    0  501    0  0.00000000000E+00  0.00000000000E+00  0.15175649852E+04  0.15175649852E+04  0.50400001928E-02 0. -1.
       -1   -1    0    0    0  501  0.00000000000E+00  0.00000000000E+00 -0.53331843056E+03  0.53331843059E+03  0.50400001928E-02 0.  1.
    10030    2    1    2    0    0  0.00000000000E+00  0.00000000000E+00  0.98424655461E+03  0.20508834158E+04  0.17992724932E+04 0.  0.
        4    1    3    3  502    0 -0.63067848360E+03 -0.23824988207E+03 -0.18684797653E+03  0.69959426471E+03  0.12699999809E+01 0.  1.
       -4    1    3    3    0  502  0.63067848360E+03  0.23824988207E+03  0.11710945311E+04  0.13512891511E+04  0.12699999809E+01 0. -1.
</event>
<event>
 5   0  0.2001811E-05  0.1802820E+04  0.7818609E-02  0.8704802E-01
       -1   -1    0    0    0  501  0.00000000000E+00  0.00000000000E+00  0.68043056597E+03  0.68043056599E+03  0.50400001928E-02 0.  1.
        1   -1    0    0  501    0  0.00000000000E+00  0.00000000000E+00 -0.11941550398E+04  0.11941550398E+04  0.50400001928E-02 0. -1.
    10030    2    1    2    0    0  0.00000000000E+00  0.00000000000E+00 -0.51372447381E+03  0.18745856058E+04  0.18028195579E+04 0.  0.
        2    1    3    3  502    0 -0.70041226117E+03 -0.28116769484E+02 -0.84614217130E+03  0.10987831735E+04  0.25500000920E-02 0. -1.
       -2    1    3    3    0  502  0.70041226117E+03  0.28116769484E+02  0.33241769748E+03  0.77580243228E+03  0.25500000920E-02 0.  1.
</event>
<event>
 5   0  0.4015729E-05  0.1802860E+04  0.7818609E-02  0.8704780E-01
        2   -1    0    0  501    0  0.00000000000E+00  0.00000000000E+00  0.11882461416E+04  0.11882461416E+04  0.25500000920E-02 0.  1.
       -2   -1    0    0    0  501  0.00000000000E+00  0.00000000000E+00 -0.68384506324E+03  0.68384506325E+03  0.25500000920E-02 0. -1.
    10030    2    1    2    0    0  0.00000000000E+00  0.00000000000E+00  0.50440107831E+03  0.18720912048E+04  0.18028602362E+04 0.  0.
        2    1    3    3  502    0  0.84463656772E+03 -0.95453124842E+02  0.56381421728E+03  0.10200042658E+04  0.25500000920E-02 0.  1.
       -2    1    3    3    0  502 -0.84463656772E+03  0.95453124842E+02 -0.59413138973E+02  0.85208693903E+03  0.25500000920E-02 0. -1.
</event>
<event>
 5   0  0.2001811E-05  0.1799315E+04  0.7818609E-02  0.8706664E-01
       -1   -1    0    0    0  501  0.00000000000E+00  0.00000000000E+00  0.65926358376E+03  0.65926358378E+03  0.50400001928E-02 0. -1.
        1   -1    0    0  501    0  0.00000000000E+00  0.00000000000E+00 -0.12277088003E+04  0.12277088003E+04  0.50400001928E-02 0.  1.
    10030    2    1    2    0    0  0.00000000000E+00  0.00000000000E+00 -0.56844521650E+03  0.18869723841E+04  0.17993150958E+04 0.  0.
        2    1    3    3  502    0  0.55294524387E+03 -0.59756581560E+03 -0.68569137208E+03  0.10644275478E+04  0.25500000920E-02 0.  1.
       -2    1    3    3    0  502 -0.55294524387E+03  0.59756581560E+03  0.11724615559E+03  0.82254483629E+03  0.25500000920E-02 0. -1.
</event>
<event>
 5   0  0.3983176E-05  0.1799048E+04  0.7818609E-02  0.8706806E-01
       -2   -1    0    0    0  501  0.00000000000E+00  0.00000000000E+00  0.16167601514E+04  0.16167601514E+04  0.25500000920E-02 0.  1.
        2   -1    0    0  501    0  0.00000000000E+00  0.00000000000E+00 -0.50047205360E+03  0.50047205361E+03  0.25500000920E-02 0. -1.
    10030    2    1    2    0    0  0.00000000000E+00  0.00000000000E+00  0.11162880978E+04  0.21172322050E+04  0.17990478295E+04 0.  0.
        3    1    3    3  502    0 -0.67874634670E+03 -0.56770434431E+03  0.74848475642E+03  0.11589712104E+04  0.10100000352E+00 0.  1.
       -3    1    3    3    0  502  0.67874634670E+03  0.56770434431E+03  0.36780334140E+03  0.95826099465E+03  0.10100000352E+00 0. -1.
</event>
<event>
 5   0  0.3993393E-05  0.1796783E+04  0.7818609E-02  0.8708012E-01
       -2   -1    0    0    0  501  0.00000000000E+00  0.00000000000E+00  0.42637858396E+03  0.42637858396E+03  0.25500000920E-02 0. -1.
        2   -1    0    0  501    0  0.00000000000E+00  0.00000000000E+00 -0.18929355120E+04  0.18929355120E+04  0.25500000920E-02 0.  1.
    10030    2    1    2    0    0  0.00000000000E+00  0.00000000000E+00 -0.14665569280E+04  0.23193140959E+04  0.17967828618E+04 0.  0.
        5    1    3    3  502    0 -0.14643975738E+03 -0.76114924063E+03 -0.13195590108E+04  0.15303760459E+04  0.46999998093E+01 0.  1.
       -5    1    3    3    0  502  0.14643975738E+03  0.76114924063E+03 -0.14699791723E+03  0.78893804999E+03  0.46999998093E+01 0. -1.
</event>
<event>
 5   0  0.2054876E-05  0.1800526E+04  0.7818609E-02  0.8706020E-01
        1   -1    0    0  501    0  0.00000000000E+00  0.00000000000E+00  0.48298639645E+03  0.48298639647E+03  0.50400001928E-02 0.  1.
       -1   -1    0    0    0  501  0.00000000000E+00  0.00000000000E+00 -0.16780468443E+04  0.16780468443E+04  0.50400001928E-02 0. -1.
    10030    2    1    2    0    0  0.00000000000E+00  0.00000000000E+00 -0.11950604479E+04  0.21610332408E+04  0.18005263658E+04 0.  0.
        5    1    3    3  502    0  0.12677488711E+03 -0.26069182763E+03 -0.16204833668E+04  0.16462139998E+04  0.46999998093E+01 0. -1.
       -5    1    3    3    0  502 -0.12677488711E+03  0.26069182763E+03  0.42542291892E+03  0.51481924103E+03  0.46999998093E+01 0.  1.
</event>
<event>
 5   0  0.1960300E-05  0.1796507E+04  0.7818609E-02  0.8708159E-01
        1   -1    0    0  501    0  0.00000000000E+00  0.00000000000E+00  0.14413142636E+04  0.14413142637E+04  0.50400001928E-02 0. -1.
       -1   -1    0    0    0  501  0.00000000000E+00  0.00000000000E+00 -0.55980784476E+03  0.55980784478E+03  0.50400001928E-02 0.  1.
    10030    2    1    2    0    0  0.00000000000E+00  0.00000000000E+00  0.88150641889E+03  0.20011221084E+04  0.17965066452E+04 0.  0.
        3    1    3    3  502    0 -0.74461176689E+03 -0.26642138751E+03 -0.33709063317E+02  0.79155754704E+03  0.10100000352E+00 0.  1.
       -3    1    3    3    0  502  0.74461176689E+03  0.26642138751E+03  0.91521548220E+03  0.12095645614E+04  0.10100000352E+00 0. -1.
</event>
<event>
 5   0  0.3983176E-05  0.1799662E+04  0.7818609E-02  0.8706479E-01
        2   -1    0    0  501    0  0.00000000000E+00  0.00000000000E+00  0.18187554963E+04  0.18187554963E+04  0.25500000920E-02 0.  1.
       -2   -1    0    0    0  501  0.00000000000E+00  0.00000000000E+00 -0.44519225336E+03  0.44519225337E+03  0.25500000920E-02 0. -1.
    10030    2    1    2    0    0  0.00000000000E+00  0.00000000000E+00  0.13735632429E+04  0.22639477496E+04  0.17996620324E+04 0.  0.
        3    1    3    3  502    0  0.58355439850E+03  0.67116938419E+03  0.85877061301E+03  0.12363215821E+04  0.10100000352E+00 0.  1.
       -3    1    3    3    0  502 -0.58355439850E+03 -0.67116938419E+03  0.51479262989E+03  0.10276261676E+04  0.10100000352E+00 0. -1.
</event>
<event>
 5   0  0.3984648E-05  0.1798088E+04  0.7818609E-02  0.8707317E-01
        2   -1    0    0  501    0  0.00000000000E+00  0.00000000000E+00  0.12056685988E+04  0.12056685988E+04  0.25500000920E-02 0.  1.
       -2   -1    0    0    0  501  0.00000000000E+00  0.00000000000E+00 -0.67039965788E+03  0.67039965788E+03  0.25500000920E-02 0. -1.
    10030    2    1    2    0    0  0.00000000000E+00  0.00000000000E+00  0.53526894096E+03  0.18760682567E+04  0.17980876688E+04 0.  0.
        1    1    3    3  502    0  0.77465664198E+03  0.44102328698E+03  0.38969238398E+03  0.97285898607E+03  0.50400001928E-02 0.  1.
       -1    1    3    3    0  502 -0.77465664198E+03 -0.44102328698E+03  0.14557655698E+03  0.90320927065E+03  0.50400001928E-02 0. -1.
</event>
<event>
 5   0  0.3984648E-05  0.1805791E+04  0.7818609E-02  0.8703226E-01
        2   -1    0    0  501    0  0.00000000000E+00  0.00000000000E+00  0.96727303400E+03  0.96727303400E+03  0.25500000920E-02 0. -1.
       -2   -1    0    0    0  501  0.00000000000E+00  0.00000000000E+00 -0.84280250231E+03  0.84280250232E+03  0.25500000920E-02 0.  1.
    10030    2    1    2    0    0  0.00000000000E+00  0.00000000000E+00  0.12447053169E+03  0.18100755363E+04  0.18057908334E+04 0.  0.
        1    1    3    3  502    0  0.44698601842E+03 -0.74104885239E+03 -0.19580560414E+03  0.88729348974E+03  0.50400001928E-02 0.  1.
       -1    1    3    3    0  502 -0.44698601842E+03  0.74104885239E+03  0.32027613582E+03  0.92278204658E+03  0.50400001928E-02 0. -1.
</event>
<event>
 5   0  0.4015729E-05  0.1797963E+04  0.7818609E-02  0.8707383E-01
       -2   -1    0    0    0  501  0.00000000000E+00  0.00000000000E+00  0.25694400287E+03  0.25694400289E+03  0.25500000920E-02 0.  1.
        2   -1    0    0  501    0  0.00000000000E+00  0.00000000000E+00 -0.31453070754E+04  0.31453070754E+04  0.25500000920E-02 0. -1.
    10030    2    1    2    0    0  0.00000000000E+00  0.00000000000E+00 -0.28883630726E+04  0.34022510783E+04  0.17979630589E+04 0.  0.
        2    1    3    3  502    0 -0.49602012198E+03  0.13859491097E+03 -0.28384770431E+04  0.28848217337E+04  0.25500000920E-02 0. -1.
       -2    1    3    3    0  502  0.49602012198E+03 -0.13859491097E+03 -0.49886029441E+02  0.51742934464E+03  0.25500000920E-02 0.  1.
</event>
<event>
 5   0  0.2038338E-05  0.1800586E+04  0.7818609E-02  0.8705988E-01
       -1   -1    0    0    0  501  0.00000000000E+00  0.00000000000E+00  0.53618063306E+03  0.53618063308E+03  0.50400001928E-02 0.  1.
        1   -1    0    0  501    0  0.00000000000E+00  0.00000000000E+00 -0.15116684368E+04  0.15116684369E+04  0.50400001928E-02 0. -1.
    10030    2    1    2    0    0  0.00000000000E+00  0.00000000000E+00 -0.97548780379E+03  0.20478490699E+04  0.18005858374E+04 0.  0.
        1    1    3    3  502    0 -0.67868679693E+03 -0.38218335181E+03  0.25751742379E+02  0.77932216380E+03  0.50400001928E-02 0.  1.
       -1    1    3    3    0  502  0.67868679693E+03  0.38218335181E+03 -0.10012395462E+04  0.12685269061E+04  0.50400001928E-02 0. -1.
</event>
<event>
 5   0  0.3984648E-05  0.1801427E+04  0.7818609E-02  0.8705541E-01
        2   -1    0    0  501    0  0.00000000000E+00  0.00000000000E+00  0.16764730578E+04  0.16764730578E+04  0.25500000920E-02 0. -1.
       -2   -1    0    0    0  501  0.00000000000E+00  0.00000000000E+00 -0.48392355326E+03  0.48392355326E+03  0.25500000920E-02 0.  1.
    10030    2    1    2    0    0  0.00000000000E+00  0.00000000000E+00  0.11925495046E+04  0.21603966111E+04  0.18014269889E+04 0.  0.
        1    1    3    3  502    0  0.72934391191E+03 -0.45378133742E+03  0.27130863950E+03  0.90081542056E+03  0.50400001928E-02 0.  1.
       -1    1    3    3    0  502 -0.72934391191E+03  0.45378133742E+03  0.92124086508E+03  0.12595811905E+04  0.50400001928E-02 0. -1.
</event>
<event>
 5   0  0.3909859E-05  0.1798762E+04  0.7818609E-02  0.8706958E-01
       -2   -1    0    0    0  501  0.00000000000E+00  0.00000000000E+00  0.99049501100E+03  0.99049501100E+03  0.25500000920E-02 0.  1.
        2   -1    0    0  501    0  0.00000000000E+00  0.00000000000E+00 -0.81664818725E+03  0.81664818726E+03  0.25500000920E-02 0. -1.
    10030    2    1    2    0    0  0.00000000000E+00  0.00000000000E+00  0.17384682375E+03  0.18071431983E+04  0.17987617466E+04 0.  0.
        4    1    3    3  502    0  0.86384820928E+03  0.21363428727E+03 -0.44110561352E+02  0.89096615642E+03  0.12699999809E+01 0.  1.
       -4    1    3    3    0  502 -0.86384820928E+03 -0.21363428727E+03  0.21795738510E+03  0.91617704184E+03  0.12699999809E+01 0. -1.
</event>
<event>
 5   0  0.3983176E-05  0.1799083E+04  0.7818609E-02  0.8706787E-01
        2   -1    0    0  501    0  0.00000000000E+00  0.00000000000E+00  0.15764005376E+04  0.15764005376E+04  0.25500000920E-02 0.  1.
       -2   -1    0    0    0  501  0.00000000000E+00  0.00000000000E+00 -0.51330544239E+03  0.51330544239E+03  0.25500000920E-02 0. -1.
    10030    2    1    2    0    0  0.00000000000E+00  0.00000000000E+00  0.10630950952E+04  0.20897059799E+04  0.17990830724E+04 0.  0.
        3    1    3    3  502    0 -0.63620121309E+03  0.55003461151E+03  0.90230415235E+03  0.12334678151E+04  0.10100000352E+00 0. -1.
       -3    1    3    3    0  502  0.63620121309E+03 -0.55003461151E+03  0.16079094281E+03  0.85623816482E+03  0.10100000352E+00 0.  1.
</event>
<event>
 5   0  0.2054876E-05  0.1801286E+04  0.7818609E-02  0.8705616E-01
        1   -1    0    0  501    0  0.00000000000E+00  0.00000000000E+00  0.11202527722E+04  0.11202527722E+04  0.50400001928E-02 0.  1.
       -1   -1    0    0    0  501  0.00000000000E+00  0.00000000000E+00 -0.72408432059E+03  0.72408432061E+03  0.50400001928E-02 0. -1.
    10030    2    1    2    0    0  0.00000000000E+00  0.00000000000E+00  0.39616845160E+03  0.18443370928E+04  0.18012856158E+04 0.  0.
        5    1    3    3  502    0 -0.18198311067E+03  0.19700537151E+03 -0.68223579999E+03  0.73307349274E+03  0.46999998093E+01 0. -1.
       -5    1    3    3    0  502  0.18198311067E+03 -0.19700537151E+03  0.10784042516E+04  0.11112636001E+04  0.46999998093E+01 0.  1.
</event>
<event>
 5   0  0.2001811E-05  0.1801220E+04  0.7818609E-02  0.8705651E-01
        1   -1    0    0  501    0  0.00000000000E+00  0.00000000000E+00  0.52993611891E+03  0.52993611894E+03  0.50400001928E-02 0. -1.
       -1   -1    0    0    0  501  0.00000000000E+00  0.00000000000E+00 -0.15305592023E+04  0.15305592023E+04  0.50400001928E-02 0.  1.
    10030    2    1    2    0    0  0.00000000000E+00  0.00000000000E+00 -0.10006230834E+04  0.20604953213E+04  0.18012202569E+04 0.  0.
        2    1    3    3  502    0 -0.38585661230E+03 -0.15336614416E+03 -0.14145312593E+04  0.14742134117E+04  0.25500000920E-02 0.  1.
       -2    1    3    3    0  502  0.38585661230E+03  0.15336614416E+03  0.41390817593E+03  0.58628190961E+03  0.25500000920E-02 0. -1.
</event>
<event>
 5   0  0.3984648E-05  0.1798772E+04  0.7818609E-02  0.8706953E-01
        2   -1    0    0  501    0  0.00000000000E+00  0.00000000000E+00  0.10489757467E+04  0.10489757467E+04  0.25500000920E-02 0.  1.
       -2   -1    0    0    0  501  0.00000000000E+00  0.00000000000E+00 -0.77112847307E+03  0.77112847307E+03  0.25500000920E-02 0. -1.
    10030    2    1    2    0    0  0.00000000000E+00  0.00000000000E+00  0.27784727360E+03  0.18201042197E+04  0.17987718764E+04 0.  0.
        1    1    3    3  502    0  0.18002311100E+03  0.88104275977E+03  0.15493535691E+03  0.91249637253E+03  0.50400001928E-02 0.  1.
       -1    1    3    3    0  502 -0.18002311100E+03 -0.88104275977E+03  0.12291191669E+03  0.90760784722E+03  0.50400001928E-02 0. -1.
</event>
<event>
 5   0  0.3909859E-05  0.1804490E+04  0.7818609E-02  0.8703915E-01
       -2   -1    0    0    0  501  0.00000000000E+00  0.00000000000E+00  0.35224639490E+03  0.35224639491E+03  0.25500000920E-02 0. -1.
        2   -1    0    0  501    0  0.00000000000E+00  0.00000000000E+00 -0.23110130094E+04  0.23110130094E+04  0.25500000920E-02 0.  1.
    10030    2    1    2    0    0  0.00000000000E+00  0.00000000000E+00 -0.19587666145E+04  0.26632594043E+04  0.18044899569E+04 0.  0.
        4    1    3    3  502    0 -0.65908625313E+03 -0.10832116818E+03 -0.84155694134E+02  0.67321018879E+03  0.12699999809E+01 0. -1.
       -4    1    3    3    0  502  0.65908625313E+03  0.10832116818E+03 -0.18746109204E+04  0.19900492155E+04  0.12699999809E+01 0.  1.
</event>
<event>
 5   0  0.3983176E-05  0.1800970E+04  0.7818609E-02  0.8705784E-01
       -2   -1    0    0    0  501  0.00000000000E+00  0.00000000000E+00  0.99709150918E+03  0.99709150919E+03  0.25500000920E-02 0.  1.
        2   -1    0    0  501    0  0.00000000000E+00  0.00000000000E+00 -0.81323881265E+03  0.81323881265E+03  0.25500000920E-02 0. -1.
    10030    2    1    2    0    0  0.00000000000E+00  0.00000000000E+00  0.18385269654E+03  0.18103303218E+04  0.18009703107E+04 0.  0.
        3    1    3    3  502    0 -0.79673857415E+03 -0.41030706692E+03  0.35532189075E+01  0.89619020318E+03  0.10100000352E+00 0. -1.
       -3    1    3    3    0  502  0.79673857415E+03  0.41030706692E+03  0.18029947763E+03  0.91414011866E+03  0.10100000352E+00 0.  1.
</event>
<event>
 5   0  0.2038338E-05  0.1799941E+04  0.7818609E-02  0.8706331E-01
        1   -1    0    0  501    0  0.00000000000E+00  0.00000000000E+00  0.11138861284E+04  0.11138861284E+04  0.50400001928E-02 0. -1.
       -1   -1    0    0    0  501  0.00000000000E+00  0.00000000000E+00 -0.72713626482E+03  0.72713626483E+03  0.50400001928E-02 0.  1.
    10030    2    1    2    0    0  0.00000000000E+00  0.00000000000E+00  0.38674986358E+03  0.18410223932E+04  0.17999411089E+04 0.  0.
        1    1    3    3  502    0 -0.64350259820E+03 -0.57180162335E+03  0.46184288255E+03  0.97690917619E+03  0.50400001928E-02 0. -1.
       -1    1    3    3    0  502  0.64350259820E+03  0.57180162335E+03 -0.75093018969E+02  0.86411321705E+03  0.50400001928E-02 0.  1.
</event>
<event>
 5   0  0.4015729E-05  0.1799824E+04  0.7818609E-02  0.8706393E-01
       -2   -1    0    0    0  501  0.00000000000E+00  0.00000000000E+00  0.11207061799E+04  0.11207061799E+04  0.25500000920E-02 0. -1.
        2   -1    0    0  501    0  0.00000000000E+00  0.00000000000E+00 -0.72261725079E+03  0.72261725080E+03  0.25500000920E-02 0.  1.
    10030    2    1    2    0    0  0.00000000000E+00  0.00000000000E+00  0.39808892913E+03  0.18433234307E+04  0.17998240122E+04 0.  0.
        2    1    3    3  502    0  0.31871344769E+03  0.58690503546E+03 -0.41869640177E+03  0.78825278893E+03  0.25500000920E-02 0.  1.
       -2    1    3    3    0  502 -0.31871344769E+03 -0.58690503546E+03  0.81678533090E+03  0.10550706418E+04  0.25500000920E-02 0. -1.
</event>
<event>
 5   0  0.2038338E-05  0.1798547E+04  0.7818609E-02  0.8707073E-01
       -1   -1    0    0    0  501  0.00000000000E+00  0.00000000000E+00  0.82510052105E+03  0.82510052106E+03  0.50400001928E-02 0. -1.
        1   -1    0    0  501    0  0.00000000000E+00  0.00000000000E+00 -0.98011435803E+03  0.98011435804E+03  0.50400001928E-02 0.  1.
    10030    2    1    2    0    0  0.00000000000E+00  0.00000000000E+00 -0.15501383698E+03  0.18052148791E+04  0.17985470442E+04 0.  0.
        1    1    3    3  502    0  0.20757389037E+03  0.34931870838E+03 -0.88271695162E+03  0.97175084085E+03  0.50400001928E-02 0.  1.
       -1    1    3    3    0  502 -0.20757389037E+03 -0.34931870838E+03  0.72770311464E+03  0.83346403826E+03  0.50400001928E-02 0. -1.
</event>
<event>
 5   0  0.2001811E-05  0.1802711E+04  0.7818609E-02  0.8704859E-01
        1   -1    0    0  501    0  0.00000000000E+00  0.00000000000E+00  0.26058118619E+04  0.26058118619E+04  0.50400001928E-02 0. -1.
       -1   -1    0    0    0  501  0.00000000000E+00  0.00000000000E+00 -0.31178078598E+03  0.31178078603E+03  0.50400001928E-02 0.  1.
    10030    2    1    2    0    0  0.00000000000E+00  0.00000000000E+00  0.22940310759E+04  0.29175926480E+04  0.18027113696E+04 0.  0.
        2    1    3    3  502    0 -0.32839696515E+03  0.79498584658E+03  0.15830811456E+04  0.18016639467E+04  0.25500000920E-02 0. -1.
       -2    1    3    3    0  502  0.32839696515E+03 -0.79498584658E+03  0.71094993030E+03  0.11159287013E+04  0.25500000920E-02 0.  1.
</event>
<event>
 5   0  0.3993393E-05  0.1799688E+04  0.7818609E-02  0.8706465E-01
       -2   -1    0    0    0  501  0.00000000000E+00  0.00000000000E+00  0.45745675219E+03  0.45745675220E+03  0.25500000920E-02 0. -1.
        2   -1    0    0  501    0  0.00000000000E+00  0.00000000000E+00 -0.17700450767E+04  0.17700450767E+04  0.25500000920E-02 0.  1.
    10030    2    1    2    0    0  0.00000000000E+00  0.00000000000E+00 -0.13125883245E+04  0.22275018289E+04  0.17996878308E+04 0.  0.
        5    1    3    3  502    0  0.32853782211E+03  0.57167465588E+03  0.10159621362E+03  0.66715282608E+03  0.46999998093E+01 0.  1.
       -5    1    3    3    0  502 -0.32853782211E+03 -0.57167465588E+03 -0.14141845382E+04  0.15603490028E+04  0.46999998093E+01 0. -1.
</event>
<event>
 5   0  0.2038338E-05  0.1801730E+04  0.7818609E-02  0.8705380E-01
       -1   -1    0    0    0  501  0.00000000000E+00  0.00000000000E+00  0.37740964032E+03  0.37740964035E+03  0.50400001928E-02 0. -1.
        1   -1    0    0  501    0  0.00000000000E+00  0.00000000000E+00 -0.21503377011E+04  0.21503377011E+04  0.50400001928E-02 0.  1.
    10030    2    1    2    0    0  0.00000000000E+00  0.00000000000E+00 -0.17729280608E+04  0.25277473415E+04  0.18017304775E+04 0.  0.
        1    1    3    3  502    0  0.26136296948E+03  0.64020337929E+03 -0.16965261134E+04  0.18320403440E+04  0.50400001928E-02 0.  1.
       -1    1    3    3    0  502 -0.26136296948E+03 -0.64020337929E+03 -0.76401947370E+02  0.69570699742E+03  0.50400001928E-02 0. -1.
</event>
<event>
 5   0  0.3909859E-05  0.1802717E+04  0.7818609E-02  0.8704856E-01
        2   -1    0    0  501    0  0.00000000000E+00  0.00000000000E+00  0.65616331785E+03  0.65616331786E+03  0.25500000920E-02 0. -1.
       -2   -1    0    0    0  501  0.00000000000E+00  0.00000000000E+00 -0.12381779360E+04  0.12381779360E+04  0.25500000920E-02 0.  1.
    10030    2    1    2    0    0  0.00000000000E+00  0.00000000000E+00 -0.58201461810E+03  0.18943412538E+04  0.18027167748E+04 0.  0.
        4    1    3    3  502    0 -0.63316371466E+03 -0.63444480141E+03 -0.19115765770E+03  0.91649296702E+03  0.12699999809E+01 0.  1.
       -4    1    3    3    0  502  0.63316371466E+03  0.63444480141E+03 -0.39085696040E+03  0.97784828680E+03  0.12699999809E+01 0. -1.
</event>
<event>
 5   0  0.1446750E-05  0.1801405E+04  0.7818609E-02  0.8705553E-01
       -3   -1    0    0    0  501  0.00000000000E+00  0.00000000000E+00  0.13517849057E+04  0.13517849095E+04  0.10100000352E+00 0. -1.
        3   -1    0    0  501    0  0.00000000000E+00  0.00000000000E+00 -0.60014325414E+03  0.60014326264E+03  0.10100000352E+00 0.  1.
    10030    2    1    2    0    0  0.00000000000E+00  0.00000000000E+00  0.75164165158E+03  0.19519281721E+04  0.18014045678E+04 0.  0.
        2    1    3    3  502    0 -0.66624660519E+03  0.18222212229E+03 -0.25056173387E+03  0.73475888785E+03  0.25500000920E-02 0.  1.
       -2    1    3    3    0  502  0.66624660519E+03 -0.18222212229E+03  0.10022033855E+04  0.12171692843E+04  0.25500000920E-02 0. -1.
</event>
<event>
 5   0  0.3983176E-05  0.1793683E+04  0.7818609E-02  0.8709666E-01
        2   -1    0    0  501    0  0.00000000000E+00  0.00000000000E+00  0.67692217153E+03  0.67692217153E+03  0.25500000920E-02 0. -1.
       -2   -1    0    0    0  501  0.00000000000E+00  0.00000000000E+00 -0.11882086037E+04  0.11882086037E+04  0.25500000920E-02 0.  1.
    10030    2    1    2    0    0  0.00000000000E+00  0.00000000000E+00 -0.51128643220E+03  0.18651307753E+04  0.17936830804E+04 0.  0.
        3    1    3    3  502    0  0.81943942113E+03 -0.26639655841E+03  0.30154073705E+01  0.86165955813E+03  0.10100000352E+00 0. -1.
       -3    1    3    3    0  502 -0.81943942113E+03  0.26639655841E+03 -0.51430183957E+03  0.10034712171E+04  0.10100000352E+00 0.  1.
</event>
<event>
 5   0  0.3983176E-05  0.1800141E+04  0.7818609E-02  0.8706225E-01
       -2   -1    0    0    0  501  0.00000000000E+00  0.00000000000E+00  0.31317232976E+03  0.31317232977E+03  0.25500000920E-02 0.  1.
        2   -1    0    0  501    0  0.00000000000E+00  0.00000000000E+00 -0.25868395548E+04  0.25868395548E+04  0.25500000920E-02 0. -1.
    10030    2    1    2    0    0  0.00000000000E+00  0.00000000000E+00 -0.22736672251E+04  0.29000118846E+04  0.18001406280E+04 0.  0.
        3    1    3    3  502    0  0.28342577239E+03 -0.83375058275E+03 -0.14367393676E+04  0.16851380428E+04  0.10100000352E+00 0.  1.
       -3    1    3    3    0  502 -0.28342577239E+03  0.83375058275E+03 -0.83692785747E+03  0.12148738418E+04  0.10100000352E+00 0. -1.
</event>
<event>
 5   0  0.1960300E-05  0.1808136E+04  0.7818609E-02  0.8701985E-01
        1   -1    0    0  501    0  0.00000000000E+00  0.00000000000E+00  0.96878800226E+03  0.96878800227E+03  0.50400001928E-02 0. -1.
       -1   -1    0    0    0  501  0.00000000000E+00  0.00000000000E+00 -0.84367168540E+03  0.84367168542E+03  0.50400001928E-02 0.  1.
    10030    2    1    2    0    0  0.00000000000E+00  0.00000000000E+00  0.12511631686E+03  0.18124596877E+04  0.18081360642E+04 0.  0.
        3    1    3    3  502    0 -0.53522609107E+03 -0.97371761204E+02  0.78635872032E+03  0.95619468503E+03  0.10100000352E+00 0. -1.
       -3    1    3    3    0  502  0.53522609107E+03  0.97371761204E+02 -0.66124240347E+03  0.85626500266E+03  0.10100000352E+00 0.  1.
</event>
<event>
 5   0  0.4015729E-05  0.1802002E+04  0.7818609E-02  0.8705236E-01
       -2   -1    0    0    0  501  0.00000000000E+00  0.00000000000E+00  0.11257177636E+04  0.11257177636E+04  0.25500000920E-02 0. -1.
        2   -1    0    0  501    0  0.00000000000E+00  0.00000000000E+00 -0.72114229755E+03  0.72114229755E+03  0.25500000920E-02 0.  1.
    10030    2    1    2    0    0  0.00000000000E+00  0.00000000000E+00  0.40457546607E+03  0.18468600612E+04  0.18020018806E+04 0.  0.
        2    1    3    3  502    0  0.42407142595E+03  0.29809436553E+03  0.95759036473E+03  0.10888875661E+04  0.25500000920E-02 0. -1.
       -2    1    3    3    0  502 -0.42407142595E+03 -0.29809436553E+03 -0.55301489866E+03  0.75797249503E+03  0.25500000920E-02 0.  1.
</event>
<event>
 5   0  0.3909859E-05  0.1798299E+04  0.7818609E-02  0.8707205E-01
       -2   -1    0    0    0  501  0.00000000000E+00  0.00000000000E+00  0.70591051416E+03  0.70591051417E+03  0.25500000920E-02 0. -1.
        2   -1    0    0  501    0  0.00000000000E+00  0.00000000000E+00 -0.11452861469E+04  0.11452861469E+04  0.25500000920E-02 0.  1.
    10030    2    1    2    0    0  0.00000000000E+00  0.00000000000E+00 -0.43937563276E+03  0.18511966611E+04  0.17982986769E+04 0.  0.
        4    1    3    3  502    0  0.38955976524E+03  0.68770542221E+03  0.22160903786E+03  0.82085792741E+03  0.12699999809E+01 0. -1.
       -4    1    3    3    0  502 -0.38955976524E+03 -0.68770542221E+03 -0.66098467062E+03  0.10303387337E+04  0.12699999809E+01 0.  1.
</event>
<event>
 5   0  0.3909859E-05  0.1798279E+04  0.7818609E-02  0.8707215E-01
        2   -1    0    0  501    0  0.00000000000E+00  0.00000000000E+00  0.45101015028E+03  0.45101015028E+03  0.25500000920E-02 0.  1.
       -2   -1    0    0    0  501  0.00000000000E+00  0.00000000000E+00 -0.17925363378E+04  0.17925363378E+04  0.25500000920E-02 0. -1.
    10030    2    1    2    0    0  0.00000000000E+00  0.00000000000E+00 -0.13415261876E+04  0.22435464881E+04  0.17982792699E+04 0.  0.
        4    1    3    3  502    0 -0.54366274074E+03  0.47723320059E+03 -0.13369547890E+04  0.15201218452E+04  0.12699999809E+01 0. -1.
       -4    1    3    3    0  502  0.54366274074E+03 -0.47723320059E+03 -0.45713985271E+01  0.72342464293E+03  0.12699999809E+01 0.  1.
</event>
<event>
 5   0  0.1906857E-05  0.1795441E+04  0.7818609E-02  0.8708728E-01
        1   -1    0    0  501    0  0.00000000000E+00  0.00000000000E+00  0.19192939419E+04  0.19192939419E+04  0.50400001928E-02 0. -1.
       -1   -1    0    0    0  501  0.00000000000E+00  0.00000000000E+00 -0.41989515036E+03  0.41989515039E+03  0.50400001928E-02 0.  1.
    10030    2    1    2    0    0  0.00000000000E+00  0.00000000000E+00  0.14993987915E+04  0.23391890923E+04  0.17954411362E+04 0.  0.
        4    1    3    3  502    0 -0.66308096070E+03 -0.58484059602E+03  0.95231537341E+03  0.12994695327E+04  0.12699999809E+01 0.  1.
       -4    1    3    3    0  502  0.66308096070E+03  0.58484059602E+03  0.54708341810E+03  0.10397195595E+04  0.12699999809E+01 0. -1.
</event>
<event>
 5   0  0.1960300E-05  0.1798670E+04  0.7818609E-02  0.8707007E-01
        1   -1    0    0  501    0  0.00000000000E+00  0.00000000000E+00  0.10921477547E+04  0.10921477547E+04  0.50400001928E-02 0.  1.
       -1   -1    0    0    0  501  0.00000000000E+00  0.00000000000E+00 -0.74056231032E+03  0.74056231034E+03  0.50400001928E-02 0. -1.
    10030    2    1    2    0    0  0.00000000000E+00  0.00000000000E+00  0.35158544439E+03  0.18327100651E+04  0.17986700247E+04 0.  0.
        3    1    3    3  502    0 -0.51490670212E+03 -0.64511302832E+03  0.53962707395E+03  0.98615268612E+03  0.10100000352E+00 0.  1.
       -3    1    3    3    0  502  0.51490670212E+03  0.64511302832E+03 -0.18804162956E+03  0.84655737894E+03  0.10100000352E+00 0. -1.
</event>
<event>
 5   0  0.2038338E-05  0.1800484E+04  0.7818609E-02  0.8706042E-01
        1   -1    0    0  501    0  0.00000000000E+00  0.00000000000E+00  0.13892156458E+04  0.13892156458E+04  0.50400001928E-02 0.  1.
       -1   -1    0    0    0  501  0.00000000000E+00  0.00000000000E+00 -0.58337648989E+03  0.58337648991E+03  0.50400001928E-02 0. -1.
    10030    2    1    2    0    0  0.00000000000E+00  0.00000000000E+00  0.80583915590E+03  0.19725921357E+04  0.18004840984E+04 0.  0.
        1    1    3    3  502    0  0.53944483099E+03 -0.44423564524E+02  0.11910299760E+04  0.13082532563E+04  0.50400001928E-02 0.  1.
       -1    1    3    3    0  502 -0.53944483099E+03  0.44423564524E+02 -0.38519082013E+03  0.66433887942E+03  0.50400001928E-02 0. -1.
</event>
<event>
 5   0  0.1906857E-05  0.1798098E+04  0.7818609E-02  0.8707311E-01
        1   -1    0    0  501    0  0.00000000000E+00  0.00000000000E+00  0.12432459691E+04  0.12432459691E+04  0.50400001928E-02 0. -1.
       -1   -1    0    0    0  501  0.00000000000E+00  0.00000000000E+00 -0.65014444718E+03  0.65014444720E+03  0.50400001928E-02 0.  1.
    10030    2    1    2    0    0  0.00000000000E+00  0.00000000000E+00  0.59310152190E+03  0.18933904163E+04  0.17980983992E+04 0.  0.
        4    1    3    3  502    0 -0.21526370556E+03 -0.21482715380E+03 -0.59433530671E+03  0.66762657125E+03  0.12699999809E+01 0.  1.
       -4    1    3    3    0  502  0.21526370556E+03  0.21482715380E+03  0.11874368286E+04  0.12257638450E+04  0.12699999809E+01 0. -1.
</event>
<event>
 5   0  0.2038338E-05  0.1821040E+04  0.7818609E-02  0.8695190E-01
       -1   -1    0    0    0  501  0.00000000000E+00  0.00000000000E+00  0.68760527889E+03  0.68760527891E+03  0.50400001928E-02 0. -1.
        1   -1    0    0  501    0  0.00000000000E+00  0.00000000000E+00 -0.12057016991E+04  0.12057016991E+04  0.50400001928E-02 0.  1.
    10030    2    1    2    0    0  0.00000000000E+00  0.00000000000E+00 -0.51809642023E+03  0.18933069780E+04  0.18210402007E+04 0.  0.
        1    1    3    3  502    0  0.74510537121E+03 -0.48719122106E+03 -0.45770561604E+03  0.10010153501E+04  0.50400001928E-02 0.  1.
       -1    1    3    3    0  502 -0.74510537121E+03  0.48719122106E+03 -0.60390804186E+02  0.89229162797E+03  0.50400001928E-02 0. -1.
</event>
<event>
 5   0  0.4015729E-05  0.1797992E+04  0.7818609E-02  0.8707368E-01
       -2   -1    0    0    0  501  0.00000000000E+00  0.00000000000E+00  0.65525450217E+03  0.65525450217E+03  0.25500000920E-02 0.  1.
        2   -1    0    0  501    0  0.00000000000E+00  0.00000000000E+00 -0.12334038597E+04  0.12334038597E+04  0.25500000920E-02 0. -1.
    10030    2    1    2    0    0  0.00000000000E+00  0.00000000000E+00 -0.57814935751E+03  0.18886583619E+04  0.17979915818E+04 0.  0.
        2    1    3    3  502    0  0.44738710763E+03 -0.35529672335E+02  0.52916379362E+03  0.69385293988E+03  0.25500000920E-02 0.  1.
       -2    1    3    3    0  502 -0.44738710763E+03  0.35529672335E+02 -0.11073131511E+04  0.11948054220E+04  0.25500000920E-02 0. -1.
</event>
<event>
 5   0  0.1906857E-05  0.1797995E+04  0.7818609E-02  0.8707366E-01
       -1   -1    0    0    0  501  0.00000000000E+00  0.00000000000E+00  0.65264465306E+03  0.65264465308E+03  0.50400001928E-02 0.  1.
        1   -1    0    0  501    0  0.00000000000E+00  0.00000000000E+00 -0.12383409005E+04  0.12383409005E+04  0.50400001928E-02 0. -1.
    10030    2    1    2    0    0  0.00000000000E+00  0.00000000000E+00 -0.58569624742E+03  0.18909855536E+04  0.17979950694E+04 0.  0.
        4    1    3    3  502    0  0.75440670872E+03  0.61726662576E+02 -0.80296467490E+03  0.11034915247E+04  0.12699999809E+01 0. -1.
       -4    1    3    3    0  502 -0.75440670872E+03 -0.61726662576E+02  0.21726842748E+03  0.78749402887E+03  0.12699999809E+01 0.  1.
</event>
<event>
 5   0  0.3909859E-05  0.1803049E+04  0.7818609E-02  0.8704680E-01
        2   -1    0    0  501    0  0.00000000000E+00  0.00000000000E+00  0.11970610949E+04  0.11970610949E+04  0.25500000920E-02 0.  1.
       -2   -1    0    0    0  501  0.00000000000E+00  0.00000000000E+00 -0.67895113347E+03  0.67895113348E+03  0.25500000920E-02 0. -1.
    10030    2    1    2    0    0  0.00000000000E+00  0.00000000000E+00  0.51810996146E+03  0.18760122284E+04  0.18030485154E+04 0.  0.
        4    1    3    3  502    0 -0.65238687139E+03 -0.19765394450E+03  0.87290279609E+03  0.11075362821E+04  0.12699999809E+01 0.  1.
       -4    1    3    3    0  502  0.65238687139E+03  0.19765394450E+03 -0.35479283463E+03  0.76847594636E+03  0.12699999809E+01 0. -1.
</event>
<event>
 5   0  0.2038338E-05  0.1795723E+04  0.7818609E-02  0.8708577E-01
       -1   -1    0    0    0  501  0.00000000000E+00  0.00000000000E+00  0.13608885316E+04  0.13608885316E+04  0.50400001928E-02 0. -1.
        1   -1    0    0  501    0  0.00000000000E+00  0.00000000000E+00 -0.59237407366E+03  0.59237407368E+03  0.50400001928E-02 0.  1.
    10030    2    1    2    0    0  0.00000000000E+00  0.00000000000E+00  0.76851445796E+03  0.19532626053E+04  0.17957227885E+04 0.  0.
        1    1    3    3  502    0  0.33434171714E+03  0.62219053705E+03  0.98718741762E+03  0.12138551997E+04  0.50400001928E-02 0. -1.
       -1    1    3    3    0  502 -0.33434171714E+03 -0.62219053705E+03 -0.21867295966E+03  0.73940740564E+03  0.50400001928E-02 0.  1.
</event>
<event>
 5   0  0.1960300E-05  0.1799508E+04  0.7818609E-02  0.8706561E-01
       -1   -1    0    0    0  501  0.00000000000E+00  0.00000000000E+00  0.81687398473E+03  0.81687398474E+03  0.50400001928E-02 0. -1.
        1   -1    0    0  501    0  0.00000000000E+00  0.00000000000E+00 -0.99104254532E+03  0.99104254533E+03  0.50400001928E-02 0.  1.
    10030    2    1    2    0    0  0.00000000000E+00  0.00000000000E+00 -0.17416856059E+03  0.18079165301E+04  0.17995075694E+04 0.  0.
        3    1    3    3  502    0  0.57141007980E+03  0.62414701093E+03 -0.39427096168E+03  0.93355159042E+03  0.10100000352E+00 0.  1.
       -3    1    3    3    0  502 -0.57141007980E+03 -0.62414701093E+03  0.22010240108E+03  0.87436493966E+03  0.10100000352E+00 0. -1.
</event>
<event>
 5   0  0.4015729E-05  0.1790017E+04  0.7818609E-02  0.8711626E-01
        2   -1    0    0  501    0  0.00000000000E+00  0.00000000000E+00  0.10323332042E+04  0.10323332042E+04  0.25500000920E-02 0. -1.
       -2   -1    0    0    0  501  0.00000000000E+00  0.00000000000E+00 -0.77595114462E+03  0.77595114462E+03  0.25500000920E-02 0.  1.
    10030    2    1    2    0    0  0.00000000000E+00  0.00000000000E+00  0.25638205957E+03  0.18082843488E+04  0.17900169065E+04 0.  0.
        2    1    3    3  502    0 -0.36546729524E+03  0.14586400567E+03  0.94025869904E+03  0.10192787024E+04  0.25500000920E-02 0. -1.
       -2    1    3    3    0  502  0.36546729524E+03 -0.14586400567E+03 -0.68387663947E+03  0.78900564641E+03  0.25500000920E-02 0.  1.
</event>
<event>
 5   0  0.3984648E-05  0.1800040E+04  0.7818609E-02  0.8706278E-01
       -2   -1    0    0    0  501  0.00000000000E+00  0.00000000000E+00  0.12216683959E+04  0.12216683959E+04  0.25500000920E-02 0. -1.
        2   -1    0    0  501    0  0.00000000000E+00  0.00000000000E+00 -0.66305744812E+03  0.66305744812E+03  0.25500000920E-02 0.  1.
    10030    2    1    2    0    0  0.00000000000E+00  0.00000000000E+00  0.55861094775E+03  0.18847258440E+04  0.18000403651E+04 0.  0.
        1    1    3    3  502    0  0.87643770076E+03  0.25818761882E+01  0.65014638457E+02  0.87884959615E+03  0.50400001928E-02 0.  1.
       -1    1    3    3    0  502 -0.87643770076E+03 -0.25818761882E+01  0.49359630929E+03  0.10058762478E+04  0.50400001928E-02 0. -1.
</event>
<event>
 5   0  0.3993393E-05  0.1799438E+04  0.7818609E-02  0.8706598E-01
        2   -1    0    0  501    0  0.00000000000E+00  0.00000000000E+00  0.13025659206E+04  0.13025659206E+04  0.25500000920E-02 0. -1.
       -2   -1    0    0    0  501  0.00000000000E+00  0.00000000000E+00 -0.62146155445E+03  0.62146155446E+03  0.25500000920E-02 0.  1.
    10030    2    1    2    0    0  0.00000000000E+00  0.00000000000E+00  0.68110436613E+03  0.19240274750E+04  0.17994384033E+04 0.  0.
        5    1    3    3  502    0 -0.52961706145E+03 -0.57040585883E+03  0.82303258446E+03  0.11328114586E+04  0.46999998093E+01 0. -1.
       -5    1    3    3    0  502  0.52961706145E+03  0.57040585883E+03 -0.14192821833E+03  0.79121601647E+03  0.46999998093E+01 0.  1.
</event>
<event>
 5   0  0.1906857E-05  0.1800969E+04  0.7818609E-02  0.8705784E-01
        1   -1    0    0  501    0  0.00000000000E+00  0.00000000000E+00  0.11633873125E+04  0.11633873125E+04  0.50400001928E-02 0.  1.
       -1   -1    0    0    0  501  0.00000000000E+00  0.00000000000E+00 -0.69699297438E+03  0.69699297440E+03  0.50400001928E-02 0. -1.
    10030    2    1    2    0    0  0.00000000000E+00  0.00000000000E+00  0.46639433814E+03  0.18603802869E+04  0.18009694982E+04 0.  0.
        4    1    3    3  502    0  0.82831963472E+02  0.79526957805E+03 -0.19465993828E+03  0.82292705656E+03  0.12699999809E+01 0. -1.
       -4    1    3    3    0  502 -0.82831963472E+02 -0.79526957805E+03  0.66105427642E+03  0.10374532304E+04  0.12699999809E+01 0.  1.
</event>
<event>
 5   0  0.2038338E-05  0.1852473E+04  0.7818609E-02  0.8678882E-01
        1   -1    0    0  501    0  0.00000000000E+00  0.00000000000E+00  0.12295027022E+04  0.12295027022E+04  0.50400001928E-02 0.  1.
       -1   -1    0    0    0  501  0.00000000000E+00  0.00000000000E+00 -0.69777310661E+03  0.69777310662E+03  0.50400001928E-02 0. -1.
    10030    2    1    2    0    0  0.00000000000E+00  0.00000000000E+00  0.53172959559E+03  0.19272758088E+04  0.18524728555E+04 0.  0.
        1    1    3    3  502    0 -0.25132098378E+03 -0.57822127160E+03  0.97180068594E+03  0.11584034915E+04  0.50400001928E-02 0.  1.
       -1    1    3    3    0  502  0.25132098378E+03  0.57822127160E+03 -0.44007109035E+03  0.76887231736E+03  0.50400001928E-02 0. -1.
</event>
<event>
 5   0  0.1960300E-05  0.1796124E+04  0.7818609E-02  0.8708363E-01
       -1   -1    0    0    0  501  0.00000000000E+00  0.00000000000E+00  0.95853843372E+03  0.95853843373E+03  0.50400001928E-02 0. -1.
        1   -1    0    0  501    0  0.00000000000E+00  0.00000000000E+00 -0.84140127763E+03  0.84140127765E+03  0.50400001928E-02 0.  1.
    10030    2    1    2    0    0  0.00000000000E+00  0.00000000000E+00  0.11713715609E+03  0.17999397114E+04  0.17961241191E+04 0.  0.
        3    1    3    3  502    0 -0.32044041738E+03 -0.52211837913E+03  0.71664143332E+03  0.94279616941E+03  0.10100000352E+00 0. -1.
       -3    1    3    3    0  502  0.32044041738E+03  0.52211837913E+03 -0.59950427723E+03  0.85714354196E+03  0.10100000352E+00 0.  1.
</event>
<event>
 5   0  0.3983176E-05  0.1802814E+04  0.7818609E-02  0.8704805E-01
       -2   -1    0    0    0  501  0.00000000000E+00  0.00000000000E+00  0.52612256557E+03  0.52612256557E+03  0.25500000920E-02 0. -1.
        2   -1    0    0  501    0  0.00000000000E+00  0.00000000000E+00 -0.15443822203E+04  0.15443822203E+04  0.25500000920E-02 0.  1.
    10030    2    1    2    0    0  0.00000000000E+00  0.00000000000E+00 -0.10182596547E+04  0.20705047859E+04  0.18028137297E+04 0.  0.
        3    1    3    3  502    0  0.61221782945E+03  0.15186799272E+03  0.23042662748E+03  0.67154374300E+03  0.10100000352E+00 0. -1.
       -3    1    3    3    0  502 -0.61221782945E+03 -0.15186799272E+03 -0.12486862822E+04  0.13989610429E+04  0.10100000352E+00 0.  1.
</event>
<event>
 5   0  0.4015729E-05  0.1799882E+04  0.7818609E-02  0.8706362E-01
        2   -1    0    0  501    0  0.00000000000E+00  0.00000000000E+00  0.81750075582E+03  0.81750075583E+03  0.25500000920E-02 0. -1.
       -2   -1    0    0    0  501  0.00000000000E+00  0.00000000000E+00 -0.99069531737E+03  0.99069531737E+03  0.25500000920E-02 0.  1.
    10030    2    1    2    0    0  0.00000000000E+00  0.00000000000E+00 -0.17319456155E+03  0.18081960732E+04  0.17998824081E+04 0.  0.
        2    1    3    3  502    0 -0.55106747995E+03 -0.61551459118E+03  0.27192728867E+03  0.86975745455E+03  0.25500000920E-02 0. -1.
       -2    1    3    3    0  502  0.55106747995E+03  0.61551459118E+03 -0.44512185022E+03  0.93843861865E+03  0.25500000920E-02 0.  1.
</event>
<event>
 5   0  0.2001811E-05  0.1798475E+04  0.7818609E-02  0.8707111E-01
       -1   -1    0    0    0  501  0.00000000000E+00  0.00000000000E+00  0.85050481005E+03  0.85050481006E+03  0.50400001928E-02 0. -1.
        1   -1    0    0  501    0  0.00000000000E+00  0.00000000000E+00 -0.95076287972E+03  0.95076287974E+03  0.50400001928E-02 0.  1.
    10030    2    1    2    0    0  0.00000000000E+00  0.00000000000E+00 -0.10025806968E+03  0.18012676898E+04  0.17984753570E+04 0.  0.
        2    1    3    3  502    0  0.85519307851E+03 -0.26074574293E+03 -0.14663661169E+03  0.90600543038E+03  0.25500000920E-02 0. -1.
       -2    1    3    3    0  502 -0.85519307851E+03  0.26074574293E+03  0.46378542011E+02  0.89526225942E+03  0.25500000920E-02 0.  1.
</event>
<event>
 5   0  0.2001811E-05  0.1797390E+04  0.7818609E-02  0.8707689E-01
        1   -1    0    0  501    0  0.00000000000E+00  0.00000000000E+00  0.83318158498E+03  0.83318158500E+03  0.50400001928E-02 0.  1.
       -1   -1    0    0    0  501  0.00000000000E+00  0.00000000000E+00 -0.96935950587E+03  0.96935950589E+03  0.50400001928E-02 0. -1.
    10030    2    1    2    0    0  0.00000000000E+00  0.00000000000E+00 -0.13617792089E+03  0.18025410909E+04  0.17973897625E+04 0.  0.
        2    1    3    3  502    0 -0.87457735469E+03 -0.68088108146E+02  0.12774216565E+03  0.88647594479E+03  0.25500000920E-02 0. -1.
       -2    1    3    3    0  502  0.87457735469E+03  0.68088108146E+02 -0.26392008654E+03  0.91606514609E+03  0.25500000920E-02 0.  1.
</event>
<event>
 5   0  0.3909859E-05  0.1800108E+04  0.7818609E-02  0.8706242E-01
        2   -1    0    0  501    0  0.00000000000E+00  0.00000000000E+00  0.94499729752E+03  0.94499729752E+03  0.25500000920E-02 0. -1.
       -2   -1    0    0    0  501  0.00000000000E+00  0.00000000000E+00 -0.85724796595E+03  0.85724796595E+03  0.25500000920E-02 0.  1.
    10030    2    1    2    0    0  0.00000000000E+00  0.00000000000E+00  0.87749331570E+02  0.18022452635E+04  0.18001077869E+04 0.  0.
        4    1    3    3  502    0 -0.45276642669E+03 -0.62858770452E+03 -0.41490023682E+03  0.87878538837E+03  0.12699999809E+01 0.  1.
       -4    1    3    3    0  502  0.45276642669E+03  0.62858770452E+03  0.50264956839E+03  0.92345987509E+03  0.12699999809E+01 0. -1.
</event>
<event>
 5   0  0.1960300E-05  0.1798270E+04  0.7818609E-02  0.8707220E-01
       -1   -1    0    0    0  501  0.00000000000E+00  0.00000000000E+00  0.68030784332E+03  0.68030784333E+03  0.50400001928E-02 0. -1.
        1   -1    0    0  501    0  0.00000000000E+00  0.00000000000E+00 -0.11883498832E+04  0.11883498832E+04  0.50400001928E-02 0.  1.
    10030    2    1    2    0    0  0.00000000000E+00  0.00000000000E+00 -0.50804203992E+03  0.18686577266E+04  0.17982699977E+04 0.  0.
        3    1    3    3  502    0  0.29968967947E+03  0.62076169716E+02 -0.11325578224E+04  0.11731813952E+04  0.10100000352E+00 0.  1.
       -3    1    3    3    0  502 -0.29968967947E+03 -0.62076169716E+02  0.62451578243E+03  0.69547633140E+03  0.10100000352E+00 0. -1.
</event>
<event>
 5   0  0.3984648E-05  0.1800353E+04  0.7818609E-02  0.8706112E-01
        2   -1    0    0  501    0  0.00000000000E+00  0.00000000000E+00  0.14857010555E+04  0.14857010555E+04  0.25500000920E-02 0.  1.
       -2   -1    0    0    0  501  0.00000000000E+00  0.00000000000E+00 -0.54541128311E+03  0.54541128312E+03  0.25500000920E-02 0. -1.
    10030    2    1    2    0    0  0.00000000000E+00  0.00000000000E+00  0.94028977240E+03  0.20311123386E+04  0.18003534309E+04 0.  0.
        1    1    3    3  502    0 -0.42441865680E+03  0.68684776796E+03  0.91919091912E+03  0.12234390048E+04  0.50400001928E-02 0.  1.
       -1    1    3    3    0  502  0.42441865680E+03 -0.68684776796E+03  0.21098853277E+02  0.80767333385E+03  0.50400001928E-02 0. -1.
</event>
<event>
 5   0  0.2001811E-05  0.1800223E+04  0.7818609E-02  0.8706181E-01
       -1   -1    0    0    0  501  0.00000000000E+00  0.00000000000E+00  0.46265281363E+03  0.46265281366E+03  0.50400001928E-02 0. -1.
        1   -1    0    0  501    0  0.00000000000E+00  0.00000000000E+00 -0.17512072469E+04  0.17512072469E+04  0.50400001928E-02 0.  1.
    10030    2    1    2    0    0  0.00000000000E+00  0.00000000000E+00 -0.12885544333E+04  0.22138600606E+04  0.18002232751E+04 0.  0.
        2    1    3    3  502    0 -0.14295317474E+03  0.26029785706E+03  0.40067278808E+03  0.49872764880E+03  0.25500000920E-02 0. -1.
       -2    1    3    3    0  502  0.14295317474E+03 -0.26029785706E+03 -0.16892272214E+04  0.17151324118E+04  0.25500000920E-02 0.  1.
</event>
<event>
 5   0  0.1906857E-05  0.1797039E+04  0.7818609E-02  0.8707876E-01
        1   -1    0    0  501    0  0.00000000000E+00  0.00000000000E+00  0.66634840209E+03  0.66634840211E+03  0.50400001928E-02 0. -1.
       -1   -1    0    0    0  501  0.00000000000E+00  0.00000000000E+00 -0.12115843417E+04  0.12115843417E+04  0.50400001928E-02 0.  1.
    10030    2    1    2    0    0  0.00000000000E+00  0.00000000000E+00 -0.54523593964E+03  0.18779327438E+04  0.17970389981E+04 0.  0.
        4    1    3    3  502    0  0.32212339457E+02 -0.89743432186E+03 -0.30413657153E+03  0.94811743150E+03  0.12699999809E+01 0.  1.
       -4    1    3    3    0  502 -0.32212339457E+02  0.89743432186E+03 -0.24109936811E+03  0.92981531235E+03  0.12699999809E+01 0. -1.
</event>
<event>
 5   0  0.3909859E-05  0.1784659E+04  0.7818609E-02  0.8714501E-01
        2   -1    0    0  501    0  0.00000000000E+00  0.00000000000E+00  0.83933333584E+03  0.83933333585E+03  0.25500000920E-02 0. -1.
       -2   -1    0    0    0  501  0.00000000000E+00  0.00000000000E+00 -0.94867154326E+03  0.94867154327E+03  0.25500000920E-02 0.  1.
    10030    2    1    2    0    0  0.00000000000E+00  0.00000000000E+00 -0.10933820742E+03  0.17880048791E+04  0.17846586800E+04 0.  0.
        4    1    3    3  502    0 -0.15059002395E+03 -0.26729228503E+03  0.78483249574E+03  0.84266611432E+03  0.12699999809E+01 0. -1.
       -4    1    3    3    0  502  0.15059002395E+03  0.26729228503E+03 -0.89417070316E+03  0.94533876480E+03  0.12699999809E+01 0.  1.
</event>
<event>
 5   0  0.4015729E-05  0.1801249E+04  0.7818609E-02  0.8705636E-01
        2   -1    0    0  501    0  0.00000000000E+00  0.00000000000E+00  0.10958073182E+04  0.10958073182E+04  0.25500000920E-02 0. -1.
       -2   -1    0    0    0  501  0.00000000000E+00  0.00000000000E+00 -0.74020722764E+03  0.74020722765E+03  0.25500000920E-02 0.  1.
    10030    2    1    2    0    0  0.00000000000E+00  0.00000000000E+00  0.35560009059E+03  0.18360145459E+04  0.18012490078E+04 0.  0.
        2    1    3    3  502    0  0.42620492589E+03  0.12491210246E+03 -0.62082120065E+03  0.76332996494E+03  0.25500000920E-02 0.  1.
       -2    1    3    3    0  502 -0.42620492589E+03 -0.12491210246E+03  0.97642129124E+03  0.10726845809E+04  0.25500000920E-02 0. -1.
</event>
<event>
 5   0  0.2054876E-05  0.1797901E+04  0.7818609E-02  0.8707416E-01
        1   -1    0    0  501    0  0.00000000000E+00  0.00000000000E+00  0.96242646771E+03  0.96242646772E+03  0.50400001928E-02 0. -1.
       -1   -1    0    0    0  501  0.00000000000E+00  0.00000000000E+00 -0.83966128600E+03  0.83966128601E+03  0.50400001928E-02 0.  1.
    10030    2    1    2    0    0  0.00000000000E+00  0.00000000000E+00  0.12276518171E+03  0.18020877537E+04  0.17979012716E+04 0.  0.
        5    1    3    3  502    0 -0.71461172044E+03 -0.51432123713E+03  0.24317169243E+03  0.91342805297E+03  0.46999998093E+01 0. -1.
       -5    1    3    3    0  502  0.71461172044E+03  0.51432123713E+03 -0.12040651072E+03  0.88865970077E+03  0.46999998093E+01 0.  1.
</event>
<event>
 5   0  0.3993393E-05  0.1800926E+04  0.7818609E-02  0.8705807E-01
       -2   -1    0    0    0  501  0.00000000000E+00  0.00000000000E+00  0.89837334484E+03  0.89837334484E+03  0.25500000920E-02 0.  1.
        2   -1    0    0  501    0  0.00000000000E+00  0.00000000000E+00 -0.90255774025E+03  0.90255774025E+03  0.25500000920E-02 0. -1.
    10030    2    1    2    0    0  0.00000000000E+00  0.00000000000E+00 -0.41843954097E+01  0.18009310851E+04  0.18009262239E+04 0.  0.
        5    1    3    3  502    0 -0.38843116774E+03  0.56103358303E+03  0.58542472638E+03  0.89910046914E+03  0.46999998093E+01 0.  1.
       -5    1    3    3    0  502  0.38843116774E+03 -0.56103358303E+03 -0.58960912179E+03  0.90183061594E+03  0.46999998093E+01 0. -1.
</event>
<event>
 5   0  0.4015729E-05  0.1798292E+04  0.7818609E-02  0.8707209E-01
        2   -1    0    0  501    0  0.00000000000E+00  0.00000000000E+00  0.13167840878E+04  0.13167840878E+04  0.25500000920E-02 0. -1.
       -2   -1    0    0    0  501  0.00000000000E+00  0.00000000000E+00 -0.61396787746E+03  0.61396787746E+03  0.25500000920E-02 0.  1.
    10030    2    1    2    0    0  0.00000000000E+00  0.00000000000E+00  0.70281621036E+03  0.19307519653E+04  0.17982915575E+04 0.  0.
        2    1    3    3  502    0 -0.13587250798E+03 -0.12457449628E+02  0.13056044708E+04  0.13127145770E+04  0.25500000920E-02 0. -1.
       -2    1    3    3    0  502  0.13587250798E+03  0.12457449628E+02 -0.60278826041E+03  0.61803738832E+03  0.25500000920E-02 0.  1.
</event>
<event>
 5   0  0.1446750E-05  0.1802322E+04  0.7818609E-02  0.8705066E-01
       -4   -1    0    0    0  501  0.00000000000E+00  0.00000000000E+00  0.50370641613E+03  0.50370801716E+03  0.12699999809E+01 0. -1.
        4   -1    0    0  501    0  0.00000000000E+00  0.00000000000E+00 -0.16122257989E+04  0.16122262991E+04  0.12699999809E+01 0.  1.
    10030    2    1    2    0    0  0.00000000000E+00  0.00000000000E+00 -0.11085193828E+04  0.21159343163E+04  0.18023215054E+04 0.  0.
        4    1    3    3  502    0 -0.17031991787E+03  0.87480781472E+02 -0.15880690718E+04  0.15995708022E+04  0.12699999809E+01 0.  1.
       -4    1    3    3    0  502  0.17031991787E+03 -0.87480781472E+02  0.47954968901E+03  0.51636351409E+03  0.12699999809E+01 0. -1.
</event>
<event>
 5   0  0.1960300E-05  0.1797965E+04  0.7818609E-02  0.8707382E-01
        1   -1    0    0  501    0  0.00000000000E+00  0.00000000000E+00  0.20061684067E+04  0.20061684067E+04  0.50400001928E-02 0.  1.
       -1   -1    0    0    0  501  0.00000000000E+00  0.00000000000E+00 -0.40284232624E+03  0.40284232628E+03  0.50400001928E-02 0. -1.
    10030    2    1    2    0    0  0.00000000000E+00  0.00000000000E+00  0.16033260804E+04  0.24090107330E+04  0.17979650139E+04 0.  0.
        3    1    3    3  502    0  0.10347904858E+03 -0.28131107883E+03 -0.33391817798E+03  0.44871505029E+03  0.10100000352E+00 0. -1.
       -3    1    3    3    0  502 -0.10347904858E+03  0.28131107883E+03  0.19372442584E+04  0.19602956827E+04  0.10100000352E+00 0.  1.
</event>
<event>
 5   0  0.3984648E-05  0.1801237E+04  0.7818609E-02  0.8705642E-01
       -2   -1    0    0    0  501  0.00000000000E+00  0.00000000000E+00  0.17166080278E+04  0.17166080278E+04  0.25500000920E-02 0. -1.
        2   -1    0    0  501    0  0.00000000000E+00  0.00000000000E+00 -0.47250956878E+03  0.47250956879E+03  0.25500000920E-02 0.  1.
    10030    2    1    2    0    0  0.00000000000E+00  0.00000000000E+00  0.12440984590E+04  0.21891175966E+04  0.18012370405E+04 0.  0.
        1    1    3    3  502    0  0.31080227070E+03  0.80736898292E+03  0.92629987654E+03  0.12674676277E+04  0.50400001928E-02 0. -1.
       -1    1    3    3    0  502 -0.31080227070E+03 -0.80736898292E+03  0.31779858247E+03  0.92164996886E+03  0.50400001928E-02 0.  1.
</event>
<event>
 5   0  0.1960300E-05  0.1801822E+04  0.7818609E-02  0.8705331E-01
       -1   -1    0    0    0  501  0.00000000000E+00  0.00000000000E+00  0.49408921932E+03  0.49408921934E+03  0.50400001928E-02 0.  1.
        1   -1    0    0  501    0  0.00000000000E+00  0.00000000000E+00 -0.16426996854E+04  0.16426996854E+04  0.50400001928E-02 0. -1.
    10030    2    1    2    0    0  0.00000000000E+00  0.00000000000E+00 -0.11486104661E+04  0.21367889048E+04  0.18018215285E+04 0.  0.
        3    1    3    3  502    0 -0.52871537403E+02  0.57303002946E+03  0.24772564212E+03  0.62651960711E+03  0.10100000352E+00 0.  1.
       -3    1    3    3    0  502  0.52871537403E+02 -0.57303002946E+03 -0.13963361082E+04  0.15102692976E+04  0.10100000352E+00 0. -1.
</event>
<event>
 5   0  0.4015729E-05  0.1801268E+04  0.7818609E-02  0.8705625E-01
       -2   -1    0    0    0  501  0.00000000000E+00  0.00000000000E+00  0.12394536080E+04  0.12394536080E+04  0.25500000920E-02 0. -1.
        2   -1    0    0  501    0  0.00000000000E+00  0.00000000000E+00 -0.65443493659E+03  0.65443493660E+03  0.25500000920E-02 0.  1.
    10030    2    1    2    0    0  0.00000000000E+00  0.00000000000E+00  0.58501867139E+03  0.18938885446E+04  0.18012681570E+04 0.  0.
        2    1    3    3  502    0 -0.16112443659E+03 -0.56233591547E+03 -0.42750886159E+03  0.72453198179E+03  0.25500000920E-02 0.  1.
       -2    1    3    3    0  502  0.16112443659E+03  0.56233591547E+03  0.10125275330E+04  0.11693565628E+04  0.25500000920E-02 0. -1.
</event>
<event>
 5   0  0.3983176E-05  0.1807540E+04  0.7818609E-02  0.8702300E-01
       -2   -1    0    0    0  501  0.00000000000E+00  0.00000000000E+00  0.50009893102E+03  0.50009893102E+03  0.25500000920E-02 0. -1.
        2   -1    0    0  501    0  0.00000000000E+00  0.00000000000E+00 -0.16332776438E+04  0.16332776438E+04  0.25500000920E-02 0.  1.
    10030    2    1    2    0    0  0.00000000000E+00  0.00000000000E+00 -0.11331787128E+04  0.21333765748E+04  0.18075402112E+04 0.  0.
        3    1    3    3  502    0  0.49242926086E+03 -0.70079935210E+03 -0.90701775237E+03  0.12475125339E+04  0.10100000352E+00 0. -1.
       -3    1    3    3    0  502 -0.49242926086E+03  0.70079935210E+03 -0.22616096044E+03  0.88586404097E+03  0.10100000352E+00 0.  1.
</event>
<event>
 5   0  0.3984648E-05  0.1799712E+04  0.7818609E-02  0.8706453E-01
       -2   -1    0    0    0  501  0.00000000000E+00  0.00000000000E+00  0.78947681156E+03  0.78947681157E+03  0.25500000920E-02 0.  1.
        2   -1    0    0  501    0  0.00000000000E+00  0.00000000000E+00 -0.10256671158E+04  0.10256671158E+04  0.25500000920E-02 0. -1.
    10030    2    1    2    0    0  0.00000000000E+00  0.00000000000E+00 -0.23619030420E+03  0.18151439273E+04  0.17997115372E+04 0.  0.
        1    1    3    3  502    0  0.13509987311E+03  0.53557536553E+03 -0.83457208140E+03  0.10008014323E+04  0.50400001928E-02 0. -1.
       -1    1    3    3    0  502 -0.13509987311E+03 -0.53557536553E+03  0.59838177719E+03  0.81434249501E+03  0.50400001928E-02 0.  1.
</event>
<event>
 5   0  0.3993393E-05  0.1800831E+04  0.7818609E-02  0.8705858E-01
        2   -1    0    0  501    0  0.00000000000E+00  0.00000000000E+00  0.14733127826E+04  0.14733127826E+04  0.25500000920E-02 0. -1.
       -2   -1    0    0    0  501  0.00000000000E+00  0.00000000000E+00 -0.55028890183E+03  0.55028890183E+03  0.25500000920E-02 0.  1.
    10030    2    1    2    0    0  0.00000000000E+00  0.00000000000E+00  0.92302388080E+03  0.20236016845E+04  0.18008305564E+04 0.  0.
        5    1    3    3  502    0  0.32615969457E+03 -0.81351477040E+03  0.69327627861E+03  0.11175153317E+04  0.46999998093E+01 0. -1.
       -5    1    3    3    0  502 -0.32615969457E+03  0.81351477040E+03  0.22974760219E+03  0.90608635280E+03  0.46999998093E+01 0.  1.
</event>
<event>
 5   0  0.1906857E-05  0.1810212E+04  0.7818609E-02  0.8700887E-01
        1   -1    0    0  501    0  0.00000000000E+00  0.00000000000E+00  0.15852805933E+04  0.15852805933E+04  0.50400001928E-02 0.  1.
       -1   -1    0    0    0  501  0.00000000000E+00  0.00000000000E+00 -0.51676476623E+03  0.51676476626E+03  0.50400001928E-02 0. -1.
    10030    2    1    2    0    0  0.00000000000E+00  0.00000000000E+00  0.10685158271E+04  0.21020453596E+04  0.18102123138E+04 0.  0.
        4    1    3    3  502    0 -0.68486453093E+03 -0.54131234371E+03  0.81187584980E+03  0.11921419746E+04  0.12699999809E+01 0.  1.
       -4    1    3    3    0  502  0.68486453093E+03  0.54131234371E+03  0.25663997728E+03  0.90990338499E+03  0.12699999809E+01 0. -1.
</event>
<event>
 5   0  0.2054876E-05  0.1802421E+04  0.7818609E-02  0.8705013E-01
       -1   -1    0    0    0  501  0.00000000000E+00  0.00000000000E+00  0.39402117085E+03  0.39402117088E+03  0.50400001928E-02 0. -1.
        1   -1    0    0  501    0  0.00000000000E+00  0.00000000000E+00 -0.20612611673E+04  0.20612611673E+04  0.50400001928E-02 0.  1.
    10030    2    1    2    0    0  0.00000000000E+00  0.00000000000E+00 -0.16672399965E+04  0.24552823382E+04  0.18024211923E+04 0.  0.
        5    1    3    3  502    0  0.17351033675E+03  0.55166281307E+03  0.10790576564E+03  0.58830556732E+03  0.46999998093E+01 0. -1.
       -5    1    3    3    0  502 -0.17351033675E+03 -0.55166281307E+03 -0.17751457621E+04  0.18669767709E+04  0.46999998093E+01 0.  1.
</event>
<event>
 5   0  0.3909859E-05  0.1802515E+04  0.7818609E-02  0.8704963E-01
        2   -1    0    0  501    0  0.00000000000E+00  0.00000000000E+00  0.12846993297E+04  0.12846993297E+04  0.25500000920E-02 0.  1.
       -2   -1    0    0    0  501  0.00000000000E+00  0.00000000000E+00 -0.63226096309E+03  0.63226096309E+03  0.25500000920E-02 0. -1.
    10030    2    1    2    0    0  0.00000000000E+00  0.00000000000E+00  0.65243836660E+03  0.19169602928E+04  0.18025151711E+04 0.  0.
        4    1    3    3  502    0  0.13138190268E+03 -0.74265546679E+03 -0.19853112562E+03  0.77988112391E+03  0.12699999809E+01 0. -1.
       -4    1    3    3    0  502 -0.13138190268E+03  0.74265546679E+03  0.85096949222E+03  0.11370791689E+04  0.12699999809E+01 0.  1.
</event>
<event>
 5   0  0.1906857E-05  0.1799424E+04  0.7818609E-02  0.8706606E-01
       -1   -1    0    0    0  501  0.00000000000E+00  0.00000000000E+00  0.94724968993E+03  0.94724968994E+03  0.50400001928E-02 0.  1.
        1   -1    0    0  501    0  0.00000000000E+00  0.00000000000E+00 -0.85456007976E+03  0.85456007977E+03  0.50400001928E-02 0. -1.
    10030    2    1    2    0    0  0.00000000000E+00  0.00000000000E+00  0.92689610174E+02  0.18018097697E+04  0.17994240974E+04 0.  0.
        4    1    3    3  502    0  0.64972468222E+03 -0.52561363896E+03  0.38005575931E+03  0.91807181268E+03  0.12699999809E+01 0.  1.
       -4    1    3    3    0  502 -0.64972468222E+03  0.52561363896E+03 -0.28736614913E+03  0.88373795704E+03  0.12699999809E+01 0. -1.
</event>
<event>
 5   0  0.2038338E-05  0.1801893E+04  0.7818609E-02  0.8705293E-01
        1   -1    0    0  501    0  0.00000000000E+00  0.00000000000E+00  0.78713568510E+03  0.78713568512E+03  0.50400001928E-02 0. -1.
       -1   -1    0    0    0  501  0.00000000000E+00  0.00000000000E+00 -0.10312130922E+04  0.10312130922E+04  0.50400001928E-02 0.  1.
    10030    2    1    2    0    0  0.00000000000E+00  0.00000000000E+00 -0.24407740707E+03  0.18183487773E+04  0.18018930310E+04 0.  0.
        1    1    3    3  502    0 -0.29230314206E+03  0.16001688700E+03 -0.96673629245E+03  0.10225583554E+04  0.50400001928E-02 0.  1.
       -1    1    3    3    0  502  0.29230314206E+03 -0.16001688700E+03  0.72265888538E+03  0.79579042192E+03  0.50400001928E-02 0. -1.
</event>
<event>
 5   0  0.3984648E-05  0.1801321E+04  0.7818609E-02  0.8705597E-01
       -2   -1    0    0    0  501  0.00000000000E+00  0.00000000000E+00  0.64680794992E+03  0.64680794993E+03  0.25500000920E-02 0. -1.
        2   -1    0    0  501    0  0.00000000000E+00  0.00000000000E+00 -0.12541423871E+04  0.12541423871E+04  0.25500000920E-02 0.  1.
    10030    2    1    2    0    0  0.00000000000E+00  0.00000000000E+00 -0.60733443720E+03  0.19009503371E+04  0.18013209224E+04 0.  0.
        1    1    3    3  502    0  0.30417141833E+03 -0.84158274786E+03 -0.41132681393E+03  0.98487132211E+03  0.50400001928E-02 0.  1.
       -1    1    3    3    0  502 -0.30417141833E+03  0.84158274786E+03 -0.19600762327E+03  0.91607901495E+03  0.50400001928E-02 0. -1.
</event>
<event>
 5   0  0.2054876E-05  0.1804604E+04  0.7818609E-02  0.8703855E-01
       -1   -1    0    0    0  501  0.00000000000E+00  0.00000000000E+00  0.69299182458E+03  0.69299182460E+03  0.50400001928E-02 0. -1.
        1   -1    0    0  501    0  0.00000000000E+00  0.00000000000E+00 -0.11748313629E+04  0.11748313629E+04  0.50400001928E-02 0.  1.
    10030    2    1    2    0    0  0.00000000000E+00  0.00000000000E+00 -0.48183953827E+03  0.18678231875E+04  0.18046035905E+04 0.  0.
        5    1    3    3  502    0 -0.35540291053E+03 -0.38864381517E+03  0.51739331021E+03  0.73829070923E+03  0.46999998093E+01 0. -1.
       -5    1    3    3    0  502  0.35540291053E+03  0.38864381517E+03 -0.99923284848E+03  0.11295324782E+04  0.46999998093E+01 0.  1.
</event>
<event>
 5   0  0.3909859E-05  0.1793600E+04  0.7818609E-02  0.8709710E-01
        2   -1    0    0  501    0  0.00000000000E+00  0.00000000000E+00  0.12777018900E+04  0.12777018900E+04  0.25500000920E-02 0.  1.
       -2   -1    0    0    0  501  0.00000000000E+00  0.00000000000E+00 -0.62945076248E+03  0.62945076249E+03  0.25500000920E-02 0. -1.
    10030    2    1    2    0    0  0.00000000000E+00  0.00000000000E+00  0.64825112751E+03  0.19071526525E+04  0.17936002106E+04 0.  0.
        4    1    3    3  502    0 -0.26911244618E+02  0.13035955244E+03  0.12671386704E+04  0.12741113966E+04  0.12699999809E+01 0.  1.
       -4    1    3    3    0  502  0.26911244618E+02 -0.13035955244E+03 -0.61888754289E+03  0.63304125588E+03  0.12699999809E+01 0. -1.
</event>
<event>
 5   0  0.3984648E-05  0.1796319E+04  0.7818609E-02  0.8708259E-01
       -2   -1    0    0    0  501  0.00000000000E+00  0.00000000000E+00  0.38598400510E+03  0.38598400511E+03  0.25500000920E-02 0.  1.
        2   -1    0    0  501    0  0.00000000000E+00  0.00000000000E+00 -0.20899589823E+04  0.20899589823E+04  0.25500000920E-02 0. -1.
    10030    2    1    2    0    0  0.00000000000E+00  0.00000000000E+00 -0.17039749772E+04  0.24759429874E+04  0.17963192795E+04 0.  0.
        1    1    3    3  502    0  0.35508288038E+03 -0.73381803001E+03 -0.13716024295E+04  0.15955770047E+04  0.50400001928E-02 0. -1.
       -1    1    3    3    0  502 -0.35508288038E+03  0.73381803001E+03 -0.33237254768E+03  0.88036598275E+03  0.50400001928E-02 0.  1.
</event>
<event>
 5   0  0.3983176E-05  0.1797443E+04  0.7818609E-02  0.8707660E-01
        2   -1    0    0  501    0  0.00000000000E+00  0.00000000000E+00  0.22925170060E+04  0.22925170060E+04  0.25500000920E-02 0. -1.
       -2   -1    0    0    0  501  0.00000000000E+00  0.00000000000E+00 -0.35232050182E+03  0.35232050183E+03  0.25500000920E-02 0.  1.
    10030    2    1    2    0    0  0.00000000000E+00  0.00000000000E+00  0.19401965042E+04  0.26448375078E+04  0.17974434533E+04 0.  0.
        3    1    3    3  502    0 -0.28289152229E+03 -0.66600247337E+03  0.18578429893E+03  0.74706273087E+03  0.10100000352E+00 0. -1.
       -3    1    3    3    0  502  0.28289152229E+03  0.66600247337E+03  0.17544122052E+04  0.18977747770E+04  0.10100000352E+00 0.  1.
</event>
<event>
 5   0  0.4015729E-05  0.1800846E+04  0.7818609E-02  0.8705850E-01
       -2   -1    0    0    0  501  0.00000000000E+00  0.00000000000E+00  0.54344878540E+03  0.54344878541E+03  0.25500000920E-02 0. -1.
        2   -1    0    0  501    0  0.00000000000E+00  0.00000000000E+00 -0.14918819585E+04  0.14918819585E+04  0.25500000920E-02 0.  1.
    10030    2    1    2    0    0  0.00000000000E+00  0.00000000000E+00 -0.94843317313E+03  0.20353307439E+04  0.18008458439E+04 0.  0.
        2    1    3    3  502    0 -0.55800800989E+03 -0.23746513331E+03 -0.12264623222E+04  0.13682004445E+04  0.25500000920E-02 0.  1.
       -2    1    3    3    0  502  0.55800800989E+03  0.23746513331E+03  0.27802914908E+03  0.66713029940E+03  0.25500000920E-02 0. -1.
</event>
<event>
 5   0  0.3984648E-05  0.1840030E+04  0.7818609E-02  0.8685297E-01
       -2   -1    0    0    0  501  0.00000000000E+00  0.00000000000E+00  0.13628225425E+04  0.13628225425E+04  0.25500000920E-02 0.  1.
        2   -1    0    0  501    0  0.00000000000E+00  0.00000000000E+00 -0.62108440484E+03  0.62108440485E+03  0.25500000920E-02 0. -1.
    10030    2    1    2    0    0  0.00000000000E+00  0.00000000000E+00  0.74173813769E+03  0.19839069474E+04  0.18400302473E+04 0.  0.
        1    1    3    3  502    0  0.16259193809E+03  0.48646763709E+03  0.11943576093E+04  0.12998372972E+04  0.50400001928E-02 0.  1.
       -1    1    3    3    0  502 -0.16259193809E+03 -0.48646763709E+03 -0.45261947158E+03  0.68406965022E+03  0.50400001928E-02 0. -1.
</event>
<event>
 5   0  0.3993393E-05  0.1803333E+04  0.7818609E-02  0.8704529E-01
       -2   -1    0    0    0  501  0.00000000000E+00  0.00000000000E+00  0.57927272175E+03  0.57927272175E+03  0.25500000920E-02 0. -1.
        2   -1    0    0  501    0  0.00000000000E+00  0.00000000000E+00 -0.14034889006E+04  0.14034889007E+04  0.25500000920E-02 0.  1.
    10030    2    1    2    0    0  0.00000000000E+00  0.00000000000E+00 -0.82421617890E+03  0.19827616224E+04  0.18033333973E+04 0.  0.
        5    1    3    3  502    0  0.88797329022E+03 -0.14996092160E+03 -0.36298742590E+03  0.97096179302E+03  0.46999998093E+01 0.  1.
       -5    1    3    3    0  502 -0.88797329022E+03  0.14996092160E+03 -0.46122875300E+03  0.10117998294E+04  0.46999998093E+01 0. -1.
</event>
<event>
 5   0  0.4015729E-05  0.1821454E+04  0.7818609E-02  0.8694973E-01
       -2   -1    0    0    0  501  0.00000000000E+00  0.00000000000E+00  0.10679552997E+04  0.10679552997E+04  0.25500000920E-02 0. -1.
        2   -1    0    0  501    0  0.00000000000E+00  0.00000000000E+00 -0.77664630714E+03  0.77664630714E+03  0.25500000920E-02 0.  1.
    10030    2    1    2    0    0  0.00000000000E+00  0.00000000000E+00  0.29130899257E+03  0.18446016069E+04  0.18214538586E+04 0.  0.
        2    1    3    3  502    0  0.57062892473E+03 -0.18960414177E+03 -0.54703836861E+03  0.81290717616E+03  0.25500000920E-02 0.  1.
       -2    1    3    3    0  502 -0.57062892473E+03  0.18960414177E+03  0.83834736119E+03  0.10316944307E+04  0.25500000920E-02 0. -1.
</event>
<event>
 5   0  0.1960300E-05  0.1813453E+04  0.7818609E-02  0.8699178E-01
       -1   -1    0    0    0  501  0.00000000000E+00  0.00000000000E+00  0.88466604999E+03  0.88466605000E+03  0.50400001928E-02 0. -1.
        1   -1    0    0  501    0  0.00000000000E+00  0.00000000000E+00 -0.92933691648E+03  0.92933691649E+03  0.50400001928E-02 0.  1.
    10030    2    1    2    0    0  0.00000000000E+00  0.00000000000E+00 -0.44670866488E+02  0.18140029665E+04  0.18134528602E+04 0.  0.
        3    1    3    3  502    0 -0.28154650312E+03 -0.27422039212E+03  0.79503394228E+03  0.88687329221E+03  0.10100000352E+00 0. -1.
       -3    1    3    3    0  502  0.28154650312E+03  0.27422039212E+03 -0.83970480876E+03  0.92712967428E+03  0.10100000352E+00 0.  1.
</event>
<event>
 5   0  0.2038338E-05  0.1796082E+04  0.7818609E-02  0.8708386E-01
        1   -1    0    0  501    0  0.00000000000E+00  0.00000000000E+00  0.82411328880E+03  0.82411328881E+03  0.50400001928E-02 0.  1.
       -1   -1    0    0    0  501  0.00000000000E+00  0.00000000000E+00 -0.97860062121E+03  0.97860062122E+03  0.50400001928E-02 0. -1.
    10030    2    1    2    0    0  0.00000000000E+00  0.00000000000E+00 -0.15448733241E+03  0.18027139100E+04  0.17960821545E+04 0.  0.
        1    1    3    3  502    0  0.31892178679E+03  0.80377260208E+03 -0.32045278703E+03  0.92219926842E+03  0.50400001928E-02 0.  1.
       -1    1    3    3    0  502 -0.31892178679E+03 -0.80377260208E+03  0.16596545463E+03  0.88051464161E+03  0.50400001928E-02 0. -1.
</event>
<event>
 5   0  0.4015729E-05  0.1799599E+04  0.7818609E-02  0.8706513E-01
        2   -1    0    0  501    0  0.00000000000E+00  0.00000000000E+00  0.66807427271E+03  0.66807427271E+03  0.25500000920E-02 0. -1.
       -2   -1    0    0    0  501  0.00000000000E+00  0.00000000000E+00 -0.12119001626E+04  0.12119001626E+04  0.25500000920E-02 0.  1.
    10030    2    1    2    0    0  0.00000000000E+00  0.00000000000E+00 -0.54382588994E+03  0.18799744354E+04  0.17995991996E+04 0.  0.
        2    1    3    3  502    0  0.21678772863E+03  0.13286165895E+03 -0.11735908472E+04  0.12008183111E+04  0.25500000920E-02 0.  1.
       -2    1    3    3    0  502 -0.21678772863E+03 -0.13286165895E+03  0.62976495725E+03  0.67915612424E+03  0.25500000920E-02 0. -1.
</event>
<event>
 5   0  0.3993393E-05  0.1800457E+04  0.7818609E-02  0.8706056E-01
        2   -1    0    0  501    0  0.00000000000E+00  0.00000000000E+00  0.62516323739E+03  0.62516323739E+03  0.25500000920E-02 0.  1.
       -2   -1    0    0    0  501  0.00000000000E+00  0.00000000000E+00 -0.12963200199E+04  0.12963200199E+04  0.25500000920E-02 0. -1.
    10030    2    1    2    0    0  0.00000000000E+00  0.00000000000E+00 -0.67115678248E+03  0.19214832573E+04  0.18004572978E+04 0.  0.
        5    1    3    3  502    0 -0.34830217993E+03  0.20036638714E+03 -0.11952887916E+04  0.12610307225E+04  0.46999998093E+01 0. -1.
       -5    1    3    3    0  502  0.34830217993E+03 -0.20036638714E+03  0.52413200917E+03  0.66045253476E+03  0.46999998093E+01 0.  1.
</event>
<event>
 5   0  0.3993393E-05  0.1804384E+04  0.7818609E-02  0.8703972E-01
        2   -1    0    0  501    0  0.00000000000E+00  0.00000000000E+00  0.17778754336E+04  0.17778754336E+04  0.25500000920E-02 0. -1.
       -2   -1    0    0    0  501  0.00000000000E+00  0.00000000000E+00 -0.45782184085E+03  0.45782184086E+03  0.25500000920E-02 0.  1.
    10030    2    1    2    0    0  0.00000000000E+00  0.00000000000E+00  0.13200535927E+04  0.22356972744E+04  0.18043837771E+04 0.  0.
        5    1    3    3  502    0 -0.76112703221E+03  0.24934928856E+03  0.14550777233E+03  0.81405406987E+03  0.46999998093E+01 0.  1.
       -5    1    3    3    0  502  0.76112703221E+03 -0.24934928856E+03  0.11745458204E+04  0.14216432046E+04  0.46999998093E+01 0. -1.
</event>
<event>
 5   0  0.1906857E-05  0.1802126E+04  0.7818609E-02  0.8705170E-01
        1   -1    0    0  501    0  0.00000000000E+00  0.00000000000E+00  0.23345516331E+04  0.23345516331E+04  0.50400001928E-02 0.  1.
       -1   -1    0    0    0  501  0.00000000000E+00  0.00000000000E+00 -0.34778193093E+03  0.34778193097E+03  0.50400001928E-02 0. -1.
    10030    2    1    2    0    0  0.00000000000E+00  0.00000000000E+00  0.19867697022E+04  0.26823335641E+04  0.18021263828E+04 0.  0.
        4    1    3    3  502    0  0.31862937044E+03  0.96528465036E+02  0.22396443791E+04  0.22642550603E+04  0.12699999809E+01 0.  1.
       -4    1    3    3    0  502 -0.31862937044E+03 -0.96528465036E+02 -0.25287467688E+03  0.41807850384E+03  0.12699999809E+01 0. -1.
</event>
<event>
 5   0  0.2054876E-05  0.1794666E+04  0.7818609E-02  0.8709141E-01
       -1   -1    0    0    0  501  0.00000000000E+00  0.00000000000E+00  0.36726062290E+03  0.36726062294E+03  0.50400001928E-02 0.  1.
        1   -1    0    0  501    0  0.00000000000E+00  0.00000000000E+00 -0.21924655349E+04  0.21924655349E+04  0.50400001928E-02 0. -1.
    10030    2    1    2    0    0  0.00000000000E+00  0.00000000000E+00 -0.18252049120E+04  0.25597261579E+04  0.17946657161E+04 0.  0.
        5    1    3    3  502    0  0.68778099359E+03 -0.60666160820E+02 -0.95169948097E+02  0.69699532798E+03  0.46999998093E+01 0.  1.
       -5    1    3    3    0  502 -0.68778099359E+03  0.60666160820E+02 -0.17300349639E+04  0.18627308299E+04  0.46999998093E+01 0. -1.
</event>
<event>
 5   0  0.3984648E-05  0.1801562E+04  0.7818609E-02  0.8705469E-01
       -2   -1    0    0    0  501  0.00000000000E+00  0.00000000000E+00  0.99377351131E+03  0.99377351131E+03  0.25500000920E-02 0.  1.
        2   -1    0    0  501    0  0.00000000000E+00  0.00000000000E+00 -0.81649048563E+03  0.81649048563E+03  0.25500000920E-02 0. -1.
    10030    2    1    2    0    0  0.00000000000E+00  0.00000000000E+00  0.17728302568E+03  0.18102639969E+04  0.18015622297E+04 0.  0.
        1    1    3    3  502    0 -0.44732694550E+02 -0.78903649861E+03  0.52296415823E+03  0.94766614423E+03  0.50400001928E-02 0.  1.
       -1    1    3    3    0  502  0.44732694550E+02  0.78903649861E+03 -0.34568113255E+03  0.86259785272E+03  0.50400001928E-02 0. -1.
</event>
<event>
 5   0  0.3909859E-05  0.1798571E+04  0.7818609E-02  0.8707060E-01
       -2   -1    0    0    0  501  0.00000000000E+00  0.00000000000E+00  0.10602348981E+04  0.10602348981E+04  0.25500000920E-02 0. -1.
        2   -1    0    0  501    0  0.00000000000E+00  0.00000000000E+00 -0.76276928327E+03  0.76276928328E+03  0.25500000920E-02 0.  1.
    10030    2    1    2    0    0  0.00000000000E+00  0.00000000000E+00  0.29746561483E+03  0.18230041814E+04  0.17985712255E+04 0.  0.
        4    1    3    3  502    0  0.71262991519E+03 -0.17722619614E+03 -0.37741670809E+03  0.82564853604E+03  0.12699999809E+01 0.  1.
       -4    1    3    3    0  502 -0.71262991519E+03  0.17722619614E+03  0.67488232292E+03  0.99735564535E+03  0.12699999809E+01 0. -1.
</event>
<event>
 5   0  0.4015729E-05  0.1785256E+04  0.7818609E-02  0.8714179E-01
        2   -1    0    0  501    0  0.00000000000E+00  0.00000000000E+00  0.77335238800E+03  0.77335238801E+03  0.25500000920E-02 0.  1.
       -2   -1    0    0    0  501  0.00000000000E+00  0.00000000000E+00 -0.10303002092E+04  0.10303002092E+04  0.25500000920E-02 0. -1.
    10030    2    1    2    0    0  0.00000000000E+00  0.00000000000E+00 -0.25694782115E+03  0.18036525972E+04  0.17852564265E+04 0.  0.
        2    1    3    3  502    0  0.50352557982E+03  0.33591066648E+02 -0.87234812330E+03  0.10077984012E+04  0.25500000920E-02 0. -1.
       -2    1    3    3    0  502 -0.50352557982E+03 -0.33591066648E+02  0.61540030215E+03  0.79585419593E+03  0.25500000920E-02 0.  1.
</event>
<event>
 5   0  0.4015729E-05  0.1799079E+04  0.7818609E-02  0.8706790E-01
        2   -1    0    0  501    0  0.00000000000E+00  0.00000000000E+00  0.10386843692E+04  0.10386843692E+04  0.25500000920E-02 0. -1.
       -2   -1    0    0    0  501  0.00000000000E+00  0.00000000000E+00 -0.77903466178E+03  0.77903466179E+03  0.25500000920E-02 0.  1.
    10030    2    1    2    0    0  0.00000000000E+00  0.00000000000E+00  0.25964970741E+03  0.18177190310E+04  0.17990787934E+04 0.  0.
        2    1    3    3  502    0 -0.15839584511E+03  0.71105956957E+03 -0.40335114272E+03  0.83269868474E+03  0.25500000920E-02 0.  1.
       -2    1    3    3    0  502  0.15839584511E+03 -0.71105956957E+03  0.66300085013E+03  0.98502034624E+03  0.25500000920E-02 0. -1.
</event>
<event>
 5   0  0.2001811E-05  0.1799953E+04  0.7818609E-02  0.8706325E-01
       -1   -1    0    0    0  501  0.00000000000E+00  0.00000000000E+00  0.94589534193E+03  0.94589534194E+03  0.50400001928E-02 0. -1.
        1   -1    0    0  501    0  0.00000000000E+00  0.00000000000E+00 -0.85628659240E+03  0.85628659242E+03  0.50400001928E-02 0.  1.
    10030    2    1    2    0    0  0.00000000000E+00  0.00000000000E+00  0.89608749522E+02  0.18021819344E+04  0.17999527762E+04 0.  0.
        2    1    3    3  502    0 -0.36819436323E+03 -0.42428401875E+03 -0.65918337870E+03  0.86608703053E+03  0.25500000920E-02 0.  1.
       -2    1    3    3    0  502  0.36819436323E+03  0.42428401875E+03  0.74879212822E+03  0.93609490383E+03  0.25500000920E-02 0. -1.
</event>
<event>
 5   0  0.1960300E-05  0.1789344E+04  0.7818609E-02  0.8711987E-01
       -1   -1    0    0    0  501  0.00000000000E+00  0.00000000000E+00  0.69966710078E+03  0.69966710080E+03  0.50400001928E-02 0.  1.
        1   -1    0    0  501    0  0.00000000000E+00  0.00000000000E+00 -0.11440264258E+04  0.11440264258E+04  0.50400001928E-02 0. -1.
    10030    2    1    2    0    0  0.00000000000E+00  0.00000000000E+00 -0.44435932500E+03  0.18436935266E+04  0.17893436255E+04 0.  0.
        3    1    3    3  502    0  0.11157233991E+02 -0.68316742612E+03  0.37294099325E+03  0.77841326468E+03  0.10100000352E+00 0.  1.
       -3    1    3    3    0  502 -0.11157233991E+02  0.68316742612E+03 -0.81730031825E+03  0.10652802619E+04  0.10100000352E+00 0. -1.
</event>
<event>
 5   0  0.3993393E-05  0.1802126E+04  0.7818609E-02  0.8705170E-01
        2   -1    0    0  501    0  0.00000000000E+00  0.00000000000E+00  0.72446060921E+03  0.72446060921E+03  0.25500000920E-02 0. -1.
       -2   -1    0    0    0  501  0.00000000000E+00  0.00000000000E+00 -0.11207156519E+04  0.11207156519E+04  0.25500000920E-02 0.  1.
    10030    2    1    2    0    0  0.00000000000E+00  0.00000000000E+00 -0.39625504267E+03  0.18451762611E+04  0.18021257935E+04 0.  0.
        5    1    3    3  502    0  0.60846394736E+03  0.49689288751E+03  0.25373271959E+03  0.82555030125E+03  0.46999998093E+01 0. -1.
       -5    1    3    3    0  502 -0.60846394736E+03 -0.49689288751E+03 -0.64998776226E+03  0.10196259598E+04  0.46999998093E+01 0.  1.
</event>
<event>
 5   0  0.3984648E-05  0.1801636E+04  0.7818609E-02  0.8705430E-01
        2   -1    0    0  501    0  0.00000000000E+00  0.00000000000E+00  0.13776225946E+04  0.13776225946E+04  0.25500000920E-02 0.  1.
       -2   -1    0    0    0  501  0.00000000000E+00  0.00000000000E+00 -0.58903890968E+03  0.58903890969E+03  0.25500000920E-02 0. -1.
    10030    2    1    2    0    0  0.00000000000E+00  0.00000000000E+00  0.78858368488E+03  0.19666615042E+04  0.18016362686E+04 0.  0.
        1    1    3    3  502    0 -0.40521271308E+03 -0.31443340435E+03 -0.41408568954E+03  0.65919091842E+03  0.50400001928E-02 0. -1.
       -1    1    3    3    0  502  0.40521271308E+03  0.31443340435E+03  0.12026693744E+04  0.13074705858E+04  0.50400001928E-02 0.  1.
</event>
<event>
 5   0  0.1906857E-05  0.1797896E+04  0.7818609E-02  0.8707419E-01
       -1   -1    0    0    0  501  0.00000000000E+00  0.00000000000E+00  0.61351304325E+03  0.61351304328E+03  0.50400001928E-02 0.  1.
        1   -1    0    0  501    0  0.00000000000E+00  0.00000000000E+00 -0.13171799523E+04  0.13171799523E+04  0.50400001928E-02 0. -1.
    10030    2    1    2    0    0  0.00000000000E+00  0.00000000000E+00 -0.70366690901E+03  0.19306929956E+04  0.17978955265E+04 0.  0.
        4    1    3    3  502    0  0.27948127341E+03 -0.84291780280E+03 -0.50173355118E+03  0.10199795948E+04  0.12699999809E+01 0. -1.
       -4    1    3    3    0  502 -0.27948127341E+03  0.84291780280E+03 -0.20193335783E+03  0.91071340078E+03  0.12699999809E+01 0.  1.
</event>
<event>
 5   0  0.1960300E-05  0.1807026E+04  0.7818609E-02  0.8702572E-01
        1   -1    0    0  501    0  0.00000000000E+00  0.00000000000E+00  0.12024220658E+04  0.12024220659E+04  0.50400001928E-02 0.  1.
       -1   -1    0    0    0  501  0.00000000000E+00  0.00000000000E+00 -0.67890910734E+03  0.67890910736E+03  0.50400001928E-02 0. -1.
    10030    2    1    2    0    0  0.00000000000E+00  0.00000000000E+00  0.52351295851E+03  0.18813311732E+04  0.18070255022E+04 0.  0.
        3    1    3    3  502    0  0.53245342008E+03  0.61471275827E+03  0.67158896080E+03  0.10547085674E+04  0.10100000352E+00 0. -1.
       -3    1    3    3    0  502 -0.53245342008E+03 -0.61471275827E+03 -0.14807600230E+03  0.82662260578E+03  0.10100000352E+00 0.  1.
</event>
<event>
 5   0  0.3993393E-05  0.1793004E+04  0.7818609E-02  0.8710029E-01
       -2   -1    0    0    0  501  0.00000000000E+00  0.00000000000E+00  0.46487937891E+03  0.46487937892E+03  0.25500000920E-02 0. -1.
        2   -1    0    0  501    0  0.00000000000E+00  0.00000000000E+00 -0.17288694077E+04  0.17288694077E+04  0.25500000920E-02 0.  1.
    10030    2    1    2    0    0  0.00000000000E+00  0.00000000000E+00 -0.12639900288E+04  0.21937487866E+04  0.17930038890E+04 0.  0.
        5    1    3    3  502    0  0.46608224953E+03 -0.76543589141E+03 -0.66117705948E+03  0.11136884489E+04  0.46999998093E+01 0. -1.
       -5    1    3    3    0  502 -0.46608224953E+03  0.76543589141E+03 -0.60281296932E+03  0.10800603377E+04  0.46999998093E+01 0.  1.
</event>
<event>
 5   0  0.3993393E-05  0.1799517E+04  0.7818609E-02  0.8706557E-01
        2   -1    0    0  501    0  0.00000000000E+00  0.00000000000E+00  0.58858061131E+03  0.58858061132E+03  0.25500000920E-02 0. -1.
       -2   -1    0    0    0  501  0.00000000000E+00  0.00000000000E+00 -0.13754530422E+04  0.13754530422E+04  0.25500000920E-02 0.  1.
    10030    2    1    2    0    0  0.00000000000E+00  0.00000000000E+00 -0.78687243088E+03  0.19640336535E+04  0.17995165933E+04 0.  0.
        5    1    3    3  502    0  0.80947143838E+03  0.38958577560E+03 -0.33862747833E+03  0.96005819885E+03  0.46999998093E+01 0. -1.
       -5    1    3    3    0  502 -0.80947143838E+03 -0.38958577560E+03 -0.44824495256E+03  0.10039754547E+04  0.46999998093E+01 0.  1.
</event>
<event>
 5   0  0.4015729E-05  0.1798696E+04  0.7818609E-02  0.8706993E-01
       -2   -1    0    0    0  501  0.00000000000E+00  0.00000000000E+00  0.75911727051E+03  0.75911727052E+03  0.25500000920E-02 0. -1.
        2   -1    0    0  501    0  0.00000000000E+00  0.00000000000E+00 -0.10654837720E+04  0.10654837720E+04  0.25500000920E-02 0.  1.
    10030    2    1    2    0    0  0.00000000000E+00  0.00000000000E+00 -0.30636650144E+03  0.18246010425E+04  0.17986963421E+04 0.  0.
        2    1    3    3  502    0  0.30458461462E+03 -0.78694816655E+03 -0.46873877620E+03  0.96528505873E+03  0.25500000920E-02 0.  1.
       -2    1    3    3    0  502 -0.30458461462E+03  0.78694816655E+03  0.16237227476E+03  0.85931598374E+03  0.25500000920E-02 0. -1.
</event>
<event>
 5   0  0.3909859E-05  0.1796959E+04  0.7818609E-02  0.8707918E-01
        2   -1    0    0  501    0  0.00000000000E+00  0.00000000000E+00  0.95148567257E+03  0.95148567258E+03  0.25500000920E-02 0.  1.
       -2   -1    0    0    0  501  0.00000000000E+00  0.00000000000E+00 -0.84842659315E+03  0.84842659315E+03  0.25500000920E-02 0. -1.
    10030    2    1    2    0    0  0.00000000000E+00  0.00000000000E+00  0.10305907943E+03  0.17999122657E+04  0.17969593736E+04 0.  0.
        4    1    3    3  502    0 -0.21146875017E+03  0.20974543449E+03 -0.79753785887E+03  0.85134037190E+03  0.12699999809E+01 0. -1.
       -4    1    3    3    0  502  0.21146875017E+03 -0.20974543449E+03  0.90059693830E+03  0.94857189383E+03  0.12699999809E+01 0.  1.
</event>
<event>
 5   0  0.2038338E-05  0.1801109E+04  0.7818609E-02  0.8705710E-01
       -1   -1    0    0    0  501  0.00000000000E+00  0.00000000000E+00  0.19335065274E+04  0.19335065274E+04  0.50400001928E-02 0. -1.
        1   -1    0    0  501    0  0.00000000000E+00  0.00000000000E+00 -0.41944439720E+03  0.41944439723E+03  0.50400001928E-02 0.  1.
    10030    2    1    2    0    0  0.00000000000E+00  0.00000000000E+00  0.15140621302E+04  0.23529509247E+04  0.18011090804E+04 0.  0.
        1    1    3    3  502    0 -0.12924643504E+03  0.75965653853E+03  0.14816952498E+03  0.78468905030E+03  0.50400001928E-02 0.  1.
       -1    1    3    3    0  502  0.12924643504E+03 -0.75965653853E+03  0.13658926053E+04  0.15682618744E+04  0.50400001928E-02 0. -1.
</event>
<event>
 5   0  0.2038338E-05  0.1797945E+04  0.7818609E-02  0.8707393E-01
       -1   -1    0    0    0  501  0.00000000000E+00  0.00000000000E+00  0.46145164514E+03  0.46145164517E+03  0.50400001928E-02 0.  1.
        1   -1    0    0  501    0  0.00000000000E+00  0.00000000000E+00 -0.17513250804E+04  0.17513250804E+04  0.50400001928E-02 0. -1.
    10030    2    1    2    0    0  0.00000000000E+00  0.00000000000E+00 -0.12898734352E+04  0.22127767256E+04  0.17979453157E+04 0.  0.
        1    1    3    3  502    0 -0.84948263399E+03 -0.25307037595E+03 -0.46038340533E+03  0.99880841033E+03  0.50400001928E-02 0.  1.
       -1    1    3    3    0  502  0.84948263399E+03  0.25307037595E+03 -0.82949002991E+03  0.12139683152E+04  0.50400001928E-02 0. -1.
</event>
<event>
 5   0  0.1960300E-05  0.1793814E+04  0.7818609E-02  0.8709596E-01
       -1   -1    0    0    0  501  0.00000000000E+00  0.00000000000E+00  0.40628571834E+03  0.40628571837E+03  0.50400001928E-02 0.  1.
        1   -1    0    0  501    0  0.00000000000E+00  0.00000000000E+00 -0.19799906171E+04  0.19799906171E+04  0.50400001928E-02 0. -1.
    10030    2    1    2    0    0  0.00000000000E+00  0.00000000000E+00 -0.15737048987E+04  0.23862763354E+04  0.17938137141E+04 0.  0.
        3    1    3    3  502    0  0.86816793177E+03 -0.56397322376E+02 -0.49678503380E+03  0.10018440975E+04  0.10100000352E+00 0. -1.
       -3    1    3    3    0  502 -0.86816793177E+03  0.56397322376E+02 -0.10769198649E+04  0.13844322379E+04  0.10100000352E+00 0.  1.
</event>
<event>
 5   0  0.3984648E-05  0.1800039E+04  0.7818609E-02  0.8706279E-01
        2   -1    0    0  501    0  0.00000000000E+00  0.00000000000E+00  0.84000030046E+03  0.84000030046E+03  0.25500000920E-02 0. -1.
       -2   -1    0    0    0  501  0.00000000000E+00  0.00000000000E+00 -0.96432685356E+03  0.96432685357E+03  0.25500000920E-02 0.  1.
    10030    2    1    2    0    0  0.00000000000E+00  0.00000000000E+00 -0.12432655311E+03  0.18043271540E+04  0.18000387182E+04 0.  0.
        1    1    3    3  502    0 -0.39365955509E+03  0.24193194402E+03  0.71203418651E+03  0.84881776232E+03  0.50400001928E-02 0. -1.
       -1    1    3    3    0  502  0.39365955509E+03 -0.24193194402E+03 -0.83636073961E+03  0.95550939171E+03  0.50400001928E-02 0.  1.
</event>
<event>
 5   0  0.1446750E-05  0.1801342E+04  0.7818609E-02  0.8705586E-01
        3   -1    0    0  501    0  0.00000000000E+00  0.00000000000E+00  0.47566320639E+03  0.47566321711E+03  0.10100000352E+00 0.  1.
       -3   -1    0    0    0  501  0.00000000000E+00  0.00000000000E+00 -0.17054248561E+04  0.17054248590E+04  0.10100000352E+00 0. -1.
    10030    2    1    2    0    0  0.00000000000E+00  0.00000000000E+00 -0.12297616497E+04  0.21810880762E+04  0.18013415781E+04 0.  0.
        5    1    3    3  502    0 -0.38445806413E+03 -0.80278575855E+03 -0.78139648360E+03  0.11844304673E+04  0.46999998093E+01 0. -1.
       -5    1    3    3    0  502  0.38445806413E+03  0.80278575855E+03 -0.44836516607E+03  0.99665760889E+03  0.46999998093E+01 0.  1.
</event>
<event>
 5   0  0.3909859E-05  0.1801023E+04  0.7818609E-02  0.8705755E-01
       -2   -1    0    0    0  501  0.00000000000E+00  0.00000000000E+00  0.84219792001E+03  0.84219792002E+03  0.25500000920E-02 0.  1.
        2   -1    0    0  501    0  0.00000000000E+00  0.00000000000E+00 -0.96286305601E+03  0.96286305601E+03  0.25500000920E-02 0. -1.
    10030    2    1    2    0    0  0.00000000000E+00  0.00000000000E+00 -0.12066513600E+03  0.18050609760E+04  0.18010233347E+04 0.  0.
        4    1    3    3  502    0 -0.32033631480E+03 -0.67973825509E+03 -0.55769119048E+03  0.93577803290E+03  0.12699999809E+01 0. -1.
       -4    1    3    3    0  502  0.32033631480E+03  0.67973825509E+03  0.43702605448E+03  0.86928294313E+03  0.12699999809E+01 0.  1.
</event>
<event>
 5   0  0.1906857E-05  0.1804371E+04  0.7818609E-02  0.8703979E-01
        1   -1    0    0  501    0  0.00000000000E+00  0.00000000000E+00  0.12900836318E+04  0.12900836319E+04  0.50400001928E-02 0. -1.
       -1   -1    0    0    0  501  0.00000000000E+00  0.00000000000E+00 -0.63091914283E+03  0.63091914285E+03  0.50400001928E-02 0.  1.
    10030    2    1    2    0    0  0.00000000000E+00  0.00000000000E+00  0.65916448901E+03  0.19210027747E+04  0.18043707592E+04 0.  0.
        4    1    3    3  502    0 -0.17219991962E+03 -0.87236712316E+03  0.16721303638E+03  0.90478672753E+03  0.12699999809E+01 0.  1.
       -4    1    3    3    0  502  0.17219991962E+03  0.87236712316E+03  0.49195145264E+03  0.10162160472E+04  0.12699999809E+01 0. -1.
</event>
<event>
 5   0  0.2054876E-05  0.1799483E+04  0.7818609E-02  0.8706574E-01
        1   -1    0    0  501    0  0.00000000000E+00  0.00000000000E+00  0.15985838959E+04  0.15985838959E+04  0.50400001928E-02 0.  1.
       -1   -1    0    0    0  501  0.00000000000E+00  0.00000000000E+00 -0.50640768491E+03  0.50640768494E+03  0.50400001928E-02 0. -1.
    10030    2    1    2    0    0  0.00000000000E+00  0.00000000000E+00  0.10921762110E+04  0.21049915808E+04  0.17994834480E+04 0.  0.
        5    1    3    3  502    0  0.45959932122E+03 -0.17164969915E+03  0.14283329793E+04  0.15102491003E+04  0.46999998093E+01 0.  1.
       -5    1    3    3    0  502 -0.45959932122E+03  0.17164969915E+03 -0.33615676829E+03  0.59474248054E+03  0.46999998093E+01 0. -1.
</event>
<event>
 5   0  0.3984648E-05  0.1799147E+04  0.7818609E-02  0.8706753E-01
        2   -1    0    0  501    0  0.00000000000E+00  0.00000000000E+00  0.17040686182E+04  0.17040686182E+04  0.25500000920E-02 0. -1.
       -2   -1    0    0    0  501  0.00000000000E+00  0.00000000000E+00 -0.47488270803E+03  0.47488270804E+03  0.25500000920E-02 0.  1.
    10030    2    1    2    0    0  0.00000000000E+00  0.00000000000E+00  0.12291859102E+04  0.21789513262E+04  0.17991472648E+04 0.  0.
        1    1    3    3  502    0  0.37920347817E+03  0.69863081149E+03  0.11246272621E+04  0.13771952539E+04  0.50400001928E-02 0. -1.
       -1    1    3    3    0  502 -0.37920347817E+03 -0.69863081149E+03  0.10455864803E+03  0.80175607233E+03  0.50400001928E-02 0.  1.
</event>
<event>
 5   0  0.1960300E-05  0.1798444E+04  0.7818609E-02  0.8707128E-01
       -1   -1    0    0    0  501  0.00000000000E+00  0.00000000000E+00  0.99372452508E+03  0.99372452509E+03  0.50400001928E-02 0. -1.
        1   -1    0    0  501    0  0.00000000000E+00  0.00000000000E+00 -0.81370625086E+03  0.81370625088E+03  0.50400001928E-02 0.  1.
    10030    2    1    2    0    0  0.00000000000E+00  0.00000000000E+00  0.18001827421E+03  0.18074307760E+04  0.17984436135E+04 0.  0.
        3    1    3    3  502    0 -0.94315424850E+02 -0.46378423191E+03 -0.67840873928E+03  0.82718174597E+03  0.10100000352E+00 0.  1.
       -3    1    3    3    0  502  0.94315424850E+02  0.46378423191E+03  0.85842701349E+03  0.98024903001E+03  0.10100000352E+00 0. -1.
</event>
<event>
 5   0  0.4015729E-05  0.1801010E+04  0.7818609E-02  0.8705763E-01
        2   -1    0    0  501    0  0.00000000000E+00  0.00000000000E+00  0.10395232966E+04  0.10395232966E+04  0.25500000920E-02 0.  1.
       -2   -1    0    0    0  501  0.00000000000E+00  0.00000000000E+00 -0.78007774097E+03  0.78007774098E+03  0.25500000920E-02 0. -1.
    10030    2    1    2    0    0  0.00000000000E+00  0.00000000000E+00  0.25944555560E+03  0.18196010376E+04  0.18010097000E+04 0.  0.
        2    1    3    3  502    0  0.42958007431E+03 -0.68654408073E+03 -0.26807653932E+03  0.85308079686E+03  0.25500000920E-02 0.  1.
       -2    1    3    3    0  502 -0.42958007431E+03  0.68654408073E+03  0.52752209492E+03  0.96652024069E+03  0.25500000920E-02 0. -1.
</event>
<event>
 5   0  0.4015729E-05  0.1796406E+04  0.7818609E-02  0.8708213E-01
        2   -1    0    0  501    0  0.00000000000E+00  0.00000000000E+00  0.11485272701E+04  0.11485272701E+04  0.25500000920E-02 0. -1.
       -2   -1    0    0    0  501  0.00000000000E+00  0.00000000000E+00 -0.70243727930E+03  0.70243727931E+03  0.25500000920E-02 0.  1.
    10030    2    1    2    0    0  0.00000000000E+00  0.00000000000E+00  0.44608999080E+03  0.18509645494E+04  0.17964057123E+04 0.  0.
        2    1    3    3  502    0  0.79041317594E+02  0.88687729234E+03  0.34482731686E+03  0.95483230989E+03  0.25500000920E-02 0. -1.
       -2    1    3    3    0  502 -0.79041317594E+02 -0.88687729234E+03  0.10126267394E+03  0.89613223952E+03  0.25500000920E-02 0.  1.
</event>
<event>
 5   0  0.3909859E-05  0.1803614E+04  0.7818609E-02  0.8704380E-01
        2   -1    0    0  501    0  0.00000000000E+00  0.00000000000E+00  0.21403101512E+04  0.21403101512E+04  0.25500000920E-02 0. -1.
       -2   -1    0    0    0  501  0.00000000000E+00  0.00000000000E+00 -0.37997111142E+03  0.37997111143E+03  0.25500000920E-02 0.  1.
    10030    2    1    2    0    0  0.00000000000E+00  0.00000000000E+00  0.17603390398E+04  0.25202812627E+04  0.18036141793E+04 0.  0.
        4    1    3    3  502    0 -0.22964702789E+03  0.39603719865E+03  0.19658589158E+04  0.20184613224E+04  0.12699999809E+01 0. -1.
       -4    1    3    3    0  502  0.22964702789E+03 -0.39603719865E+03 -0.20551987601E+03  0.50181994029E+03  0.12699999809E+01 0.  1.
</event>
<event>
 5   0  0.3983176E-05  0.1803300E+04  0.7818609E-02  0.8704547E-01
       -2   -1    0    0    0  501  0.00000000000E+00  0.00000000000E+00  0.37925993629E+03  0.37925993630E+03  0.25500000920E-02 0. -1.
        2   -1    0    0  501    0  0.00000000000E+00  0.00000000000E+00 -0.21435767407E+04  0.21435767407E+04  0.25500000920E-02 0.  1.
    10030    2    1    2    0    0  0.00000000000E+00  0.00000000000E+00 -0.17643168044E+04  0.25228366770E+04  0.18033000617E+04 0.  0.
        3    1    3    3  502    0  0.65641681973E+03 -0.43416771197E+03 -0.26661242861E+03  0.83094334382E+03  0.10100000352E+00 0. -1.
       -3    1    3    3    0  502 -0.65641681973E+03  0.43416771197E+03 -0.14977043758E+04  0.16918933331E+04  0.10100000352E+00 0.  1.
</event>
<event>
 5   0  0.3984648E-05  0.1797245E+04  0.7818609E-02  0.8707766E-01
        2   -1    0    0  501    0  0.00000000000E+00  0.00000000000E+00  0.16595746349E+04  0.16595746349E+04  0.25500000920E-02 0.  1.
       -2   -1    0    0    0  501  0.00000000000E+00  0.00000000000E+00 -0.48658382656E+03  0.48658382657E+03  0.25500000920E-02 0. -1.
    10030    2    1    2    0    0  0.00000000000E+00  0.00000000000E+00  0.11729908083E+04  0.21461584615E+04  0.17972447539E+04 0.  0.
        1    1    3    3  502    0  0.66026533671E+03 -0.89083025852E+02 -0.13359668794E+03  0.67951024673E+03  0.50400001928E-02 0. -1.
       -1    1    3    3    0  502 -0.66026533671E+03  0.89083025852E+02  0.13065874963E+04  0.14666482147E+04  0.50400001928E-02 0.  1.
</event>
<event>
 5   0  0.3993393E-05  0.1798857E+04  0.7818609E-02  0.8706907E-01
       -2   -1    0    0    0  501  0.00000000000E+00  0.00000000000E+00  0.99547806594E+03  0.99547806594E+03  0.25500000920E-02 0. -1.
        2   -1    0    0  501    0  0.00000000000E+00  0.00000000000E+00 -0.81264673531E+03  0.81264673531E+03  0.25500000920E-02 0.  1.
    10030    2    1    2    0    0  0.00000000000E+00  0.00000000000E+00  0.18283133063E+03  0.18081248013E+04  0.17988574155E+04 0.  0.
        5    1    3    3  502    0 -0.80929582887E+03 -0.82914340394E+02  0.47694791018E+03  0.94304608874E+03  0.46999998093E+01 0. -1.
       -5    1    3    3    0  502  0.80929582887E+03  0.82914340394E+02 -0.29411657955E+03  0.86507871251E+03  0.46999998093E+01 0.  1.
</event>
<event>
 5   0  0.1906857E-05  0.1796315E+04  0.7818609E-02  0.8708262E-01
        1   -1    0    0  501    0  0.00000000000E+00  0.00000000000E+00  0.74180016641E+03  0.74180016643E+03  0.50400001928E-02 0.  1.
       -1   -1    0    0    0  501  0.00000000000E+00  0.00000000000E+00 -0.10874716158E+04  0.10874716158E+04  0.50400001928E-02 0. -1.
    10030    2    1    2    0    0  0.00000000000E+00  0.00000000000E+00 -0.34567144936E+03  0.18292717822E+04  0.17963147002E+04 0.  0.
        4    1    3    3  502    0 -0.70654572541E+03  0.24858222157E+03 -0.67759598817E+03  0.10100187716E+04  0.12699999809E+01 0. -1.
       -4    1    3    3    0  502  0.70654572541E+03 -0.24858222157E+03  0.33192453881E+03  0.81925301058E+03  0.12699999809E+01 0.  1.
</event>
<event>
 5   0  0.2054876E-05  0.1821493E+04  0.7818609E-02  0.8694953E-01
       -1   -1    0    0    0  501  0.00000000000E+00  0.00000000000E+00  0.72123194871E+03  0.72123194873E+03  0.50400001928E-02 0. -1.
        1   -1    0    0  501    0  0.00000000000E+00  0.00000000000E+00 -0.11500587433E+04  0.11500587433E+04  0.50400001928E-02 0.  1.
    10030    2    1    2    0    0  0.00000000000E+00  0.00000000000E+00 -0.42882679455E+03  0.18712906920E+04  0.18214929136E+04 0.  0.
        5    1    3    3  502    0 -0.10083225814E+03 -0.35553981142E+03 -0.10695528211E+04  0.11316099279E+04  0.46999998093E+01 0.  1.
       -5    1    3    3    0  502  0.10083225814E+03  0.35553981142E+03  0.64072602652E+03  0.73968076414E+03  0.46999998093E+01 0. -1.
</event>
<event>
 5   0  0.3909859E-05  0.1791517E+04  0.7818609E-02  0.8710824E-01
        2   -1    0    0  501    0  0.00000000000E+00  0.00000000000E+00  0.82923287008E+03  0.82923287008E+03  0.25500000920E-02 0.  1.
       -2   -1    0    0    0  501  0.00000000000E+00  0.00000000000E+00 -0.96762089216E+03  0.96762089216E+03  0.25500000920E-02 0. -1.
    10030    2    1    2    0    0  0.00000000000E+00  0.00000000000E+00 -0.13838802208E+03  0.17968537622E+04  0.17915167312E+04 0.  0.
        4    1    3    3  502    0  0.76785455144E+03 -0.45719565974E+03 -0.13063786376E+03  0.90315909329E+03  0.12699999809E+01 0. -1.
       -4    1    3    3    0  502 -0.76785455144E+03  0.45719565974E+03 -0.77501583206E+01  0.89369466895E+03  0.12699999809E+01 0.  1.
</event>
<event>
 5   0  0.4015729E-05  0.1801861E+04  0.7818609E-02  0.8705311E-01
       -2   -1    0    0    0  501  0.00000000000E+00  0.00000000000E+00  0.53900280951E+03  0.53900280951E+03  0.25500000920E-02 0. -1.
        2   -1    0    0  501    0  0.00000000000E+00  0.00000000000E+00 -0.15058833120E+04  0.15058833120E+04  0.25500000920E-02 0.  1.
    10030    2    1    2    0    0  0.00000000000E+00  0.00000000000E+00 -0.96688050248E+03  0.20448861215E+04  0.18018605229E+04 0.  0.
        2    1    3    3  502    0  0.49088231966E+03 -0.39073304307E+03 -0.12172029257E+04  0.13693869888E+04  0.25500000920E-02 0.  1.
       -2    1    3    3    0  502 -0.49088231966E+03  0.39073304307E+03  0.25032242324E+03  0.67549913270E+03  0.25500000920E-02 0. -1.
</event>
<event>
 5   0  0.2054876E-05  0.1802476E+04  0.7818609E-02  0.8704984E-01
        1   -1    0    0  501    0  0.00000000000E+00  0.00000000000E+00  0.62407640089E+03  0.62407640092E+03  0.50400001928E-02 0.  1.
       -1   -1    0    0    0  501  0.00000000000E+00  0.00000000000E+00 -0.13014907309E+04  0.13014907309E+04  0.50400001928E-02 0. -1.
    10030    2    1    2    0    0  0.00000000000E+00  0.00000000000E+00 -0.67741432996E+03  0.19255671318E+04  0.18024756876E+04 0.  0.
        5    1    3    3  502    0  0.32783029494E+03 -0.26637263298E+02  0.55765473083E+03  0.64744353799E+03  0.46999998093E+01 0.  1.
       -5    1    3    3    0  502 -0.32783029494E+03  0.26637263298E+02 -0.12350690608E+04  0.12781235938E+04  0.46999998093E+01 0. -1.
</event>
<event>
 5   0  0.2001811E-05  0.1804616E+04  0.7818609E-02  0.8703848E-01
       -1   -1    0    0    0  501  0.00000000000E+00  0.00000000000E+00  0.96749994004E+03  0.96749994005E+03  0.50400001928E-02 0. -1.
        1   -1    0    0  501    0  0.00000000000E+00  0.00000000000E+00 -0.84150905426E+03  0.84150905427E+03  0.50400001928E-02 0.  1.
    10030    2    1    2    0    0  0.00000000000E+00  0.00000000000E+00  0.12599088578E+03  0.18090089943E+04  0.18046162579E+04 0.  0.
        2    1    3    3  502    0 -0.28057262806E+03  0.48925671071E+03  0.76902999499E+03  0.95367723145E+03  0.25500000920E-02 0. -1.
       -2    1    3    3    0  502  0.28057262806E+03 -0.48925671071E+03 -0.64303910921E+03  0.85533176287E+03  0.25500000920E-02 0.  1.
</event>
<event>
 5   0  0.3993393E-05  0.1798286E+04  0.7818609E-02  0.8707212E-01
        2   -1    0    0  501    0  0.00000000000E+00  0.00000000000E+00  0.92316113251E+03  0.92316113251E+03  0.25500000920E-02 0. -1.
       -2   -1    0    0    0  501  0.00000000000E+00  0.00000000000E+00 -0.87574967762E+03  0.87574967762E+03  0.25500000920E-02 0.  1.
    10030    2    1    2    0    0  0.00000000000E+00  0.00000000000E+00  0.47411454895E+02  0.17989108101E+04  0.17982859219E+04 0.  0.
        5    1    3    3  502    0  0.24130234815E+03  0.42889334585E+02 -0.84167849348E+03  0.87664764566E+03  0.46999998093E+01 0.  1.
       -5    1    3    3    0  502 -0.24130234815E+03 -0.42889334585E+02  0.88908994838E+03  0.92226316448E+03  0.46999998093E+01 0. -1.
</event>
<event>
 5   0  0.2001811E-05  0.1796439E+04  0.7818609E-02  0.8708195E-01
       -1   -1    0    0    0  501  0.00000000000E+00  0.00000000000E+00  0.15153285569E+04  0.15153285569E+04  0.50400001928E-02 0. -1.
        1   -1    0    0  501    0  0.00000000000E+00  0.00000000000E+00 -0.53242473577E+03  0.53242473579E+03  0.50400001928E-02 0.  1.
    10030    2    1    2    0    0  0.00000000000E+00  0.00000000000E+00  0.98290382116E+03  0.20477532927E+04  0.17964391518E+04 0.  0.
        2    1    3    3  502    0 -0.57956561063E+03 -0.39777790567E+03 -0.14594740761E+03  0.71793050155E+03  0.25500000920E-02 0. -1.
       -2    1    3    3    0  502  0.57956561063E+03  0.39777790567E+03  0.11288512288E+04  0.13298227912E+04  0.25500000920E-02 0.  1.
</event>
<event>
 5   0  0.1960300E-05  0.1810043E+04  0.7818609E-02  0.8700977E-01
       -1   -1    0    0    0  501  0.00000000000E+00  0.00000000000E+00  0.38834222373E+03  0.38834222376E+03  0.50400001928E-02 0.  1.
        1   -1    0    0  501    0  0.00000000000E+00  0.00000000000E+00 -0.21091290883E+04  0.21091290883E+04  0.50400001928E-02 0. -1.
    10030    2    1    2    0    0  0.00000000000E+00  0.00000000000E+00 -0.17207868646E+04  0.24974713121E+04  0.18100429612E+04 0.  0.
        3    1    3    3  502    0  0.52607921317E+03  0.50783932828E+02 -0.18740669568E+04  0.19471685379E+04  0.10100000352E+00 0. -1.
       -3    1    3    3    0  502 -0.52607921317E+03 -0.50783932828E+02  0.15328009220E+03  0.55030277415E+03  0.10100000352E+00 0.  1.
</event>
<event>
 5   0  0.2038338E-05  0.1800546E+04  0.7818609E-02  0.8706009E-01
        1   -1    0    0  501    0  0.00000000000E+00  0.00000000000E+00  0.72689636925E+03  0.72689636927E+03  0.50400001928E-02 0. -1.
       -1   -1    0    0    0  501  0.00000000000E+00  0.00000000000E+00 -0.11150030006E+04  0.11150030006E+04  0.50400001928E-02 0.  1.
    10030    2    1    2    0    0  0.00000000000E+00  0.00000000000E+00 -0.38810663135E+03  0.18418993699E+04  0.18005461759E+04 0.  0.
        1    1    3    3  502    0 -0.24577493027E+03  0.56091019394E+03 -0.86910775425E+03  0.10631904112E+04  0.50400001928E-02 0.  1.
       -1    1    3    3    0  502  0.24577493027E+03 -0.56091019394E+03  0.48100112290E+03  0.77870895865E+03  0.50400001928E-02 0. -1.
</event>
<event>
 5   0  0.3984648E-05  0.1788903E+04  0.7818609E-02  0.8712223E-01
       -2   -1    0    0    0  501  0.00000000000E+00  0.00000000000E+00  0.10710883822E+04  0.10710883822E+04  0.25500000920E-02 0. -1.
        2   -1    0    0  501    0  0.00000000000E+00  0.00000000000E+00 -0.74694413406E+03  0.74694413407E+03  0.25500000920E-02 0.  1.
    10030    2    1    2    0    0  0.00000000000E+00  0.00000000000E+00  0.32414424810E+03  0.18180325162E+04  0.17889026627E+04 0.  0.
        1    1    3    3  502    0 -0.69566109577E+03 -0.55714307818E+02  0.73064148855E+03  0.10103887515E+04  0.50400001928E-02 0. -1.
       -1    1    3    3    0  502  0.69566109577E+03  0.55714307818E+02 -0.40649724045E+03  0.80764376477E+03  0.50400001928E-02 0.  1.
</event>
<event>
 5   0  0.3983176E-05  0.1800239E+04  0.7818609E-02  0.8706173E-01
       -2   -1    0    0    0  501  0.00000000000E+00  0.00000000000E+00  0.94234250465E+03  0.94234250465E+03  0.25500000920E-02 0.  1.
        2   -1    0    0  501    0  0.00000000000E+00  0.00000000000E+00 -0.85978808436E+03  0.85978808436E+03  0.25500000920E-02 0. -1.
    10030    2    1    2    0    0  0.00000000000E+00  0.00000000000E+00  0.82554420290E+02  0.18021305890E+04  0.18002387140E+04 0.  0.
        3    1    3    3  502    0  0.43319842610E+02 -0.88554842741E+03  0.19681816787E+03  0.90819052376E+03  0.10100000352E+00 0. -1.
       -3    1    3    3    0  502 -0.43319842610E+02  0.88554842741E+03 -0.11426374758E+03  0.89394006525E+03  0.10100000352E+00 0.  1.
</event>
<event>
 5   0  0.3993393E-05  0.1788807E+04  0.7818609E-02  0.8712275E-01
        2   -1    0    0  501    0  0.00000000000E+00  0.00000000000E+00  0.13436200085E+04  0.13436200085E+04  0.25500000920E-02 0. -1.
       -2   -1    0    0    0  501  0.00000000000E+00  0.00000000000E+00 -0.59537469271E+03  0.59537469272E+03  0.25500000920E-02 0.  1.
    10030    2    1    2    0    0  0.00000000000E+00  0.00000000000E+00  0.74824531583E+03  0.19389947013E+04  0.17888066969E+04 0.  0.
        5    1    3    3  502    0  0.50049878786E+03 -0.71947441958E+03  0.56739845839E+03  0.10440812122E+04  0.46999998093E+01 0. -1.
       -5    1    3    3    0  502 -0.50049878786E+03  0.71947441958E+03  0.18084685744E+03  0.89491348907E+03  0.46999998093E+01 0.  1.
</event>
<event>
 5   0  0.3909859E-05  0.1794124E+04  0.7818609E-02  0.8709431E-01
       -2   -1    0    0    0  501  0.00000000000E+00  0.00000000000E+00  0.83945045270E+03  0.83945045270E+03  0.25500000920E-02 0.  1.
        2   -1    0    0  501    0  0.00000000000E+00  0.00000000000E+00 -0.95862737166E+03  0.95862737166E+03  0.25500000920E-02 0. -1.
    10030    2    1    2    0    0  0.00000000000E+00  0.00000000000E+00 -0.11917691896E+03  0.17980778244E+04  0.17941239434E+04 0.  0.
        4    1    3    3  502    0  0.44502654445E+02  0.32459856794E+02  0.83775307478E+03  0.83956295521E+03  0.12699999809E+01 0.  1.
       -4    1    3    3    0  502 -0.44502654445E+02 -0.32459856794E+02 -0.95692999374E+03  0.95851486915E+03  0.12699999809E+01 0. -1.
</event>
<event>
 5   0  0.3984648E-05  0.1801182E+04  0.7818609E-02  0.8705671E-01
       -2   -1    0    0    0  501  0.00000000000E+00  0.00000000000E+00  0.57020460917E+03  0.57020460918E+03  0.25500000920E-02 0. -1.
        2   -1    0    0  501    0  0.00000000000E+00  0.00000000000E+00 -0.14224096011E+04  0.14224096011E+04  0.25500000920E-02 0.  1.
    10030    2    1    2    0    0  0.00000000000E+00  0.00000000000E+00 -0.85220499190E+03  0.19926142103E+04  0.18011824013E+04 0.  0.
        1    1    3    3  502    0 -0.17941725147E+03 -0.54127941007E+03  0.34504021752E+03  0.66650333954E+03  0.50400001928E-02 0. -1.
       -1    1    3    3    0  502  0.17941725147E+03  0.54127941007E+03 -0.11972452094E+04  0.13261108707E+04  0.50400001928E-02 0.  1.
</event>
<event>
 5   0  0.2001811E-05  0.1796727E+04  0.7818609E-02  0.8708042E-01
        1   -1    0    0  501    0  0.00000000000E+00  0.00000000000E+00  0.41647793932E+03  0.41647793935E+03  0.50400001928E-02 0. -1.
       -1   -1    0    0    0  501  0.00000000000E+00  0.00000000000E+00 -0.19378138208E+04  0.19378138208E+04  0.50400001928E-02 0.  1.
    10030    2    1    2    0    0  0.00000000000E+00  0.00000000000E+00 -0.15213358815E+04  0.23542917601E+04  0.17967266981E+04 0.  0.
        2    1    3    3  502    0 -0.36066593685E+02 -0.88811884336E+03 -0.58981860467E+03  0.10667435800E+04  0.25500000920E-02 0. -1.
       -2    1    3    3    0  502  0.36066593685E+02  0.88811884336E+03 -0.93151727679E+03  0.12875481801E+04  0.25500000920E-02 0.  1.
</event>
<event>
 5   0  0.1960300E-05  0.1796628E+04  0.7818609E-02  0.8708095E-01
       -1   -1    0    0    0  501  0.00000000000E+00  0.00000000000E+00  0.11009491075E+04  0.11009491075E+04  0.50400001928E-02 0.  1.
        1   -1    0    0  501    0  0.00000000000E+00  0.00000000000E+00 -0.73297468635E+03  0.73297468637E+03  0.50400001928E-02 0. -1.
    10030    2    1    2    0    0  0.00000000000E+00  0.00000000000E+00  0.36797442113E+03  0.18339237939E+04  0.17966277597E+04 0.  0.
        3    1    3    3  502    0 -0.85423216424E+03  0.24279817799E+03  0.45885392129E+02  0.88925194690E+03  0.10100000352E+00 0. -1.
       -3    1    3    3    0  502  0.85423216424E+03 -0.24279817799E+03  0.32208902900E+03  0.94467184697E+03  0.10100000352E+00 0.  1.
</event>
<event>
 5   0  0.3983176E-05  0.1797079E+04  0.7818609E-02  0.8707854E-01
       -2   -1    0    0    0  501  0.00000000000E+00  0.00000000000E+00  0.47581705589E+03  0.47581705590E+03  0.25500000920E-02 0.  1.
        2   -1    0    0  501    0  0.00000000000E+00  0.00000000000E+00 -0.16968145033E+04  0.16968145033E+04  0.25500000920E-02 0. -1.
    10030    2    1    2    0    0  0.00000000000E+00  0.00000000000E+00 -0.12209974475E+04  0.21726315592E+04  0.17970790538E+04 0.  0.
        3    1    3    3  502    0 -0.60088042747E+03 -0.66348615828E+03 -0.70493929206E+03  0.11393904449E+04  0.10100000352E+00 0. -1.
       -3    1    3    3    0  502  0.60088042747E+03  0.66348615828E+03 -0.51605815540E+03  0.10332411143E+04  0.10100000352E+00 0.  1.
</event>
<event>
 5   0  0.3983176E-05  0.1804741E+04  0.7818609E-02  0.8703783E-01
        2   -1    0    0  501    0  0.00000000000E+00  0.00000000000E+00  0.15915808670E+04  0.15915808670E+04  0.25500000920E-02 0.  1.
       -2   -1    0    0    0  501  0.00000000000E+00  0.00000000000E+00 -0.51161219456E+03  0.51161219456E+03  0.25500000920E-02 0. -1.
    10030    2    1    2    0    0  0.00000000000E+00  0.00000000000E+00  0.10799686724E+04  0.21031930616E+04  0.18047406242E+04 0.  0.
        3    1    3    3  502    0  0.38219786548E+03 -0.78238195834E+03  0.81594721288E+03  0.11933007171E+04  0.10100000352E+00 0.  1.
       -3    1    3    3    0  502 -0.38219786548E+03  0.78238195834E+03  0.26402145955E+03  0.90989234441E+03  0.10100000352E+00 0. -1.
</event>
<event>
 5   0  0.2001811E-05  0.1797974E+04  0.7818609E-02  0.8707377E-01
        1   -1    0    0  501    0  0.00000000000E+00  0.00000000000E+00  0.19225448597E+04  0.19225448597E+04  0.50400001928E-02 0. -1.
       -1   -1    0    0    0  501  0.00000000000E+00  0.00000000000E+00 -0.42036880998E+03  0.42036881001E+03  0.50400001928E-02 0.  1.
    10030    2    1    2    0    0  0.00000000000E+00  0.00000000000E+00  0.15021760497E+04  0.23429136697E+04  0.17979742988E+04 0.  0.
        2    1    3    3  502    0 -0.15178059219E+03  0.65732994367E+03 -0.23187923231E+02  0.67502420904E+03  0.25500000920E-02 0.  1.
       -2    1    3    3    0  502  0.15178059219E+03 -0.65732994367E+03  0.15253639729E+04  0.16678894606E+04  0.25500000920E-02 0. -1.
</event>
<event>
 5   0  0.2038338E-05  0.1796520E+04  0.7818609E-02  0.8708152E-01
       -1   -1    0    0    0  501  0.00000000000E+00  0.00000000000E+00  0.10949336294E+04  0.10949336294E+04  0.50400001928E-02 0. -1.
        1   -1    0    0  501    0  0.00000000000E+00  0.00000000000E+00 -0.73691330458E+03  0.73691330460E+03  0.50400001928E-02 0.  1.
    10030    2    1    2    0    0  0.00000000000E+00  0.00000000000E+00  0.35802032478E+03  0.18318469340E+04  0.17965201464E+04 0.  0.
        1    1    3    3  502    0 -0.82763649241E+03  0.64296821973E+02 -0.17089198704E+03  0.84753779629E+03  0.50400001928E-02 0.  1.
       -1    1    3    3    0  502  0.82763649241E+03 -0.64296821973E+02  0.52891231182E+03  0.98430913767E+03  0.50400001928E-02 0. -1.
</event>
<event>
 5   0  0.3993393E-05  0.1795428E+04  0.7818609E-02  0.8708735E-01
       -2   -1    0    0    0  501  0.00000000000E+00  0.00000000000E+00  0.39331377494E+03  0.39331377494E+03  0.25500000920E-02 0.  1.
        2   -1    0    0  501    0  0.00000000000E+00  0.00000000000E+00 -0.20489753274E+04  0.20489753274E+04  0.25500000920E-02 0. -1.
    10030    2    1    2    0    0  0.00000000000E+00  0.00000000000E+00 -0.16556615524E+04  0.24422891023E+04  0.17954277716E+04 0.  0.
        5    1    3    3  502    0  0.86823523959E+03 -0.57074571428E+02 -0.11282598688E+04  0.14248095871E+04  0.46999998093E+01 0. -1.
       -5    1    3    3    0  502 -0.86823523959E+03  0.57074571428E+02 -0.52740168363E+03  0.10174795152E+04  0.46999998093E+01 0.  1.
</event>
<event>
 5   0  0.1906857E-05  0.1800817E+04  0.7818609E-02  0.8705865E-01
        1   -1    0    0  501    0  0.00000000000E+00  0.00000000000E+00  0.12618768045E+04  0.12618768045E+04  0.50400001928E-02 0. -1.
       -1   -1    0    0    0  501  0.00000000000E+00  0.00000000000E+00 -0.64248356874E+03  0.64248356876E+03  0.50400001928E-02 0.  1.
    10030    2    1    2    0    0  0.00000000000E+00  0.00000000000E+00  0.61939323573E+03  0.19043603732E+04  0.18008166066E+04 0.  0.
        4    1    3    3  502    0  0.36702241775E+03 -0.10275982120E+03 -0.55297078640E+03  0.67159760236E+03  0.12699999809E+01 0.  1.
       -4    1    3    3    0  502 -0.36702241775E+03  0.10275982120E+03  0.11723640221E+04  0.12327627709E+04  0.12699999809E+01 0. -1.
</event>
<event>
 5   0  0.2038338E-05  0.1799616E+04  0.7818609E-02  0.8706504E-01
        1   -1    0    0  501    0  0.00000000000E+00  0.00000000000E+00  0.75285928723E+03  0.75285928725E+03  0.50400001928E-02 0.  1.
       -1   -1    0    0    0  501  0.00000000000E+00  0.00000000000E+00 -0.10754395467E+04  0.10754395467E+04  0.50400001928E-02 0. -1.
    10030    2    1    2    0    0  0.00000000000E+00  0.00000000000E+00 -0.32258025948E+03  0.18282988340E+04  0.17996162376E+04 0.  0.
        1    1    3    3  502    0 -0.43480722670E+03 -0.44136235982E+03 -0.82422119474E+03  0.10311152384E+04  0.50400001928E-02 0. -1.
       -1    1    3    3    0  502  0.43480722670E+03  0.44136235982E+03  0.50164093525E+03  0.79718359554E+03  0.50400001928E-02 0.  1.
</event>
<event>
 5   0  0.3909859E-05  0.1800379E+04  0.7818609E-02  0.8706098E-01
        2   -1    0    0  501    0  0.00000000000E+00  0.00000000000E+00  0.11381971655E+04  0.11381971655E+04  0.25500000920E-02 0. -1.
       -2   -1    0    0    0  501  0.00000000000E+00  0.00000000000E+00 -0.71195139855E+03  0.71195139855E+03  0.25500000920E-02 0.  1.
    10030    2    1    2    0    0  0.00000000000E+00  0.00000000000E+00  0.42624576698E+03  0.18501485641E+04  0.18003789199E+04 0.  0.
        4    1    3    3  502    0  0.26629106283E+03  0.63853955445E+03  0.80497423347E+03  0.10614277282E+04  0.12699999809E+01 0. -1.
       -4    1    3    3    0  502 -0.26629106283E+03 -0.63853955445E+03 -0.37872846648E+03  0.78872083589E+03  0.12699999809E+01 0.  1.
</event>
<event>
 5   0  0.2038338E-05  0.1797638E+04  0.7818609E-02  0.8707556E-01
       -1   -1    0    0    0  501  0.00000000000E+00  0.00000000000E+00  0.97448456509E+03  0.97448456511E+03  0.50400001928E-02 0.  1.
        1   -1    0    0  501    0  0.00000000000E+00  0.00000000000E+00 -0.82902906040E+03  0.82902906042E+03  0.50400001928E-02 0. -1.
    10030    2    1    2    0    0  0.00000000000E+00  0.00000000000E+00  0.14545550469E+03  0.18035136255E+04  0.17976384769E+04 0.  0.
        1    1    3    3  502    0  0.76945655066E+03  0.31069541676E+03 -0.27377182136E+03  0.87381121277E+03  0.50400001928E-02 0. -1.
       -1    1    3    3    0  502 -0.76945655066E+03 -0.31069541676E+03  0.41922732605E+03  0.92970241276E+03  0.50400001928E-02 0.  1.
</event>
<event>
 5   0  0.2038338E-05  0.1798536E+04  0.7818609E-02  0.8707078E-01
       -1   -1    0    0    0  501  0.00000000000E+00  0.00000000000E+00  0.11431057294E+04  0.11431057294E+04  0.50400001928E-02 0. -1.
        1   -1    0    0  501    0  0.00000000000E+00  0.00000000000E+00 -0.70744395534E+03  0.70744395536E+03  0.50400001928E-02 0.  1.
    10030    2    1    2    0    0  0.00000000000E+00  0.00000000000E+00  0.43566177401E+03  0.18505496847E+04  0.17985363367E+04 0.  0.
        1    1    3    3  502    0 -0.11260841335E+03 -0.71935706115E+03  0.76085106215E+03  0.10531142269E+04  0.50400001928E-02 0. -1.
       -1    1    3    3    0  502  0.11260841335E+03  0.71935706115E+03 -0.32518928814E+03  0.79743545779E+03  0.50400001928E-02 0.  1.
</event>
<event>
 5   0  0.2038338E-05  0.1799130E+04  0.7818609E-02  0.8706762E-01
       -1   -1    0    0    0  501  0.00000000000E+00  0.00000000000E+00  0.10485921812E+04  0.10485921812E+04  0.50400001928E-02 0.  1.
        1   -1    0    0  501    0  0.00000000000E+00  0.00000000000E+00 -0.77171788769E+03  0.77171788771E+03  0.50400001928E-02 0. -1.
    10030    2    1    2    0    0  0.00000000000E+00  0.00000000000E+00  0.27687429352E+03  0.18203100689E+04  0.17991301711E+04 0.  0.
        1    1    3    3  502    0 -0.80841604551E+03 -0.32725243762E+03  0.36145591263E+03  0.94407681751E+03  0.50400001928E-02 0.  1.
       -1    1    3    3    0  502  0.80841604551E+03  0.32725243762E+03 -0.84581619115E+02  0.87623325141E+03  0.50400001928E-02 0. -1.
</event>
<event>
 5   0  0.2054876E-05  0.1800484E+04  0.7818609E-02  0.8706042E-01
        1   -1    0    0  501    0  0.00000000000E+00  0.00000000000E+00  0.71641608407E+03  0.71641608409E+03  0.50400001928E-02 0. -1.
       -1   -1    0    0    0  501  0.00000000000E+00  0.00000000000E+00 -0.11312364915E+04  0.11312364915E+04  0.50400001928E-02 0.  1.
    10030    2    1    2    0    0  0.00000000000E+00  0.00000000000E+00 -0.41482040738E+03  0.18476525756E+04  0.18004843986E+04 0.  0.
        5    1    3    3  502    0  0.71506997981E+03 -0.25252296320E+03  0.29039713643E+03  0.81206250364E+03  0.46999998093E+01 0. -1.
       -5    1    3    3    0  502 -0.71506997981E+03  0.25252296320E+03 -0.70521754381E+03  0.10355900719E+04  0.46999998093E+01 0.  1.
</event>
<event>
 5   0  0.2054876E-05  0.1801615E+04  0.7818609E-02  0.8705441E-01
        1   -1    0    0  501    0  0.00000000000E+00  0.00000000000E+00  0.11565797706E+04  0.11565797706E+04  0.50400001928E-02 0. -1.
       -1   -1    0    0    0  501  0.00000000000E+00  0.00000000000E+00 -0.70159780015E+03  0.70159780017E+03  0.50400001928E-02 0.  1.
    10030    2    1    2    0    0  0.00000000000E+00  0.00000000000E+00  0.45498197048E+03  0.18581775708E+04  0.18016146345E+04 0.  0.
        5    1    3    3  502    0 -0.31282768136E+03 -0.54211909968E+03 -0.44067310795E+03  0.76548622099E+03  0.46999998093E+01 0.  1.
       -5    1    3    3    0  502  0.31282768136E+03  0.54211909968E+03  0.89565507843E+03  0.10926913498E+04  0.46999998093E+01 0. -1.
</event>
<event>
 5   0  0.2001811E-05  0.1796397E+04  0.7818609E-02  0.8708218E-01
        1   -1    0    0  501    0  0.00000000000E+00  0.00000000000E+00  0.17398391825E+04  0.17398391825E+04  0.50400001928E-02 0.  1.
       -1   -1    0    0    0  501  0.00000000000E+00  0.00000000000E+00 -0.46369824703E+03  0.46369824706E+03  0.50400001928E-02 0. -1.
    10030    2    1    2    0    0  0.00000000000E+00  0.00000000000E+00  0.12761409355E+04  0.22035374296E+04  0.17963968148E+04 0.  0.
        2    1    3    3  502    0  0.18936595992E+03  0.78675202493E+02 -0.43460132305E+03  0.48054923189E+03  0.25500000920E-02 0. -1.
       -2    1    3    3    0  502 -0.18936595992E+03 -0.78675202493E+02  0.17107422585E+04  0.17229881977E+04  0.25500000920E-02 0.  1.
</event>
<event>
 5   0  0.2001811E-05  0.1799721E+04  0.7818609E-02  0.8706448E-01
        1   -1    0    0  501    0  0.00000000000E+00  0.00000000000E+00  0.65394576416E+03  0.65394576418E+03  0.50400001928E-02 0.  1.
       -1   -1    0    0    0  501  0.00000000000E+00  0.00000000000E+00 -0.12382511263E+04  0.12382511263E+04  0.50400001928E-02 0. -1.
    10030    2    1    2    0    0  0.00000000000E+00  0.00000000000E+00 -0.58430536211E+03  0.18921968905E+04  0.17997211773E+04 0.  0.
        2    1    3    3  502    0 -0.31337974882E+03  0.50382186986E+03  0.41914972003E+03  0.72645015750E+03  0.25500000920E-02 0.  1.
       -2    1    3    3    0  502  0.31337974882E+03 -0.50382186986E+03 -0.10034550821E+04  0.11657467330E+04  0.25500000920E-02 0. -1.
</event>
<event>
 5   0  0.2001811E-05  0.1798790E+04  0.7818609E-02  0.8706943E-01
        1   -1    0    0  501    0  0.00000000000E+00  0.00000000000E+00  0.11982057430E+04  0.11982057430E+04  0.50400001928E-02 0. -1.
       -1   -1    0    0    0  501  0.00000000000E+00  0.00000000000E+00 -0.67510224996E+03  0.67510224998E+03  0.50400001928E-02 0.  1.
    10030    2    1    2    0    0  0.00000000000E+00  0.00000000000E+00  0.52310349306E+03  0.18733079930E+04  0.17987900301E+04 0.  0.
        2    1    3    3  502    0  0.32401273072E+02 -0.84558662805E+03 -0.55775613472E+02  0.84804334034E+03  0.25500000920E-02 0.  1.
       -2    1    3    3    0  502 -0.32401273072E+02  0.84558662805E+03  0.57887910653E+03  0.10252646527E+04  0.25500000920E-02 0. -1.
</event>
<event>
 5   0  0.3993393E-05  0.1801603E+04  0.7818609E-02  0.8705448E-01
       -2   -1    0    0    0  501  0.00000000000E+00  0.00000000000E+00  0.12224536747E+04  0.12224536747E+04  0.25500000920E-02 0.  1.
        2   -1    0    0  501    0  0.00000000000E+00  0.00000000000E+00 -0.66378221319E+03  0.66378221320E+03  0.25500000920E-02 0. -1.
    10030    2    1    2    0    0  0.00000000000E+00  0.00000000000E+00  0.55867146153E+03  0.18862358879E+04  0.18016026263E+04 0.  0.
        5    1    3    3  502    0  0.11195759229E+03 -0.31539037185E+03 -0.59626188396E+03  0.68378060325E+03  0.46999998093E+01 0. -1.
       -5    1    3    3    0  502 -0.11195759229E+03  0.31539037185E+03  0.11549333455E+04  0.12024552847E+04  0.46999998093E+01 0.  1.
</event>
<event>
 5   0  0.2038338E-05  0.1807838E+04  0.7818609E-02  0.8702142E-01
       -1   -1    0    0    0  501  0.00000000000E+00  0.00000000000E+00  0.51962328414E+03  0.51962328416E+03  0.50400001928E-02 0. -1.
        1   -1    0    0  501    0  0.00000000000E+00  0.00000000000E+00 -0.15724264951E+04  0.15724264951E+04  0.50400001928E-02 0.  1.
    10030    2    1    2    0    0  0.00000000000E+00  0.00000000000E+00 -0.10528032110E+04  0.20920497793E+04  0.18078378462E+04 0.  0.
        1    1    3    3  502    0  0.48849127367E+03  0.73822423178E+03 -0.73811327618E+03  0.11525666789E+04  0.50400001928E-02 0.  1.
       -1    1    3    3    0  502 -0.48849127367E+03 -0.73822423178E+03 -0.31468993482E+03  0.93948310040E+03  0.50400001928E-02 0. -1.
</event>
<event>
 5   0  0.1446750E-05  0.1792957E+04  0.7818609E-02  0.8710054E-01
       -3   -1    0    0    0  501  0.00000000000E+00  0.00000000000E+00  0.42721855382E+03  0.42721856576E+03  0.10100000352E+00 0.  1.
        3   -1    0    0  501    0  0.00000000000E+00  0.00000000000E+00 -0.18811776650E+04  0.18811776677E+04  0.10100000352E+00 0. -1.
    10030    2    1    2    0    0  0.00000000000E+00  0.00000000000E+00 -0.14539591111E+04  0.23083962334E+04  0.17929573541E+04 0.  0.
        4    1    3    3  502    0 -0.37266569422E+03 -0.54911636563E+03 -0.15029613271E+04  0.16429555278E+04  0.12699999809E+01 0. -1.
       -4    1    3    3    0  502  0.37266569422E+03  0.54911636563E+03  0.49002215957E+02  0.66544070564E+03  0.12699999809E+01 0.  1.
</event>
<event>
 5   0  0.3983176E-05  0.1806960E+04  0.7818609E-02  0.8702607E-01
        2   -1    0    0  501    0  0.00000000000E+00  0.00000000000E+00  0.10427997664E+04  0.10427997664E+04  0.25500000920E-02 0.  1.
       -2   -1    0    0    0  501  0.00000000000E+00  0.00000000000E+00 -0.78277351885E+03  0.78277351886E+03  0.25500000920E-02 0. -1.
    10030    2    1    2    0    0  0.00000000000E+00  0.00000000000E+00  0.26002624758E+03  0.18255732853E+04  0.18069599250E+04 0.  0.
        3    1    3    3  502    0 -0.25006774724E+03  0.75896399093E+03  0.55591915431E+03  0.97345073531E+03  0.10100000352E+00 0.  1.
       -3    1    3    3    0  502  0.25006774724E+03 -0.75896399093E+03 -0.29589290673E+03  0.85212254998E+03  0.10100000352E+00 0. -1.
</event>
<event>
 5   0  0.1906857E-05  0.1799757E+04  0.7818609E-02  0.8706429E-01
       -1   -1    0    0    0  501  0.00000000000E+00  0.00000000000E+00  0.76302632476E+03  0.76302632477E+03  0.50400001928E-02 0. -1.
        1   -1    0    0  501    0  0.00000000000E+00  0.00000000000E+00 -0.10612753941E+04  0.10612753941E+04  0.50400001928E-02 0.  1.
    10030    2    1    2    0    0  0.00000000000E+00  0.00000000000E+00 -0.29824906935E+03  0.18243017189E+04  0.17997567208E+04 0.  0.
        4    1    3    3  502    0 -0.29072581635E+02  0.36283073448E+02 -0.10600561968E+04  0.10610760716E+04  0.12699999809E+01 0.  1.
       -4    1    3    3    0  502  0.29072581635E+02 -0.36283073448E+02  0.76180712743E+03  0.76322564732E+03  0.12699999809E+01 0. -1.
</event>
<event>
 5   0  0.3909859E-05  0.1798927E+04  0.7818609E-02  0.8706870E-01
        2   -1    0    0  501    0  0.00000000000E+00  0.00000000000E+00  0.80940125778E+03  0.80940125779E+03  0.25500000920E-02 0.  1.
       -2   -1    0    0    0  501  0.00000000000E+00  0.00000000000E+00 -0.99954656501E+03  0.99954656501E+03  0.25500000920E-02 0. -1.
    10030    2    1    2    0    0  0.00000000000E+00  0.00000000000E+00 -0.19014530723E+03  0.18089478228E+04  0.17989266210E+04 0.  0.
        4    1    3    3  502    0 -0.11078036866E+03  0.52718566527E+03  0.62924235289E+03  0.82833843767E+03  0.12699999809E+01 0.  1.
       -4    1    3    3    0  502  0.11078036866E+03 -0.52718566527E+03 -0.81938766012E+03  0.98060938513E+03  0.12699999809E+01 0. -1.
</event>
<event>
 5   0  0.3984648E-05  0.1798831E+04  0.7818609E-02  0.8706921E-01
        2   -1    0    0  501    0  0.00000000000E+00  0.00000000000E+00  0.13465014901E+04  0.13465014901E+04  0.25500000920E-02 0.  1.
       -2   -1    0    0    0  501  0.00000000000E+00  0.00000000000E+00 -0.60077798637E+03  0.60077798637E+03  0.25500000920E-02 0. -1.
    10030    2    1    2    0    0  0.00000000000E+00  0.00000000000E+00  0.74572350374E+03  0.19472794765E+04  0.17988312360E+04 0.  0.
        1    1    3    3  502    0  0.29937167513E+03  0.78235485557E+03  0.72737158357E+03  0.11094016137E+04  0.50400001928E-02 0.  1.
       -1    1    3    3    0  502 -0.29937167513E+03 -0.78235485557E+03  0.18351920168E+02  0.83787786276E+03  0.50400001928E-02 0. -1.
</event>
<event>
 5   0  0.1960300E-05  0.1805396E+04  0.7818609E-02  0.8703435E-01
        1   -1    0    0  501    0  0.00000000000E+00  0.00000000000E+00  0.10595226048E+04  0.10595226048E+04  0.50400001928E-02 0.  1.
       -1   -1    0    0    0  501  0.00000000000E+00  0.00000000000E+00 -0.76908572845E+03  0.76908572847E+03  0.50400001928E-02 0. -1.
    10030    2    1    2    0    0  0.00000000000E+00  0.00000000000E+00  0.29043687639E+03  0.18286083333E+04  0.18053960390E+04 0.  0.
        3    1    3    3  502    0 -0.47907191507E+02  0.36931858697E+03 -0.68765099759E+03  0.78201996289E+03  0.10100000352E+00 0. -1.
       -3    1    3    3    0  502  0.47907191507E+02 -0.36931858697E+03  0.97808787398E+03  0.10465883704E+04  0.10100000352E+00 0.  1.
</event>
<event>
 5   0  0.3983176E-05  0.1805094E+04  0.7818609E-02  0.8703595E-01
       -2   -1    0    0    0  501  0.00000000000E+00  0.00000000000E+00  0.14231926992E+04  0.14231926992E+04  0.25500000920E-02 0. -1.
        2   -1    0    0  501    0  0.00000000000E+00  0.00000000000E+00 -0.57236857371E+03  0.57236857371E+03  0.25500000920E-02 0.  1.
    10030    2    1    2    0    0  0.00000000000E+00  0.00000000000E+00  0.85082412550E+03  0.19955612729E+04  0.18050936545E+04 0.  0.
        3    1    3    3  502    0  0.47887542638E+03 -0.10886422731E+03  0.12625574025E+04  0.13547045061E+04  0.10100000352E+00 0. -1.
       -3    1    3    3    0  502 -0.47887542638E+03  0.10886422731E+03 -0.41173327702E+03  0.64085676683E+03  0.10100000352E+00 0.  1.
</event>
<event>
 5   0  0.1906857E-05  0.1796028E+04  0.7818609E-02  0.8708414E-01
       -1   -1    0    0    0  501  0.00000000000E+00  0.00000000000E+00  0.53217038591E+03  0.53217038593E+03  0.50400001928E-02 0. -1.
        1   -1    0    0  501    0  0.00000000000E+00  0.00000000000E+00 -0.15153592702E+04  0.15153592702E+04  0.50400001928E-02 0.  1.
    10030    2    1    2    0    0  0.00000000000E+00  0.00000000000E+00 -0.98318888427E+03  0.20475296561E+04  0.17960282043E+04 0.  0.
        4    1    3    3  502    0 -0.45771388217E+03  0.67543143943E+02  0.38583306455E+03  0.60243907644E+03  0.12699999809E+01 0. -1.
       -4    1    3    3    0  502  0.45771388217E+03 -0.67543143943E+02 -0.13690219488E+04  0.14450905797E+04  0.12699999809E+01 0.  1.
</event>
<event>
 5   0  0.4015729E-05  0.1795572E+04  0.7818609E-02  0.8708658E-01
        2   -1    0    0  501    0  0.00000000000E+00  0.00000000000E+00  0.19928159880E+04  0.19928159880E+04  0.25500000920E-02 0.  1.
       -2   -1    0    0    0  501  0.00000000000E+00  0.00000000000E+00 -0.40446290192E+03  0.40446290193E+03  0.25500000920E-02 0. -1.
    10030    2    1    2    0    0  0.00000000000E+00  0.00000000000E+00  0.15883530860E+04  0.23972788899E+04  0.17955724853E+04 0.  0.
        2    1    3    3  502    0 -0.84666275350E+02 -0.12467082629E+03  0.19758083210E+04  0.19815473031E+04  0.25500000920E-02 0.  1.
       -2    1    3    3    0  502  0.84666275350E+02  0.12467082629E+03 -0.38745523498E+03  0.41573158676E+03  0.25500000920E-02 0. -1.
</event>
<event>
 5   0  0.1906857E-05  0.1793137E+04  0.7818609E-02  0.8709958E-01
       -1   -1    0    0    0  501  0.00000000000E+00  0.00000000000E+00  0.34272563518E+03  0.34272563522E+03  0.50400001928E-02 0.  1.
        1   -1    0    0  501    0  0.00000000000E+00  0.00000000000E+00 -0.23454175898E+04  0.23454175898E+04  0.50400001928E-02 0. -1.
    10030    2    1    2    0    0  0.00000000000E+00  0.00000000000E+00 -0.20026919547E+04  0.26881432251E+04  0.17931366187E+04 0.  0.
        4    1    3    3  502    0 -0.58671269167E+03  0.18149136364E+03 -0.19805678835E+04  0.20736011313E+04  0.12699999809E+01 0. -1.
       -4    1    3    3    0  502  0.58671269167E+03 -0.18149136364E+03 -0.22124071204E+02  0.61454209381E+03  0.12699999809E+01 0.  1.
</event>
<event>
 5   0  0.1906857E-05  0.1779221E+04  0.7818609E-02  0.8717428E-01
       -1   -1    0    0    0  501  0.00000000000E+00  0.00000000000E+00  0.85580296281E+03  0.85580296283E+03  0.50400001928E-02 0.  1.
        1   -1    0    0  501    0  0.00000000000E+00  0.00000000000E+00 -0.92475383625E+03  0.92475383626E+03  0.50400001928E-02 0. -1.
    10030    2    1    2    0    0  0.00000000000E+00  0.00000000000E+00 -0.68950873440E+02  0.17805567991E+04  0.17792212599E+04 0.  0.
        4    1    3    3  502    0 -0.58419409203E+03  0.27285214036E+02  0.63638455458E+03  0.86429979421E+03  0.12699999809E+01 0.  1.
       -4    1    3    3    0  502  0.58419409203E+03 -0.27285214036E+02 -0.70533542802E+03  0.91625700488E+03  0.12699999809E+01 0. -1.
</event>
<event>
 5   0  0.2001811E-05  0.1800122E+04  0.7818609E-02  0.8706234E-01
        1   -1    0    0  501    0  0.00000000000E+00  0.00000000000E+00  0.72757994893E+03  0.72757994894E+03  0.50400001928E-02 0.  1.
       -1   -1    0    0    0  501  0.00000000000E+00  0.00000000000E+00 -0.11134308843E+04  0.11134308843E+04  0.50400001928E-02 0. -1.
    10030    2    1    2    0    0  0.00000000000E+00  0.00000000000E+00 -0.38585093534E+03  0.18410108332E+04  0.18001222024E+04 0.  0.
        2    1    3    3  502    0  0.27244965048E+03  0.65577361349E+03 -0.75851715612E+03  0.10390457739E+04  0.25500000920E-02 0. -1.
       -2    1    3    3    0  502 -0.27244965048E+03 -0.65577361349E+03  0.37266622078E+03  0.80196505928E+03  0.25500000920E-02 0.  1.
</event>
<event>
 5   0  0.4015729E-05  0.1801014E+04  0.7818609E-02  0.8705760E-01
       -2   -1    0    0    0  501  0.00000000000E+00  0.00000000000E+00  0.54440917311E+03  0.54440917312E+03  0.25500000920E-02 0.  1.
        2   -1    0    0  501    0  0.00000000000E+00  0.00000000000E+00 -0.14895286240E+04  0.14895286240E+04  0.25500000920E-02 0. -1.
    10030    2    1    2    0    0  0.00000000000E+00  0.00000000000E+00 -0.94511945087E+03  0.20339377971E+04  0.18010142104E+04 0.  0.
        2    1    3    3  502    0 -0.80852036119E+03 -0.33603105957E+03 -0.71023185954E+03  0.11274091279E+04  0.25500000920E-02 0. -1.
       -2    1    3    3    0  502  0.80852036119E+03  0.33603105957E+03 -0.23488759133E+03  0.90652866916E+03  0.25500000920E-02 0.  1.
</event>
<event>
 5   0  0.3984648E-05  0.1791114E+04  0.7818609E-02  0.8711040E-01
       -2   -1    0    0    0  501  0.00000000000E+00  0.00000000000E+00  0.10801228986E+04  0.10801228986E+04  0.25500000920E-02 0. -1.
        2   -1    0    0  501    0  0.00000000000E+00  0.00000000000E+00 -0.74252838159E+03  0.74252838160E+03  0.25500000920E-02 0.  1.
    10030    2    1    2    0    0  0.00000000000E+00  0.00000000000E+00  0.33759451702E+03  0.18226512802E+04  0.17911135172E+04 0.  0.
        1    1    3    3  502    0 -0.59527681667E+03 -0.37119118000E+03  0.73527183005E+03  0.10162490072E+04  0.50400001928E-02 0. -1.
       -1    1    3    3    0  502  0.59527681667E+03  0.37119118000E+03 -0.39767731303E+03  0.80640227300E+03  0.50400001928E-02 0.  1.
</event>
<event>
 5   0  0.1446750E-05  0.1803252E+04  0.7818609E-02  0.8704572E-01
        4   -1    0    0  501    0  0.00000000000E+00  0.00000000000E+00  0.11604734641E+04  0.11604741590E+04  0.12699999809E+01 0.  1.
       -4   -1    0    0    0  501  0.00000000000E+00  0.00000000000E+00 -0.70051397690E+03  0.70051512812E+03  0.12699999809E+01 0. -1.
    10030    2    1    2    0    0  0.00000000000E+00  0.00000000000E+00  0.45995948716E+03  0.18609892871E+04  0.18032521723E+04 0.  0.
        2    1    3    3  502    0 -0.58202845017E+03  0.56890753264E+03  0.63036654764E+03  0.10294536813E+04  0.25500000920E-02 0. -1.
       -2    1    3    3    0  502  0.58202845017E+03 -0.56890753264E+03 -0.17040706048E+03  0.83153560584E+03  0.25500000920E-02 0.  1.
</event>
<event>
 5   0  0.3984648E-05  0.1800901E+04  0.7818609E-02  0.8705820E-01
       -2   -1    0    0    0  501  0.00000000000E+00  0.00000000000E+00  0.50312376849E+03  0.50312376850E+03  0.25500000920E-02 0.  1.
        2   -1    0    0  501    0  0.00000000000E+00  0.00000000000E+00 -0.16115542481E+04  0.16115542481E+04  0.25500000920E-02 0. -1.
    10030    2    1    2    0    0  0.00000000000E+00  0.00000000000E+00 -0.11084304797E+04  0.21146780166E+04  0.18009011594E+04 0.  0.
        1    1    3    3  502    0  0.17734671955E+02  0.79456217280E+03 -0.10512470787E+04  0.13178634169E+04  0.50400001928E-02 0. -1.
       -1    1    3    3    0  502 -0.17734671955E+02 -0.79456217280E+03 -0.57183400947E+02  0.79681459976E+03  0.50400001928E-02 0.  1.
</event>
<event>
 5   0  0.2038338E-05  0.1797011E+04  0.7818609E-02  0.8707891E-01
        1   -1    0    0  501    0  0.00000000000E+00  0.00000000000E+00  0.24218827322E+04  0.24218827322E+04  0.50400001928E-02 0. -1.
       -1   -1    0    0    0  501  0.00000000000E+00  0.00000000000E+00 -0.33334074709E+03  0.33334074713E+03  0.50400001928E-02 0.  1.
    10030    2    1    2    0    0  0.00000000000E+00  0.00000000000E+00  0.20885419851E+04  0.27552234793E+04  0.17970110733E+04 0.  0.
        1    1    3    3  502    0 -0.59332579519E+03 -0.26473742150E+03  0.92693789485E+02  0.65628769623E+03  0.50400001928E-02 0.  1.
       -1    1    3    3    0  502  0.59332579519E+03  0.26473742150E+03  0.19958481956E+04  0.20989357831E+04  0.50400001928E-02 0. -1.
</event>
<event>
 5   0  0.3993393E-05  0.1811889E+04  0.7818609E-02  0.8700003E-01
        2   -1    0    0  501    0  0.00000000000E+00  0.00000000000E+00  0.77640813446E+03  0.77640813447E+03  0.25500000920E-02 0. -1.
       -2   -1    0    0    0  501  0.00000000000E+00  0.00000000000E+00 -0.10570926721E+04  0.10570926721E+04  0.25500000920E-02 0.  1.
    10030    2    1    2    0    0  0.00000000000E+00  0.00000000000E+00 -0.28068453763E+03  0.18335008066E+04  0.18118889033E+04 0.  0.
        5    1    3    3  502    0  0.63381228154E+03  0.64346398154E+03 -0.21153306917E+03  0.92764876603E+03  0.46999998093E+01 0.  1.
       -5    1    3    3    0  502 -0.63381228154E+03 -0.64346398154E+03 -0.69151468463E+02  0.90585204054E+03  0.46999998093E+01 0. -1.
</event>
<event>
 5   0  0.1446750E-05  0.1797732E+04  0.7818609E-02  0.8707507E-01
       -3   -1    0    0    0  501  0.00000000000E+00  0.00000000000E+00  0.10910326365E+04  0.10910326411E+04  0.10100000352E+00 0. -1.
        3   -1    0    0  501    0  0.00000000000E+00  0.00000000000E+00 -0.74054608699E+03  0.74054609388E+03  0.10100000352E+00 0.  1.
    10030    2    1    2    0    0  0.00000000000E+00  0.00000000000E+00  0.35048654948E+03  0.18315787350E+04  0.17977318602E+04 0.  0.
        3    1    3    3  502    0  0.34467555183E+03  0.50491820327E+03 -0.49611407788E+03  0.78732002165E+03  0.10100000352E+00 0.  1.
       -3    1    3    3    0  502 -0.34467555183E+03 -0.50491820327E+03  0.84660062736E+03  0.10442587134E+04  0.10100000352E+00 0. -1.
</event>
<event>
 5   0  0.3909859E-05  0.1849945E+04  0.7818609E-02  0.8680181E-01
       -2   -1    0    0    0  501  0.00000000000E+00  0.00000000000E+00  0.43790980479E+03  0.43790980480E+03  0.25500000920E-02 0. -1.
        2   -1    0    0  501    0  0.00000000000E+00  0.00000000000E+00 -0.19537683531E+04  0.19537683531E+04  0.25500000920E-02 0.  1.
    10030    2    1    2    0    0  0.00000000000E+00  0.00000000000E+00 -0.15158585483E+04  0.23916781579E+04  0.18499452080E+04 0.  0.
        4    1    3    3  502    0 -0.25361257757E+03  0.44918591247E+02  0.39061364511E+03  0.46788636653E+03  0.12699999809E+01 0. -1.
       -4    1    3    3    0  502  0.25361257757E+03 -0.44918591247E+02 -0.19064721934E+04  0.19237917914E+04  0.12699999809E+01 0.  1.
</event>
<event>
 5   0  0.3909859E-05  0.1793083E+04  0.7818609E-02  0.8709986E-01
       -2   -1    0    0    0  501  0.00000000000E+00  0.00000000000E+00  0.61062217280E+03  0.61062217280E+03  0.25500000920E-02 0. -1.
        2   -1    0    0  501    0  0.00000000000E+00  0.00000000000E+00 -0.13163406500E+04  0.13163406500E+04  0.25500000920E-02 0.  1.
    10030    2    1    2    0    0  0.00000000000E+00  0.00000000000E+00 -0.70571847718E+03  0.19269628228E+04  0.17930831412E+04 0.  0.
        4    1    3    3  502    0  0.48708042995E+03 -0.74273541270E+03 -0.48395922023E+03  0.10114946259E+04  0.12699999809E+01 0.  1.
       -4    1    3    3    0  502 -0.48708042995E+03  0.74273541270E+03 -0.22175925695E+03  0.91546819686E+03  0.12699999809E+01 0. -1.
</event>
<event>
 5   0  0.2001811E-05  0.1800323E+04  0.7818609E-02  0.8706128E-01
        1   -1    0    0  501    0  0.00000000000E+00  0.00000000000E+00  0.11785243105E+04  0.11785243105E+04  0.50400001928E-02 0.  1.
       -1   -1    0    0    0  501  0.00000000000E+00  0.00000000000E+00 -0.68754659896E+03  0.68754659898E+03  0.50400001928E-02 0. -1.
    10030    2    1    2    0    0  0.00000000000E+00  0.00000000000E+00  0.49097771155E+03  0.18660709095E+04  0.18003226172E+04 0.  0.
        2    1    3    3  502    0 -0.37054793243E+03  0.19151323208E+03  0.10723093934E+04  0.11505783431E+04  0.25500000920E-02 0.  1.
       -2    1    3    3    0  502  0.37054793243E+03 -0.19151323208E+03 -0.58133168187E+03  0.71549256644E+03  0.25500000920E-02 0. -1.
</event>
<event>
 5   0  0.1960300E-05  0.1798857E+04  0.7818609E-02  0.8706907E-01
        1   -1    0    0  501    0  0.00000000000E+00  0.00000000000E+00  0.14738892168E+04  0.14738892168E+04  0.50400001928E-02 0. -1.
       -1   -1    0    0    0  501  0.00000000000E+00  0.00000000000E+00 -0.54886886887E+03  0.54886886889E+03  0.50400001928E-02 0.  1.
    10030    2    1    2    0    0  0.00000000000E+00  0.00000000000E+00  0.92502034797E+03  0.20227580857E+04  0.17988573121E+04 0.  0.
        3    1    3    3  502    0  0.73012086490E+03 -0.51784480602E+03  0.56138781870E+03  0.10565964290E+04  0.10100000352E+00 0. -1.
       -3    1    3    3    0  502 -0.73012086490E+03  0.51784480602E+03  0.36363252927E+03  0.96616165678E+03  0.10100000352E+00 0.  1.
</event>
<event>
 5   0  0.2054876E-05  0.1797398E+04  0.7818609E-02  0.8707685E-01
       -1   -1    0    0    0  501  0.00000000000E+00  0.00000000000E+00  0.45642248918E+03  0.45642248921E+03  0.50400001928E-02 0.  1.
        1   -1    0    0  501    0  0.00000000000E+00  0.00000000000E+00 -0.17695440725E+04  0.17695440725E+04  0.50400001928E-02 0. -1.
    10030    2    1    2    0    0  0.00000000000E+00  0.00000000000E+00 -0.13131215833E+04  0.22259665617E+04  0.17973977972E+04 0.  0.
        5    1    3    3  502    0  0.34303085859E+03  0.13726652615E+03  0.35799574455E+03  0.51448548304E+03  0.46999998093E+01 0.  1.
       -5    1    3    3    0  502 -0.34303085859E+03 -0.13726652615E+03 -0.16711173279E+04  0.17114810787E+04  0.46999998093E+01 0. -1.
</event>
<event>
 5   0  0.3909859E-05  0.1801973E+04  0.7818609E-02  0.8705251E-01
       -2   -1    0    0    0  501  0.00000000000E+00  0.00000000000E+00  0.95615775806E+03  0.95615775806E+03  0.25500000920E-02 0. -1.
        2   -1    0    0  501    0  0.00000000000E+00  0.00000000000E+00 -0.84899871247E+03  0.84899871247E+03  0.25500000920E-02 0.  1.
    10030    2    1    2    0    0  0.00000000000E+00  0.00000000000E+00  0.10715904559E+03  0.18051564705E+04  0.18019730359E+04 0.  0.
        4    1    3    3  502    0 -0.48246545663E+03  0.20404315421E+03  0.78792883746E+03  0.94617122733E+03  0.12699999809E+01 0. -1.
       -4    1    3    3    0  502  0.48246545663E+03 -0.20404315421E+03 -0.68076979187E+03  0.85898524321E+03  0.12699999809E+01 0.  1.
</event>
<event>
 5   0  0.3993393E-05  0.1798305E+04  0.7818609E-02  0.8707201E-01
        2   -1    0    0  501    0  0.00000000000E+00  0.00000000000E+00  0.53428979043E+03  0.53428979044E+03  0.25500000920E-02 0. -1.
       -2   -1    0    0    0  501  0.00000000000E+00  0.00000000000E+00 -0.15131774548E+04  0.15131774548E+04  0.25500000920E-02 0.  1.
    10030    2    1    2    0    0  0.00000000000E+00  0.00000000000E+00 -0.97888766436E+03  0.20474672452E+04  0.17983050522E+04 0.  0.
        5    1    3    3  502    0  0.24642382816E+02  0.14118418083E+03  0.52118740860E+03  0.54055399807E+03  0.46999998093E+01 0. -1.
       -5    1    3    3    0  502 -0.24642382816E+02 -0.14118418083E+03 -0.15000750730E+04  0.15069132472E+04  0.46999998093E+01 0.  1.
</event>
<event>
 5   0  0.3984648E-05  0.1799320E+04  0.7818609E-02  0.8706661E-01
       -2   -1    0    0    0  501  0.00000000000E+00  0.00000000000E+00  0.44944453612E+03  0.44944453613E+03  0.25500000920E-02 0. -1.
        2   -1    0    0  501    0  0.00000000000E+00  0.00000000000E+00 -0.18008640661E+04  0.18008640661E+04  0.25500000920E-02 0.  1.
    10030    2    1    2    0    0  0.00000000000E+00  0.00000000000E+00 -0.13514195299E+04  0.22503086022E+04  0.17993204437E+04 0.  0.
        1    1    3    3  502    0 -0.28933873662E+03  0.34010907050E+03  0.30107205701E+03  0.53854941081E+03  0.50400001928E-02 0. -1.
       -1    1    3    3    0  502  0.28933873662E+03 -0.34010907050E+03 -0.16524915870E+04  0.17117591914E+04  0.50400001928E-02 0.  1.
</event>
<event>
 5   0  0.3984648E-05  0.1799875E+04  0.7818609E-02  0.8706366E-01
        2   -1    0    0  501    0  0.00000000000E+00  0.00000000000E+00  0.15568072200E+04  0.15568072200E+04  0.25500000920E-02 0. -1.
       -2   -1    0    0    0  501  0.00000000000E+00  0.00000000000E+00 -0.52022364128E+03  0.52022364129E+03  0.25500000920E-02 0.  1.
    10030    2    1    2    0    0  0.00000000000E+00  0.00000000000E+00  0.10365835788E+04  0.20770308613E+04  0.17998754632E+04 0.  0.
        1    1    3    3  502    0 -0.30889803079E+03  0.87265886253E+02  0.14885013166E+04  0.15227177998E+04  0.50400001928E-02 0. -1.
       -1    1    3    3    0  502  0.30889803079E+03 -0.87265886253E+02 -0.45191773786E+03  0.55431306150E+03  0.50400001928E-02 0.  1.
</event>
<event>
 5   0  0.2054876E-05  0.1797293E+04  0.7818609E-02  0.8707741E-01
       -1   -1    0    0    0  501  0.00000000000E+00  0.00000000000E+00  0.11163567109E+04  0.11163567109E+04  0.50400001928E-02 0.  1.
        1   -1    0    0  501    0  0.00000000000E+00  0.00000000000E+00 -0.72339354391E+03  0.72339354393E+03  0.50400001928E-02 0. -1.
    10030    2    1    2    0    0  0.00000000000E+00  0.00000000000E+00  0.39296316697E+03  0.18397502548E+04  0.17972926722E+04 0.  0.
        5    1    3    3  502    0  0.78322293502E+03  0.12834156552E+03  0.62790370656E+03  0.10120251371E+04  0.46999998093E+01 0.  1.
       -5    1    3    3    0  502 -0.78322293502E+03 -0.12834156552E+03 -0.23494053959E+03  0.82772511773E+03  0.46999998093E+01 0. -1.
</event>
<event>
 5   0  0.2054876E-05  0.1805950E+04  0.7818609E-02  0.8703142E-01
       -1   -1    0    0    0  501  0.00000000000E+00  0.00000000000E+00  0.46495363724E+03  0.46495363727E+03  0.50400001928E-02 0. -1.
        1   -1    0    0  501    0  0.00000000000E+00  0.00000000000E+00 -0.17536457771E+04  0.17536457771E+04  0.50400001928E-02 0.  1.
    10030    2    1    2    0    0  0.00000000000E+00  0.00000000000E+00 -0.12886921399E+04  0.22185994144E+04  0.18059501461E+04 0.  0.
        5    1    3    3  502    0  0.12072628420E+03 -0.69325204645E+03  0.50778347050E+02  0.70553083996E+03  0.46999998093E+01 0. -1.
       -5    1    3    3    0  502 -0.12072628420E+03  0.69325204645E+03 -0.13394704869E+04  0.15130685745E+04  0.46999998093E+01 0.  1.
</event>
<event>
 5   0  0.3909859E-05  0.1808981E+04  0.7818609E-02  0.8701538E-01
        2   -1    0    0  501    0  0.00000000000E+00  0.00000000000E+00  0.89764092596E+03  0.89764092596E+03  0.25500000920E-02 0.  1.
       -2   -1    0    0    0  501  0.00000000000E+00  0.00000000000E+00 -0.91139187574E+03  0.91139187574E+03  0.25500000920E-02 0. -1.
    10030    2    1    2    0    0  0.00000000000E+00  0.00000000000E+00 -0.13750949781E+02  0.18090328017E+04  0.18089805386E+04 0.  0.
        4    1    3    3  502    0 -0.40582640472E+03  0.63840263018E+03 -0.50272046189E+03  0.90828545330E+03  0.12699999809E+01 0. -1.
       -4    1    3    3    0  502  0.40582640472E+03 -0.63840263018E+03  0.48896951211E+03  0.90074734840E+03  0.12699999809E+01 0.  1.
</event>
<event>
 5   0  0.1906857E-05  0.1800345E+04  0.7818609E-02  0.8706116E-01
       -1   -1    0    0    0  501  0.00000000000E+00  0.00000000000E+00  0.91925411480E+03  0.91925411481E+03  0.50400001928E-02 0. -1.
        1   -1    0    0  501    0  0.00000000000E+00  0.00000000000E+00 -0.88148735751E+03  0.88148735752E+03  0.50400001928E-02 0.  1.
    10030    2    1    2    0    0  0.00000000000E+00  0.00000000000E+00  0.37766757292E+02  0.18007414723E+04  0.18003453897E+04 0.  0.
        4    1    3    3  502    0  0.42697518323E+03 -0.71399939693E+03 -0.32500372364E+03  0.89315842894E+03  0.12699999809E+01 0.  1.
       -4    1    3    3    0  502 -0.42697518323E+03  0.71399939693E+03  0.36277048093E+03  0.90758304339E+03  0.12699999809E+01 0. -1.
</event>
<event>
 5   0  0.3909859E-05  0.1827644E+04  0.7818609E-02  0.8691735E-01
        2   -1    0    0  501    0  0.00000000000E+00  0.00000000000E+00  0.13512843992E+04  0.13512843993E+04  0.25500000920E-02 0. -1.
       -2   -1    0    0    0  501  0.00000000000E+00  0.00000000000E+00 -0.61798319230E+03  0.61798319230E+03  0.25500000920E-02 0.  1.
    10030    2    1    2    0    0  0.00000000000E+00  0.00000000000E+00  0.73330120695E+03  0.19692675916E+04  0.18276444367E+04 0.  0.
        4    1    3    3  502    0 -0.88730352814E+03  0.16144328279E+03  0.20793399693E+03  0.92553208728E+03  0.12699999809E+01 0.  1.
       -4    1    3    3    0  502  0.88730352814E+03 -0.16144328279E+03  0.52536721002E+03  0.10437355043E+04  0.12699999809E+01 0. -1.
</event>
<event>
 5   0  0.1960300E-05  0.1800830E+04  0.7818609E-02  0.8705858E-01
       -1   -1    0    0    0  501  0.00000000000E+00  0.00000000000E+00  0.48760229258E+03  0.48760229260E+03  0.50400001928E-02 0.  1.
        1   -1    0    0  501    0  0.00000000000E+00  0.00000000000E+00 -0.16627218184E+04  0.16627218184E+04  0.50400001928E-02 0. -1.
    10030    2    1    2    0    0  0.00000000000E+00  0.00000000000E+00 -0.11751195258E+04  0.21503241110E+04  0.18008297761E+04 0.  0.
        3    1    3    3  502    0  0.15157937372E+02 -0.88669180820E+03 -0.77367770197E+03  0.11768726875E+04  0.10100000352E+00 0. -1.
       -3    1    3    3    0  502 -0.15157937372E+02  0.88669180820E+03 -0.40144182382E+03  0.97345142350E+03  0.10100000352E+00 0.  1.
</event>
<event>
 5   0  0.1906857E-05  0.1804804E+04  0.7818609E-02  0.8703749E-01
        1   -1    0    0  501    0  0.00000000000E+00  0.00000000000E+00  0.10616057553E+04  0.10616057554E+04  0.50400001928E-02 0.  1.
       -1   -1    0    0    0  501  0.00000000000E+00  0.00000000000E+00 -0.76707316603E+03  0.76707316605E+03  0.50400001928E-02 0. -1.
    10030    2    1    2    0    0  0.00000000000E+00  0.00000000000E+00  0.29453258931E+03  0.18286789214E+04  0.18048039094E+04 0.  0.
        4    1    3    3  502    0 -0.14216102584E+03  0.87954274255E+03  0.21145117900E+01  0.89096087305E+03  0.12699999809E+01 0. -1.
       -4    1    3    3    0  502  0.14216102584E+03 -0.87954274255E+03  0.29241807752E+03  0.93771804835E+03  0.12699999809E+01 0.  1.
</event>
<event>
 5   0  0.2001811E-05  0.1809507E+04  0.7818609E-02  0.8701260E-01
       -1   -1    0    0    0  501  0.00000000000E+00  0.00000000000E+00  0.11723580105E+04  0.11723580105E+04  0.50400001928E-02 0.  1.
        1   -1    0    0  501    0  0.00000000000E+00  0.00000000000E+00 -0.69823285180E+03  0.69823285182E+03  0.50400001928E-02 0. -1.
    10030    2    1    2    0    0  0.00000000000E+00  0.00000000000E+00  0.47412515873E+03  0.18705908624E+04  0.18095069793E+04 0.  0.
        2    1    3    3  502    0 -0.14272586096E+02  0.74973141029E+02 -0.69489931784E+03  0.69907777860E+03  0.25500000920E-02 0. -1.
       -2    1    3    3    0  502  0.14272586096E+02 -0.74973141029E+02  0.11690244766E+04  0.11715130838E+04  0.25500000920E-02 0.  1.
</event>
<event>
 5   0  0.3984648E-05  0.1796180E+04  0.7818609E-02  0.8708333E-01
        2   -1    0    0  501    0  0.00000000000E+00  0.00000000000E+00  0.64738370661E+03  0.64738370661E+03  0.25500000920E-02 0. -1.
       -2   -1    0    0    0  501  0.00000000000E+00  0.00000000000E+00 -0.12458856475E+04  0.12458856475E+04  0.25500000920E-02 0.  1.
    10030    2    1    2    0    0  0.00000000000E+00  0.00000000000E+00 -0.59850194089E+03  0.18932693541E+04  0.17961804681E+04 0.  0.
        1    1    3    3  502    0 -0.59847741735E+03 -0.48539176080E+03  0.18696995154E+03  0.79293009990E+03  0.50400001928E-02 0. -1.
       -1    1    3    3    0  502  0.59847741735E+03  0.48539176080E+03 -0.78547189243E+03  0.11003392542E+04  0.50400001928E-02 0.  1.
</event>
<event>
 5   0  0.2038338E-05  0.1799880E+04  0.7818609E-02  0.8706363E-01
        1   -1    0    0  501    0  0.00000000000E+00  0.00000000000E+00  0.18583493610E+04  0.18583493610E+04  0.50400001928E-02 0.  1.
       -1   -1    0    0    0  501  0.00000000000E+00  0.00000000000E+00 -0.43581257003E+03  0.43581257006E+03  0.50400001928E-02 0. -1.
    10030    2    1    2    0    0  0.00000000000E+00  0.00000000000E+00  0.14225367910E+04  0.22941619311E+04  0.17998800083E+04 0.  0.
        1    1    3    3  502    0  0.67336256732E+03 -0.46143166045E+03  0.11942056582E+04  0.14465349904E+04  0.50400001928E-02 0.  1.
       -1    1    3    3    0  502 -0.67336256732E+03  0.46143166045E+03  0.22833113277E+03  0.84762694067E+03  0.50400001928E-02 0. -1.
</event>
<event>
 5   0  0.3984648E-05  0.1799812E+04  0.7818609E-02  0.8706399E-01
        2   -1    0    0  501    0  0.00000000000E+00  0.00000000000E+00  0.15828481686E+04  0.15828481686E+04  0.25500000920E-02 0.  1.
       -2   -1    0    0    0  501  0.00000000000E+00  0.00000000000E+00 -0.51162911145E+03  0.51162911146E+03  0.25500000920E-02 0. -1.
    10030    2    1    2    0    0  0.00000000000E+00  0.00000000000E+00  0.10712190572E+04  0.20944772801E+04  0.17998124370E+04 0.  0.
        1    1    3    3  502    0  0.59812052719E+03  0.57052267735E+03  0.94965001241E+03  0.12589993791E+04  0.50400001928E-02 0.  1.
       -1    1    3    3    0  502 -0.59812052719E+03 -0.57052267735E+03  0.12156904476E+03  0.83547790102E+03  0.50400001928E-02 0. -1.
</event>
<event>
 5   0  0.4015729E-05  0.1798871E+04  0.7818609E-02  0.8706900E-01
       -2   -1    0    0    0  501  0.00000000000E+00  0.00000000000E+00  0.13185487746E+04  0.13185487746E+04  0.25500000920E-02 0. -1.
        2   -1    0    0  501    0  0.00000000000E+00  0.00000000000E+00 -0.61354169270E+03  0.61354169271E+03  0.25500000920E-02 0.  1.
    10030    2    1    2    0    0  0.00000000000E+00  0.00000000000E+00  0.70500708192E+03  0.19320904673E+04  0.17988714763E+04 0.  0.
        2    1    3    3  502    0 -0.12230211705E+03  0.68586280084E+03 -0.25850089989E+03  0.74309373881E+03  0.25500000920E-02 0.  1.
       -2    1    3    3    0  502  0.12230211705E+03 -0.68586280084E+03  0.96350798180E+03  0.11889967285E+04  0.25500000920E-02 0. -1.
</event>
<event>
 5   0  0.3909859E-05  0.1811944E+04  0.7818609E-02  0.8699973E-01
        2   -1    0    0  501    0  0.00000000000E+00  0.00000000000E+00  0.16013799369E+04  0.16013799369E+04  0.25500000920E-02 0. -1.
       -2   -1    0    0    0  501  0.00000000000E+00  0.00000000000E+00 -0.51254894870E+03  0.51254894871E+03  0.25500000920E-02 0.  1.
    10030    2    1    2    0    0  0.00000000000E+00  0.00000000000E+00  0.10888309882E+04  0.21139288856E+04  0.18119443735E+04 0.  0.
        4    1    3    3  502    0 -0.82118926293E+03 -0.12676098047E+03  0.12318084990E+03  0.83999719428E+03  0.12699999809E+01 0. -1.
       -4    1    3    3    0  502  0.82118926293E+03  0.12676098047E+03  0.96565013833E+03  0.12739316914E+04  0.12699999809E+01 0.  1.
</event>
<event>
 5   0  0.1906857E-05  0.1801538E+04  0.7818609E-02  0.8705482E-01
        1   -1    0    0  501    0  0.00000000000E+00  0.00000000000E+00  0.12341324758E+04  0.12341324758E+04  0.50400001928E-02 0. -1.
       -1   -1    0    0    0  501  0.00000000000E+00  0.00000000000E+00 -0.65745376858E+03  0.65745376859E+03  0.50400001928E-02 0.  1.
    10030    2    1    2    0    0  0.00000000000E+00  0.00000000000E+00  0.57667870718E+03  0.18915862444E+04  0.18015382839E+04 0.  0.
        4    1    3    3  502    0 -0.24474959598E+03 -0.82677407025E+02  0.11944003610E+04  0.12220195390E+04  0.12699999809E+01 0. -1.
       -4    1    3    3    0  502  0.24474959598E+03  0.82677407025E+02 -0.61772165386E+03  0.66956670535E+03  0.12699999809E+01 0.  1.
</event>
<event>
 5   0  0.2038338E-05  0.1797884E+04  0.7818609E-02  0.8707426E-01
       -1   -1    0    0    0  501  0.00000000000E+00  0.00000000000E+00  0.88046520024E+03  0.88046520026E+03  0.50400001928E-02 0.  1.
        1   -1    0    0  501    0  0.00000000000E+00  0.00000000000E+00 -0.91780626433E+03  0.91780626435E+03  0.50400001928E-02 0. -1.
    10030    2    1    2    0    0  0.00000000000E+00  0.00000000000E+00 -0.37341064091E+02  0.17982714646E+04  0.17978837296E+04 0.  0.
        1    1    3    3  502    0 -0.49181100496E+03  0.72686212956E+03  0.17602461654E+03  0.89509289218E+03  0.50400001928E-02 0. -1.
       -1    1    3    3    0  502  0.49181100496E+03 -0.72686212956E+03 -0.21336568063E+03  0.90317857242E+03  0.50400001928E-02 0.  1.
</event>
<event>
 5   0  0.3909859E-05  0.1804207E+04  0.7818609E-02  0.8704066E-01
       -2   -1    0    0    0  501  0.00000000000E+00  0.00000000000E+00  0.69804253440E+03  0.69804253440E+03  0.25500000920E-02 0.  1.
        2   -1    0    0  501    0  0.00000000000E+00  0.00000000000E+00 -0.11658178094E+04  0.11658178094E+04  0.25500000920E-02 0. -1.
    10030    2    1    2    0    0  0.00000000000E+00  0.00000000000E+00 -0.46777527505E+03  0.18638603439E+04  0.18042066604E+04 0.  0.
        4    1    3    3  502    0  0.31159875867E+03 -0.75775651612E+03 -0.62386073016E+03  0.10298021886E+04  0.12699999809E+01 0. -1.
       -4    1    3    3    0  502 -0.31159875867E+03  0.75775651612E+03  0.15608545512E+03  0.83405815524E+03  0.12699999809E+01 0.  1.
</event>
<event>
 5   0  0.3993393E-05  0.1800213E+04  0.7818609E-02  0.8706186E-01
       -2   -1    0    0    0  501  0.00000000000E+00  0.00000000000E+00  0.18989545333E+04  0.18989545333E+04  0.25500000920E-02 0. -1.
        2   -1    0    0  501    0  0.00000000000E+00  0.00000000000E+00 -0.42665130764E+03  0.42665130764E+03  0.25500000920E-02 0.  1.
    10030    2    1    2    0    0  0.00000000000E+00  0.00000000000E+00  0.14723032257E+04  0.23256058410E+04  0.18002126928E+04 0.  0.
        5    1    3    3  502    0  0.18826512606E+03 -0.68545478069E+03  0.14494559370E+04  0.16143842843E+04  0.46999998093E+01 0. -1.
       -5    1    3    3    0  502 -0.18826512606E+03  0.68545478069E+03  0.22847288671E+02  0.71122155666E+03  0.46999998093E+01 0.  1.
</event>
<event>
 5   0  0.2001811E-05  0.1800515E+04  0.7818609E-02  0.8706025E-01
        1   -1    0    0  501    0  0.00000000000E+00  0.00000000000E+00  0.19871970883E+04  0.19871970883E+04  0.50400001928E-02 0.  1.
       -1   -1    0    0    0  501  0.00000000000E+00  0.00000000000E+00 -0.40784276940E+03  0.40784276944E+03  0.50400001928E-02 0. -1.
    10030    2    1    2    0    0  0.00000000000E+00  0.00000000000E+00  0.15793543189E+04  0.23950398578E+04  0.18005154417E+04 0.  0.
        2    1    3    3  502    0 -0.57677879002E+03  0.25915377503E+03 -0.62717999381E+02  0.63542741457E+03  0.25500000920E-02 0. -1.
       -2    1    3    3    0  502  0.57677879002E+03 -0.25915377503E+03  0.16420723183E+04  0.17596124432E+04  0.25500000920E-02 0.  1.
</event>
<event>
 5   0  0.1960300E-05  0.1796751E+04  0.7818609E-02  0.8708029E-01
        1   -1    0    0  501    0  0.00000000000E+00  0.00000000000E+00  0.11530683205E+04  0.11530683205E+04  0.50400001928E-02 0. -1.
       -1   -1    0    0    0  501  0.00000000000E+00  0.00000000000E+00 -0.69994012235E+03  0.69994012237E+03  0.50400001928E-02 0.  1.
    10030    2    1    2    0    0  0.00000000000E+00  0.00000000000E+00  0.45312819813E+03  0.18530084429E+04  0.17967512698E+04 0.  0.
        3    1    3    3  502    0  0.16026460592E+03  0.52216893950E+03 -0.50902394158E+03  0.74662609691E+03  0.10100000352E+00 0.  1.
       -3    1    3    3    0  502 -0.16026460592E+03 -0.52216893950E+03  0.96215213971E+03  0.11063823460E+04  0.10100000352E+00 0. -1.
</event>
<event>
 5   0  0.4015729E-05  0.1799975E+04  0.7818609E-02  0.8706313E-01
       -2   -1    0    0    0  501  0.00000000000E+00  0.00000000000E+00  0.82193974882E+03  0.82193974882E+03  0.25500000920E-02 0. -1.
        2   -1    0    0  501    0  0.00000000000E+00  0.00000000000E+00 -0.98544646835E+03  0.98544646835E+03  0.25500000920E-02 0.  1.
    10030    2    1    2    0    0  0.00000000000E+00  0.00000000000E+00 -0.16350671953E+03  0.18073862172E+04  0.17999751361E+04 0.  0.
        2    1    3    3  502    0 -0.77686376359E+03 -0.62322325371E+02 -0.53369121113E+03  0.94457804774E+03  0.25500000920E-02 0.  1.
       -2    1    3    3    0  502  0.77686376359E+03  0.62322325371E+02  0.37018449160E+03  0.86280816944E+03  0.25500000920E-02 0. -1.
</event>
<event>
 5   0  0.3909859E-05  0.1808441E+04  0.7818609E-02  0.8701824E-01
       -2   -1    0    0    0  501  0.00000000000E+00  0.00000000000E+00  0.82467785724E+03  0.82467785724E+03  0.25500000920E-02 0.  1.
        2   -1    0    0  501    0  0.00000000000E+00  0.00000000000E+00 -0.99143488908E+03  0.99143488908E+03  0.25500000920E-02 0. -1.
    10030    2    1    2    0    0  0.00000000000E+00  0.00000000000E+00 -0.16675703184E+03  0.18161127463E+04  0.18084406542E+04 0.  0.
        4    1    3    3  502    0 -0.80728622810E+02 -0.37499547463E+03 -0.90567709240E+03  0.98356053455E+03  0.12699999809E+01 0. -1.
       -4    1    3    3    0  502  0.80728622810E+02  0.37499547463E+03  0.73892006056E+03  0.83255221177E+03  0.12699999809E+01 0.  1.
</event>
<event>
 5   0  0.2038338E-05  0.1797928E+04  0.7818609E-02  0.8707402E-01
        1   -1    0    0  501    0  0.00000000000E+00  0.00000000000E+00  0.86480948446E+03  0.86480948448E+03  0.50400001928E-02 0.  1.
       -1   -1    0    0    0  501  0.00000000000E+00  0.00000000000E+00 -0.93446778473E+03  0.93446778474E+03  0.50400001928E-02 0. -1.
    10030    2    1    2    0    0  0.00000000000E+00  0.00000000000E+00 -0.69658300269E+02  0.17992772692E+04  0.17979283670E+04 0.  0.
        1    1    3    3  502    0  0.28144391830E+03  0.33714578164E+03 -0.81980188361E+03  0.93002854022E+03  0.50400001928E-02 0. -1.
       -1    1    3    3    0  502 -0.28144391830E+03 -0.33714578164E+03  0.75014358334E+03  0.86924872900E+03  0.50400001928E-02 0.  1.
</event>
<event>
 5   0  0.2038338E-05  0.1802167E+04  0.7818609E-02  0.8705148E-01
        1   -1    0    0  501    0  0.00000000000E+00  0.00000000000E+00  0.74942156207E+03  0.74942156208E+03  0.50400001928E-02 0.  1.
       -1   -1    0    0    0  501  0.00000000000E+00  0.00000000000E+00 -0.10834375033E+04  0.10834375033E+04  0.50400001928E-02 0. -1.
    10030    2    1    2    0    0  0.00000000000E+00  0.00000000000E+00 -0.33401594122E+03  0.18328590654E+04  0.18021669469E+04 0.  0.
        1    1    3    3  502    0  0.10241275712E+03  0.11841617933E+03 -0.10694991590E+04  0.10808974121E+04  0.50400001928E-02 0. -1.
       -1    1    3    3    0  502 -0.10241275712E+03 -0.11841617933E+03  0.73548321778E+03  0.75196165328E+03  0.50400001928E-02 0.  1.
</event>
<event>
 5   0  0.3983176E-05  0.1799253E+04  0.7818609E-02  0.8706697E-01
       -2   -1    0    0    0  501  0.00000000000E+00  0.00000000000E+00  0.76435532262E+03  0.76435532262E+03  0.25500000920E-02 0. -1.
        2   -1    0    0  501    0  0.00000000000E+00  0.00000000000E+00 -0.10588369083E+04  0.10588369083E+04  0.25500000920E-02 0.  1.
    10030    2    1    2    0    0  0.00000000000E+00  0.00000000000E+00 -0.29448158569E+03  0.18231922309E+04  0.17992527634E+04 0.  0.
        3    1    3    3  502    0 -0.86114355766E+03  0.20882750436E+03  0.10231087589E+02  0.88616129391E+03  0.10100000352E+00 0.  1.
       -3    1    3    3    0  502  0.86114355766E+03 -0.20882750436E+03 -0.30471267328E+03  0.93703093702E+03  0.10100000352E+00 0. -1.
</event>
<event>
 5   0  0.1906857E-05  0.1805471E+04  0.7818609E-02  0.8703396E-01
       -1   -1    0    0    0  501  0.00000000000E+00  0.00000000000E+00  0.47337939472E+03  0.47337939475E+03  0.50400001928E-02 0.  1.
        1   -1    0    0  501    0  0.00000000000E+00  0.00000000000E+00 -0.17215180544E+04  0.17215180545E+04  0.50400001928E-02 0. -1.
    10030    2    1    2    0    0  0.00000000000E+00  0.00000000000E+00 -0.12481386597E+04  0.21948974492E+04  0.18054707693E+04 0.  0.
        4    1    3    3  502    0 -0.78334085141E+02  0.12899740609E+03 -0.17060719401E+04  0.17127345495E+04  0.12699999809E+01 0. -1.
       -4    1    3    3    0  502  0.78334085141E+02 -0.12899740609E+03  0.45793328033E+03  0.48216289966E+03  0.12699999809E+01 0.  1.
</event>
<event>
 5   0  0.2038338E-05  0.1801281E+04  0.7818609E-02  0.8705619E-01
       -1   -1    0    0    0  501  0.00000000000E+00  0.00000000000E+00  0.67622545425E+03  0.67622545427E+03  0.50400001928E-02 0. -1.
        1   -1    0    0  501    0  0.00000000000E+00  0.00000000000E+00 -0.11995304973E+04  0.11995304973E+04  0.50400001928E-02 0.  1.
    10030    2    1    2    0    0  0.00000000000E+00  0.00000000000E+00 -0.52330504309E+03  0.18757559516E+04  0.18012807171E+04 0.  0.
        1    1    3    3  502    0 -0.49254775107E+03  0.44038132996E+03 -0.89901569357E+03  0.11156918124E+04  0.50400001928E-02 0.  1.
       -1    1    3    3    0  502  0.49254775107E+03 -0.44038132996E+03  0.37571065048E+03  0.76006413925E+03  0.50400001928E-02 0. -1.
</event>
<event>
 5   0  0.2038338E-05  0.1800884E+04  0.7818609E-02  0.8705830E-01
        1   -1    0    0  501    0  0.00000000000E+00  0.00000000000E+00  0.26642475948E+04  0.26642475948E+04  0.50400001928E-02 0. -1.
       -1   -1    0    0    0  501  0.00000000000E+00  0.00000000000E+00 -0.30432447456E+03  0.30432447460E+03  0.50400001928E-02 0.  1.
    10030    2    1    2    0    0  0.00000000000E+00  0.00000000000E+00  0.23599231202E+04  0.29685720694E+04  0.18008839490E+04 0.  0.
        1    1    3    3  502    0 -0.17260895762E+03  0.86278881721E+03  0.14953071149E+04  0.17349760123E+04  0.50400001928E-02 0. -1.
       -1    1    3    3    0  502  0.17260895762E+03 -0.86278881721E+03  0.86461600527E+03  0.12335960570E+04  0.50400001928E-02 0.  1.
</event>
<event>
 5   0  0.1960300E-05  0.1799241E+04  0.7818609E-02  0.8706703E-01
        1   -1    0    0  501    0  0.00000000000E+00  0.00000000000E+00  0.10882197505E+04  0.10882197505E+04  0.50400001928E-02 0. -1.
       -1   -1    0    0    0  501  0.00000000000E+00  0.00000000000E+00 -0.74370752262E+03  0.74370752263E+03  0.50400001928E-02 0.  1.
    10030    2    1    2    0    0  0.00000000000E+00  0.00000000000E+00  0.34451222790E+03  0.18319272732E+04  0.17992411898E+04 0.  0.
        3    1    3    3  502    0  0.70532493711E+03 -0.21185817352E+03  0.69831437912E+03  0.10148941496E+04  0.10100000352E+00 0. -1.
       -3    1    3    3    0  502 -0.70532493711E+03  0.21185817352E+03 -0.35380215121E+03  0.81703312357E+03  0.10100000352E+00 0.  1.
</event>
<event>
 5   0  0.3993393E-05  0.1801986E+04  0.7818609E-02  0.8705244E-01
       -2   -1    0    0    0  501  0.00000000000E+00  0.00000000000E+00  0.64843242539E+03  0.64843242540E+03  0.25500000920E-02 0. -1.
        2   -1    0    0  501    0  0.00000000000E+00  0.00000000000E+00 -0.12519241503E+04  0.12519241503E+04  0.25500000920E-02 0.  1.
    10030    2    1    2    0    0  0.00000000000E+00  0.00000000000E+00 -0.60349172495E+03  0.19003565757E+04  0.18019858082E+04 0.  0.
        5    1    3    3  502    0  0.51596680107E+03 -0.66472494952E+03 -0.64132574931E+03  0.10580178661E+04  0.46999998093E+01 0.  1.
       -5    1    3    3    0  502 -0.51596680107E+03  0.66472494952E+03  0.37834024363E+02  0.84233870961E+03  0.46999998093E+01 0. -1.
</event>
<event>
 5   0  0.1906857E-05  0.1783930E+04  0.7818609E-02  0.8714892E-01
       -1   -1    0    0    0  501  0.00000000000E+00  0.00000000000E+00  0.58169852060E+03  0.58169852063E+03  0.50400001928E-02 0. -1.
        1   -1    0    0  501    0  0.00000000000E+00  0.00000000000E+00 -0.13677210819E+04  0.13677210819E+04  0.50400001928E-02 0.  1.
    10030    2    1    2    0    0  0.00000000000E+00  0.00000000000E+00 -0.78602256127E+03  0.19494196025E+04  0.17839297407E+04 0.  0.
        4    1    3    3  502    0  0.76102507037E+03  0.43850428708E+02  0.11311530238E+03  0.77063525897E+03  0.12699999809E+01 0. -1.
       -4    1    3    3    0  502 -0.76102507037E+03 -0.43850428708E+02 -0.89913786365E+03  0.11787843435E+04  0.12699999809E+01 0.  1.
</event>
<event>
 5   0  0.2038338E-05  0.1799475E+04  0.7818609E-02  0.8706579E-01
        1   -1    0    0  501    0  0.00000000000E+00  0.00000000000E+00  0.94189548324E+03  0.94189548325E+03  0.50400001928E-02 0.  1.
       -1   -1    0    0    0  501  0.00000000000E+00  0.00000000000E+00 -0.85946618272E+03  0.85946618273E+03  0.50400001928E-02 0. -1.
    10030    2    1    2    0    0  0.00000000000E+00  0.00000000000E+00  0.82429300519E+02  0.18013616660E+04  0.17994747184E+04 0.  0.
        1    1    3    3  502    0  0.44217703461E+03  0.18381006462E+03 -0.72130625720E+03  0.86578830351E+03  0.50400001928E-02 0. -1.
       -1    1    3    3    0  502 -0.44217703461E+03 -0.18381006462E+03  0.80373555772E+03  0.93557336247E+03  0.50400001928E-02 0.  1.
</event>
<event>
 5   0  0.2038338E-05  0.1804170E+04  0.7818609E-02  0.8704085E-01
       -1   -1    0    0    0  501  0.00000000000E+00  0.00000000000E+00  0.84075705006E+03  0.84075705008E+03  0.50400001928E-02 0.  1.
        1   -1    0    0  501    0  0.00000000000E+00  0.00000000000E+00 -0.96788639318E+03  0.96788639319E+03  0.50400001928E-02 0. -1.
    10030    2    1    2    0    0  0.00000000000E+00  0.00000000000E+00 -0.12712934312E+03  0.18086434433E+04  0.18041699573E+04 0.  0.
        1    1    3    3  502    0 -0.73740320089E+02 -0.89778513877E+03 -0.15471574233E+02  0.90094126326E+03  0.50400001928E-02 0.  1.
       -1    1    3    3    0  502  0.73740320089E+02  0.89778513877E+03 -0.11165776889E+03  0.90770218001E+03  0.50400001928E-02 0. -1.
</event>
<event>
 5   0  0.3993393E-05  0.1800950E+04  0.7818609E-02  0.8705795E-01
       -2   -1    0    0    0  501  0.00000000000E+00  0.00000000000E+00  0.75983872209E+03  0.75983872210E+03  0.25500000920E-02 0. -1.
        2   -1    0    0  501    0  0.00000000000E+00  0.00000000000E+00 -0.10671409793E+04  0.10671409793E+04  0.25500000920E-02 0.  1.
    10030    2    1    2    0    0  0.00000000000E+00  0.00000000000E+00 -0.30730225719E+03  0.18269797014E+04  0.18009497916E+04 0.  0.
        5    1    3    3  502    0  0.57342391490E+03 -0.15439278784E+02 -0.85778675086E+03  0.10319271086E+04  0.46999998093E+01 0.  1.
       -5    1    3    3    0  502 -0.57342391490E+03  0.15439278784E+02  0.55048449368E+03  0.79505259278E+03  0.46999998093E+01 0. -1.
</event>
<event>
 5   0  0.3909859E-05  0.1801048E+04  0.7818609E-02  0.8705743E-01
       -2   -1    0    0    0  501  0.00000000000E+00  0.00000000000E+00  0.53103741071E+03  0.53103741071E+03  0.25500000920E-02 0. -1.
        2   -1    0    0  501    0  0.00000000000E+00  0.00000000000E+00 -0.15270922250E+04  0.15270922251E+04  0.25500000920E-02 0.  1.
    10030    2    1    2    0    0  0.00000000000E+00  0.00000000000E+00 -0.99605481434E+03  0.20581296358E+04  0.18010475853E+04 0.  0.
        4    1    3    3  502    0 -0.11162849752E+03 -0.56254330548E+03 -0.12914098565E+04  0.14130311116E+04  0.12699999809E+01 0.  1.
       -4    1    3    3    0  502  0.11162849752E+03  0.56254330548E+03  0.29535504218E+03  0.64509852414E+03  0.12699999809E+01 0. -1.
</event>
<event>
 5   0  0.2054876E-05  0.1802052E+04  0.7818609E-02  0.8705209E-01
        1   -1    0    0  501    0  0.00000000000E+00  0.00000000000E+00  0.13563952093E+04  0.13563952094E+04  0.50400001928E-02 0.  1.
       -1   -1    0    0    0  501  0.00000000000E+00  0.00000000000E+00 -0.59853311152E+03  0.59853311154E+03  0.50400001928E-02 0. -1.
    10030    2    1    2    0    0  0.00000000000E+00  0.00000000000E+00  0.75786209782E+03  0.19549283209E+04  0.18020515477E+04 0.  0.
        5    1    3    3  502    0 -0.48911668736E+03 -0.55405139170E+03 -0.18017190686E+03  0.76071813737E+03  0.46999998093E+01 0. -1.
       -5    1    3    3    0  502  0.48911668736E+03  0.55405139170E+03  0.93803400469E+03  0.11942101835E+04  0.46999998093E+01 0.  1.
</event>
<event>
 5   0  0.3909859E-05  0.1801078E+04  0.7818609E-02  0.8705726E-01
        2   -1    0    0  501    0  0.00000000000E+00  0.00000000000E+00  0.86495821739E+03  0.86495821739E+03  0.25500000920E-02 0. -1.
       -2   -1    0    0    0  501  0.00000000000E+00  0.00000000000E+00 -0.93758337257E+03  0.93758337257E+03  0.25500000920E-02 0.  1.
    10030    2    1    2    0    0  0.00000000000E+00  0.00000000000E+00 -0.72625155180E+02  0.18025415900E+04  0.18010779468E+04 0.  0.
        4    1    3    3  502    0  0.89047334623E+03  0.13134123248E+03 -0.64183547691E+02  0.90239372803E+03  0.12699999809E+01 0.  1.
       -4    1    3    3    0  502 -0.89047334623E+03 -0.13134123248E+03 -0.84416074898E+01  0.90014786193E+03  0.12699999809E+01 0. -1.
</event>
<event>
 5   0  0.1960300E-05  0.1809064E+04  0.7818609E-02  0.8701494E-01
       -1   -1    0    0    0  501  0.00000000000E+00  0.00000000000E+00  0.38820953333E+03  0.38820953336E+03  0.50400001928E-02 0.  1.
        1   -1    0    0  501    0  0.00000000000E+00  0.00000000000E+00 -0.21075678318E+04  0.21075678318E+04  0.50400001928E-02 0. -1.
    10030    2    1    2    0    0  0.00000000000E+00  0.00000000000E+00 -0.17193582985E+04  0.24957773652E+04  0.18090637628E+04 0.  0.
        3    1    3    3  502    0 -0.70906826500E+03  0.33221518182E+03 -0.23498988255E+03  0.81753592371E+03  0.10100000352E+00 0.  1.
       -3    1    3    3    0  502  0.70906826500E+03 -0.33221518182E+03 -0.14843684159E+04  0.16782414415E+04  0.10100000352E+00 0. -1.
</event>
<event>
 5   0  0.4015729E-05  0.1800784E+04  0.7818609E-02  0.8705882E-01
       -2   -1    0    0    0  501  0.00000000000E+00  0.00000000000E+00  0.61372065270E+03  0.61372065270E+03  0.25500000920E-02 0. -1.
        2   -1    0    0  501    0  0.00000000000E+00  0.00000000000E+00 -0.13209691797E+04  0.13209691797E+04  0.25500000920E-02 0.  1.
    10030    2    1    2    0    0  0.00000000000E+00  0.00000000000E+00 -0.70724852699E+03  0.19346898324E+04  0.18007843482E+04 0.  0.
        2    1    3    3  502    0 -0.72408838481E+03  0.52904088251E+03 -0.26688795874E+03  0.93563744415E+03  0.25500000920E-02 0. -1.
       -2    1    3    3    0  502  0.72408838481E+03 -0.52904088251E+03 -0.44036056825E+03  0.99905238824E+03  0.25500000920E-02 0.  1.
</event>
<event>
 5   0  0.3984648E-05  0.1798949E+04  0.7818609E-02  0.8706858E-01
       -2   -1    0    0    0  501  0.00000000000E+00  0.00000000000E+00  0.49248950406E+03  0.49248950406E+03  0.25500000920E-02 0. -1.
        2   -1    0    0  501    0  0.00000000000E+00  0.00000000000E+00 -0.16427856694E+04  0.16427856694E+04  0.25500000920E-02 0.  1.
    10030    2    1    2    0    0  0.00000000000E+00  0.00000000000E+00 -0.11502961653E+04  0.21352751734E+04  0.17989493596E+04 0.  0.
        1    1    3    3  502    0  0.72004808618E+03 -0.51120976851E+03 -0.37214714745E+03  0.95827875549E+03  0.50400001928E-02 0. -1.
       -1    1    3    3    0  502 -0.72004808618E+03  0.51120976851E+03 -0.77814901786E+03  0.11769964179E+04  0.50400001928E-02 0.  1.
</event>
<event>
 5   0  0.1906857E-05  0.1797916E+04  0.7818609E-02  0.8707409E-01
       -1   -1    0    0    0  501  0.00000000000E+00  0.00000000000E+00  0.10917809057E+04  0.10917809057E+04  0.50400001928E-02 0.  1.
        1   -1    0    0  501    0  0.00000000000E+00  0.00000000000E+00 -0.74018989030E+03  0.74018989032E+03  0.50400001928E-02 0. -1.
    10030    2    1    2    0    0  0.00000000000E+00  0.00000000000E+00  0.35159101539E+03  0.18319707960E+04  0.17979156697E+04 0.  0.
        4    1    3    3  502    0 -0.25713077198E+03 -0.77153432084E+03 -0.21452973969E+03  0.84107435120E+03  0.12699999809E+01 0. -1.
       -4    1    3    3    0  502  0.25713077198E+03  0.77153432084E+03  0.56612075507E+03  0.99089644482E+03  0.12699999809E+01 0.  1.
</event>
<event>
 5   0  0.3984648E-05  0.1797526E+04  0.7818609E-02  0.8707616E-01
        2   -1    0    0  501    0  0.00000000000E+00  0.00000000000E+00  0.15816566452E+04  0.15816566453E+04  0.25500000920E-02 0. -1.
       -2   -1    0    0    0  501  0.00000000000E+00  0.00000000000E+00 -0.51071471267E+03  0.51071471267E+03  0.25500000920E-02 0.  1.
    10030    2    1    2    0    0  0.00000000000E+00  0.00000000000E+00  0.10709419326E+04  0.20923713579E+04  0.17975264328E+04 0.  0.
        1    1    3    3  502    0 -0.49778092471E+03  0.69434071605E+03  0.86031708310E+03  0.12124522104E+04  0.50400001928E-02 0. -1.
       -1    1    3    3    0  502  0.49778092471E+03 -0.69434071605E+03  0.21062484948E+03  0.87991914754E+03  0.50400001928E-02 0.  1.
</event>
<event>
 5   0  0.2001811E-05  0.1798678E+04  0.7818609E-02  0.8707003E-01
       -1   -1    0    0    0  501  0.00000000000E+00  0.00000000000E+00  0.91868276973E+03  0.91868276975E+03  0.50400001928E-02 0.  1.
        1   -1    0    0  501    0  0.00000000000E+00  0.00000000000E+00 -0.88040211557E+03  0.88040211559E+03  0.50400001928E-02 0. -1.
    10030    2    1    2    0    0  0.00000000000E+00  0.00000000000E+00  0.38280654163E+02  0.17990848853E+04  0.17986775743E+04 0.  0.
        2    1    3    3  502    0 -0.77825536575E+03  0.11203156378E+02 -0.43152060947E+03  0.88995334790E+03  0.25500000920E-02 0. -1.
       -2    1    3    3    0  502  0.77825536575E+03 -0.11203156378E+02  0.46980126364E+03  0.90913153743E+03  0.25500000920E-02 0.  1.
</event>
<event>
 5   0  0.3909859E-05  0.1799453E+04  0.7818609E-02  0.8706591E-01
       -2   -1    0    0    0  501  0.00000000000E+00  0.00000000000E+00  0.49618262085E+03  0.49618262085E+03  0.25500000920E-02 0.  1.
        2   -1    0    0  501    0  0.00000000000E+00  0.00000000000E+00 -0.16314706354E+04  0.16314706354E+04  0.25500000920E-02 0. -1.
    10030    2    1    2    0    0  0.00000000000E+00  0.00000000000E+00 -0.11352880145E+04  0.21276532562E+04  0.17994525564E+04 0.  0.
        4    1    3    3  502    0 -0.28818604729E+03  0.84889629561E+03 -0.47736610097E+03  0.10156555153E+04  0.12699999809E+01 0. -1.
       -4    1    3    3    0  502  0.28818604729E+03 -0.84889629561E+03 -0.65792191357E+03  0.11119977409E+04  0.12699999809E+01 0.  1.
</event>
<event>
 5   0  0.3983176E-05  0.1801170E+04  0.7818609E-02  0.8705678E-01
       -2   -1    0    0    0  501  0.00000000000E+00  0.00000000000E+00  0.55199972315E+03  0.55199972316E+03  0.25500000920E-02 0. -1.
        2   -1    0    0  501    0  0.00000000000E+00  0.00000000000E+00 -0.14692998484E+04  0.14692998484E+04  0.25500000920E-02 0.  1.
    10030    2    1    2    0    0  0.00000000000E+00  0.00000000000E+00 -0.91730012527E+03  0.20212995716E+04  0.18011697417E+04 0.  0.
        3    1    3    3  502    0 -0.79277245460E+03  0.41200021175E+03 -0.33158301820E+03  0.95298459978E+03  0.10100000352E+00 0.  1.
       -3    1    3    3    0  502  0.79277245460E+03 -0.41200021175E+03 -0.58571710707E+03  0.10683149718E+04  0.10100000352E+00 0. -1.
</event>
<event>
 5   0  0.2001811E-05  0.1797653E+04  0.7818609E-02  0.8707549E-01
        1   -1    0    0  501    0  0.00000000000E+00  0.00000000000E+00  0.84758439626E+03  0.84758439627E+03  0.50400001928E-02 0. -1.
       -1   -1    0    0    0  501  0.00000000000E+00  0.00000000000E+00 -0.95316626717E+03  0.95316626718E+03  0.50400001928E-02 0.  1.
    10030    2    1    2    0    0  0.00000000000E+00  0.00000000000E+00 -0.10558187091E+03  0.18007506635E+04  0.17976527530E+04 0.  0.
        2    1    3    3  502    0 -0.16826583036E+03  0.36159072374E+03 -0.85967742141E+03  0.94768481578E+03  0.25500000920E-02 0.  1.
       -2    1    3    3    0  502  0.16826583036E+03 -0.36159072374E+03  0.75409555051E+03  0.85306584767E+03  0.25500000920E-02 0. -1.
</event>
<event>
 5   0  0.1906857E-05  0.1796778E+04  0.7818609E-02  0.8708015E-01
        1   -1    0    0  501    0  0.00000000000E+00  0.00000000000E+00  0.99200210450E+03  0.99200210451E+03  0.50400001928E-02 0. -1.
       -1   -1    0    0    0  501  0.00000000000E+00  0.00000000000E+00 -0.81361018469E+03  0.81361018470E+03  0.50400001928E-02 0.  1.
    10030    2    1    2    0    0  0.00000000000E+00  0.00000000000E+00  0.17839191981E+03  0.18056122892E+04  0.17967782451E+04 0.  0.
        4    1    3    3  502    0 -0.63577057317E+02  0.28945153993E+03  0.94146783736E+03  0.98700939097E+03  0.12699999809E+01 0. -1.
       -4    1    3    3    0  502  0.63577057317E+02 -0.28945153993E+03 -0.76307591754E+03  0.81860289825E+03  0.12699999809E+01 0.  1.
</event>
<event>
 5   0  0.1960300E-05  0.1802902E+04  0.7818609E-02  0.8704758E-01
       -1   -1    0    0    0  501  0.00000000000E+00  0.00000000000E+00  0.54836922206E+03  0.54836922209E+03  0.50400001928E-02 0.  1.
        1   -1    0    0  501    0  0.00000000000E+00  0.00000000000E+00 -0.14818730069E+04  0.14818730069E+04  0.50400001928E-02 0. -1.
    10030    2    1    2    0    0  0.00000000000E+00  0.00000000000E+00 -0.93350378480E+03  0.20302422290E+04  0.18029016035E+04 0.  0.
        3    1    3    3  502    0 -0.33402633119E+02  0.31832355128E+03  0.48222657126E+03  0.57878156106E+03  0.10100000352E+00 0.  1.
       -3    1    3    3    0  502  0.33402633119E+02 -0.31832355128E+03 -0.14157303561E+04  0.14514606679E+04  0.10100000352E+00 0. -1.
</event>
<event>
 5   0  0.1960300E-05  0.1774572E+04  0.7818609E-02  0.8719940E-01
       -1   -1    0    0    0  501  0.00000000000E+00  0.00000000000E+00  0.47321725579E+03  0.47321725582E+03  0.50400001928E-02 0. -1.
        1   -1    0    0  501    0  0.00000000000E+00  0.00000000000E+00 -0.16636676216E+04  0.16636676216E+04  0.50400001928E-02 0.  1.
    10030    2    1    2    0    0  0.00000000000E+00  0.00000000000E+00 -0.11904503658E+04  0.21368848775E+04  0.17745717528E+04 0.  0.
        3    1    3    3  502    0  0.33186980997E+03 -0.65855462670E+03 -0.11893634151E+04  0.13994345681E+04  0.10100000352E+00 0.  1.
       -3    1    3    3    0  502 -0.33186980997E+03  0.65855462670E+03 -0.10869507867E+01  0.73745030936E+03  0.10100000352E+00 0. -1.
</event>
<event>
 5   0  0.3984648E-05  0.1791337E+04  0.7818609E-02  0.8710920E-01
        2   -1    0    0  501    0  0.00000000000E+00  0.00000000000E+00  0.98818598977E+03  0.98818598977E+03  0.25500000920E-02 0. -1.
       -2   -1    0    0    0  501  0.00000000000E+00  0.00000000000E+00 -0.81181238707E+03  0.81181238708E+03  0.25500000920E-02 0.  1.
    10030    2    1    2    0    0  0.00000000000E+00  0.00000000000E+00  0.17637360270E+03  0.17999983768E+04  0.17913365147E+04 0.  0.
        1    1    3    3  502    0  0.22268131649E+03 -0.29987761038E+02 -0.78303239036E+03  0.81463240723E+03  0.50400001928E-02 0.  1.
       -1    1    3    3    0  502 -0.22268131649E+03  0.29987761038E+02  0.95940599306E+03  0.98536596961E+03  0.50400001928E-02 0. -1.
</event>
<event>
 5   0  0.3993393E-05  0.1804842E+04  0.7818609E-02  0.8703729E-01
        2   -1    0    0  501    0  0.00000000000E+00  0.00000000000E+00  0.19838097861E+04  0.19838097861E+04  0.25500000920E-02 0.  1.
       -2   -1    0    0    0  501  0.00000000000E+00  0.00000000000E+00 -0.41050489871E+03  0.41050489872E+03  0.25500000920E-02 0. -1.
    10030    2    1    2    0    0  0.00000000000E+00  0.00000000000E+00  0.15733048874E+04  0.23943146848E+04  0.18048419713E+04 0.  0.
        5    1    3    3  502    0 -0.23996025745E+03 -0.35596047010E+03  0.18396576242E+04  0.18890873579E+04  0.46999998093E+01 0.  1.
       -5    1    3    3    0  502  0.23996025745E+03  0.35596047010E+03 -0.26635273685E+03  0.50522732691E+03  0.46999998093E+01 0. -1.
</event>
<event>
 5   0  0.4015729E-05  0.1799502E+04  0.7818609E-02  0.8706564E-01
       -2   -1    0    0    0  501  0.00000000000E+00  0.00000000000E+00  0.34194525591E+03  0.34194525592E+03  0.25500000920E-02 0. -1.
        2   -1    0    0  501    0  0.00000000000E+00  0.00000000000E+00 -0.23674897112E+04  0.23674897112E+04  0.25500000920E-02 0.  1.
    10030    2    1    2    0    0  0.00000000000E+00  0.00000000000E+00 -0.20255444553E+04  0.27094349671E+04  0.17995020147E+04 0.  0.
        2    1    3    3  502    0 -0.80192616607E+03  0.30897688446E+03 -0.14139661053E+04  0.16546457137E+04  0.25500000920E-02 0.  1.
       -2    1    3    3    0  502  0.80192616607E+03 -0.30897688446E+03 -0.61157835003E+03  0.10547892534E+04  0.25500000920E-02 0. -1.
</event>
<event>
 5   0  0.2038338E-05  0.1798333E+04  0.7818609E-02  0.8707186E-01
        1   -1    0    0  501    0  0.00000000000E+00  0.00000000000E+00  0.67661842295E+03  0.67661842297E+03  0.50400001928E-02 0. -1.
       -1   -1    0    0    0  501  0.00000000000E+00  0.00000000000E+00 -0.11949137770E+04  0.11949137770E+04  0.50400001928E-02 0.  1.
    10030    2    1    2    0    0  0.00000000000E+00  0.00000000000E+00 -0.51829535406E+03  0.18715322000E+04  0.17983333121E+04 0.  0.
        1    1    3    3  502    0  0.65626073712E+03 -0.65674978982E+01 -0.89880333238E+03  0.11129100222E+04  0.50400001928E-02 0.  1.
       -1    1    3    3    0  502 -0.65626073712E+03  0.65674978982E+01  0.38050797831E+03  0.75862217783E+03  0.50400001928E-02 0. -1.
</event>
<event>
 5   0  0.4015729E-05  0.1797214E+04  0.7818609E-02  0.8707783E-01
        2   -1    0    0  501    0  0.00000000000E+00  0.00000000000E+00  0.19739935809E+04  0.19739935809E+04  0.25500000920E-02 0. -1.
       -2   -1    0    0    0  501  0.00000000000E+00  0.00000000000E+00 -0.40906624020E+03  0.40906624021E+03  0.25500000920E-02 0.  1.
    10030    2    1    2    0    0  0.00000000000E+00  0.00000000000E+00  0.15649273407E+04  0.23830598211E+04  0.17972135458E+04 0.  0.
        2    1    3    3  502    0  0.43478695266E+03  0.45494669704E+03 -0.68103351280E+02  0.63297255692E+03  0.25500000920E-02 0.  1.
       -2    1    3    3    0  502 -0.43478695266E+03 -0.45494669704E+03  0.16330306920E+04  0.17500872642E+04  0.25500000920E-02 0. -1.
</event>
<event>
 5   0  0.2038338E-05  0.1835591E+04  0.7818609E-02  0.8687598E-01
        1   -1    0    0  501    0  0.00000000000E+00  0.00000000000E+00  0.92886877563E+03  0.92886877564E+03  0.50400001928E-02 0. -1.
       -1   -1    0    0    0  501  0.00000000000E+00  0.00000000000E+00 -0.90685398702E+03  0.90685398703E+03  0.50400001928E-02 0.  1.
    10030    2    1    2    0    0  0.00000000000E+00  0.00000000000E+00  0.22014788608E+02  0.18357227627E+04  0.18355907524E+04 0.  0.
        1    1    3    3  502    0 -0.56411668111E+03 -0.46692799990E+03  0.56430929619E+03  0.92449681924E+03  0.50400001928E-02 0. -1.
       -1    1    3    3    0  502  0.56411668111E+03  0.46692799990E+03 -0.54229450758E+03  0.91122594343E+03  0.50400001928E-02 0.  1.
</event>
<event>
 5   0  0.2054876E-05  0.1799309E+04  0.7818609E-02  0.8706667E-01
       -1   -1    0    0    0  501  0.00000000000E+00  0.00000000000E+00  0.12259295068E+04  0.12259295068E+04  0.50400001928E-02 0.  1.
        1   -1    0    0  501    0  0.00000000000E+00  0.00000000000E+00 -0.66021630023E+03  0.66021630025E+03  0.50400001928E-02 0. -1.
    10030    2    1    2    0    0  0.00000000000E+00  0.00000000000E+00  0.56571320654E+03  0.18861458070E+04  0.17993094712E+04 0.  0.
        5    1    3    3  502    0 -0.60058297728E+03 -0.35509902158E+03  0.87821097098E+03  0.11216380108E+04  0.46999998093E+01 0.  1.
       -5    1    3    3    0  502  0.60058297728E+03  0.35509902158E+03 -0.31249776444E+03  0.76450779623E+03  0.46999998093E+01 0. -1.
</event>
<event>
 5   0  0.3909859E-05  0.1799763E+04  0.7818609E-02  0.8706426E-01
        2   -1    0    0  501    0  0.00000000000E+00  0.00000000000E+00  0.10547690485E+04  0.10547690485E+04  0.25500000920E-02 0. -1.
       -2   -1    0    0    0  501  0.00000000000E+00  0.00000000000E+00 -0.76773835693E+03  0.76773835693E+03  0.25500000920E-02 0.  1.
    10030    2    1    2    0    0  0.00000000000E+00  0.00000000000E+00  0.28703069159E+03  0.18225074055E+04  0.17997629358E+04 0.  0.
        4    1    3    3  502    0 -0.16937885590E+03 -0.20246905779E+03 -0.72764846131E+03  0.77405220259E+03  0.12699999809E+01 0.  1.
       -4    1    3    3    0  502  0.16937885590E+03  0.20246905779E+03  0.10146791529E+04  0.10484552029E+04  0.12699999809E+01 0. -1.
</event>
<event>
 5   0  0.1960300E-05  0.1801681E+04  0.7818609E-02  0.8705406E-01
        1   -1    0    0  501    0  0.00000000000E+00  0.00000000000E+00  0.11815207405E+04  0.11815207405E+04  0.50400001928E-02 0.  1.
       -1   -1    0    0    0  501  0.00000000000E+00  0.00000000000E+00 -0.68683818772E+03  0.68683818774E+03  0.50400001928E-02 0. -1.
    10030    2    1    2    0    0  0.00000000000E+00  0.00000000000E+00  0.49468255280E+03  0.18683589283E+04  0.18016809531E+04 0.  0.
        3    1    3    3  502    0  0.57708387585E+03 -0.31939211044E+03  0.88362574508E+03  0.11026475355E+04  0.10100000352E+00 0.  1.
       -3    1    3    3    0  502 -0.57708387585E+03  0.31939211044E+03 -0.38894319229E+03  0.76571139276E+03  0.10100000352E+00 0. -1.
</event>
<event>
 5   0  0.1446750E-05  0.1805960E+04  0.7818609E-02  0.8703136E-01
       -3   -1    0    0    0  501  0.00000000000E+00  0.00000000000E+00  0.14952339291E+04  0.14952339325E+04  0.10100000352E+00 0.  1.
        3   -1    0    0  501    0  0.00000000000E+00  0.00000000000E+00 -0.54531458934E+03  0.54531459869E+03  0.10100000352E+00 0. -1.
    10030    2    1    2    0    0  0.00000000000E+00  0.00000000000E+00  0.94991933979E+03  0.20405485312E+04  0.18059600096E+04 0.  0.
        4    1    3    3  502    0  0.14868665016E+03 -0.47496819026E+02 -0.52995486866E+03  0.55246487985E+03  0.12699999809E+01 0. -1.
       -4    1    3    3    0  502 -0.14868665016E+03  0.47496819026E+02  0.14798742085E+04  0.14880836514E+04  0.12699999809E+01 0.  1.
</event>
<event>
 5   0  0.2038338E-05  0.1801307E+04  0.7818609E-02  0.8705605E-01
        1   -1    0    0  501    0  0.00000000000E+00  0.00000000000E+00  0.13844436345E+04  0.13844436345E+04  0.50400001928E-02 0. -1.
       -1   -1    0    0    0  501  0.00000000000E+00  0.00000000000E+00 -0.58592261793E+03  0.58592261795E+03  0.50400001928E-02 0.  1.
    10030    2    1    2    0    0  0.00000000000E+00  0.00000000000E+00  0.79852101653E+03  0.19703662524E+04  0.18013071240E+04 0.  0.
        1    1    3    3  502    0 -0.32106200049E+03 -0.70886526977E+03 -0.96734321124E+02  0.78417364643E+03  0.50400001928E-02 0.  1.
       -1    1    3    3    0  502  0.32106200049E+03  0.70886526977E+03  0.89525533765E+03  0.11861926060E+04  0.50400001928E-02 0. -1.
</event>
<event>
 5   0  0.2001811E-05  0.1800823E+04  0.7818609E-02  0.8705862E-01
       -1   -1    0    0    0  501  0.00000000000E+00  0.00000000000E+00  0.38836283362E+03  0.38836283365E+03  0.50400001928E-02 0.  1.
        1   -1    0    0  501    0  0.00000000000E+00  0.00000000000E+00 -0.20875870227E+04  0.20875870227E+04  0.50400001928E-02 0. -1.
    10030    2    1    2    0    0  0.00000000000E+00  0.00000000000E+00 -0.16992241891E+04  0.24759498564E+04  0.18008233801E+04 0.  0.
        2    1    3    3  502    0 -0.49028913309E+03 -0.12121401306E+03  0.17527782724E+03  0.53460133531E+03  0.25500000920E-02 0.  1.
       -2    1    3    3    0  502  0.49028913309E+03  0.12121401306E+03 -0.18745020164E+04  0.19413485211E+04  0.25500000920E-02 0. -1.
</event>
<event>
 5   0  0.1906857E-05  0.1799242E+04  0.7818609E-02  0.8706702E-01
        1   -1    0    0  501    0  0.00000000000E+00  0.00000000000E+00  0.13036835636E+04  0.13036835636E+04  0.50400001928E-02 0.  1.
       -1   -1    0    0    0  501  0.00000000000E+00  0.00000000000E+00 -0.62079352408E+03  0.62079352410E+03  0.50400001928E-02 0. -1.
    10030    2    1    2    0    0  0.00000000000E+00  0.00000000000E+00  0.68289003955E+03  0.19244770877E+04  0.17992424114E+04 0.  0.
        4    1    3    3  502    0  0.39834749574E+03 -0.10752666689E+03  0.11965090475E+04  0.12656532800E+04  0.12699999809E+01 0.  1.
       -4    1    3    3    0  502 -0.39834749574E+03  0.10752666689E+03 -0.51361900795E+03  0.65882380777E+03  0.12699999809E+01 0. -1.
</event>
<event>
 5   0  0.2054876E-05  0.1801712E+04  0.7818609E-02  0.8705389E-01
       -1   -1    0    0    0  501  0.00000000000E+00  0.00000000000E+00  0.68782425410E+03  0.68782425412E+03  0.50400001928E-02 0. -1.
        1   -1    0    0  501    0  0.00000000000E+00  0.00000000000E+00 -0.11798681793E+04  0.11798681794E+04  0.50400001928E-02 0.  1.
    10030    2    1    2    0    0  0.00000000000E+00  0.00000000000E+00 -0.49204392525E+03  0.18676924335E+04  0.18017124636E+04 0.  0.
        5    1    3    3  502    0 -0.46911138321E+03  0.34165632001E+03  0.46821295596E+03  0.74568089219E+03  0.46999998093E+01 0. -1.
       -5    1    3    3    0  502  0.46911138321E+03 -0.34165632001E+03 -0.96025688121E+03  0.11220115413E+04  0.46999998093E+01 0.  1.
</event>
<event>
 5   0  0.3984648E-05  0.1801008E+04  0.7818609E-02  0.8705764E-01
        2   -1    0    0  501    0  0.00000000000E+00  0.00000000000E+00  0.11529743415E+04  0.11529743415E+04  0.25500000920E-02 0. -1.
       -2   -1    0    0    0  501  0.00000000000E+00  0.00000000000E+00 -0.70331759624E+03  0.70331759625E+03  0.25500000920E-02 0.  1.
    10030    2    1    2    0    0  0.00000000000E+00  0.00000000000E+00  0.44965674527E+03  0.18562919378E+04  0.18010076540E+04 0.  0.
        1    1    3    3  502    0 -0.35761722871E+03  0.39988575964E+02  0.10756480243E+04  0.11342432899E+04  0.50400001928E-02 0. -1.
       -1    1    3    3    0  502  0.35761722871E+03 -0.39988575964E+02 -0.62599127901E+03  0.72204864788E+03  0.50400001928E-02 0.  1.
</event>
<event>
 5   0  0.2001811E-05  0.1797619E+04  0.7818609E-02  0.8707567E-01
        1   -1    0    0  501    0  0.00000000000E+00  0.00000000000E+00  0.91057236361E+03  0.91057236363E+03  0.50400001928E-02 0.  1.
       -1   -1    0    0    0  501  0.00000000000E+00  0.00000000000E+00 -0.88719874960E+03  0.88719874962E+03  0.50400001928E-02 0. -1.
    10030    2    1    2    0    0  0.00000000000E+00  0.00000000000E+00  0.23373614013E+02  0.17977711132E+04  0.17976191615E+04 0.  0.
        2    1    3    3  502    0 -0.12371345886E+03 -0.61470775583E+03  0.65570398621E+03  0.90725870760E+03  0.25500000920E-02 0.  1.
       -2    1    3    3    0  502  0.12371345886E+03  0.61470775583E+03 -0.63233037220E+03  0.89051240564E+03  0.25500000920E-02 0. -1.
</event>
<event>
 5   0  0.3983176E-05  0.1799870E+04  0.7818609E-02  0.8706369E-01
        2   -1    0    0  501    0  0.00000000000E+00  0.00000000000E+00  0.12085238781E+04  0.12085238781E+04  0.25500000920E-02 0.  1.
       -2   -1    0    0    0  501  0.00000000000E+00  0.00000000000E+00 -0.67014230017E+03  0.67014230018E+03  0.25500000920E-02 0. -1.
    10030    2    1    2    0    0  0.00000000000E+00  0.00000000000E+00  0.53838157789E+03  0.18786661782E+04  0.17998699636E+04 0.  0.
        3    1    3    3  502    0 -0.71061964506E+03 -0.20506535188E+03 -0.26594402717E+03  0.78597602653E+03  0.10100000352E+00 0. -1.
       -3    1    3    3    0  502  0.71061964506E+03  0.20506535188E+03  0.80432560505E+03  0.10926901517E+04  0.10100000352E+00 0.  1.
</event>
<event>
 5   0  0.1906857E-05  0.1798075E+04  0.7818609E-02  0.8707324E-01
       -1   -1    0    0    0  501  0.00000000000E+00  0.00000000000E+00  0.62101138772E+03  0.62101138774E+03  0.50400001928E-02 0.  1.
        1   -1    0    0  501    0  0.00000000000E+00  0.00000000000E+00 -0.13015362415E+04  0.13015362415E+04  0.50400001928E-02 0. -1.
    10030    2    1    2    0    0  0.00000000000E+00  0.00000000000E+00 -0.68052485373E+03  0.19225476292E+04  0.17980754461E+04 0.  0.
        4    1    3    3  502    0 -0.66908494052E+03 -0.34256745089E+03  0.18707279850E+03  0.77461278126E+03  0.12699999809E+01 0.  1.
       -4    1    3    3    0  502  0.66908494052E+03  0.34256745089E+03 -0.86759765224E+03  0.11479348479E+04  0.12699999809E+01 0. -1.
</event>
<event>
 5   0  0.3984648E-05  0.1797469E+04  0.7818609E-02  0.8707646E-01
        2   -1    0    0  501    0  0.00000000000E+00  0.00000000000E+00  0.22343025628E+04  0.22343025629E+04  0.25500000920E-02 0. -1.
       -2   -1    0    0    0  501  0.00000000000E+00  0.00000000000E+00 -0.36151059376E+03  0.36151059377E+03  0.25500000920E-02 0.  1.
    10030    2    1    2    0    0  0.00000000000E+00  0.00000000000E+00  0.18727919691E+04  0.25958131566E+04  0.17974693835E+04 0.  0.
        1    1    3    3  502    0 -0.70407558924E+03 -0.11180699082E+03  0.14606150989E+03  0.72770681133E+03  0.50400001928E-02 0.  1.
       -1    1    3    3    0  502  0.70407558924E+03  0.11180699082E+03  0.17267304592E+04  0.18681063453E+04  0.50400001928E-02 0. -1.
</event>
<event>
 5   0  0.1960300E-05  0.1800459E+04  0.7818609E-02  0.8706055E-01
       -1   -1    0    0    0  501  0.00000000000E+00  0.00000000000E+00  0.63899419907E+03  0.63899419909E+03  0.50400001928E-02 0.  1.
        1   -1    0    0  501    0  0.00000000000E+00  0.00000000000E+00 -0.12682637618E+04  0.12682637618E+04  0.50400001928E-02 0. -1.
    10030    2    1    2    0    0  0.00000000000E+00  0.00000000000E+00 -0.62926956276E+03  0.19072579609E+04  0.18004590378E+04 0.  0.
        3    1    3    3  502    0 -0.23624284823E+03 -0.45950675907E+03  0.46628854892E+03  0.69597569356E+03  0.10100000352E+00 0.  1.
       -3    1    3    3    0  502  0.23624284823E+03  0.45950675907E+03 -0.10955581117E+04  0.12112822674E+04  0.10100000352E+00 0. -1.
</event>
<event>
 5   0  0.3909859E-05  0.1801192E+04  0.7818609E-02  0.8705666E-01
        2   -1    0    0  501    0  0.00000000000E+00  0.00000000000E+00  0.13747529914E+04  0.13747529914E+04  0.25500000920E-02 0. -1.
       -2   -1    0    0    0  501  0.00000000000E+00  0.00000000000E+00 -0.58997747085E+03  0.58997747085E+03  0.25500000920E-02 0.  1.
    10030    2    1    2    0    0  0.00000000000E+00  0.00000000000E+00  0.78477552051E+03  0.19647304622E+04  0.18011921529E+04 0.  0.
        4    1    3    3  502    0 -0.13204037261E+03  0.31084206819E+03  0.13030634731E+04  0.13461179292E+04  0.12699999809E+01 0. -1.
       -4    1    3    3    0  502  0.13204037261E+03 -0.31084206819E+03 -0.51828795259E+03  0.61861253306E+03  0.12699999809E+01 0.  1.
</event>
<event>
 5   0  0.3909859E-05  0.1799369E+04  0.7818609E-02  0.8706635E-01
       -2   -1    0    0    0  501  0.00000000000E+00  0.00000000000E+00  0.29036334784E+03  0.29036334785E+03  0.25500000920E-02 0. -1.
        2   -1    0    0  501    0  0.00000000000E+00  0.00000000000E+00 -0.27876513527E+04  0.27876513527E+04  0.25500000920E-02 0.  1.
    10030    2    1    2    0    0  0.00000000000E+00  0.00000000000E+00 -0.24972880049E+04  0.30780147006E+04  0.17993685330E+04 0.  0.
        4    1    3    3  502    0  0.71440071011E+03  0.38721456314E+03 -0.19092282820E+04  0.20749596955E+04  0.12699999809E+01 0. -1.
       -4    1    3    3    0  502 -0.71440071011E+03 -0.38721456314E+03 -0.58805972292E+03  0.10030550050E+04  0.12699999809E+01 0.  1.
</event>
<event>
 5   0  0.3993393E-05  0.1797906E+04  0.7818609E-02  0.8707414E-01
        2   -1    0    0  501    0  0.00000000000E+00  0.00000000000E+00  0.12794773857E+04  0.12794773857E+04  0.25500000920E-02 0. -1.
       -2   -1    0    0    0  501  0.00000000000E+00  0.00000000000E+00 -0.63159909891E+03  0.63159909891E+03  0.25500000920E-02 0.  1.
    10030    2    1    2    0    0  0.00000000000E+00  0.00000000000E+00  0.64787828677E+03  0.19110764846E+04  0.17979062978E+04 0.  0.
        5    1    3    3  502    0  0.26772436772E+03 -0.37555267197E+03  0.11441161668E+04  0.12335882780E+04  0.46999998093E+01 0. -1.
       -5    1    3    3    0  502 -0.26772436772E+03  0.37555267197E+03 -0.49623788003E+03  0.67748820659E+03  0.46999998093E+01 0.  1.
</event>
<event>
 5   0  0.4015729E-05  0.1793752E+04  0.7818609E-02  0.8709629E-01
        2   -1    0    0  501    0  0.00000000000E+00  0.00000000000E+00  0.75271697588E+03  0.75271697589E+03  0.25500000920E-02 0.  1.
       -2   -1    0    0    0  501  0.00000000000E+00  0.00000000000E+00 -0.10686446167E+04  0.10686446167E+04  0.25500000920E-02 0. -1.
    10030    2    1    2    0    0  0.00000000000E+00  0.00000000000E+00 -0.31592764086E+03  0.18213615926E+04  0.17937524291E+04 0.  0.
        2    1    3    3  502    0 -0.28747466501E+03 -0.74947771897E+03 -0.56415661680E+03  0.98113771844E+03  0.25500000920E-02 0. -1.
       -2    1    3    3    0  502  0.28747466501E+03  0.74947771897E+03  0.24822897595E+03  0.84022387419E+03  0.25500000920E-02 0.  1.
</event>
<event>
 5   0  0.3983176E-05  0.1799405E+04  0.7818609E-02  0.8706616E-01
        2   -1    0    0  501    0  0.00000000000E+00  0.00000000000E+00  0.24123936750E+04  0.24123936750E+04  0.25500000920E-02 0.  1.
       -2   -1    0    0    0  501  0.00000000000E+00  0.00000000000E+00 -0.33554396701E+03  0.33554396702E+03  0.25500000920E-02 0. -1.
    10030    2    1    2    0    0  0.00000000000E+00  0.00000000000E+00  0.20768497080E+04  0.27479376421E+04  0.17994045057E+04 0.  0.
        3    1    3    3  502    0  0.15255199077E+03 -0.74468931031E+03  0.30344516600E+03  0.81848228921E+03  0.10100000352E+00 0. -1.
       -3    1    3    3    0  502 -0.15255199077E+03  0.74468931031E+03  0.17734045420E+04  0.19294553529E+04  0.10100000352E+00 0.  1.
</event>
<event>
 5   0  0.3983176E-05  0.1799917E+04  0.7818609E-02  0.8706344E-01
       -2   -1    0    0    0  501  0.00000000000E+00  0.00000000000E+00  0.10288646452E+04  0.10288646453E+04  0.25500000920E-02 0.  1.
        2   -1    0    0  501    0  0.00000000000E+00  0.00000000000E+00 -0.78720314847E+03  0.78720314848E+03  0.25500000920E-02 0. -1.
    10030    2    1    2    0    0  0.00000000000E+00  0.00000000000E+00  0.24166149678E+03  0.18160677937E+04  0.17999172071E+04 0.  0.
        3    1    3    3  502    0 -0.39301669094E+03  0.74998666991E+03 -0.18683711141E+03  0.86709298278E+03  0.10100000352E+00 0.  1.
       -3    1    3    3    0  502  0.39301669094E+03 -0.74998666991E+03  0.42849860818E+03  0.94897481094E+03  0.10100000352E+00 0. -1.
</event>
<event>
 5   0  0.4015729E-05  0.1800231E+04  0.7818609E-02  0.8706177E-01
       -2   -1    0    0    0  501  0.00000000000E+00  0.00000000000E+00  0.68805731045E+03  0.68805731045E+03  0.25500000920E-02 0. -1.
        2   -1    0    0  501    0  0.00000000000E+00  0.00000000000E+00 -0.11775294408E+04  0.11775294408E+04  0.25500000920E-02 0.  1.
    10030    2    1    2    0    0  0.00000000000E+00  0.00000000000E+00 -0.48947213038E+03  0.18655867513E+04  0.18002308075E+04 0.  0.
        2    1    3    3  502    0  0.41678591408E+03 -0.78493958575E+03 -0.39263046712E+03  0.97159628199E+03  0.25500000920E-02 0.  1.
       -2    1    3    3    0  502 -0.41678591408E+03  0.78493958575E+03 -0.96841663257E+02  0.89399046930E+03  0.25500000920E-02 0. -1.
</event>
<event>
 5   0  0.1446750E-05  0.1795186E+04  0.7818609E-02  0.8708864E-01
       -3   -1    0    0    0  501  0.00000000000E+00  0.00000000000E+00  0.17931337282E+04  0.17931337310E+04  0.10100000352E+00 0. -1.
        3   -1    0    0  501    0  0.00000000000E+00  0.00000000000E+00 -0.44931030214E+03  0.44931031349E+03  0.10100000352E+00 0.  1.
    10030    2    1    2    0    0  0.00000000000E+00  0.00000000000E+00  0.13438234260E+04  0.22424440445E+04  0.17951863113E+04 0.  0.
        3    1    3    3  502    0 -0.79736172453E+03  0.34980817287E+03  0.94421907001E+03  0.12844069215E+04  0.10100000352E+00 0. -1.
       -3    1    3    3    0  502  0.79736172453E+03 -0.34980817287E+03  0.39960435601E+03  0.95803712303E+03  0.10100000352E+00 0.  1.
</event>
<event>
 5   0  0.1446750E-05  0.1798547E+04  0.7818609E-02  0.8707072E-01
        4   -1    0    0  501    0  0.00000000000E+00  0.00000000000E+00  0.29446477264E+03  0.29446751132E+03  0.12699999809E+01 0.  1.
       -4   -1    0    0    0  501  0.00000000000E+00  0.00000000000E+00 -0.27462996747E+04  0.27462999684E+04  0.12699999809E+01 0. -1.
    10030    2    1    2    0    0  0.00000000000E+00  0.00000000000E+00 -0.24518349021E+04  0.30407674797E+04  0.17985473245E+04 0.  0.
        2    1    3    3  502    0 -0.70404562912E+02  0.83253351692E+03 -0.66359356427E+03  0.10669701391E+04  0.25500000920E-02 0.  1.
       -2    1    3    3    0  502  0.70404562912E+02 -0.83253351692E+03 -0.17882413378E+04  0.19737973406E+04  0.25500000920E-02 0. -1.
</event>
<event>
 5   0  0.3983176E-05  0.1800611E+04  0.7818609E-02  0.8705975E-01
        2   -1    0    0  501    0  0.00000000000E+00  0.00000000000E+00  0.23333076681E+04  0.23333076681E+04  0.25500000920E-02 0.  1.
       -2   -1    0    0    0  501  0.00000000000E+00  0.00000000000E+00 -0.34738239447E+03  0.34738239448E+03  0.25500000920E-02 0. -1.
    10030    2    1    2    0    0  0.00000000000E+00  0.00000000000E+00  0.19859252737E+04  0.26806900626E+04  0.18006110127E+04 0.  0.
        3    1    3    3  502    0 -0.36160322354E+03  0.27824520059E+03  0.21484344273E+04  0.21963487386E+04  0.10100000352E+00 0.  1.
       -3    1    3    3    0  502  0.36160322354E+03 -0.27824520059E+03 -0.16250915364E+03  0.48434132401E+03  0.10100000352E+00 0. -1.
</event>
<event>
 5   0  0.1906857E-05  0.1764901E+04  0.7818609E-02  0.8725191E-01
       -1   -1    0    0    0  501  0.00000000000E+00  0.00000000000E+00  0.11657153656E+04  0.11657153657E+04  0.50400001928E-02 0.  1.
        1   -1    0    0  501    0  0.00000000000E+00  0.00000000000E+00 -0.66801789478E+03  0.66801789479E+03  0.50400001928E-02 0. -1.
    10030    2    1    2    0    0  0.00000000000E+00  0.00000000000E+00  0.49769747087E+03  0.18337332604E+04  0.17649008182E+04 0.  0.
        4    1    3    3  502    0 -0.93133645273E+02 -0.55646849011E+03  0.95382896567E+03  0.11082068241E+04  0.12699999809E+01 0.  1.
       -4    1    3    3    0  502  0.93133645273E+02  0.55646849011E+03 -0.45613149480E+03  0.72552643633E+03  0.12699999809E+01 0. -1.
</event>
<event>
 5   0  0.3984648E-05  0.1796606E+04  0.7818609E-02  0.8708106E-01
        2   -1    0    0  501    0  0.00000000000E+00  0.00000000000E+00  0.14709328138E+04  0.14709328138E+04  0.25500000920E-02 0. -1.
       -2   -1    0    0    0  501  0.00000000000E+00  0.00000000000E+00 -0.54859657595E+03  0.54859657595E+03  0.25500000920E-02 0.  1.
    10030    2    1    2    0    0  0.00000000000E+00  0.00000000000E+00  0.92233623789E+03  0.20195293898E+04  0.17966064735E+04 0.  0.
        1    1    3    3  502    0 -0.76288980665E+03  0.36970549381E+03  0.12720908795E+03  0.85724276686E+03  0.50400001928E-02 0.  1.
       -1    1    3    3    0  502  0.76288980665E+03 -0.36970549381E+03  0.79512714995E+03  0.11622866229E+04  0.50400001928E-02 0. -1.
</event>
<event>
 5   0  0.4015729E-05  0.1801911E+04  0.7818609E-02  0.8705284E-01
        2   -1    0    0  501    0  0.00000000000E+00  0.00000000000E+00  0.97361589796E+03  0.97361589796E+03  0.25500000920E-02 0.  1.
       -2   -1    0    0    0  501  0.00000000000E+00  0.00000000000E+00 -0.83371782934E+03  0.83371782935E+03  0.25500000920E-02 0. -1.
    10030    2    1    2    0    0  0.00000000000E+00  0.00000000000E+00  0.13989806862E+03  0.18073337273E+04  0.18019111333E+04 0.  0.
        2    1    3    3  502    0  0.18719389897E+03 -0.45961861301E+03 -0.68426472232E+03  0.84528636298E+03  0.25500000920E-02 0. -1.
       -2    1    3    3    0  502 -0.18719389897E+03  0.45961861301E+03  0.82416279093E+03  0.96204736432E+03  0.25500000920E-02 0.  1.
</event>
<event>
 5   0  0.2001811E-05  0.1800484E+04  0.7818609E-02  0.8706042E-01
       -1   -1    0    0    0  501  0.00000000000E+00  0.00000000000E+00  0.12867267702E+04  0.12867267702E+04  0.50400001928E-02 0.  1.
        1   -1    0    0  501    0  0.00000000000E+00  0.00000000000E+00 -0.62984296335E+03  0.62984296337E+03  0.50400001928E-02 0. -1.
    10030    2    1    2    0    0  0.00000000000E+00  0.00000000000E+00  0.65688380684E+03  0.19165697336E+04  0.18004841593E+04 0.  0.
        2    1    3    3  502    0 -0.72638505726E+03 -0.41729469660E+03  0.67934042240E+03  0.10785515865E+04  0.25500000920E-02 0.  1.
       -2    1    3    3    0  502  0.72638505726E+03  0.41729469660E+03 -0.22456615560E+02  0.83801814707E+03  0.25500000920E-02 0. -1.
</event>
<event>
 5   0  0.3993393E-05  0.1794489E+04  0.7818609E-02  0.8709236E-01
       -2   -1    0    0    0  501  0.00000000000E+00  0.00000000000E+00  0.76453219721E+03  0.76453219721E+03  0.25500000920E-02 0. -1.
        2   -1    0    0  501    0  0.00000000000E+00  0.00000000000E+00 -0.10529937194E+04  0.10529937194E+04  0.25500000920E-02 0.  1.
    10030    2    1    2    0    0  0.00000000000E+00  0.00000000000E+00 -0.28846152223E+03  0.18175259167E+04  0.17944888988E+04 0.  0.
        5    1    3    3  502    0  0.89521790541E+02 -0.54334167766E+02 -0.10467703609E+04  0.10520060034E+04  0.46999998093E+01 0.  1.
       -5    1    3    3    0  502 -0.89521790541E+02  0.54334167766E+02  0.75830883867E+03  0.76551991324E+03  0.46999998093E+01 0. -1.
</event>
<event>
 5   0  0.1960300E-05  0.1801518E+04  0.7818609E-02  0.8705493E-01
       -1   -1    0    0    0  501  0.00000000000E+00  0.00000000000E+00  0.54213068028E+03  0.54213068030E+03  0.50400001928E-02 0.  1.
        1   -1    0    0  501    0  0.00000000000E+00  0.00000000000E+00 -0.14966254412E+04  0.14966254412E+04  0.50400001928E-02 0. -1.
    10030    2    1    2    0    0  0.00000000000E+00  0.00000000000E+00 -0.95449476089E+03  0.20387561215E+04  0.18015177696E+04 0.  0.
        3    1    3    3  502    0  0.34524180394E+03 -0.79012138015E+03 -0.77210122371E+03  0.11574212753E+04  0.10100000352E+00 0. -1.
       -3    1    3    3    0  502 -0.34524180394E+03  0.79012138015E+03 -0.18239353718E+03  0.88133484622E+03  0.10100000352E+00 0.  1.
</event>
<event>
 5   0  0.1960300E-05  0.1788066E+04  0.7818609E-02  0.8712671E-01
       -1   -1    0    0    0  501  0.00000000000E+00  0.00000000000E+00  0.82430424721E+03  0.82430424723E+03  0.50400001928E-02 0.  1.
        1   -1    0    0  501    0  0.00000000000E+00  0.00000000000E+00 -0.96966070373E+03  0.96966070375E+03  0.50400001928E-02 0. -1.
    10030    2    1    2    0    0  0.00000000000E+00  0.00000000000E+00 -0.14535645652E+03  0.17939649510E+04  0.17880664825E+04 0.  0.
        3    1    3    3  502    0  0.65344945558E+03 -0.11458532042E+03  0.52860623213E+03  0.84826325247E+03  0.10100000352E+00 0.  1.
       -3    1    3    3    0  502 -0.65344945558E+03  0.11458532042E+03 -0.67396268865E+03  0.94570169850E+03  0.10100000352E+00 0. -1.
</event>
<event>
 5   0  0.1906857E-05  0.1801102E+04  0.7818609E-02  0.8705714E-01
        1   -1    0    0  501    0  0.00000000000E+00  0.00000000000E+00  0.11670983363E+04  0.11670983363E+04  0.50400001928E-02 0. -1.
       -1   -1    0    0    0  501  0.00000000000E+00  0.00000000000E+00 -0.69487875450E+03  0.69487875452E+03  0.50400001928E-02 0.  1.
    10030    2    1    2    0    0  0.00000000000E+00  0.00000000000E+00  0.47221958179E+03  0.18619770908E+04  0.18011017054E+04 0.  0.
        4    1    3    3  502    0  0.75982371246E+03  0.44580710535E+03  0.42927859703E+03  0.97997845689E+03  0.12699999809E+01 0. -1.
       -4    1    3    3    0  502 -0.75982371246E+03 -0.44580710535E+03  0.42940984756E+02  0.88199863394E+03  0.12699999809E+01 0.  1.
</event>
<event>
 5   0  0.3909859E-05  0.1798181E+04  0.7818609E-02  0.8707267E-01
        2   -1    0    0  501    0  0.00000000000E+00  0.00000000000E+00  0.86894008075E+03  0.86894008075E+03  0.25500000920E-02 0. -1.
       -2   -1    0    0    0  501  0.00000000000E+00  0.00000000000E+00 -0.93028721330E+03  0.93028721331E+03  0.25500000920E-02 0.  1.
    10030    2    1    2    0    0  0.00000000000E+00  0.00000000000E+00 -0.61347132558E+02  0.17992272941E+04  0.17981811324E+04 0.  0.
        4    1    3    3  502    0 -0.83504509045E+02 -0.61415070967E+03 -0.68236511817E+03  0.92183396802E+03  0.12699999809E+01 0.  1.
       -4    1    3    3    0  502  0.83504509045E+02  0.61415070967E+03  0.62101798561E+03  0.87739332603E+03  0.12699999809E+01 0. -1.
</event>
<event>
 5   0  0.4015729E-05  0.1814388E+04  0.7818609E-02  0.8698685E-01
        2   -1    0    0  501    0  0.00000000000E+00  0.00000000000E+00  0.20887158694E+04  0.20887158694E+04  0.25500000920E-02 0. -1.
       -2   -1    0    0    0  501  0.00000000000E+00  0.00000000000E+00 -0.39402234725E+03  0.39402234726E+03  0.25500000920E-02 0.  1.
    10030    2    1    2    0    0  0.00000000000E+00  0.00000000000E+00  0.16946935221E+04  0.24827382167E+04  0.18143877531E+04 0.  0.
        2    1    3    3  502    0  0.62132087276E+03 -0.54719317120E+03  0.13548239151E+04  0.15877681930E+04  0.25500000920E-02 0. -1.
       -2    1    3    3    0  502 -0.62132087276E+03  0.54719317120E+03  0.33986960700E+03  0.89497002369E+03  0.25500000920E-02 0.  1.
</event>
<event>
 5   0  0.3909859E-05  0.1807804E+04  0.7818609E-02  0.8702160E-01
       -2   -1    0    0    0  501  0.00000000000E+00  0.00000000000E+00  0.73431913222E+03  0.73431913223E+03  0.25500000920E-02 0.  1.
        2   -1    0    0  501    0  0.00000000000E+00  0.00000000000E+00 -0.11126480490E+04  0.11126480490E+04  0.25500000920E-02 0. -1.
    10030    2    1    2    0    0  0.00000000000E+00  0.00000000000E+00 -0.37832891675E+03  0.18469671812E+04  0.18078039161E+04 0.  0.
        4    1    3    3  502    0 -0.38171362149E+03  0.51868346898E+03  0.45884672046E+03  0.79074632823E+03  0.12699999809E+01 0.  1.
       -4    1    3    3    0  502  0.38171362149E+03 -0.51868346898E+03 -0.83717563721E+03  0.10562208530E+04  0.12699999809E+01 0. -1.
</event>
<event>
 5   0  0.3984648E-05  0.1804330E+04  0.7818609E-02  0.8704000E-01
       -2   -1    0    0    0  501  0.00000000000E+00  0.00000000000E+00  0.12180073014E+04  0.12180073014E+04  0.25500000920E-02 0.  1.
        2   -1    0    0  501    0  0.00000000000E+00  0.00000000000E+00 -0.66822364525E+03  0.66822364525E+03  0.25500000920E-02 0. -1.
    10030    2    1    2    0    0  0.00000000000E+00  0.00000000000E+00  0.54978365620E+03  0.18862309467E+04  0.18043295474E+04 0.  0.
        1    1    3    3  502    0  0.78426856587E+03  0.27017432979E+03  0.64571851165E+03  0.10512010979E+04  0.50400001928E-02 0.  1.
       -1    1    3    3    0  502 -0.78426856587E+03 -0.27017432979E+03 -0.95934855450E+02  0.83502984881E+03  0.50400001928E-02 0. -1.
</event>
<event>
 5   0  0.3983176E-05  0.1792892E+04  0.7818609E-02  0.8710089E-01
       -2   -1    0    0    0  501  0.00000000000E+00  0.00000000000E+00  0.51431882058E+03  0.51431882059E+03  0.25500000920E-02 0. -1.
        2   -1    0    0  501    0  0.00000000000E+00  0.00000000000E+00 -0.15624850856E+04  0.15624850856E+04  0.25500000920E-02 0.  1.
    10030    2    1    2    0    0  0.00000000000E+00  0.00000000000E+00 -0.10481662650E+04  0.20768039061E+04  0.17928920619E+04 0.  0.
        3    1    3    3  502    0 -0.42415789392E+03 -0.78671001799E+03 -0.60427692448E+03  0.10788758886E+04  0.10100000352E+00 0.  1.
       -3    1    3    3    0  502  0.42415789392E+03  0.78671001799E+03 -0.44388934050E+03  0.99792801753E+03  0.10100000352E+00 0. -1.
</event>
<event>
 5   0  0.2038338E-05  0.1801027E+04  0.7818609E-02  0.8705754E-01
       -1   -1    0    0    0  501  0.00000000000E+00  0.00000000000E+00  0.39083215188E+03  0.39083215191E+03  0.50400001928E-02 0. -1.
        1   -1    0    0  501    0  0.00000000000E+00  0.00000000000E+00 -0.20748658699E+04  0.20748658700E+04  0.50400001928E-02 0.  1.
    10030    2    1    2    0    0  0.00000000000E+00  0.00000000000E+00 -0.16840337181E+04  0.24656980219E+04  0.18010266993E+04 0.  0.
        1    1    3    3  502    0  0.16283551986E+03  0.51794323606E+03 -0.18255863456E+04  0.19046117997E+04  0.50400001928E-02 0.  1.
       -1    1    3    3    0  502 -0.16283551986E+03 -0.51794323606E+03  0.14155262754E+03  0.56108622216E+03  0.50400001928E-02 0. -1.
</event>
<event>
 5   0  0.4015729E-05  0.1794499E+04  0.7818609E-02  0.8709230E-01
       -2   -1    0    0    0  501  0.00000000000E+00  0.00000000000E+00  0.85273912099E+03  0.85273912100E+03  0.25500000920E-02 0.  1.
        2   -1    0    0  501    0  0.00000000000E+00  0.00000000000E+00 -0.94408307011E+03  0.94408307011E+03  0.25500000920E-02 0. -1.
    10030    2    1    2    0    0  0.00000000000E+00  0.00000000000E+00 -0.91343949114E+02  0.17968221911E+04  0.17944988909E+04 0.  0.
        2    1    3    3  502    0  0.85394711179E+03  0.10188684228E+03  0.21049116115E+03  0.88538868713E+03  0.25500000920E-02 0.  1.
       -2    1    3    3    0  502 -0.85394711179E+03 -0.10188684228E+03 -0.30183511026E+03  0.91143350397E+03  0.25500000920E-02 0. -1.
</event>
<event>
 5   0  0.2001811E-05  0.1802834E+04  0.7818609E-02  0.8704794E-01
       -1   -1    0    0    0  501  0.00000000000E+00  0.00000000000E+00  0.13077961769E+04  0.13077961769E+04  0.50400001928E-02 0.  1.
        1   -1    0    0  501    0  0.00000000000E+00  0.00000000000E+00 -0.62131470210E+03  0.62131470212E+03  0.50400001928E-02 0. -1.
    10030    2    1    2    0    0  0.00000000000E+00  0.00000000000E+00  0.68648147477E+03  0.19291108790E+04  0.18028344262E+04 0.  0.
        2    1    3    3  502    0 -0.43066521127E+03 -0.69870907013E+03  0.74201832701E+03  0.11064619679E+04  0.25500000920E-02 0.  1.
       -2    1    3    3    0  502  0.43066521127E+03  0.69870907013E+03 -0.55536852242E+02  0.82264891105E+03  0.25500000920E-02 0. -1.
</event>
<event>
 5   0  0.3909859E-05  0.1800351E+04  0.7818609E-02  0.8706113E-01
        2   -1    0    0  501    0  0.00000000000E+00  0.00000000000E+00  0.15431332065E+04  0.15431332065E+04  0.25500000920E-02 0. -1.
       -2   -1    0    0    0  501  0.00000000000E+00  0.00000000000E+00 -0.52511106358E+03  0.52511106358E+03  0.25500000920E-02 0.  1.
    10030    2    1    2    0    0  0.00000000000E+00  0.00000000000E+00  0.10180221429E+04  0.20682442700E+04  0.18003514316E+04 0.  0.
        4    1    3    3  502    0 -0.34830168371E+03  0.81034273694E+03  0.71562047353E+03  0.11358185107E+04  0.12699999809E+01 0. -1.
       -4    1    3    3    0  502  0.34830168371E+03 -0.81034273694E+03  0.30240166935E+03  0.93242575935E+03  0.12699999809E+01 0.  1.
</event>
<event>
 5   0  0.3909859E-05  0.1794426E+04  0.7818609E-02  0.8709269E-01
       -2   -1    0    0    0  501  0.00000000000E+00  0.00000000000E+00  0.53151510456E+03  0.53151510457E+03  0.25500000920E-02 0.  1.
        2   -1    0    0  501    0  0.00000000000E+00  0.00000000000E+00 -0.15145223631E+04  0.15145223631E+04  0.25500000920E-02 0. -1.
    10030    2    1    2    0    0  0.00000000000E+00  0.00000000000E+00 -0.98300725857E+03  0.20460374677E+04  0.17944263843E+04 0.  0.
        4    1    3    3  502    0  0.31921486551E+03  0.64471085579E+03  0.11980608546E+03  0.72931840025E+03  0.12699999809E+01 0.  1.
       -4    1    3    3    0  502 -0.31921486551E+03 -0.64471085579E+03 -0.11028133440E+04  0.13167190675E+04  0.12699999809E+01 0. -1.
</event>
<event>
 5   0  0.2038338E-05  0.1801194E+04  0.7818609E-02  0.8705665E-01
       -1   -1    0    0    0  501  0.00000000000E+00  0.00000000000E+00  0.15976713717E+04  0.15976713717E+04  0.50400001928E-02 0. -1.
        1   -1    0    0  501    0  0.00000000000E+00  0.00000000000E+00 -0.50766087598E+03  0.50766087600E+03  0.50400001928E-02 0.  1.
    10030    2    1    2    0    0  0.00000000000E+00  0.00000000000E+00  0.10900104957E+04  0.21053322477E+04  0.18011943239E+04 0.  0.
        1    1    3    3  502    0 -0.57211675765E+03 -0.69041011789E+03  0.64343584753E+03  0.11036273851E+04  0.50400001928E-02 0.  1.
       -1    1    3    3    0  502  0.57211675765E+03  0.69041011789E+03  0.44657464818E+03  0.10017048626E+04  0.50400001928E-02 0. -1.
</event>
<event>
 5   0  0.1960300E-05  0.1796988E+04  0.7818609E-02  0.8707903E-01
        1   -1    0    0  501    0  0.00000000000E+00  0.00000000000E+00  0.78991374857E+03  0.78991374859E+03  0.50400001928E-02 0.  1.
       -1   -1    0    0    0  501  0.00000000000E+00  0.00000000000E+00 -0.10219993948E+04  0.10219993948E+04  0.50400001928E-02 0. -1.
    10030    2    1    2    0    0  0.00000000000E+00  0.00000000000E+00 -0.23208564626E+03  0.18119131434E+04  0.17969878943E+04 0.  0.
        3    1    3    3  502    0  0.65387114795E+03 -0.36780184724E+03  0.38249851861E+03  0.84209904637E+03  0.10100000352E+00 0.  1.
       -3    1    3    3    0  502 -0.65387114795E+03  0.36780184724E+03 -0.61458416486E+03  0.96981409706E+03  0.10100000352E+00 0. -1.
</event>
<event>
 5   0  0.3983176E-05  0.1823355E+04  0.7818609E-02  0.8693977E-01
       -2   -1    0    0    0  501  0.00000000000E+00  0.00000000000E+00  0.34552818589E+03  0.34552818589E+03  0.25500000920E-02 0. -1.
        2   -1    0    0  501    0  0.00000000000E+00  0.00000000000E+00 -0.24054658773E+04  0.24054658773E+04  0.25500000920E-02 0.  1.
    10030    2    1    2    0    0  0.00000000000E+00  0.00000000000E+00 -0.20599376914E+04  0.27509940632E+04  0.18233554352E+04 0.  0.
        3    1    3    3  502    0  0.87191164896E+02  0.81913791497E+03 -0.16192854256E+04  0.18167758592E+04  0.10100000352E+00 0.  1.
       -3    1    3    3    0  502 -0.87191164896E+02 -0.81913791497E+03 -0.44065226578E+03  0.93421820391E+03  0.10100000352E+00 0. -1.
</event>
<event>
 5   0  0.2054876E-05  0.1800488E+04  0.7818609E-02  0.8706040E-01
        1   -1    0    0  501    0  0.00000000000E+00  0.00000000000E+00  0.91385952345E+03  0.91385952346E+03  0.50400001928E-02 0. -1.
       -1   -1    0    0    0  501  0.00000000000E+00  0.00000000000E+00 -0.88683103996E+03  0.88683103998E+03  0.50400001928E-02 0.  1.
    10030    2    1    2    0    0  0.00000000000E+00  0.00000000000E+00  0.27028483489E+02  0.18006905634E+04  0.18004877024E+04 0.  0.
        5    1    3    3  502    0 -0.87499025418E+03 -0.21015937926E+03  0.38854657260E+02  0.90072564302E+03  0.46999998093E+01 0. -1.
       -5    1    3    3    0  502  0.87499025418E+03  0.21015937926E+03 -0.11826173771E+02  0.89996492042E+03  0.46999998093E+01 0.  1.
</event>
<event>
 5   0  0.1906857E-05  0.1797388E+04  0.7818609E-02  0.8707690E-01
        1   -1    0    0  501    0  0.00000000000E+00  0.00000000000E+00  0.14263702414E+04  0.14263702414E+04  0.50400001928E-02 0. -1.
       -1   -1    0    0    0  501  0.00000000000E+00  0.00000000000E+00 -0.56622805240E+03  0.56622805242E+03  0.50400001928E-02 0.  1.
    10030    2    1    2    0    0  0.00000000000E+00  0.00000000000E+00  0.86014218900E+03  0.19925982938E+04  0.17973879312E+04 0.  0.
        4    1    3    3  502    0  0.44833641210E+03  0.74359202664E+03  0.17313562197E+03  0.88538816176E+03  0.12699999809E+01 0.  1.
       -4    1    3    3    0  502 -0.44833641210E+03 -0.74359202664E+03  0.68700656703E+03  0.11072101321E+04  0.12699999809E+01 0. -1.
</event>
<event>
 5   0  0.3909859E-05  0.1796929E+04  0.7818609E-02  0.8707934E-01
        2   -1    0    0  501    0  0.00000000000E+00  0.00000000000E+00  0.25015168029E+04  0.25015168029E+04  0.25500000920E-02 0. -1.
       -2   -1    0    0    0  501  0.00000000000E+00  0.00000000000E+00 -0.32269975142E+03  0.32269975143E+03  0.25500000920E-02 0.  1.
    10030    2    1    2    0    0  0.00000000000E+00  0.00000000000E+00  0.21788170515E+04  0.28242165544E+04  0.17969294371E+04 0.  0.
        4    1    3    3  502    0 -0.30164980372E+03  0.20269554039E+03 -0.20201903435E+03  0.41580210355E+03  0.12699999809E+01 0.  1.
       -4    1    3    3    0  502  0.30164980372E+03 -0.20269554039E+03  0.23808360859E+04  0.24084144508E+04  0.12699999809E+01 0. -1.
</event>
<event>
 5   0  0.3984648E-05  0.1802690E+04  0.7818609E-02  0.8704870E-01
       -2   -1    0    0    0  501  0.00000000000E+00  0.00000000000E+00  0.71689817922E+03  0.71689817922E+03  0.25500000920E-02 0.  1.
        2   -1    0    0  501    0  0.00000000000E+00  0.00000000000E+00 -0.11332475428E+04  0.11332475428E+04  0.25500000920E-02 0. -1.
    10030    2    1    2    0    0  0.00000000000E+00  0.00000000000E+00 -0.41634936355E+03  0.18501457220E+04  0.18026903228E+04 0.  0.
        1    1    3    3  502    0 -0.72587107041E+03  0.28994091598E+03 -0.66884310422E+03  0.10287398329E+04  0.50400001928E-02 0. -1.
       -1    1    3    3    0  502  0.72587107041E+03 -0.28994091598E+03  0.25249374067E+03  0.82140588914E+03  0.50400001928E-02 0.  1.
</event>
<event>
 5   0  0.2001811E-05  0.1801959E+04  0.7818609E-02  0.8705258E-01
        1   -1    0    0  501    0  0.00000000000E+00  0.00000000000E+00  0.87630413681E+03  0.87630413683E+03  0.50400001928E-02 0. -1.
       -1   -1    0    0    0  501  0.00000000000E+00  0.00000000000E+00 -0.92634970369E+03  0.92634970371E+03  0.50400001928E-02 0.  1.
    10030    2    1    2    0    0  0.00000000000E+00  0.00000000000E+00 -0.50045566878E+02  0.18026538405E+04  0.18019590201E+04 0.  0.
        2    1    3    3  502    0  0.26371347016E+03  0.54239157944E+03  0.64458623543E+03  0.88273712661E+03  0.25500000920E-02 0. -1.
       -2    1    3    3    0  502 -0.26371347016E+03 -0.54239157944E+03 -0.69463180230E+03  0.91991671393E+03  0.25500000920E-02 0.  1.
</event>
<event>
 5   0  0.4015729E-05  0.1804895E+04  0.7818609E-02  0.8703701E-01
       -2   -1    0    0    0  501  0.00000000000E+00  0.00000000000E+00  0.43427241640E+03  0.43427241641E+03  0.25500000920E-02 0. -1.
        2   -1    0    0  501    0  0.00000000000E+00  0.00000000000E+00 -0.18753467694E+04  0.18753467694E+04  0.25500000920E-02 0.  1.
    10030    2    1    2    0    0  0.00000000000E+00  0.00000000000E+00 -0.14410743530E+04  0.23096191858E+04  0.18048948702E+04 0.  0.
        2    1    3    3  502    0 -0.58381640534E+03  0.34694257687E+03  0.39962792096E+02  0.68029976594E+03  0.25500000920E-02 0.  1.
       -2    1    3    3    0  502  0.58381640534E+03 -0.34694257687E+03 -0.14810371451E+04  0.16293194198E+04  0.25500000920E-02 0. -1.
</event>
<event>
 5   0  0.3984648E-05  0.1799665E+04  0.7818609E-02  0.8706477E-01
       -2   -1    0    0    0  501  0.00000000000E+00  0.00000000000E+00  0.68989569506E+03  0.68989569507E+03  0.25500000920E-02 0.  1.
        2   -1    0    0  501    0  0.00000000000E+00  0.00000000000E+00 -0.11736539876E+04  0.11736539876E+04  0.25500000920E-02 0. -1.
    10030    2    1    2    0    0  0.00000000000E+00  0.00000000000E+00 -0.48375829256E+03  0.18635496827E+04  0.17996653395E+04 0.  0.
        1    1    3    3  502    0 -0.53911245194E+01  0.33890089498E+03 -0.11050248510E+04  0.11558385710E+04  0.50400001928E-02 0. -1.
       -1    1    3    3    0  502  0.53911245194E+01 -0.33890089498E+03  0.62126655849E+03  0.70771111165E+03  0.50400001928E-02 0.  1.
</event>
<event>
 5   0  0.3983176E-05  0.1803432E+04  0.7818609E-02  0.8704476E-01
       -2   -1    0    0    0  501  0.00000000000E+00  0.00000000000E+00  0.34184603862E+03  0.34184603863E+03  0.25500000920E-02 0. -1.
        2   -1    0    0  501    0  0.00000000000E+00  0.00000000000E+00 -0.23785322614E+04  0.23785322614E+04  0.25500000920E-02 0.  1.
    10030    2    1    2    0    0  0.00000000000E+00  0.00000000000E+00 -0.20366862228E+04  0.27203783000E+04  0.18034320961E+04 0.  0.
        3    1    3    3  502    0 -0.13911377724E+03 -0.30852966089E+03 -0.22790897786E+04  0.23040819047E+04  0.10100000352E+00 0.  1.
       -3    1    3    3    0  502  0.13911377724E+03  0.30852966089E+03  0.24240355580E+03  0.41629639529E+03  0.10100000352E+00 0. -1.
</event>
<event>
 5   0  0.4015729E-05  0.1797937E+04  0.7818609E-02  0.8707397E-01
       -2   -1    0    0    0  501  0.00000000000E+00  0.00000000000E+00  0.47694706495E+03  0.47694706496E+03  0.25500000920E-02 0.  1.
        2   -1    0    0  501    0  0.00000000000E+00  0.00000000000E+00 -0.16944104152E+04  0.16944104152E+04  0.25500000920E-02 0. -1.
    10030    2    1    2    0    0  0.00000000000E+00  0.00000000000E+00 -0.12174633502E+04  0.21713574801E+04  0.17979366778E+04 0.  0.
        2    1    3    3  502    0 -0.12012525087E+03  0.62278828783E+03 -0.13781083962E+04  0.15170623188E+04  0.25500000920E-02 0. -1.
       -2    1    3    3    0  502  0.12012525087E+03 -0.62278828783E+03  0.16064504600E+03  0.65429516135E+03  0.25500000920E-02 0.  1.
</event>
<event>
 5   0  0.2054876E-05  0.1804437E+04  0.7818609E-02  0.8703943E-01
        1   -1    0    0  501    0  0.00000000000E+00  0.00000000000E+00  0.73530609387E+03  0.73530609389E+03  0.50400001928E-02 0. -1.
       -1   -1    0    0    0  501  0.00000000000E+00  0.00000000000E+00 -0.11070197900E+04  0.11070197900E+04  0.50400001928E-02 0.  1.
    10030    2    1    2    0    0  0.00000000000E+00  0.00000000000E+00 -0.37171369610E+03  0.18423258839E+04  0.18044371950E+04 0.  0.
        5    1    3    3  502    0 -0.53375198502E+03  0.67196127796E+03  0.98474308801E+02  0.86379535776E+03  0.46999998093E+01 0. -1.
       -5    1    3    3    0  502  0.53375198502E+03 -0.67196127796E+03 -0.47018800490E+03  0.97853052612E+03  0.46999998093E+01 0.  1.
</event>
<event>
 5   0  0.3909859E-05  0.1794835E+04  0.7818609E-02  0.8709051E-01
        2   -1    0    0  501    0  0.00000000000E+00  0.00000000000E+00  0.18139743153E+04  0.18139743153E+04  0.25500000920E-02 0.  1.
       -2   -1    0    0    0  501  0.00000000000E+00  0.00000000000E+00 -0.44397437506E+03  0.44397437507E+03  0.25500000920E-02 0. -1.
    10030    2    1    2    0    0  0.00000000000E+00  0.00000000000E+00  0.13699999403E+04  0.22579486904E+04  0.17948349373E+04 0.  0.
        4    1    3    3  502    0  0.41054147665E+03 -0.26140501034E+03 -0.26352114400E+03  0.55346353965E+03  0.12699999809E+01 0. -1.
       -4    1    3    3    0  502 -0.41054147665E+03  0.26140501034E+03  0.16335210843E+04  0.17044851507E+04  0.12699999809E+01 0.  1.
</event>
<event>
 5   0  0.1960300E-05  0.1803315E+04  0.7818609E-02  0.8704539E-01
       -1   -1    0    0    0  501  0.00000000000E+00  0.00000000000E+00  0.13850505142E+04  0.13850505142E+04  0.50400001928E-02 0. -1.
        1   -1    0    0  501    0  0.00000000000E+00  0.00000000000E+00 -0.58697200053E+03  0.58697200055E+03  0.50400001928E-02 0.  1.
    10030    2    1    2    0    0  0.00000000000E+00  0.00000000000E+00  0.79807851364E+03  0.19720225147E+04  0.18033145828E+04 0.  0.
        3    1    3    3  502    0  0.16050020312E+03 -0.21882434740E+02 -0.57092971207E+03  0.59346432284E+03  0.10100000352E+00 0.  1.
       -3    1    3    3    0  502 -0.16050020312E+03  0.21882434740E+02  0.13690082257E+04  0.13785581919E+04  0.10100000352E+00 0. -1.
</event>
<event>
 5   0  0.2038338E-05  0.1797041E+04  0.7818609E-02  0.8707874E-01
        1   -1    0    0  501    0  0.00000000000E+00  0.00000000000E+00  0.11625639299E+04  0.11625639299E+04  0.50400001928E-02 0.  1.
       -1   -1    0    0    0  501  0.00000000000E+00  0.00000000000E+00 -0.69444724629E+03  0.69444724631E+03  0.50400001928E-02 0. -1.
    10030    2    1    2    0    0  0.00000000000E+00  0.00000000000E+00  0.46811668359E+03  0.18570111762E+04  0.17970412569E+04 0.  0.
        1    1    3    3  502    0 -0.49961604331E+03  0.68378963093E+03 -0.76219716174E+02  0.85029047699E+03  0.50400001928E-02 0. -1.
       -1    1    3    3    0  502  0.49961604331E+03 -0.68378963093E+03  0.54433639976E+03  0.10067206992E+04  0.50400001928E-02 0.  1.
</event>
<event>
 5   0  0.3983176E-05  0.1796891E+04  0.7818609E-02  0.8707954E-01
       -2   -1    0    0    0  501  0.00000000000E+00  0.00000000000E+00  0.83453687186E+03  0.83453687186E+03  0.25500000920E-02 0. -1.
        2   -1    0    0  501    0  0.00000000000E+00  0.00000000000E+00 -0.96724865840E+03  0.96724865840E+03  0.25500000920E-02 0.  1.
    10030    2    1    2    0    0  0.00000000000E+00  0.00000000000E+00 -0.13271178654E+03  0.18017855303E+04  0.17968913931E+04 0.  0.
        3    1    3    3  502    0  0.39806414531E+03  0.41007930740E+03 -0.76148611768E+03  0.95209307305E+03  0.10100000352E+00 0.  1.
       -3    1    3    3    0  502 -0.39806414531E+03 -0.41007930740E+03  0.62877433114E+03  0.84969245721E+03  0.10100000352E+00 0. -1.
</event>
<event>
 5   0  0.1446750E-05  0.1799407E+04  0.7818609E-02  0.8706615E-01
       -3   -1    0    0    0  501  0.00000000000E+00  0.00000000000E+00  0.67731199711E+03  0.67731200464E+03  0.10100000352E+00 0.  1.
        3   -1    0    0  501    0  0.00000000000E+00  0.00000000000E+00 -0.11951161521E+04  0.11951161564E+04  0.10100000352E+00 0. -1.
    10030    2    1    2    0    0  0.00000000000E+00  0.00000000000E+00 -0.51780415497E+03  0.18724281610E+04  0.17994071455E+04 0.  0.
        4    1    3    3  502    0 -0.70509259431E+02 -0.79117967595E+03  0.18077009486E+03  0.81462646373E+03  0.12699999809E+01 0.  1.
       -4    1    3    3    0  502  0.70509259431E+02  0.79117967595E+03 -0.69857424983E+03  0.10578016973E+04  0.12699999809E+01 0. -1.
</event>
<event>
 5   0  0.1960300E-05  0.1800743E+04  0.7818609E-02  0.8705904E-01
        1   -1    0    0  501    0  0.00000000000E+00  0.00000000000E+00  0.57695064498E+03  0.57695064500E+03  0.50400001928E-02 0.  1.
       -1   -1    0    0    0  501  0.00000000000E+00  0.00000000000E+00 -0.14050922093E+04  0.14050922093E+04  0.50400001928E-02 0. -1.
    10030    2    1    2    0    0  0.00000000000E+00  0.00000000000E+00 -0.82814156430E+03  0.19820428543E+04  0.18007430205E+04 0.  0.
        3    1    3    3  502    0  0.50192409016E+03 -0.69219302098E+03 -0.72463024930E+03  0.11207800761E+04  0.10100000352E+00 0. -1.
       -3    1    3    3    0  502 -0.50192409016E+03  0.69219302098E+03 -0.10351131500E+03  0.86126277820E+03  0.10100000352E+00 0.  1.
</event>
<event>
 5   0  0.1906857E-05  0.1798817E+04  0.7818609E-02  0.8706929E-01
       -1   -1    0    0    0  501  0.00000000000E+00  0.00000000000E+00  0.83727418228E+03  0.83727418230E+03  0.50400001928E-02 0. -1.
        1   -1    0    0  501    0  0.00000000000E+00  0.00000000000E+00 -0.96615346804E+03  0.96615346806E+03  0.50400001928E-02 0.  1.
    10030    2    1    2    0    0  0.00000000000E+00  0.00000000000E+00 -0.12887928576E+03  0.18034276504E+04  0.17988166721E+04 0.  0.
        4    1    3    3  502    0  0.66719439754E+03  0.56854665129E+03 -0.26630144122E+03  0.91613957959E+03  0.12699999809E+01 0.  1.
       -4    1    3    3    0  502 -0.66719439754E+03 -0.56854665129E+03  0.13742215546E+03  0.88728807076E+03  0.12699999809E+01 0. -1.
</event>
<event>
 5   0  0.2054876E-05  0.1798309E+04  0.7818609E-02  0.8707199E-01
        1   -1    0    0  501    0  0.00000000000E+00  0.00000000000E+00  0.31408836786E+03  0.31408836790E+03  0.50400001928E-02 0.  1.
       -1   -1    0    0    0  501  0.00000000000E+00  0.00000000000E+00 -0.25740498165E+04  0.25740498165E+04  0.50400001928E-02 0. -1.
    10030    2    1    2    0    0  0.00000000000E+00  0.00000000000E+00 -0.22599614486E+04  0.28881381844E+04  0.17983093235E+04 0.  0.
        5    1    3    3  502    0  0.75191674883E+01 -0.34413772270E+03 -0.24640199015E+04  0.24879516626E+04  0.46999998093E+01 0. -1.
       -5    1    3    3    0  502 -0.75191674883E+01  0.34413772270E+03  0.20405845290E+03  0.40018652184E+03  0.46999998093E+01 0.  1.
</event>
<event>
 5   0  0.1906857E-05  0.1799327E+04  0.7818609E-02  0.8706658E-01
        1   -1    0    0  501    0  0.00000000000E+00  0.00000000000E+00  0.84382155803E+03  0.84382155805E+03  0.50400001928E-02 0.  1.
       -1   -1    0    0    0  501  0.00000000000E+00  0.00000000000E+00 -0.95920077451E+03  0.95920077452E+03  0.50400001928E-02 0. -1.
    10030    2    1    2    0    0  0.00000000000E+00  0.00000000000E+00 -0.11537921648E+03  0.18030223326E+04  0.17993268653E+04 0.  0.
        4    1    3    3  502    0  0.59449344959E+03  0.42749307992E+03 -0.58146753598E+03  0.93502882484E+03  0.12699999809E+01 0. -1.
       -4    1    3    3    0  502 -0.59449344959E+03 -0.42749307992E+03  0.46608831950E+03  0.86799350773E+03  0.12699999809E+01 0.  1.
</event>
<event>
 5   0  0.3983176E-05  0.1800049E+04  0.7818609E-02  0.8706274E-01
        2   -1    0    0  501    0  0.00000000000E+00  0.00000000000E+00  0.13068258610E+04  0.13068258610E+04  0.25500000920E-02 0.  1.
       -2   -1    0    0    0  501  0.00000000000E+00  0.00000000000E+00 -0.61985589746E+03  0.61985589746E+03  0.25500000920E-02 0. -1.
    10030    2    1    2    0    0  0.00000000000E+00  0.00000000000E+00  0.68696996355E+03  0.19266817585E+04  0.18000485737E+04 0.  0.
        3    1    3    3  502    0  0.40525134772E+03  0.23207279536E+03  0.11669988935E+04  0.12569697152E+04  0.10100000352E+00 0.  1.
       -3    1    3    3    0  502 -0.40525134772E+03 -0.23207279536E+03 -0.48002892995E+03  0.66971204332E+03  0.10100000352E+00 0. -1.
</event>
<event>
 5   0  0.1906857E-05  0.1793013E+04  0.7818609E-02  0.8710024E-01
        1   -1    0    0  501    0  0.00000000000E+00  0.00000000000E+00  0.13068964680E+04  0.13068964680E+04  0.50400001928E-02 0. -1.
       -1   -1    0    0    0  501  0.00000000000E+00  0.00000000000E+00 -0.61498635849E+03  0.61498635851E+03  0.50400001928E-02 0.  1.
    10030    2    1    2    0    0  0.00000000000E+00  0.00000000000E+00  0.69191010947E+03  0.19218828265E+04  0.17930125485E+04 0.  0.
        4    1    3    3  502    0 -0.83329121923E+03 -0.28169672201E+03  0.53159226142E+03  0.10277739268E+04  0.12699999809E+01 0. -1.
       -4    1    3    3    0  502  0.83329121923E+03  0.28169672201E+03  0.16031784805E+03  0.89410889971E+03  0.12699999809E+01 0.  1.
</event>
<event>
 5   0  0.3983176E-05  0.1803765E+04  0.7818609E-02  0.8704300E-01
       -2   -1    0    0    0  501  0.00000000000E+00  0.00000000000E+00  0.66728903028E+03  0.66728903029E+03  0.25500000920E-02 0. -1.
        2   -1    0    0  501    0  0.00000000000E+00  0.00000000000E+00 -0.12189495957E+04  0.12189495957E+04  0.25500000920E-02 0.  1.
    10030    2    1    2    0    0  0.00000000000E+00  0.00000000000E+00 -0.55166056542E+03  0.18862386260E+04  0.18037646118E+04 0.  0.
        3    1    3    3  502    0 -0.64706379997E+01  0.90157689299E+03 -0.29942102902E+03  0.95001880295E+03  0.10100000352E+00 0. -1.
       -3    1    3    3    0  502  0.64706379997E+01 -0.90157689299E+03 -0.25223953641E+03  0.93621982305E+03  0.10100000352E+00 0.  1.
</event>
<event>
 5   0  0.3909859E-05  0.1798587E+04  0.7818609E-02  0.8707051E-01
        2   -1    0    0  501    0  0.00000000000E+00  0.00000000000E+00  0.21576885232E+04  0.21576885232E+04  0.25500000920E-02 0.  1.
       -2   -1    0    0    0  501  0.00000000000E+00  0.00000000000E+00 -0.37481242225E+03  0.37481242226E+03  0.25500000920E-02 0. -1.
    10030    2    1    2    0    0  0.00000000000E+00  0.00000000000E+00  0.17828761010E+04  0.25325009455E+04  0.17985866250E+04 0.  0.
        4    1    3    3  502    0 -0.21412384756E+03 -0.28544413565E+03 -0.27086439919E+03  0.44799164314E+03  0.12699999809E+01 0. -1.
       -4    1    3    3    0  502  0.21412384756E+03  0.28544413565E+03  0.20537405002E+04  0.20845093023E+04  0.12699999809E+01 0.  1.
</event>
<event>
 5   0  0.1906857E-05  0.1798978E+04  0.7818609E-02  0.8706843E-01
        1   -1    0    0  501    0  0.00000000000E+00  0.00000000000E+00  0.22087169340E+04  0.22087169340E+04  0.50400001928E-02 0.  1.
       -1   -1    0    0    0  501  0.00000000000E+00  0.00000000000E+00 -0.36631250712E+03  0.36631250716E+03  0.50400001928E-02 0. -1.
    10030    2    1    2    0    0  0.00000000000E+00  0.00000000000E+00  0.18424044269E+04  0.25750294411E+04  0.17989781963E+04 0.  0.
        4    1    3    3  502    0  0.77619275181E+03  0.33649732531E+03  0.48381321501E+03  0.97456784157E+03  0.12699999809E+01 0. -1.
       -4    1    3    3    0  502 -0.77619275181E+03 -0.33649732531E+03  0.13585912119E+04  0.16004615996E+04  0.12699999809E+01 0.  1.
</event>
<event>
 5   0  0.2038338E-05  0.1795627E+04  0.7818609E-02  0.8708628E-01
        1   -1    0    0  501    0  0.00000000000E+00  0.00000000000E+00  0.36899005474E+03  0.36899005478E+03  0.50400001928E-02 0.  1.
       -1   -1    0    0    0  501  0.00000000000E+00  0.00000000000E+00 -0.21845284943E+04  0.21845284943E+04  0.50400001928E-02 0. -1.
    10030    2    1    2    0    0  0.00000000000E+00  0.00000000000E+00 -0.18155384396E+04  0.25535185491E+04  0.17956272316E+04 0.  0.
        1    1    3    3  502    0 -0.34665669419E+03  0.80907189565E+03 -0.11593645545E+04  0.14556422521E+04  0.50400001928E-02 0.  1.
       -1    1    3    3    0  502  0.34665669419E+03 -0.80907189565E+03 -0.65617388511E+03  0.10978762970E+04  0.50400001928E-02 0. -1.
</event>
<event>
 5   0  0.4015729E-05  0.1800662E+04  0.7818609E-02  0.8705948E-01
        2   -1    0    0  501    0  0.00000000000E+00  0.00000000000E+00  0.95070344664E+03  0.95070344664E+03  0.25500000920E-02 0.  1.
       -2   -1    0    0    0  501  0.00000000000E+00  0.00000000000E+00 -0.85262745983E+03  0.85262745984E+03  0.25500000920E-02 0. -1.
    10030    2    1    2    0    0  0.00000000000E+00  0.00000000000E+00  0.98075986805E+02  0.18033309065E+04  0.18006619502E+04 0.  0.
        2    1    3    3  502    0  0.25085146205E+03 -0.50720990239E+03  0.75036699847E+03  0.93980794500E+03  0.25500000920E-02 0.  1.
       -2    1    3    3    0  502 -0.25085146205E+03  0.50720990239E+03 -0.65229101167E+03  0.86352296148E+03  0.25500000920E-02 0. -1.
</event>
<event>
 5   0  0.3983176E-05  0.1802256E+04  0.7818609E-02  0.8705101E-01
       -2   -1    0    0    0  501  0.00000000000E+00  0.00000000000E+00  0.60480028276E+03  0.60480028277E+03  0.25500000920E-02 0. -1.
        2   -1    0    0  501    0  0.00000000000E+00  0.00000000000E+00 -0.13426442631E+04  0.13426442631E+04  0.25500000920E-02 0.  1.
    10030    2    1    2    0    0  0.00000000000E+00  0.00000000000E+00 -0.73784398029E+03  0.19474445458E+04  0.18022559529E+04 0.  0.
        3    1    3    3  502    0  0.56783590888E+03  0.41834441373E+03 -0.97498186595E+03  0.12033450532E+04  0.10100000352E+00 0.  1.
       -3    1    3    3    0  502 -0.56783590888E+03 -0.41834441373E+03  0.23713788566E+03  0.74409949263E+03  0.10100000352E+00 0. -1.
</event>
<event>
 5   0  0.1906857E-05  0.1798943E+04  0.7818609E-02  0.8706862E-01
        1   -1    0    0  501    0  0.00000000000E+00  0.00000000000E+00  0.90380367703E+03  0.90380367704E+03  0.50400001928E-02 0. -1.
       -1   -1    0    0    0  501  0.00000000000E+00  0.00000000000E+00 -0.89515960419E+03  0.89515960421E+03  0.50400001928E-02 0.  1.
    10030    2    1    2    0    0  0.00000000000E+00  0.00000000000E+00  0.86440728314E+01  0.17989632812E+04  0.17989425136E+04 0.  0.
        4    1    3    3  502    0  0.23051241719E+03  0.85206818340E+03 -0.16856941921E+03  0.89865089196E+03  0.12699999809E+01 0. -1.
       -4    1    3    3    0  502 -0.23051241719E+03 -0.85206818340E+03  0.17721349205E+03  0.90031238928E+03  0.12699999809E+01 0.  1.
</event>
<event>
 5   0  0.2001811E-05  0.1775019E+04  0.7818609E-02  0.8719698E-01
       -1   -1    0    0    0  501  0.00000000000E+00  0.00000000000E+00  0.84477155925E+03  0.84477155927E+03  0.50400001928E-02 0. -1.
        1   -1    0    0  501    0  0.00000000000E+00  0.00000000000E+00 -0.93240909770E+03  0.93240909771E+03  0.50400001928E-02 0.  1.
    10030    2    1    2    0    0  0.00000000000E+00  0.00000000000E+00 -0.87637538449E+02  0.17771806570E+04  0.17750185209E+04 0.  0.
        2    1    3    3  502    0  0.40948359808E+03  0.73779000855E+03  0.23158314038E+03  0.87500952265E+03  0.25500000920E-02 0. -1.
       -2    1    3    3    0  502 -0.40948359808E+03 -0.73779000855E+03 -0.31922067883E+03  0.90217113433E+03  0.25500000920E-02 0.  1.
</event>
<event>
 5   0  0.2038338E-05  0.1801606E+04  0.7818609E-02  0.8705446E-01
        1   -1    0    0  501    0  0.00000000000E+00  0.00000000000E+00  0.22871611868E+04  0.22871611868E+04  0.50400001928E-02 0.  1.
       -1   -1    0    0    0  501  0.00000000000E+00  0.00000000000E+00 -0.35478310034E+03  0.35478310037E+03  0.50400001928E-02 0. -1.
    10030    2    1    2    0    0  0.00000000000E+00  0.00000000000E+00  0.19323780865E+04  0.26419442872E+04  0.18016061022E+04 0.  0.
        1    1    3    3  502    0 -0.41381561852E+03 -0.33685260861E+03  0.20304769129E+04  0.20994164760E+04  0.50400001928E-02 0.  1.
       -1    1    3    3    0  502  0.41381561852E+03  0.33685260861E+03 -0.98098826446E+02  0.54252781112E+03  0.50400001928E-02 0. -1.
</event>
<event>
 5   0  0.4015729E-05  0.1801028E+04  0.7818609E-02  0.8705753E-01
        2   -1    0    0  501    0  0.00000000000E+00  0.00000000000E+00  0.58285610257E+03  0.58285610258E+03  0.25500000920E-02 0.  1.
       -2   -1    0    0    0  501  0.00000000000E+00  0.00000000000E+00 -0.13912968554E+04  0.13912968554E+04  0.25500000920E-02 0. -1.
    10030    2    1    2    0    0  0.00000000000E+00  0.00000000000E+00 -0.80844075278E+03  0.19741529579E+04  0.18010284425E+04 0.  0.
        2    1    3    3  502    0 -0.57026698372E+03  0.67700000917E+03 -0.58563630189E+03  0.10613686086E+04  0.25500000920E-02 0.  1.
       -2    1    3    3    0  502  0.57026698372E+03 -0.67700000917E+03 -0.22280445089E+03  0.91278434938E+03  0.25500000920E-02 0. -1.
</event>
<event>
 5   0  0.2054876E-05  0.1801050E+04  0.7818609E-02  0.8705741E-01
       -1   -1    0    0    0  501  0.00000000000E+00  0.00000000000E+00  0.11618898977E+04  0.11618898977E+04  0.50400001928E-02 0.  1.
        1   -1    0    0  501    0  0.00000000000E+00  0.00000000000E+00 -0.69795335693E+03  0.69795335695E+03  0.50400001928E-02 0. -1.
    10030    2    1    2    0    0  0.00000000000E+00  0.00000000000E+00  0.46393654076E+03  0.18598432546E+04  0.18010496434E+04 0.  0.
        5    1    3    3  502    0  0.12637261849E+03 -0.39374342530E+03 -0.59409467733E+03  0.72386082868E+03  0.46999998093E+01 0. -1.
       -5    1    3    3    0  502 -0.12637261849E+03  0.39374342530E+03  0.10580312181E+04  0.11359824260E+04  0.46999998093E+01 0.  1.
</event>
<event>
 5   0  0.1960300E-05  0.1797751E+04  0.7818609E-02  0.8707496E-01
        1   -1    0    0  501    0  0.00000000000E+00  0.00000000000E+00  0.10332536767E+04  0.10332536767E+04  0.50400001928E-02 0. -1.
       -1   -1    0    0    0  501  0.00000000000E+00  0.00000000000E+00 -0.78197395040E+03  0.78197395042E+03  0.50400001928E-02 0.  1.
    10030    2    1    2    0    0  0.00000000000E+00  0.00000000000E+00  0.25127972631E+03  0.18152276271E+04  0.17977513280E+04 0.  0.
        3    1    3    3  502    0 -0.37559454754E+03  0.66111384174E+03  0.60971106702E+03  0.97462319454E+03  0.10100000352E+00 0. -1.
       -3    1    3    3    0  502  0.37559454754E+03 -0.66111384174E+03 -0.35843134072E+03  0.84060443259E+03  0.10100000352E+00 0.  1.
</event>
<event>
 5   0  0.3983176E-05  0.1803260E+04  0.7818609E-02  0.8704568E-01
        2   -1    0    0  501    0  0.00000000000E+00  0.00000000000E+00  0.13142728590E+04  0.13142728590E+04  0.25500000920E-02 0.  1.
       -2   -1    0    0    0  501  0.00000000000E+00  0.00000000000E+00 -0.61854450012E+03  0.61854450012E+03  0.25500000920E-02 0. -1.
    10030    2    1    2    0    0  0.00000000000E+00  0.00000000000E+00  0.69572835891E+03  0.19328173592E+04  0.18032595472E+04 0.  0.
        3    1    3    3  502    0 -0.66232032754E+01 -0.59304222882E+03  0.10757681119E+04  0.12284217487E+04  0.10100000352E+00 0.  1.
       -3    1    3    3    0  502  0.66232032754E+01  0.59304222882E+03 -0.38003975296E+03  0.70439561045E+03  0.10100000352E+00 0. -1.
</event>
<event>
 5   0  0.3983176E-05  0.1797824E+04  0.7818609E-02  0.8707457E-01
        2   -1    0    0  501    0  0.00000000000E+00  0.00000000000E+00  0.22182802472E+04  0.22182802472E+04  0.25500000920E-02 0. -1.
       -2   -1    0    0    0  501  0.00000000000E+00  0.00000000000E+00 -0.36426554513E+03  0.36426554514E+03  0.25500000920E-02 0.  1.
    10030    2    1    2    0    0  0.00000000000E+00  0.00000000000E+00  0.18540147021E+04  0.25825457924E+04  0.17978243112E+04 0.  0.
        3    1    3    3  502    0  0.82702819738E+03 -0.11045038079E+02  0.14327342174E+04  0.16543352079E+04  0.10100000352E+00 0. -1.
       -3    1    3    3    0  502 -0.82702819738E+03  0.11045038079E+02  0.42128048465E+03  0.92821058444E+03  0.10100000352E+00 0.  1.
</event>
<event>
 5   0  0.2038338E-05  0.1814256E+04  0.7818609E-02  0.8698755E-01
       -1   -1    0    0    0  501  0.00000000000E+00  0.00000000000E+00  0.11371471437E+04  0.11371471437E+04  0.50400001928E-02 0.  1.
        1   -1    0    0  501    0  0.00000000000E+00  0.00000000000E+00 -0.72363630363E+03  0.72363630365E+03  0.50400001928E-02 0. -1.
    10030    2    1    2    0    0  0.00000000000E+00  0.00000000000E+00  0.41351084009E+03  0.18607834474E+04  0.18142557215E+04 0.  0.
        1    1    3    3  502    0 -0.79916082672E+03 -0.26975054825E+03 -0.13565905769E+03  0.85429899052E+03  0.50400001928E-02 0. -1.
       -1    1    3    3    0  502  0.79916082672E+03  0.26975054825E+03  0.54916989778E+03  0.10064844569E+04  0.50400001928E-02 0.  1.
</event>
<event>
 5   0  0.3984648E-05  0.1800725E+04  0.7818609E-02  0.8705914E-01
       -2   -1    0    0    0  501  0.00000000000E+00  0.00000000000E+00  0.10333590167E+04  0.10333590167E+04  0.25500000920E-02 0.  1.
        2   -1    0    0  501    0  0.00000000000E+00  0.00000000000E+00 -0.78448328277E+03  0.78448328277E+03  0.25500000920E-02 0. -1.
    10030    2    1    2    0    0  0.00000000000E+00  0.00000000000E+00  0.24887573397E+03  0.18178422995E+04  0.18007252692E+04 0.  0.
        1    1    3    3  502    0  0.88757072417E+02  0.66235260484E+03 -0.48467484529E+03  0.82552922221E+03  0.50400001928E-02 0. -1.
       -1    1    3    3    0  502 -0.88757072417E+02 -0.66235260484E+03  0.73355057926E+03  0.99231307731E+03  0.50400001928E-02 0.  1.
</event>
<event>
 5   0  0.2001811E-05  0.1801524E+04  0.7818609E-02  0.8705490E-01
       -1   -1    0    0    0  501  0.00000000000E+00  0.00000000000E+00  0.49592681263E+03  0.49592681265E+03  0.50400001928E-02 0. -1.
        1   -1    0    0  501    0  0.00000000000E+00  0.00000000000E+00 -0.16360721761E+04  0.16360721761E+04  0.50400001928E-02 0.  1.
    10030    2    1    2    0    0  0.00000000000E+00  0.00000000000E+00 -0.11401453635E+04  0.21319989888E+04  0.18015238656E+04 0.  0.
        2    1    3    3  502    0  0.13164432869E+03 -0.48954337683E+03 -0.14512317619E+04  0.15372236578E+04  0.25500000920E-02 0.  1.
       -2    1    3    3    0  502 -0.13164432869E+03  0.48954337683E+03  0.31108639846E+03  0.59477533102E+03  0.25500000920E-02 0. -1.
</event>
<event>
 5   0  0.2038338E-05  0.1796796E+04  0.7818609E-02  0.8708005E-01
       -1   -1    0    0    0  501  0.00000000000E+00  0.00000000000E+00  0.50680169785E+03  0.50680169788E+03  0.50400001928E-02 0. -1.
        1   -1    0    0  501    0  0.00000000000E+00  0.00000000000E+00 -0.15925739776E+04  0.15925739776E+04  0.50400001928E-02 0.  1.
    10030    2    1    2    0    0  0.00000000000E+00  0.00000000000E+00 -0.10857722798E+04  0.20993756755E+04  0.17967962554E+04 0.  0.
        1    1    3    3  502    0 -0.40573556206E+03  0.21796119786E+03  0.35836627178E+03  0.58357074538E+03  0.50400001928E-02 0. -1.
       -1    1    3    3    0  502  0.40573556206E+03 -0.21796119786E+03 -0.14441385515E+04  0.15158049301E+04  0.50400001928E-02 0.  1.
</event>
<event>
 5   0  0.1446750E-05  0.1799436E+04  0.7818609E-02  0.8706599E-01
        4   -1    0    0  501    0  0.00000000000E+00  0.00000000000E+00  0.91508326779E+03  0.91508414908E+03  0.12699999809E+01 0.  1.
       -4   -1    0    0    0  501  0.00000000000E+00  0.00000000000E+00 -0.88460910577E+03  0.88461001742E+03  0.12699999809E+01 0. -1.
    10030    2    1    2    0    0  0.00000000000E+00  0.00000000000E+00  0.30474162023E+02  0.17996941665E+04  0.17994361390E+04 0.  0.
        1    1    3    3  502    0  0.46189437200E+03 -0.11463934549E+03  0.77889356408E+03  0.91277805331E+03  0.50400001928E-02 0.  1.
       -1    1    3    3    0  502 -0.46189437200E+03  0.11463934549E+03 -0.74841940206E+03  0.88691611318E+03  0.50400001928E-02 0. -1.
</event>
<event>
 5   0  0.3984648E-05  0.1793362E+04  0.7818609E-02  0.8709837E-01
       -2   -1    0    0    0  501  0.00000000000E+00  0.00000000000E+00  0.56118235225E+03  0.56118235225E+03  0.25500000920E-02 0. -1.
        2   -1    0    0  501    0  0.00000000000E+00  0.00000000000E+00 -0.14327550187E+04  0.14327550187E+04  0.25500000920E-02 0.  1.
    10030    2    1    2    0    0  0.00000000000E+00  0.00000000000E+00 -0.87157266645E+03  0.19939373710E+04  0.17933620177E+04 0.  0.
        1    1    3    3  502    0 -0.64696046624E+03 -0.53466540807E+03 -0.84873596443E+02  0.84358074354E+03  0.50400001928E-02 0. -1.
       -1    1    3    3    0  502  0.64696046624E+03  0.53466540807E+03 -0.78669907000E+03  0.11503566274E+04  0.50400001928E-02 0.  1.
</event>
<event>
 5   0  0.2001811E-05  0.1804767E+04  0.7818609E-02  0.8703769E-01
       -1   -1    0    0    0  501  0.00000000000E+00  0.00000000000E+00  0.11621528802E+04  0.11621528802E+04  0.50400001928E-02 0.  1.
        1   -1    0    0  501    0  0.00000000000E+00  0.00000000000E+00 -0.70067873638E+03  0.70067873639E+03  0.50400001928E-02 0. -1.
    10030    2    1    2    0    0  0.00000000000E+00  0.00000000000E+00  0.46147414380E+03  0.18628316166E+04  0.18047668122E+04 0.  0.
        2    1    3    3  502    0  0.30802293896E+03 -0.76124052985E+03 -0.15537088672E+03  0.83576634753E+03  0.25500000920E-02 0.  1.
       -2    1    3    3    0  502 -0.30802293896E+03  0.76124052985E+03  0.61684503052E+03  0.10270652691E+04  0.25500000920E-02 0. -1.
</event>
<event>
 5   0  0.2001811E-05  0.1832929E+04  0.7818609E-02  0.8688981E-01
       -1   -1    0    0    0  501  0.00000000000E+00  0.00000000000E+00  0.65137331416E+03  0.65137331417E+03  0.50400001928E-02 0.  1.
        1   -1    0    0  501    0  0.00000000000E+00  0.00000000000E+00 -0.12894412353E+04  0.12894412353E+04  0.50400001928E-02 0. -1.
    10030    2    1    2    0    0  0.00000000000E+00  0.00000000000E+00 -0.63806792111E+03  0.19408145495E+04  0.18329294704E+04 0.  0.
        2    1    3    3  502    0  0.37800386100E+03 -0.83047006448E+03 -0.40975147964E+03  0.10002318341E+04  0.25500000920E-02 0. -1.
       -2    1    3    3    0  502 -0.37800386100E+03  0.83047006448E+03 -0.22831644147E+03  0.94058271533E+03  0.25500000920E-02 0.  1.
</event>
<event>
 5   0  0.4015729E-05  0.1800206E+04  0.7818609E-02  0.8706190E-01
        2   -1    0    0  501    0  0.00000000000E+00  0.00000000000E+00  0.16028611214E+04  0.16028611214E+04  0.25500000920E-02 0.  1.
       -2   -1    0    0    0  501  0.00000000000E+00  0.00000000000E+00 -0.50546219746E+03  0.50546219747E+03  0.25500000920E-02 0. -1.
    10030    2    1    2    0    0  0.00000000000E+00  0.00000000000E+00  0.10973989240E+04  0.21083233189E+04  0.18002063267E+04 0.  0.
        2    1    3    3  502    0  0.31976363059E+03  0.38007450891E+03  0.14278318789E+04  0.15117570196E+04  0.25500000920E-02 0.  1.
       -2    1    3    3    0  502 -0.31976363059E+03 -0.38007450891E+03 -0.33043295495E+03  0.59656629933E+03  0.25500000920E-02 0. -1.
</event>
<event>
 5   0  0.1960300E-05  0.1788734E+04  0.7818609E-02  0.8712314E-01
        1   -1    0    0  501    0  0.00000000000E+00  0.00000000000E+00  0.17018150863E+04  0.17018150863E+04  0.50400001928E-02 0. -1.
       -1   -1    0    0    0  501  0.00000000000E+00  0.00000000000E+00 -0.47002302890E+03  0.47002302893E+03  0.50400001928E-02 0.  1.
    10030    2    1    2    0    0  0.00000000000E+00  0.00000000000E+00  0.12317920574E+04  0.21718381152E+04  0.17887339450E+04 0.  0.
        3    1    3    3  502    0  0.80402060445E+03 -0.27448359369E+03  0.27657366032E+03  0.89346705332E+03  0.10100000352E+00 0.  1.
       -3    1    3    3    0  502 -0.80402060445E+03  0.27448359369E+03  0.95521839706E+03  0.12783710619E+04  0.10100000352E+00 0. -1.
</event>
<event>
 5   0  0.3993393E-05  0.1812025E+04  0.7818609E-02  0.8699931E-01
        2   -1    0    0  501    0  0.00000000000E+00  0.00000000000E+00  0.66711404592E+03  0.66711404593E+03  0.25500000920E-02 0.  1.
       -2   -1    0    0    0  501  0.00000000000E+00  0.00000000000E+00 -0.12304623547E+04  0.12304623547E+04  0.25500000920E-02 0. -1.
    10030    2    1    2    0    0  0.00000000000E+00  0.00000000000E+00 -0.56334830878E+03  0.18975764006E+04  0.18120250769E+04 0.  0.
        5    1    3    3  502    0 -0.58272891075E+03  0.20079862904E+03 -0.97706115444E+03  0.11552331636E+04  0.46999998093E+01 0. -1.
       -5    1    3    3    0  502  0.58272891075E+03 -0.20079862904E+03  0.41371284566E+03  0.74234323699E+03  0.46999998093E+01 0.  1.
</event>
<event>
 5   0  0.1960300E-05  0.1805089E+04  0.7818609E-02  0.8703598E-01
       -1   -1    0    0    0  501  0.00000000000E+00  0.00000000000E+00  0.53898851740E+03  0.53898851743E+03  0.50400001928E-02 0.  1.
        1   -1    0    0  501    0  0.00000000000E+00  0.00000000000E+00 -0.15113241106E+04  0.15113241106E+04  0.50400001928E-02 0. -1.
    10030    2    1    2    0    0  0.00000000000E+00  0.00000000000E+00 -0.97233559322E+03  0.20503126281E+04  0.18050887421E+04 0.  0.
        3    1    3    3  502    0 -0.14657028975E+03 -0.67057660645E+03 -0.11518101660E+04  0.13408290360E+04  0.10100000352E+00 0. -1.
       -3    1    3    3    0  502  0.14657028975E+03  0.67057660645E+03  0.17947457280E+03  0.70948359209E+03  0.10100000352E+00 0.  1.
</event>
<event>
 5   0  0.4015729E-05  0.1794177E+04  0.7818609E-02  0.8709402E-01
        2   -1    0    0  501    0  0.00000000000E+00  0.00000000000E+00  0.16610266165E+04  0.16610266165E+04  0.25500000920E-02 0.  1.
       -2   -1    0    0    0  501  0.00000000000E+00  0.00000000000E+00 -0.48450014844E+03  0.48450014844E+03  0.25500000920E-02 0. -1.
    10030    2    1    2    0    0  0.00000000000E+00  0.00000000000E+00  0.11765264681E+04  0.21455267649E+04  0.17941768500E+04 0.  0.
        2    1    3    3  502    0 -0.67117096014E+02  0.86131948009E+03  0.87722754895E+03  0.12312205830E+04  0.25500000920E-02 0.  1.
       -2    1    3    3    0  502  0.67117096014E+02 -0.86131948009E+03  0.29929891911E+03  0.91430618194E+03  0.25500000920E-02 0. -1.
</event>
<event>
 5   0  0.4015729E-05  0.1802282E+04  0.7818609E-02  0.8705087E-01
        2   -1    0    0  501    0  0.00000000000E+00  0.00000000000E+00  0.65420654021E+03  0.65420654021E+03  0.25500000920E-02 0.  1.
       -2   -1    0    0    0  501  0.00000000000E+00  0.00000000000E+00 -0.12412818012E+04  0.12412818012E+04  0.25500000920E-02 0. -1.
    10030    2    1    2    0    0  0.00000000000E+00  0.00000000000E+00 -0.58707526101E+03  0.18954883414E+04  0.18022815236E+04 0.  0.
        2    1    3    3  502    0 -0.60455617437E+03 -0.45799046013E+03  0.21826162031E+03  0.78922846150E+03  0.25500000920E-02 0.  1.
       -2    1    3    3    0  502  0.60455617437E+03  0.45799046013E+03 -0.80533688131E+03  0.11062598799E+04  0.25500000920E-02 0. -1.
</event>
<event>
 5   0  0.2038338E-05  0.1799078E+04  0.7818609E-02  0.8706790E-01
        1   -1    0    0  501    0  0.00000000000E+00  0.00000000000E+00  0.12376772917E+04  0.12376772917E+04  0.50400001928E-02 0.  1.
       -1   -1    0    0    0  501  0.00000000000E+00  0.00000000000E+00 -0.65378154731E+03  0.65378154733E+03  0.50400001928E-02 0. -1.
    10030    2    1    2    0    0  0.00000000000E+00  0.00000000000E+00  0.58389574437E+03  0.18914588390E+04  0.17990781805E+04 0.  0.
        1    1    3    3  502    0  0.35148739235E+03  0.82550637025E+03  0.22408559805E+03  0.92478024935E+03  0.50400001928E-02 0.  1.
       -1    1    3    3    0  502 -0.35148739235E+03 -0.82550637025E+03  0.35981014633E+03  0.96667858967E+03  0.50400001928E-02 0. -1.
</event>
<event>
 5   0  0.3983176E-05  0.1813284E+04  0.7818609E-02  0.8699267E-01
        2   -1    0    0  501    0  0.00000000000E+00  0.00000000000E+00  0.59318121984E+03  0.59318121984E+03  0.25500000920E-02 0.  1.
       -2   -1    0    0    0  501  0.00000000000E+00  0.00000000000E+00 -0.13857483384E+04  0.13857483384E+04  0.25500000920E-02 0. -1.
    10030    2    1    2    0    0  0.00000000000E+00  0.00000000000E+00 -0.79256711854E+03  0.19789295582E+04  0.18132841915E+04 0.  0.
        3    1    3    3  502    0  0.94014077111E+02  0.57963438914E+03 -0.11501734963E+04  0.12913999200E+04  0.10100000352E+00 0. -1.
       -3    1    3    3    0  502 -0.94014077111E+02 -0.57963438914E+03  0.35760637773E+03  0.68752963817E+03  0.10100000352E+00 0.  1.
</event>
<event>
 5   0  0.4015729E-05  0.1801331E+04  0.7818609E-02  0.8705592E-01
       -2   -1    0    0    0  501  0.00000000000E+00  0.00000000000E+00  0.36195173117E+03  0.36195173118E+03  0.25500000920E-02 0. -1.
        2   -1    0    0  501    0  0.00000000000E+00  0.00000000000E+00 -0.22411778566E+04  0.22411778566E+04  0.25500000920E-02 0.  1.
    10030    2    1    2    0    0  0.00000000000E+00  0.00000000000E+00 -0.18792261254E+04  0.26031295878E+04  0.18013308470E+04 0.  0.
        2    1    3    3  502    0  0.82772737733E+03  0.35089915406E+03 -0.10179081094E+04  0.13580867964E+04  0.25500000920E-02 0. -1.
       -2    1    3    3    0  502 -0.82772737733E+03 -0.35089915406E+03 -0.86131801607E+03  0.12450427914E+04  0.25500000920E-02 0.  1.
</event>
<event>
 5   0  0.1960300E-05  0.1793998E+04  0.7818609E-02  0.8709498E-01
       -1   -1    0    0    0  501  0.00000000000E+00  0.00000000000E+00  0.51725329348E+03  0.51725329350E+03  0.50400001928E-02 0. -1.
        1   -1    0    0  501    0  0.00000000000E+00  0.00000000000E+00 -0.15555387419E+04  0.15555387419E+04  0.50400001928E-02 0.  1.
    10030    2    1    2    0    0  0.00000000000E+00  0.00000000000E+00 -0.10382854484E+04  0.20727920354E+04  0.17939983694E+04 0.  0.
        3    1    3    3  502    0 -0.81492667216E+03  0.20570664153E+03 -0.88118583930E+03  0.12177475916E+04  0.10100000352E+00 0.  1.
       -3    1    3    3    0  502  0.81492667216E+03 -0.20570664153E+03 -0.15709960908E+03  0.85504444372E+03  0.10100000352E+00 0. -1.
</event>
<event>
 5   0  0.1960300E-05  0.1803467E+04  0.7818609E-02  0.8704458E-01
        1   -1    0    0  501    0  0.00000000000E+00  0.00000000000E+00  0.14059528215E+04  0.14059528215E+04  0.50400001928E-02 0.  1.
       -1   -1    0    0    0  501  0.00000000000E+00  0.00000000000E+00 -0.57834312502E+03  0.57834312504E+03  0.50400001928E-02 0. -1.
    10030    2    1    2    0    0  0.00000000000E+00  0.00000000000E+00  0.82760969646E+03  0.19842959465E+04  0.18034668264E+04 0.  0.
        3    1    3    3  502    0  0.77800577369E+02 -0.84718052699E+03  0.74270085380E+03  0.11293238435E+04  0.10100000352E+00 0.  1.
       -3    1    3    3    0  502 -0.77800577369E+02  0.84718052699E+03  0.84908842667E+02  0.85497210300E+03  0.10100000352E+00 0. -1.
</event>
<event>
 5   0  0.1906857E-05  0.1797514E+04  0.7818609E-02  0.8707623E-01
        1   -1    0    0  501    0  0.00000000000E+00  0.00000000000E+00  0.15223812737E+04  0.15223812737E+04  0.50400001928E-02 0.  1.
       -1   -1    0    0    0  501  0.00000000000E+00  0.00000000000E+00 -0.53059236422E+03  0.53059236424E+03  0.50400001928E-02 0. -1.
    10030    2    1    2    0    0  0.00000000000E+00  0.00000000000E+00  0.99178890944E+03  0.20529736379E+04  0.17975137043E+04 0.  0.
        4    1    3    3  502    0  0.48721258989E+03  0.73905801326E+03  0.67349080116E+03  0.11122833842E+04  0.12699999809E+01 0.  1.
       -4    1    3    3    0  502 -0.48721258989E+03 -0.73905801326E+03  0.31829810828E+03  0.94069025367E+03  0.12699999809E+01 0. -1.
</event>
<event>
 5   0  0.3983176E-05  0.1803974E+04  0.7818609E-02  0.8704189E-01
       -2   -1    0    0    0  501  0.00000000000E+00  0.00000000000E+00  0.86385605781E+03  0.86385605782E+03  0.25500000920E-02 0.  1.
        2   -1    0    0  501    0  0.00000000000E+00  0.00000000000E+00 -0.94180082087E+03  0.94180082087E+03  0.25500000920E-02 0. -1.
    10030    2    1    2    0    0  0.00000000000E+00  0.00000000000E+00 -0.77944763053E+02  0.18056568787E+04  0.18039737741E+04 0.  0.
        3    1    3    3  502    0 -0.31737560917E+03 -0.77522017233E+03  0.29583445678E+03  0.88837583764E+03  0.10100000352E+00 0.  1.
       -3    1    3    3    0  502  0.31737560917E+03  0.77522017233E+03 -0.37377921983E+03  0.91728104105E+03  0.10100000352E+00 0. -1.
</event>
<event>
 5   0  0.4015729E-05  0.1790830E+04  0.7818609E-02  0.8711191E-01
       -2   -1    0    0    0  501  0.00000000000E+00  0.00000000000E+00  0.33636367004E+03  0.33636367005E+03  0.25500000920E-02 0.  1.
        2   -1    0    0  501    0  0.00000000000E+00  0.00000000000E+00 -0.23836335108E+04  0.23836335108E+04  0.25500000920E-02 0. -1.
    10030    2    1    2    0    0  0.00000000000E+00  0.00000000000E+00 -0.20472698408E+04  0.27199971809E+04  0.17908296577E+04 0.  0.
        2    1    3    3  502    0  0.52515804457E+03 -0.54865864915E+03 -0.17440081916E+04  0.19022044731E+04  0.25500000920E-02 0. -1.
       -2    1    3    3    0  502 -0.52515804457E+03  0.54865864915E+03 -0.30326164921E+03  0.81779270782E+03  0.25500000920E-02 0.  1.
</event>
<event>
 5   0  0.3909859E-05  0.1799704E+04  0.7818609E-02  0.8706457E-01
       -2   -1    0    0    0  501  0.00000000000E+00  0.00000000000E+00  0.42771456419E+03  0.42771456420E+03  0.25500000920E-02 0.  1.
        2   -1    0    0  501    0  0.00000000000E+00  0.00000000000E+00 -0.18931632483E+04  0.18931632483E+04  0.25500000920E-02 0. -1.
    10030    2    1    2    0    0  0.00000000000E+00  0.00000000000E+00 -0.14654486842E+04  0.23208778125E+04  0.17997038575E+04 0.  0.
        4    1    3    3  502    0  0.25619736998E+03  0.84677660702E+02 -0.18397628341E+04  0.18594451584E+04  0.12699999809E+01 0. -1.
       -4    1    3    3    0  502 -0.25619736998E+03 -0.84677660702E+02  0.37431414990E+03  0.46143265415E+03  0.12699999809E+01 0.  1.
</event>
<event>
 5   0  0.2001811E-05  0.1798870E+04  0.7818609E-02  0.8706901E-01
       -1   -1    0    0    0  501  0.00000000000E+00  0.00000000000E+00  0.74400038670E+03  0.74400038671E+03  0.50400001928E-02 0.  1.
        1   -1    0    0  501    0  0.00000000000E+00  0.00000000000E+00 -0.10873424565E+04  0.10873424565E+04  0.50400001928E-02 0. -1.
    10030    2    1    2    0    0  0.00000000000E+00  0.00000000000E+00 -0.34334206982E+03  0.18313428432E+04  0.17988698765E+04 0.  0.
        2    1    3    3  502    0 -0.92573985684E+02 -0.84709196498E+03  0.12135900743E+03  0.86073384310E+03  0.25500000920E-02 0.  1.
       -2    1    3    3    0  502  0.92573985684E+02  0.84709196498E+03 -0.46470107725E+03  0.97060900015E+03  0.25500000920E-02 0. -1.
</event>
<event>
 5   0  0.1446750E-05  0.1800124E+04  0.7818609E-02  0.8706234E-01
       -3   -1    0    0    0  501  0.00000000000E+00  0.00000000000E+00  0.63892962858E+03  0.63892963656E+03  0.10100000352E+00 0.  1.
        3   -1    0    0  501    0  0.00000000000E+00  0.00000000000E+00 -0.12679197477E+04  0.12679197518E+04  0.10100000352E+00 0. -1.
    10030    2    1    2    0    0  0.00000000000E+00  0.00000000000E+00 -0.62899011915E+03  0.19068493883E+04  0.18001238901E+04 0.  0.
        1    1    3    3  502    0 -0.41549132209E+03  0.27142402252E+02 -0.11597654610E+04  0.12322441614E+04  0.50400001928E-02 0. -1.
       -1    1    3    3    0  502  0.41549132209E+03 -0.27142402252E+02  0.53077534181E+03  0.67460522695E+03  0.50400001928E-02 0.  1.
</event>
<event>
 5   0  0.3984648E-05  0.1797222E+04  0.7818609E-02  0.8707778E-01
        2   -1    0    0  501    0  0.00000000000E+00  0.00000000000E+00  0.95334389459E+03  0.95334389459E+03  0.25500000920E-02 0. -1.
       -2   -1    0    0    0  501  0.00000000000E+00  0.00000000000E+00 -0.84702052519E+03  0.84702052519E+03  0.25500000920E-02 0.  1.
    10030    2    1    2    0    0  0.00000000000E+00  0.00000000000E+00  0.10632336940E+03  0.18003644198E+04  0.17972221302E+04 0.  0.
        1    1    3    3  502    0  0.73964681865E+03  0.40652853571E+03  0.36217952429E+03  0.91843174734E+03  0.50400001928E-02 0. -1.
       -1    1    3    3    0  502 -0.73964681865E+03 -0.40652853571E+03 -0.25585615489E+03  0.88193267244E+03  0.50400001928E-02 0.  1.
</event>
<event>
 5   0  0.4015729E-05  0.1796275E+04  0.7818609E-02  0.8708283E-01
       -2   -1    0    0    0  501  0.00000000000E+00  0.00000000000E+00  0.92874715013E+03  0.92874715013E+03  0.25500000920E-02 0.  1.
        2   -1    0    0  501    0  0.00000000000E+00  0.00000000000E+00 -0.86853655993E+03  0.86853655993E+03  0.25500000920E-02 0. -1.
    10030    2    1    2    0    0  0.00000000000E+00  0.00000000000E+00  0.60210590198E+02  0.17972837101E+04  0.17962748730E+04 0.  0.
        2    1    3    3  502    0  0.25702790392E+03 -0.40025946094E+03  0.79235982794E+03  0.92417805449E+03  0.25500000920E-02 0.  1.
       -2    1    3    3    0  502 -0.25702790392E+03  0.40025946094E+03 -0.73214923774E+03  0.87310565557E+03  0.25500000920E-02 0. -1.
</event>
<event>
 5   0  0.2038338E-05  0.1813660E+04  0.7818609E-02  0.8699069E-01
        1   -1    0    0  501    0  0.00000000000E+00  0.00000000000E+00  0.10645507683E+04  0.10645507683E+04  0.50400001928E-02 0.  1.
       -1   -1    0    0    0  501  0.00000000000E+00  0.00000000000E+00 -0.77247639707E+03  0.77247639709E+03  0.50400001928E-02 0. -1.
    10030    2    1    2    0    0  0.00000000000E+00  0.00000000000E+00  0.29207437120E+03  0.18370271654E+04  0.18136596616E+04 0.  0.
        1    1    3    3  502    0  0.19402069066E+03  0.50515501369E+03 -0.59101596325E+03  0.80132732706E+03  0.50400001928E-02 0. -1.
       -1    1    3    3    0  502 -0.19402069066E+03 -0.50515501369E+03  0.88309033445E+03  0.10356998383E+04  0.50400001928E-02 0.  1.
</event>
<event>
 5   0  0.1960300E-05  0.1790223E+04  0.7818609E-02  0.8711516E-01
       -1   -1    0    0    0  501  0.00000000000E+00  0.00000000000E+00  0.99959409297E+03  0.99959409299E+03  0.50400001928E-02 0.  1.
        1   -1    0    0  501    0  0.00000000000E+00  0.00000000000E+00 -0.80155021031E+03  0.80155021033E+03  0.50400001928E-02 0. -1.
    10030    2    1    2    0    0  0.00000000000E+00  0.00000000000E+00  0.19804388266E+03  0.18011443033E+04  0.17902232883E+04 0.  0.
        3    1    3    3  502    0 -0.10294217363E+03  0.84670276784E+03  0.37219658321E+03  0.93060892696E+03  0.10100000352E+00 0.  1.
       -3    1    3    3    0  502  0.10294217363E+03 -0.84670276784E+03 -0.17415270055E+03  0.87053537636E+03  0.10100000352E+00 0. -1.
</event>
<event>
 5   0  0.1906857E-05  0.1800075E+04  0.7818609E-02  0.8706259E-01
        1   -1    0    0  501    0  0.00000000000E+00  0.00000000000E+00  0.10809725146E+04  0.10809725146E+04  0.50400001928E-02 0. -1.
       -1   -1    0    0    0  501  0.00000000000E+00  0.00000000000E+00 -0.74938804438E+03  0.74938804440E+03  0.50400001928E-02 0.  1.
    10030    2    1    2    0    0  0.00000000000E+00  0.00000000000E+00  0.33158447021E+03  0.18303605590E+04  0.18000754193E+04 0.  0.
        4    1    3    3  502    0 -0.51762808471E+03  0.27128455243E+03 -0.53021801194E+03  0.78909245058E+03  0.12699999809E+01 0.  1.
       -4    1    3    3    0  502  0.51762808471E+03 -0.27128455243E+03  0.86180248215E+03  0.10412681084E+04  0.12699999809E+01 0. -1.
</event>
<event>
 5   0  0.2038338E-05  0.1797592E+04  0.7818609E-02  0.8707581E-01
        1   -1    0    0  501    0  0.00000000000E+00  0.00000000000E+00  0.90593798355E+03  0.90593798357E+03  0.50400001928E-02 0.  1.
       -1   -1    0    0    0  501  0.00000000000E+00  0.00000000000E+00 -0.89171060281E+03  0.89171060282E+03  0.50400001928E-02 0. -1.
    10030    2    1    2    0    0  0.00000000000E+00  0.00000000000E+00  0.14227380743E+02  0.17976485864E+04  0.17975922846E+04 0.  0.
        1    1    3    3  502    0 -0.38270371129E+03 -0.75687704891E+03  0.30462848337E+03  0.90117895598E+03  0.50400001928E-02 0.  1.
       -1    1    3    3    0  502  0.38270371129E+03  0.75687704891E+03 -0.29040110263E+03  0.89646963040E+03  0.50400001928E-02 0. -1.
</event>
<event>
 5   0  0.3983176E-05  0.1801954E+04  0.7818609E-02  0.8705261E-01
        2   -1    0    0  501    0  0.00000000000E+00  0.00000000000E+00  0.11015370290E+04  0.11015370290E+04  0.25500000920E-02 0. -1.
       -2   -1    0    0    0  501  0.00000000000E+00  0.00000000000E+00 -0.73693376582E+03  0.73693376582E+03  0.25500000920E-02 0.  1.
    10030    2    1    2    0    0  0.00000000000E+00  0.00000000000E+00  0.36460326320E+03  0.18384707948E+04  0.18019543068E+04 0.  0.
        3    1    3    3  502    0 -0.32825875533E+03  0.80000637261E+03 -0.75798808594E+02  0.86804923608E+03  0.10100000352E+00 0.  1.
       -3    1    3    3    0  502  0.32825875533E+03 -0.80000637261E+03  0.44040207179E+03  0.97042155876E+03  0.10100000352E+00 0. -1.
</event>
<event>
 5   0  0.2001811E-05  0.1801096E+04  0.7818609E-02  0.8705717E-01
       -1   -1    0    0    0  501  0.00000000000E+00  0.00000000000E+00  0.15339401122E+04  0.15339401123E+04  0.50400001928E-02 0.  1.
        1   -1    0    0  501    0  0.00000000000E+00  0.00000000000E+00 -0.52869531937E+03  0.52869531939E+03  0.50400001928E-02 0. -1.
    10030    2    1    2    0    0  0.00000000000E+00  0.00000000000E+00  0.10052447929E+04  0.20626354316E+04  0.18010962857E+04 0.  0.
        2    1    3    3  502    0  0.87184396865E+02 -0.73120432688E+03  0.10962860277E+04  0.13206452746E+04  0.25500000920E-02 0.  1.
       -2    1    3    3    0  502 -0.87184396865E+02  0.73120432688E+03 -0.91041234853E+02  0.74199015705E+03  0.25500000920E-02 0. -1.
</event>
<event>
 5   0  0.3984648E-05  0.1799395E+04  0.7818609E-02  0.8706622E-01
       -2   -1    0    0    0  501  0.00000000000E+00  0.00000000000E+00  0.95998456459E+03  0.95998456459E+03  0.25500000920E-02 0.  1.
        2   -1    0    0  501    0  0.00000000000E+00  0.00000000000E+00 -0.84319600617E+03  0.84319600618E+03  0.25500000920E-02 0. -1.
    10030    2    1    2    0    0  0.00000000000E+00  0.00000000000E+00  0.11678855842E+03  0.18031805708E+04  0.17993945102E+04 0.  0.
        1    1    3    3  502    0  0.46324370244E+03 -0.54824171270E+03  0.60202206796E+03  0.93680001801E+03  0.50400001928E-02 0.  1.
       -1    1    3    3    0  502 -0.46324370244E+03  0.54824171270E+03 -0.48523350955E+03  0.86638055276E+03  0.50400001928E-02 0. -1.
</event>
<event>
 5   0  0.2001811E-05  0.1801935E+04  0.7818609E-02  0.8705271E-01
       -1   -1    0    0    0  501  0.00000000000E+00  0.00000000000E+00  0.33659094306E+03  0.33659094310E+03  0.50400001928E-02 0. -1.
        1   -1    0    0  501    0  0.00000000000E+00  0.00000000000E+00 -0.24116595726E+04  0.24116595727E+04  0.50400001928E-02 0.  1.
    10030    2    1    2    0    0  0.00000000000E+00  0.00000000000E+00 -0.20750686296E+04  0.27482505158E+04  0.18019353706E+04 0.  0.
        2    1    3    3  502    0 -0.12417832048E+03 -0.85714170109E+03 -0.14161646208E+04  0.16600103567E+04  0.25500000920E-02 0.  1.
       -2    1    3    3    0  502  0.12417832048E+03  0.85714170109E+03 -0.65890400877E+03  0.10882401591E+04  0.25500000920E-02 0. -1.
</event>
<event>
 5   0  0.1960300E-05  0.1804439E+04  0.7818609E-02  0.8703942E-01
       -1   -1    0    0    0  501  0.00000000000E+00  0.00000000000E+00  0.83078511252E+03  0.83078511254E+03  0.50400001928E-02 0. -1.
        1   -1    0    0  501    0  0.00000000000E+00  0.00000000000E+00 -0.97979607299E+03  0.97979607300E+03  0.50400001928E-02 0.  1.
    10030    2    1    2    0    0  0.00000000000E+00  0.00000000000E+00 -0.14901096047E+03  0.18105811855E+04  0.18044389608E+04 0.  0.
        3    1    3    3  502    0  0.56070028790E+03  0.30127597322E+03 -0.71609420451E+03  0.95809339045E+03  0.10100000352E+00 0.  1.
       -3    1    3    3    0  502 -0.56070028790E+03 -0.30127597322E+03  0.56708324404E+03  0.85248779509E+03  0.10100000352E+00 0. -1.
</event>
<event>
 5   0  0.3909859E-05  0.1800278E+04  0.7818609E-02  0.8706152E-01
       -2   -1    0    0    0  501  0.00000000000E+00  0.00000000000E+00  0.93860088697E+03  0.93860088698E+03  0.25500000920E-02 0. -1.
        2   -1    0    0  501    0  0.00000000000E+00  0.00000000000E+00 -0.86325307279E+03  0.86325307280E+03  0.25500000920E-02 0.  1.
    10030    2    1    2    0    0  0.00000000000E+00  0.00000000000E+00  0.75347814178E+02  0.18018539598E+04  0.18002778672E+04 0.  0.
        4    1    3    3  502    0 -0.28396233881E+03 -0.16704504310E+03 -0.80074068177E+03  0.86586714260E+03  0.12699999809E+01 0.  1.
       -4    1    3    3    0  502  0.28396233881E+03  0.16704504310E+03  0.87608849595E+03  0.93598681717E+03  0.12699999809E+01 0. -1.
</event>
<event>
 5   0  0.1906857E-05  0.1793073E+04  0.7818609E-02  0.8709992E-01
        1   -1    0    0  501    0  0.00000000000E+00  0.00000000000E+00  0.98692359246E+03  0.98692359247E+03  0.50400001928E-02 0. -1.
       -1   -1    0    0    0  501  0.00000000000E+00  0.00000000000E+00 -0.81442767175E+03  0.81442767177E+03  0.50400001928E-02 0.  1.
    10030    2    1    2    0    0  0.00000000000E+00  0.00000000000E+00  0.17249592071E+03  0.18013512642E+04  0.17930732095E+04 0.  0.
        4    1    3    3  502    0  0.31080556619E+03 -0.78033386808E+03 -0.22865606658E+03  0.87052068059E+03  0.12699999809E+01 0.  1.
       -4    1    3    3    0  502 -0.31080556619E+03  0.78033386808E+03  0.40115198729E+03  0.93083058365E+03  0.12699999809E+01 0. -1.
</event>
<event>
 5   0  0.4015729E-05  0.1799795E+04  0.7818609E-02  0.8706408E-01
       -2   -1    0    0    0  501  0.00000000000E+00  0.00000000000E+00  0.45538437210E+03  0.45538437211E+03  0.25500000920E-02 0. -1.
        2   -1    0    0  501    0  0.00000000000E+00  0.00000000000E+00 -0.17783124735E+04  0.17783124735E+04  0.25500000920E-02 0.  1.
    10030    2    1    2    0    0  0.00000000000E+00  0.00000000000E+00 -0.13229281014E+04  0.22336968456E+04  0.17997952207E+04 0.  0.
        2    1    3    3  502    0  0.51979021868E+03 -0.17357141071E+03 -0.15473465664E+04  0.16415207286E+04  0.25500000920E-02 0.  1.
       -2    1    3    3    0  502 -0.51979021868E+03  0.17357141071E+03  0.22441846500E+03  0.59217611695E+03  0.25500000920E-02 0. -1.
</event>
<event>
 5   0  0.2054876E-05  0.1792408E+04  0.7818609E-02  0.8710347E-01
        1   -1    0    0  501    0  0.00000000000E+00  0.00000000000E+00  0.17739004690E+04  0.17739004690E+04  0.50400001928E-02 0. -1.
       -1   -1    0    0    0  501  0.00000000000E+00  0.00000000000E+00 -0.45277695503E+03  0.45277695506E+03  0.50400001928E-02 0.  1.
    10030    2    1    2    0    0  0.00000000000E+00  0.00000000000E+00  0.13211235140E+04  0.22266774241E+04  0.17924076020E+04 0.  0.
        5    1    3    3  502    0  0.23443118651E+03 -0.38043724727E+03  0.16256074953E+04  0.16859158636E+04  0.46999998093E+01 0. -1.
       -5    1    3    3    0  502 -0.23443118651E+03  0.38043724727E+03 -0.30448398138E+03  0.54076156043E+03  0.46999998093E+01 0.  1.
</event>
<event>
 5   0  0.3983176E-05  0.1796109E+04  0.7818609E-02  0.8708372E-01
       -2   -1    0    0    0  501  0.00000000000E+00  0.00000000000E+00  0.67612818336E+03  0.67612818336E+03  0.25500000920E-02 0. -1.
        2   -1    0    0  501    0  0.00000000000E+00  0.00000000000E+00 -0.11928234677E+04  0.11928234677E+04  0.25500000920E-02 0.  1.
    10030    2    1    2    0    0  0.00000000000E+00  0.00000000000E+00 -0.51669528433E+03  0.18689516511E+04  0.17961086429E+04 0.  0.
        3    1    3    3  502    0  0.47650324832E+03 -0.42818912310E+03 -0.91323716174E+03  0.11155283029E+04  0.10100000352E+00 0.  1.
       -3    1    3    3    0  502 -0.47650324832E+03  0.42818912310E+03  0.39654187740E+03  0.75342334815E+03  0.10100000352E+00 0. -1.
</event>
<event>
 5   0  0.2001811E-05  0.1801410E+04  0.7818609E-02  0.8705550E-01
       -1   -1    0    0    0  501  0.00000000000E+00  0.00000000000E+00  0.84193712626E+03  0.84193712627E+03  0.50400001928E-02 0. -1.
        1   -1    0    0  501    0  0.00000000000E+00  0.00000000000E+00 -0.96357479699E+03  0.96357479701E+03  0.50400001928E-02 0.  1.
    10030    2    1    2    0    0  0.00000000000E+00  0.00000000000E+00 -0.12163767074E+03  0.18055119233E+04  0.18014098873E+04 0.  0.
        2    1    3    3  502    0  0.79537696169E+03  0.42175944227E+03 -0.33117933642E+02  0.90088974679E+03  0.25500000920E-02 0.  1.
       -2    1    3    3    0  502 -0.79537696169E+03 -0.42175944227E+03 -0.88519737095E+02  0.90462217649E+03  0.25500000920E-02 0. -1.
</event>
<event>
 5   0  0.4015729E-05  0.1800310E+04  0.7818609E-02  0.8706134E-01
       -2   -1    0    0    0  501  0.00000000000E+00  0.00000000000E+00  0.11804751080E+04  0.11804751080E+04  0.25500000920E-02 0.  1.
        2   -1    0    0  501    0  0.00000000000E+00  0.00000000000E+00 -0.68640105923E+03  0.68640105923E+03  0.25500000920E-02 0. -1.
    10030    2    1    2    0    0  0.00000000000E+00  0.00000000000E+00  0.49407404879E+03  0.18668761673E+04  0.18003103783E+04 0.  0.
        2    1    3    3  502    0  0.76775260746E+03  0.21304833952E+03  0.68138669329E+03  0.10483899499E+04  0.25500000920E-02 0.  1.
       -2    1    3    3    0  502 -0.76775260746E+03 -0.21304833952E+03 -0.18731264449E+03  0.81848621737E+03  0.25500000920E-02 0. -1.
</event>
<event>
 5   0  0.3984648E-05  0.1819863E+04  0.7818609E-02  0.8695807E-01
       -2   -1    0    0    0  501  0.00000000000E+00  0.00000000000E+00  0.28789334396E+03  0.28789334397E+03  0.25500000920E-02 0. -1.
        2   -1    0    0  501    0  0.00000000000E+00  0.00000000000E+00 -0.28759805188E+04  0.28759805188E+04  0.25500000920E-02 0.  1.
    10030    2    1    2    0    0  0.00000000000E+00  0.00000000000E+00 -0.25880871748E+04  0.31638738627E+04  0.18198633451E+04 0.  0.
        1    1    3    3  502    0 -0.52257579424E+03 -0.64072572335E+03 -0.63349476001E+03  0.10415999828E+04  0.50400001928E-02 0. -1.
       -1    1    3    3    0  502  0.52257579424E+03  0.64072572335E+03 -0.19545924148E+04  0.21222738799E+04  0.50400001928E-02 0.  1.
</event>
<event>
 5   0  0.1960300E-05  0.1800035E+04  0.7818609E-02  0.8706281E-01
        1   -1    0    0  501    0  0.00000000000E+00  0.00000000000E+00  0.17595421071E+04  0.17595421071E+04  0.50400001928E-02 0. -1.
       -1   -1    0    0    0  501  0.00000000000E+00  0.00000000000E+00 -0.46036516882E+03  0.46036516885E+03  0.50400001928E-02 0.  1.
    10030    2    1    2    0    0  0.00000000000E+00  0.00000000000E+00  0.12991769383E+04  0.22199072759E+04  0.18000354432E+04 0.  0.
        3    1    3    3  502    0  0.35726233399E+02 -0.61420190483E+03  0.14597096519E+04  0.15840683766E+04  0.10100000352E+00 0. -1.
       -3    1    3    3    0  502 -0.35726233399E+02  0.61420190483E+03 -0.16053271360E+03  0.63583889939E+03  0.10100000352E+00 0.  1.
</event>
<event>
 5   0  0.1906857E-05  0.1798623E+04  0.7818609E-02  0.8707032E-01
       -1   -1    0    0    0  501  0.00000000000E+00  0.00000000000E+00  0.46703658048E+03  0.46703658050E+03  0.50400001928E-02 0. -1.
        1   -1    0    0  501    0  0.00000000000E+00  0.00000000000E+00 -0.17316867276E+04  0.17316867276E+04  0.50400001928E-02 0.  1.
    10030    2    1    2    0    0  0.00000000000E+00  0.00000000000E+00 -0.12646501471E+04  0.21987233081E+04  0.17986228596E+04 0.  0.
        4    1    3    3  502    0 -0.34157081866E+03  0.83075793530E+03 -0.68603026674E+03  0.11302515255E+04  0.12699999809E+01 0. -1.
       -4    1    3    3    0  502  0.34157081866E+03 -0.83075793530E+03 -0.57861988035E+03  0.10684717825E+04  0.12699999809E+01 0.  1.
</event>
<event>
 5   0  0.4015729E-05  0.1798514E+04  0.7818609E-02  0.8707090E-01
       -2   -1    0    0    0  501  0.00000000000E+00  0.00000000000E+00  0.13180085699E+04  0.13180085699E+04  0.25500000920E-02 0. -1.
        2   -1    0    0  501    0  0.00000000000E+00  0.00000000000E+00 -0.61354933907E+03  0.61354933908E+03  0.25500000920E-02 0.  1.
    10030    2    1    2    0    0  0.00000000000E+00  0.00000000000E+00  0.70445923079E+03  0.19315579089E+04  0.17985141500E+04 0.  0.
        2    1    3    3  502    0  0.14218180828E+03  0.81305311108E+03 -0.31093839001E+02  0.82597690941E+03  0.25500000920E-02 0.  1.
       -2    1    3    3    0  502 -0.14218180828E+03 -0.81305311108E+03  0.73555306979E+03  0.11055809995E+04  0.25500000920E-02 0. -1.
</event>
<event>
 5   0  0.3909859E-05  0.1799763E+04  0.7818609E-02  0.8706426E-01
       -2   -1    0    0    0  501  0.00000000000E+00  0.00000000000E+00  0.64024204836E+03  0.64024204837E+03  0.25500000920E-02 0.  1.
        2   -1    0    0  501    0  0.00000000000E+00  0.00000000000E+00 -0.12648129748E+04  0.12648129748E+04  0.25500000920E-02 0. -1.
    10030    2    1    2    0    0  0.00000000000E+00  0.00000000000E+00 -0.62457092640E+03  0.19050550231E+04  0.17997627063E+04 0.  0.
        4    1    3    3  502    0 -0.60669968260E+03  0.21810877104E+03 -0.97681060048E+03  0.11703916024E+04  0.12699999809E+01 0. -1.
       -4    1    3    3    0  502  0.60669968260E+03 -0.21810877104E+03  0.35223967408E+03  0.73466342073E+03  0.12699999809E+01 0.  1.
</event>
<event>
 5   0  0.3983176E-05  0.1799184E+04  0.7818609E-02  0.8706733E-01
        2   -1    0    0  501    0  0.00000000000E+00  0.00000000000E+00  0.24786511476E+04  0.24786511476E+04  0.25500000920E-02 0.  1.
       -2   -1    0    0    0  501  0.00000000000E+00  0.00000000000E+00 -0.32649458579E+03  0.32649458580E+03  0.25500000920E-02 0. -1.
    10030    2    1    2    0    0  0.00000000000E+00  0.00000000000E+00  0.21521565618E+04  0.28051457334E+04  0.17991844595E+04 0.  0.
        3    1    3    3  502    0  0.20063154034E+03 -0.64790075612E+03  0.19974615832E+04  0.21094741504E+04  0.10100000352E+00 0.  1.
       -3    1    3    3    0  502 -0.20063154034E+03  0.64790075612E+03  0.15469497861E+03  0.69567158298E+03  0.10100000352E+00 0. -1.
</event>
<event>
 5   0  0.3993393E-05  0.1802931E+04  0.7818609E-02  0.8704742E-01
       -2   -1    0    0    0  501  0.00000000000E+00  0.00000000000E+00  0.48402067578E+03  0.48402067578E+03  0.25500000920E-02 0. -1.
        2   -1    0    0  501    0  0.00000000000E+00  0.00000000000E+00 -0.16789374601E+04  0.16789374601E+04  0.25500000920E-02 0.  1.
    10030    2    1    2    0    0  0.00000000000E+00  0.00000000000E+00 -0.11949167844E+04  0.21629581359E+04  0.18029314397E+04 0.  0.
        5    1    3    3  502    0  0.70527258559E+02 -0.36573188909E+03  0.38737239698E+03  0.53741359569E+03  0.46999998093E+01 0. -1.
       -5    1    3    3    0  502 -0.70527258559E+02  0.36573188909E+03 -0.15822891813E+04  0.16255445402E+04  0.46999998093E+01 0.  1.
</event>
<event>
 5   0  0.1906857E-05  0.1800172E+04  0.7818609E-02  0.8706208E-01
        1   -1    0    0  501    0  0.00000000000E+00  0.00000000000E+00  0.23238871807E+04  0.23238871807E+04  0.50400001928E-02 0.  1.
       -1   -1    0    0    0  501  0.00000000000E+00  0.00000000000E+00 -0.34862070884E+03  0.34862070888E+03  0.50400001928E-02 0. -1.
    10030    2    1    2    0    0  0.00000000000E+00  0.00000000000E+00  0.19752664718E+04  0.26725078896E+04  0.18001724320E+04 0.  0.
        4    1    3    3  502    0  0.56967928043E+03 -0.41436674389E+03  0.18194236281E+04  0.19510351695E+04  0.12699999809E+01 0.  1.
       -4    1    3    3    0  502 -0.56967928043E+03  0.41436674389E+03  0.15584284368E+03  0.72147272008E+03  0.12699999809E+01 0. -1.
</event>
<event>
 5   0  0.2054876E-05  0.1806660E+04  0.7818609E-02  0.8702766E-01
       -1   -1    0    0    0  501  0.00000000000E+00  0.00000000000E+00  0.91668006281E+03  0.91668006283E+03  0.50400001928E-02 0. -1.
        1   -1    0    0  501    0  0.00000000000E+00  0.00000000000E+00 -0.89017463998E+03  0.89017463999E+03  0.50400001928E-02 0.  1.
    10030    2    1    2    0    0  0.00000000000E+00  0.00000000000E+00  0.26505422834E+02  0.18068547028E+04  0.18066602834E+04 0.  0.
        5    1    3    3  502    0  0.30657800467E+03  0.26340936146E+03  0.82118164125E+03  0.91527916101E+03  0.46999998093E+01 0. -1.
       -5    1    3    3    0  502 -0.30657800467E+03 -0.26340936146E+03 -0.79467621841E+03  0.89157554181E+03  0.46999998093E+01 0.  1.
</event>
<event>
 5   0  0.2038338E-05  0.1799777E+04  0.7818609E-02  0.8706418E-01
        1   -1    0    0  501    0  0.00000000000E+00  0.00000000000E+00  0.81724084922E+03  0.81724084924E+03  0.50400001928E-02 0. -1.
       -1   -1    0    0    0  501  0.00000000000E+00  0.00000000000E+00 -0.99089450890E+03  0.99089450891E+03  0.50400001928E-02 0.  1.
    10030    2    1    2    0    0  0.00000000000E+00  0.00000000000E+00 -0.17365365967E+03  0.18081353582E+04  0.17997771751E+04 0.  0.
        1    1    3    3  502    0 -0.44173091761E+03 -0.75780999282E+03  0.11509732211E+03  0.88467484557E+03  0.50400001928E-02 0. -1.
       -1    1    3    3    0  502  0.44173091761E+03  0.75780999282E+03 -0.28875098179E+03  0.92346051259E+03  0.50400001928E-02 0.  1.
</event>
<event>
 5   0  0.3909859E-05  0.1801795E+04  0.7818609E-02  0.8705345E-01
       -2   -1    0    0    0  501  0.00000000000E+00  0.00000000000E+00  0.11171504576E+04  0.11171504576E+04  0.25500000920E-02 0.  1.
        2   -1    0    0  501    0  0.00000000000E+00  0.00000000000E+00 -0.72650615272E+03  0.72650615272E+03  0.25500000920E-02 0. -1.
    10030    2    1    2    0    0  0.00000000000E+00  0.00000000000E+00  0.39064430490E+03  0.18436566103E+04  0.18017954168E+04 0.  0.
        4    1    3    3  502    0  0.28750664755E+03  0.48714428286E+03  0.91278689873E+03  0.10738487603E+04  0.12699999809E+01 0.  1.
       -4    1    3    3    0  502 -0.28750664755E+03 -0.48714428286E+03 -0.52214259384E+03  0.76980784999E+03  0.12699999809E+01 0. -1.
</event>
<event>
 5   0  0.3909859E-05  0.1798875E+04  0.7818609E-02  0.8706898E-01
       -2   -1    0    0    0  501  0.00000000000E+00  0.00000000000E+00  0.95862487645E+03  0.95862487645E+03  0.25500000920E-02 0.  1.
        2   -1    0    0  501    0  0.00000000000E+00  0.00000000000E+00 -0.84390474718E+03  0.84390474718E+03  0.25500000920E-02 0. -1.
    10030    2    1    2    0    0  0.00000000000E+00  0.00000000000E+00  0.11472012927E+03  0.18025296236E+04  0.17988752975E+04 0.  0.
        4    1    3    3  502    0 -0.35555201294E+03  0.21862045954E+03  0.85570583979E+03  0.95207470105E+03  0.12699999809E+01 0.  1.
       -4    1    3    3    0  502  0.35555201294E+03 -0.21862045954E+03 -0.74098571052E+03  0.85045492258E+03  0.12699999809E+01 0. -1.
</event>
<event>
 5   0  0.1446750E-05  0.1802220E+04  0.7818609E-02  0.8705120E-01
        3   -1    0    0  501    0  0.00000000000E+00  0.00000000000E+00  0.73564875506E+03  0.73564876200E+03  0.10100000352E+00 0.  1.
       -3   -1    0    0    0  501  0.00000000000E+00  0.00000000000E+00 -0.11037870726E+04  0.11037870772E+04  0.10100000352E+00 0. -1.
    10030    2    1    2    0    0  0.00000000000E+00  0.00000000000E+00 -0.36813831752E+03  0.18394358392E+04  0.18022204043E+04 0.  0.
        2    1    3    3  502    0  0.12060031830E+03 -0.54994388265E+03  0.53403385321E+03  0.77599927011E+03  0.25500000920E-02 0.  1.
       -2    1    3    3    0  502 -0.12060031830E+03  0.54994388265E+03 -0.90217217073E+03  0.10634365691E+04  0.25500000920E-02 0. -1.
</event>
<event>
 5   0  0.4015729E-05  0.1800377E+04  0.7818609E-02  0.8706099E-01
       -2   -1    0    0    0  501  0.00000000000E+00  0.00000000000E+00  0.88911063210E+03  0.88911063210E+03  0.25500000920E-02 0. -1.
        2   -1    0    0  501    0  0.00000000000E+00  0.00000000000E+00 -0.91140478330E+03  0.91140478330E+03  0.25500000920E-02 0.  1.
    10030    2    1    2    0    0  0.00000000000E+00  0.00000000000E+00 -0.22294151197E+02  0.18005154154E+04  0.18003773860E+04 0.  0.
        2    1    3    3  502    0 -0.37840394947E+03  0.41281276694E+03  0.69370178962E+03  0.89153020277E+03  0.25500000920E-02 0. -1.
       -2    1    3    3    0  502  0.37840394947E+03 -0.41281276694E+03 -0.71599594081E+03  0.90898521264E+03  0.25500000920E-02 0.  1.
</event>
<event>
 5   0  0.2001811E-05  0.1800079E+04  0.7818609E-02  0.8706257E-01
       -1   -1    0    0    0  501  0.00000000000E+00  0.00000000000E+00  0.10754343827E+04  0.10754343827E+04  0.50400001928E-02 0. -1.
        1   -1    0    0  501    0  0.00000000000E+00  0.00000000000E+00 -0.75325016761E+03  0.75325016762E+03  0.50400001928E-02 0.  1.
    10030    2    1    2    0    0  0.00000000000E+00  0.00000000000E+00  0.32218421509E+03  0.18286845503E+04  0.18000790305E+04 0.  0.
        2    1    3    3  502    0  0.65210106322E+03 -0.34759167611E+03  0.68308167033E+03  0.10063082720E+04  0.25500000920E-02 0. -1.
       -2    1    3    3    0  502 -0.65210106322E+03  0.34759167611E+03 -0.36089745524E+03  0.82237627833E+03  0.25500000920E-02 0.  1.
</event>
<event>
 5   0  0.1960300E-05  0.1801018E+04  0.7818609E-02  0.8705758E-01
        1   -1    0    0  501    0  0.00000000000E+00  0.00000000000E+00  0.97511758806E+03  0.97511758807E+03  0.50400001928E-02 0. -1.
       -1   -1    0    0    0  501  0.00000000000E+00  0.00000000000E+00 -0.83160886756E+03  0.83160886757E+03  0.50400001928E-02 0.  1.
    10030    2    1    2    0    0  0.00000000000E+00  0.00000000000E+00  0.14350872050E+03  0.18067264556E+04  0.18010179712E+04 0.  0.
        3    1    3    3  502    0 -0.67472089743E+03 -0.56110988396E+03  0.27444385485E+03  0.91946290353E+03  0.10100000352E+00 0. -1.
       -3    1    3    3    0  502  0.67472089743E+03  0.56110988396E+03 -0.13093513435E+03  0.88726355212E+03  0.10100000352E+00 0.  1.
</event>
<event>
 5   0  0.3993393E-05  0.1799769E+04  0.7818609E-02  0.8706423E-01
       -2   -1    0    0    0  501  0.00000000000E+00  0.00000000000E+00  0.10546074723E+04  0.10546074723E+04  0.25500000920E-02 0. -1.
        2   -1    0    0  501    0  0.00000000000E+00  0.00000000000E+00 -0.76786077442E+03  0.76786077442E+03  0.25500000920E-02 0.  1.
    10030    2    1    2    0    0  0.00000000000E+00  0.00000000000E+00  0.28674669790E+03  0.18224682467E+04  0.17997685522E+04 0.  0.
        5    1    3    3  502    0  0.48657407737E+03  0.71153714029E+03 -0.11820661630E+03  0.87007719710E+03  0.46999998093E+01 0.  1.
       -5    1    3    3    0  502 -0.48657407737E+03 -0.71153714029E+03  0.40495331420E+03  0.95239104965E+03  0.46999998093E+01 0. -1.
</event>
<event>
 5   0  0.3984648E-05  0.1792478E+04  0.7818609E-02  0.8710310E-01
        2   -1    0    0  501    0  0.00000000000E+00  0.00000000000E+00  0.51981027074E+03  0.51981027074E+03  0.25500000920E-02 0.  1.
       -2   -1    0    0    0  501  0.00000000000E+00  0.00000000000E+00 -0.15452641805E+04  0.15452641805E+04  0.25500000920E-02 0. -1.
    10030    2    1    2    0    0  0.00000000000E+00  0.00000000000E+00 -0.10254539097E+04  0.20650744512E+04  0.17924778292E+04 0.  0.
        1    1    3    3  502    0  0.16043303198E+03  0.50026083349E+03 -0.13492693655E+04  0.14479390457E+04  0.50400001928E-02 0. -1.
       -1    1    3    3    0  502 -0.16043303198E+03 -0.50026083349E+03  0.32381545581E+03  0.61713540550E+03  0.50400001928E-02 0.  1.
</event>
<event>
 5   0  0.1906857E-05  0.1799901E+04  0.7818609E-02  0.8706352E-01
        1   -1    0    0  501    0  0.00000000000E+00  0.00000000000E+00  0.82164382884E+03  0.82164382885E+03  0.50400001928E-02 0. -1.
       -1   -1    0    0    0  501  0.00000000000E+00  0.00000000000E+00 -0.98571982721E+03  0.98571982722E+03  0.50400001928E-02 0.  1.
    10030    2    1    2    0    0  0.00000000000E+00  0.00000000000E+00 -0.16407599837E+03  0.18073636561E+04  0.17999006784E+04 0.  0.
        4    1    3    3  502    0 -0.33475709158E+03 -0.26038740353E+03 -0.87908295912E+03  0.97603912432E+03  0.12699999809E+01 0.  1.
       -4    1    3    3    0  502  0.33475709158E+03  0.26038740353E+03  0.71500696075E+03  0.83132453176E+03  0.12699999809E+01 0. -1.
</event>
<event>
 5   0  0.1906857E-05  0.1801697E+04  0.7818609E-02  0.8705398E-01
        1   -1    0    0  501    0  0.00000000000E+00  0.00000000000E+00  0.85558434323E+03  0.85558434325E+03  0.50400001928E-02 0. -1.
       -1   -1    0    0    0  501  0.00000000000E+00  0.00000000000E+00 -0.94850732810E+03  0.94850732812E+03  0.50400001928E-02 0.  1.
    10030    2    1    2    0    0  0.00000000000E+00  0.00000000000E+00 -0.92922984873E+02  0.18040916714E+04  0.18016969994E+04 0.  0.
        4    1    3    3  502    0 -0.48078278248E+03 -0.64572846556E+03 -0.45123765357E+03  0.92289455955E+03  0.12699999809E+01 0.  1.
       -4    1    3    3    0  502  0.48078278248E+03  0.64572846556E+03  0.35831466869E+03  0.88119711181E+03  0.12699999809E+01 0. -1.
</event>
<event>
 5   0  0.2054876E-05  0.1789178E+04  0.7818609E-02  0.8712076E-01
       -1   -1    0    0    0  501  0.00000000000E+00  0.00000000000E+00  0.11688624866E+04  0.11688624866E+04  0.50400001928E-02 0.  1.
        1   -1    0    0  501    0  0.00000000000E+00  0.00000000000E+00 -0.68467351779E+03  0.68467351781E+03  0.50400001928E-02 0. -1.
    10030    2    1    2    0    0  0.00000000000E+00  0.00000000000E+00  0.48418896880E+03  0.18535360044E+04  0.17891776776E+04 0.  0.
        5    1    3    3  502    0  0.64139423062E+03  0.37103649188E+03  0.76133449042E+03  0.10624061999E+04  0.46999998093E+01 0.  1.
       -5    1    3    3    0  502 -0.64139423062E+03 -0.37103649188E+03 -0.27714552162E+03  0.79112980447E+03  0.46999998093E+01 0. -1.
</event>
<event>
 5   0  0.3909859E-05  0.1800584E+04  0.7818609E-02  0.8705989E-01
       -2   -1    0    0    0  501  0.00000000000E+00  0.00000000000E+00  0.43868007990E+03  0.43868007991E+03  0.25500000920E-02 0.  1.
        2   -1    0    0  501    0  0.00000000000E+00  0.00000000000E+00 -0.18476459689E+04  0.18476459689E+04  0.25500000920E-02 0. -1.
    10030    2    1    2    0    0  0.00000000000E+00  0.00000000000E+00 -0.14089658890E+04  0.22863260488E+04  0.18005837734E+04 0.  0.
        4    1    3    3  502    0 -0.41802532172E+03  0.50754400896E+03  0.76376441896E+02  0.66195246386E+03  0.12699999809E+01 0.  1.
       -4    1    3    3    0  502  0.41802532172E+03 -0.50754400896E+03 -0.14853423309E+04  0.16243735850E+04  0.12699999809E+01 0. -1.
</event>
<event>
 5   0  0.2054876E-05  0.1803112E+04  0.7818609E-02  0.8704646E-01
        1   -1    0    0  501    0  0.00000000000E+00  0.00000000000E+00  0.67445224823E+03  0.67445224824E+03  0.50400001928E-02 0.  1.
       -1   -1    0    0    0  501  0.00000000000E+00  0.00000000000E+00 -0.12051308058E+04  0.12051308058E+04  0.50400001928E-02 0. -1.
    10030    2    1    2    0    0  0.00000000000E+00  0.00000000000E+00 -0.53067855760E+03  0.18795830541E+04  0.18031119559E+04 0.  0.
        5    1    3    3  502    0  0.83878684087E+02 -0.88802076342E+03 -0.12876923851E+03  0.90123255417E+03  0.46999998093E+01 0.  1.
       -5    1    3    3    0  502 -0.83878684087E+02  0.88802076342E+03 -0.40190931908E+03  0.97835049991E+03  0.46999998093E+01 0. -1.
</event>
<event>
 5   0  0.3983176E-05  0.1823371E+04  0.7818609E-02  0.8693969E-01
       -2   -1    0    0    0  501  0.00000000000E+00  0.00000000000E+00  0.12964913387E+04  0.12964913387E+04  0.25500000920E-02 0. -1.
        2   -1    0    0  501    0  0.00000000000E+00  0.00000000000E+00 -0.64109221126E+03  0.64109221127E+03  0.25500000920E-02 0.  1.
    10030    2    1    2    0    0  0.00000000000E+00  0.00000000000E+00  0.65539912739E+03  0.19375835499E+04  0.18233710530E+04 0.  0.
        3    1    3    3  502    0 -0.56397244359E+03  0.57946169792E+03  0.77518214823E+03  0.11201554132E+04  0.10100000352E+00 0. -1.
       -3    1    3    3    0  502  0.56397244359E+03 -0.57946169792E+03 -0.11978302084E+03  0.81742813677E+03  0.10100000352E+00 0.  1.
</event>
<event>
 5   0  0.3983176E-05  0.1798541E+04  0.7818609E-02  0.8707076E-01
       -2   -1    0    0    0  501  0.00000000000E+00  0.00000000000E+00  0.54382837060E+03  0.54382837061E+03  0.25500000920E-02 0.  1.
        2   -1    0    0  501    0  0.00000000000E+00  0.00000000000E+00 -0.14870274591E+04  0.14870274591E+04  0.25500000920E-02 0. -1.
    10030    2    1    2    0    0  0.00000000000E+00  0.00000000000E+00 -0.94319908853E+03  0.20308558297E+04  0.17985413202E+04 0.  0.
        3    1    3    3  502    0  0.46949429465E+03 -0.75637436187E+03 -0.32805457450E+03  0.94876070853E+03  0.10100000352E+00 0. -1.
       -3    1    3    3    0  502 -0.46949429465E+03  0.75637436187E+03 -0.61514451403E+03  0.10820951212E+04  0.10100000352E+00 0.  1.
</event>
<event>
 5   0  0.1446750E-05  0.1795410E+04  0.7818609E-02  0.8708744E-01
       -3   -1    0    0    0  501  0.00000000000E+00  0.00000000000E+00  0.96293501049E+03  0.96293501579E+03  0.10100000352E+00 0.  1.
        3   -1    0    0  501    0  0.00000000000E+00  0.00000000000E+00 -0.83689356057E+03  0.83689356667E+03  0.10100000352E+00 0. -1.
    10030    2    1    2    0    0  0.00000000000E+00  0.00000000000E+00  0.12604144992E+03  0.17998285825E+04  0.17954098360E+04 0.  0.
        4    1    3    3  502    0  0.16034214645E+03 -0.63623483448E+02 -0.82012133845E+03  0.83806812030E+03  0.12699999809E+01 0. -1.
       -4    1    3    3    0  502 -0.16034214645E+03  0.63623483448E+02  0.94616278837E+03  0.96176046216E+03  0.12699999809E+01 0.  1.
</event>
<event>
 5   0  0.2054876E-05  0.1803310E+04  0.7818609E-02  0.8704541E-01
       -1   -1    0    0    0  501  0.00000000000E+00  0.00000000000E+00  0.71491056664E+03  0.71491056666E+03  0.50400001928E-02 0.  1.
        1   -1    0    0  501    0  0.00000000000E+00  0.00000000000E+00 -0.11371793449E+04  0.11371793450E+04  0.50400001928E-02 0. -1.
    10030    2    1    2    0    0  0.00000000000E+00  0.00000000000E+00 -0.42226877830E+03  0.18520899116E+04  0.18033097681E+04 0.  0.
        5    1    3    3  502    0  0.26139577095E+03  0.46614428444E+03  0.53469171762E+03  0.75599971288E+03  0.46999998093E+01 0.  1.
       -5    1    3    3    0  502 -0.26139577095E+03 -0.46614428444E+03 -0.95696049593E+03  0.10960901987E+04  0.46999998093E+01 0. -1.
</event>
<event>
 5   0  0.3983176E-05  0.1799957E+04  0.7818609E-02  0.8706322E-01
        2   -1    0    0  501    0  0.00000000000E+00  0.00000000000E+00  0.71211752612E+03  0.71211752612E+03  0.25500000920E-02 0.  1.
       -2   -1    0    0    0  501  0.00000000000E+00  0.00000000000E+00 -0.11373986537E+04  0.11373986537E+04  0.25500000920E-02 0. -1.
    10030    2    1    2    0    0  0.00000000000E+00  0.00000000000E+00 -0.42528112760E+03  0.18495161798E+04  0.17999572389E+04 0.  0.
        3    1    3    3  502    0 -0.17821772039E+01  0.65386417541E+03 -0.84806838858E+03  0.10708695242E+04  0.10100000352E+00 0.  1.
       -3    1    3    3    0  502  0.17821772039E+01 -0.65386417541E+03  0.42278726098E+03  0.77864665560E+03  0.10100000352E+00 0. -1.
</event>
<event>
 5   0  0.1446750E-05  0.1800139E+04  0.7818609E-02  0.8706225E-01
        3   -1    0    0  501    0  0.00000000000E+00  0.00000000000E+00  0.86824530704E+03  0.86824531292E+03  0.10100000352E+00 0. -1.
       -3   -1    0    0    0  501  0.00000000000E+00  0.00000000000E+00 -0.93306030998E+03  0.93306031545E+03  0.10100000352E+00 0.  1.
    10030    2    1    2    0    0  0.00000000000E+00  0.00000000000E+00 -0.64815002938E+02  0.18013056284E+04  0.18001391563E+04 0.  0.
        3    1    3    3  502    0  0.46591728468E+02  0.83278277507E+03 -0.37089773654E+03  0.91283244946E+03  0.10100000352E+00 0.  1.
       -3    1    3    3    0  502 -0.46591728468E+02 -0.83278277507E+03  0.30608273360E+03  0.88847317890E+03  0.10100000352E+00 0. -1.
</event>
<event>
 5   0  0.4015729E-05  0.1801536E+04  0.7818609E-02  0.8705483E-01
       -2   -1    0    0    0  501  0.00000000000E+00  0.00000000000E+00  0.69404993299E+03  0.69404993300E+03  0.25500000920E-02 0. -1.
        2   -1    0    0  501    0  0.00000000000E+00  0.00000000000E+00 -0.11690561904E+04  0.11690561904E+04  0.25500000920E-02 0.  1.
    10030    2    1    2    0    0  0.00000000000E+00  0.00000000000E+00 -0.47500625738E+03  0.18631061234E+04  0.18015364227E+04 0.  0.
        2    1    3    3  502    0  0.86497697918E+03 -0.16032035847E+03 -0.43775868595E+03  0.98260900615E+03  0.25500000920E-02 0.  1.
       -2    1    3    3    0  502 -0.86497697918E+03  0.16032035847E+03 -0.37247571436E+02  0.88049711722E+03  0.25500000920E-02 0. -1.
</event>
<event>
 5   0  0.3984648E-05  0.1800908E+04  0.7818609E-02  0.8705817E-01
       -2   -1    0    0    0  501  0.00000000000E+00  0.00000000000E+00  0.41446127238E+03  0.41446127238E+03  0.25500000920E-02 0.  1.
        2   -1    0    0  501    0  0.00000000000E+00  0.00000000000E+00 -0.19563170511E+04  0.19563170511E+04  0.25500000920E-02 0. -1.
    10030    2    1    2    0    0  0.00000000000E+00  0.00000000000E+00 -0.15418557787E+04  0.23707783235E+04  0.18009082755E+04 0.  0.
        1    1    3    3  502    0  0.81127409960E+03  0.41932405528E+02 -0.25955835057E+03  0.85281564754E+03  0.50400001928E-02 0.  1.
       -1    1    3    3    0  502 -0.81127409960E+03 -0.41932405528E+02 -0.12822974282E+04  0.15179626760E+04  0.50400001928E-02 0. -1.
</event>
<event>
 5   0  0.2038338E-05  0.1803489E+04  0.7818609E-02  0.8704446E-01
       -1   -1    0    0    0  501  0.00000000000E+00  0.00000000000E+00  0.11799936517E+04  0.11799936518E+04  0.50400001928E-02 0. -1.
        1   -1    0    0  501    0  0.00000000000E+00  0.00000000000E+00 -0.68910817197E+03  0.68910817199E+03  0.50400001928E-02 0.  1.
    10030    2    1    2    0    0  0.00000000000E+00  0.00000000000E+00  0.49088547977E+03  0.18691018237E+04  0.18034891387E+04 0.  0.
        1    1    3    3  502    0  0.93498040665E+02  0.32629198661E+03 -0.62037582835E+03  0.70715946756E+03  0.50400001928E-02 0.  1.
       -1    1    3    3    0  502 -0.93498040665E+02 -0.32629198661E+03  0.11112613081E+04  0.11619423562E+04  0.50400001928E-02 0. -1.
</event>
<event>
 5   0  0.3909859E-05  0.1804594E+04  0.7818609E-02  0.8703860E-01
        2   -1    0    0  501    0  0.00000000000E+00  0.00000000000E+00  0.10734248707E+04  0.10734248707E+04  0.25500000920E-02 0. -1.
       -2   -1    0    0    0  501  0.00000000000E+00  0.00000000000E+00 -0.75845049942E+03  0.75845049943E+03  0.25500000920E-02 0.  1.
    10030    2    1    2    0    0  0.00000000000E+00  0.00000000000E+00  0.31497437131E+03  0.18318753702E+04  0.18045937264E+04 0.  0.
        4    1    3    3  502    0  0.41089477054E+03 -0.41849011916E+03 -0.53856807145E+03  0.79625729057E+03  0.12699999809E+01 0.  1.
       -4    1    3    3    0  502 -0.41089477054E+03  0.41849011916E+03  0.85354244276E+03  0.10356180796E+04  0.12699999809E+01 0. -1.
</event>
<event>
 5   0  0.3909859E-05  0.1800048E+04  0.7818609E-02  0.8706274E-01
        2   -1    0    0  501    0  0.00000000000E+00  0.00000000000E+00  0.14700363930E+04  0.14700363930E+04  0.25500000920E-02 0. -1.
       -2   -1    0    0    0  501  0.00000000000E+00  0.00000000000E+00 -0.55103643462E+03  0.55103643463E+03  0.25500000920E-02 0.  1.
    10030    2    1    2    0    0  0.00000000000E+00  0.00000000000E+00  0.91899995839E+03  0.20210728276E+04  0.18000484580E+04 0.  0.
        4    1    3    3  502    0  0.18579053860E+03 -0.34047541526E+03  0.13713810719E+04  0.14251769329E+04  0.12699999809E+01 0. -1.
       -4    1    3    3    0  502 -0.18579053860E+03  0.34047541526E+03 -0.45238111354E+03  0.59589589478E+03  0.12699999809E+01 0.  1.
</event>
<event>
 5   0  0.3993393E-05  0.1795515E+04  0.7818609E-02  0.8708688E-01
       -2   -1    0    0    0  501  0.00000000000E+00  0.00000000000E+00  0.37395792217E+03  0.37395792218E+03  0.25500000920E-02 0.  1.
        2   -1    0    0  501    0  0.00000000000E+00  0.00000000000E+00 -0.21552386472E+04  0.21552386472E+04  0.25500000920E-02 0. -1.
    10030    2    1    2    0    0  0.00000000000E+00  0.00000000000E+00 -0.17812807251E+04  0.25291965694E+04  0.17955150418E+04 0.  0.
        5    1    3    3  502    0  0.69846765415E+03 -0.47214919227E+03 -0.13251817449E+04  0.15706402104E+04  0.46999998093E+01 0. -1.
       -5    1    3    3    0  502 -0.69846765415E+03  0.47214919227E+03 -0.45609898020E+03  0.95855635901E+03  0.46999998093E+01 0.  1.
</event>
<event>
 5   0  0.1906857E-05  0.1800942E+04  0.7818609E-02  0.8705799E-01
       -1   -1    0    0    0  501  0.00000000000E+00  0.00000000000E+00  0.50704264770E+03  0.50704264773E+03  0.50400001928E-02 0.  1.
        1   -1    0    0  501    0  0.00000000000E+00  0.00000000000E+00 -0.15991711622E+04  0.15991711622E+04  0.50400001928E-02 0. -1.
    10030    2    1    2    0    0  0.00000000000E+00  0.00000000000E+00 -0.10921285145E+04  0.21062138099E+04  0.18009419538E+04 0.  0.
        4    1    3    3  502    0 -0.22298253114E+03  0.38417237858E+03  0.36999386239E+03  0.57810612932E+03  0.12699999809E+01 0.  1.
       -4    1    3    3    0  502  0.22298253114E+03 -0.38417237858E+03 -0.14621223769E+04  0.15281076806E+04  0.12699999809E+01 0. -1.
</event>
<event>
 5   0  0.2001811E-05  0.1803812E+04  0.7818609E-02  0.8704275E-01
       -1   -1    0    0    0  501  0.00000000000E+00  0.00000000000E+00  0.17205998341E+04  0.17205998341E+04  0.50400001928E-02 0.  1.
        1   -1    0    0  501    0  0.00000000000E+00  0.00000000000E+00 -0.47276200779E+03  0.47276200782E+03  0.50400001928E-02 0. -1.
    10030    2    1    2    0    0  0.00000000000E+00  0.00000000000E+00  0.12478378263E+04  0.21933618419E+04  0.18038117776E+04 0.  0.
        2    1    3    3  502    0 -0.43756148711E+03  0.59944235835E+03  0.12470824172E+04  0.14512083762E+04  0.25500000920E-02 0. -1.
       -2    1    3    3    0  502  0.43756148711E+03 -0.59944235835E+03  0.75540911762E+00  0.74215346569E+03  0.25500000920E-02 0.  1.
</event>
<event>
 5   0  0.3983176E-05  0.1807666E+04  0.7818609E-02  0.8702233E-01
        2   -1    0    0  501    0  0.00000000000E+00  0.00000000000E+00  0.21370757407E+04  0.21370757407E+04  0.25500000920E-02 0.  1.
       -2   -1    0    0    0  501  0.00000000000E+00  0.00000000000E+00 -0.38225804049E+03  0.38225804050E+03  0.25500000920E-02 0. -1.
    10030    2    1    2    0    0  0.00000000000E+00  0.00000000000E+00  0.17548177002E+04  0.25193337812E+04  0.18076663243E+04 0.  0.
        3    1    3    3  502    0 -0.26873327594E+03  0.38294007324E+03 -0.20038954843E+03  0.50893678842E+03  0.10100000352E+00 0. -1.
       -3    1    3    3    0  502  0.26873327594E+03 -0.38294007324E+03  0.19552072486E+04  0.20103969928E+04  0.10100000352E+00 0.  1.
</event>
<event>
 5   0  0.3909859E-05  0.1798182E+04  0.7818609E-02  0.8707267E-01
        2   -1    0    0  501    0  0.00000000000E+00  0.00000000000E+00  0.10056963803E+04  0.10056963804E+04  0.25500000920E-02 0. -1.
       -2   -1    0    0    0  501  0.00000000000E+00  0.00000000000E+00 -0.80378568284E+03  0.80378568284E+03  0.25500000920E-02 0.  1.
    10030    2    1    2    0    0  0.00000000000E+00  0.00000000000E+00  0.20191069751E+03  0.18094820632E+04  0.17981816947E+04 0.  0.
        4    1    3    3  502    0  0.88966824677E+03 -0.52152041743E+02 -0.18675371138E+02  0.89139206142E+03  0.12699999809E+01 0. -1.
       -4    1    3    3    0  502 -0.88966824677E+03  0.52152041743E+02  0.22058606865E+03  0.91809000177E+03  0.12699999809E+01 0.  1.
</event>
<event>
 5   0  0.3909859E-05  0.1800424E+04  0.7818609E-02  0.8706074E-01
       -2   -1    0    0    0  501  0.00000000000E+00  0.00000000000E+00  0.60063690730E+03  0.60063690731E+03  0.25500000920E-02 0.  1.
        2   -1    0    0  501    0  0.00000000000E+00  0.00000000000E+00 -0.13492034867E+04  0.13492034867E+04  0.25500000920E-02 0. -1.
    10030    2    1    2    0    0  0.00000000000E+00  0.00000000000E+00 -0.74856657938E+03  0.19498403940E+04  0.18004237385E+04 0.  0.
        4    1    3    3  502    0  0.69895955086E+03  0.56679829949E+03 -0.34831341684E+03  0.96495005844E+03  0.12699999809E+01 0.  1.
       -4    1    3    3    0  502 -0.69895955086E+03 -0.56679829949E+03 -0.40025316254E+03  0.98489033555E+03  0.12699999809E+01 0. -1.
</event>
<event>
 5   0  0.1960300E-05  0.1800473E+04  0.7818609E-02  0.8706048E-01
       -1   -1    0    0    0  501  0.00000000000E+00  0.00000000000E+00  0.59385028887E+03  0.59385028889E+03  0.50400001928E-02 0.  1.
        1   -1    0    0  501    0  0.00000000000E+00  0.00000000000E+00 -0.13646966179E+04  0.13646966179E+04  0.50400001928E-02 0. -1.
    10030    2    1    2    0    0  0.00000000000E+00  0.00000000000E+00 -0.77084632907E+03  0.19585469068E+04  0.18004726944E+04 0.  0.
        3    1    3    3  502    0  0.11143151027E+03 -0.67676802580E+03 -0.10197057141E+04  0.12289148448E+04  0.10100000352E+00 0. -1.
       -3    1    3    3    0  502 -0.11143151027E+03  0.67676802580E+03  0.24885938502E+03  0.72963206203E+03  0.10100000352E+00 0.  1.
</event>
<event>
 5   0  0.2038338E-05  0.1798907E+04  0.7818609E-02  0.8706881E-01
        1   -1    0    0  501    0  0.00000000000E+00  0.00000000000E+00  0.10662922515E+04  0.10662922515E+04  0.50400001928E-02 0. -1.
       -1   -1    0    0    0  501  0.00000000000E+00  0.00000000000E+00 -0.75871968287E+03  0.75871968289E+03  0.50400001928E-02 0.  1.
    10030    2    1    2    0    0  0.00000000000E+00  0.00000000000E+00  0.30757256860E+03  0.18250119344E+04  0.17989073561E+04 0.  0.
        1    1    3    3  502    0  0.25129685279E+03  0.60786842509E+03 -0.46860033885E+03  0.80761402170E+03  0.50400001928E-02 0.  1.
       -1    1    3    3    0  502 -0.25129685279E+03 -0.60786842509E+03  0.77617290745E+03  0.10173979127E+04  0.50400001928E-02 0. -1.
</event>
<event>
 5   0  0.2001811E-05  0.1801399E+04  0.7818609E-02  0.8705556E-01
       -1   -1    0    0    0  501  0.00000000000E+00  0.00000000000E+00  0.85927442890E+03  0.85927442891E+03  0.50400001928E-02 0. -1.
        1   -1    0    0  501    0  0.00000000000E+00  0.00000000000E+00 -0.94412198175E+03  0.94412198176E+03  0.50400001928E-02 0.  1.
    10030    2    1    2    0    0  0.00000000000E+00  0.00000000000E+00 -0.84847552850E+02  0.18033964107E+04  0.18013993191E+04 0.  0.
        2    1    3    3  502    0 -0.45005076164E+03  0.77958714857E+03 -0.11436813229E+02  0.90024030735E+03  0.25500000920E-02 0. -1.
       -2    1    3    3    0  502  0.45005076164E+03 -0.77958714857E+03 -0.73410739621E+02  0.90315610333E+03  0.25500000920E-02 0.  1.
</event>
<event>
 5   0  0.3984648E-05  0.1804917E+04  0.7818609E-02  0.8703689E-01
        2   -1    0    0  501    0  0.00000000000E+00  0.00000000000E+00  0.11318026082E+04  0.11318026082E+04  0.25500000920E-02 0.  1.
       -2   -1    0    0    0  501  0.00000000000E+00  0.00000000000E+00 -0.71958764230E+03  0.71958764231E+03  0.25500000920E-02 0. -1.
    10030    2    1    2    0    0  0.00000000000E+00  0.00000000000E+00  0.41221496585E+03  0.18513902505E+04  0.18049168073E+04 0.  0.
        1    1    3    3  502    0 -0.84235768327E+03  0.20259009502E+03  0.46524234423E+03  0.98339191173E+03  0.50400001928E-02 0.  1.
       -1    1    3    3    0  502  0.84235768327E+03 -0.20259009502E+03 -0.53027378380E+02  0.86799833874E+03  0.50400001928E-02 0. -1.
</event>
<event>
 5   0  0.3909859E-05  0.1798294E+04  0.7818609E-02  0.8707207E-01
        2   -1    0    0  501    0  0.00000000000E+00  0.00000000000E+00  0.15039950496E+04  0.15039950496E+04  0.25500000920E-02 0.  1.
       -2   -1    0    0    0  501  0.00000000000E+00  0.00000000000E+00 -0.53754541670E+03  0.53754541670E+03  0.25500000920E-02 0. -1.
    10030    2    1    2    0    0  0.00000000000E+00  0.00000000000E+00  0.96644963289E+03  0.20415404663E+04  0.17982943537E+04 0.  0.
        4    1    3    3  502    0  0.24197090596E+03  0.51887303066E+03  0.12703203500E+04  0.13933752351E+04  0.12699999809E+01 0.  1.
       -4    1    3    3    0  502 -0.24197090596E+03 -0.51887303066E+03 -0.30387071713E+03  0.64816523117E+03  0.12699999809E+01 0. -1.
</event>
<event>
 5   0  0.2054876E-05  0.1803754E+04  0.7818609E-02  0.8704306E-01
       -1   -1    0    0    0  501  0.00000000000E+00  0.00000000000E+00  0.10022876121E+04  0.10022876121E+04  0.50400001928E-02 0.  1.
        1   -1    0    0  501    0  0.00000000000E+00  0.00000000000E+00 -0.81152595086E+03  0.81152595088E+03  0.50400001928E-02 0. -1.
    10030    2    1    2    0    0  0.00000000000E+00  0.00000000000E+00  0.19076166122E+03  0.18138135630E+04  0.18037543153E+04 0.  0.
        5    1    3    3  502    0 -0.87111269120E+02 -0.84911870716E+03  0.38815632830E+03  0.93769844687E+03  0.46999998093E+01 0.  1.
       -5    1    3    3    0  502  0.87111269120E+02  0.84911870716E+03 -0.19739466708E+03  0.87611511610E+03  0.46999998093E+01 0. -1.
</event>
<event>
 5   0  0.3984648E-05  0.1804286E+04  0.7818609E-02  0.8704023E-01
       -2   -1    0    0    0  501  0.00000000000E+00  0.00000000000E+00  0.71669015088E+03  0.71669015089E+03  0.25500000920E-02 0. -1.
        2   -1    0    0  501    0  0.00000000000E+00  0.00000000000E+00 -0.11355845967E+04  0.11355845967E+04  0.25500000920E-02 0.  1.
    10030    2    1    2    0    0  0.00000000000E+00  0.00000000000E+00 -0.41889444578E+03  0.18522747476E+04  0.18042863364E+04 0.  0.
        1    1    3    3  502    0  0.52563843817E+03  0.50695429063E+03  0.33432350063E+03  0.80316288732E+03  0.50400001928E-02 0. -1.
       -1    1    3    3    0  502 -0.52563843817E+03 -0.50695429063E+03 -0.75321794641E+03  0.10491118602E+04  0.50400001928E-02 0.  1.
</event>
<event>
 5   0  0.1960300E-05  0.1798437E+04  0.7818609E-02  0.8707131E-01
        1   -1    0    0  501    0  0.00000000000E+00  0.00000000000E+00  0.79493125036E+03  0.79493125038E+03  0.50400001928E-02 0.  1.
       -1   -1    0    0    0  501  0.00000000000E+00  0.00000000000E+00 -0.10171876993E+04  0.10171876993E+04  0.50400001928E-02 0. -1.
    10030    2    1    2    0    0  0.00000000000E+00  0.00000000000E+00 -0.22225644897E+03  0.18121189497E+04  0.17984374214E+04 0.  0.
        3    1    3    3  502    0  0.29590840320E+03 -0.27613560694E+03 -0.92021983274E+03  0.10052945873E+04  0.10100000352E+00 0. -1.
       -3    1    3    3    0  502 -0.29590840320E+03  0.27613560694E+03  0.69796338377E+03  0.80682436242E+03  0.10100000352E+00 0.  1.
</event>
<event>
 5   0  0.2054876E-05  0.1806622E+04  0.7818609E-02  0.8702786E-01
        1   -1    0    0  501    0  0.00000000000E+00  0.00000000000E+00  0.12778227964E+04  0.12778227964E+04  0.50400001928E-02 0. -1.
       -1   -1    0    0    0  501  0.00000000000E+00  0.00000000000E+00 -0.63856327583E+03  0.63856327585E+03  0.50400001928E-02 0.  1.
    10030    2    1    2    0    0  0.00000000000E+00  0.00000000000E+00  0.63925952055E+03  0.19163860722E+04  0.18066219425E+04 0.  0.
        5    1    3    3  502    0 -0.89903231123E+03 -0.64286125229E+02  0.25636722928E+03  0.93709020312E+03  0.46999998093E+01 0.  1.
       -5    1    3    3    0  502  0.89903231123E+03  0.64286125229E+02  0.38289229127E+03  0.97929586911E+03  0.46999998093E+01 0. -1.
</event>
<event>
 5   0  0.2054876E-05  0.1800195E+04  0.7818609E-02  0.8706196E-01
       -1   -1    0    0    0  501  0.00000000000E+00  0.00000000000E+00  0.64847220920E+03  0.64847220922E+03  0.50400001928E-02 0.  1.
        1   -1    0    0  501    0  0.00000000000E+00  0.00000000000E+00 -0.12493603953E+04  0.12493603953E+04  0.50400001928E-02 0. -1.
    10030    2    1    2    0    0  0.00000000000E+00  0.00000000000E+00 -0.60088818614E+03  0.18978326046E+04  0.18001949846E+04 0.  0.
        5    1    3    3  502    0  0.54036214484E+03 -0.20875584721E+03 -0.10267080899E+04  0.11788646416E+04  0.46999998093E+01 0. -1.
       -5    1    3    3    0  502 -0.54036214484E+03  0.20875584721E+03  0.42581990377E+03  0.71896796296E+03  0.46999998093E+01 0.  1.
</event>
<event>
 5   0  0.1446750E-05  0.1804904E+04  0.7818609E-02  0.8703696E-01
       -4   -1    0    0    0  501  0.00000000000E+00  0.00000000000E+00  0.66653592526E+03  0.66653713517E+03  0.12699999809E+01 0. -1.
        4   -1    0    0  501    0  0.00000000000E+00  0.00000000000E+00 -0.12218667677E+04  0.12218674277E+04  0.12699999809E+01 0.  1.
    10030    2    1    2    0    0  0.00000000000E+00  0.00000000000E+00 -0.55533084247E+03  0.18884045629E+04  0.18049042769E+04 0.  0.
        2    1    3    3  502    0  0.86468344859E+03 -0.21578989852E+03 -0.12904776499E+03  0.90049768030E+03  0.25500000920E-02 0.  1.
       -2    1    3    3    0  502 -0.86468344859E+03  0.21578989852E+03 -0.42628307748E+03  0.98790688262E+03  0.25500000920E-02 0. -1.
</event>
<event>
 5   0  0.3993393E-05  0.1803722E+04  0.7818609E-02  0.8704323E-01
        2   -1    0    0  501    0  0.00000000000E+00  0.00000000000E+00  0.12149452376E+04  0.12149452376E+04  0.25500000920E-02 0. -1.
       -2   -1    0    0    0  501  0.00000000000E+00  0.00000000000E+00 -0.66945675072E+03  0.66945675073E+03  0.25500000920E-02 0.  1.
    10030    2    1    2    0    0  0.00000000000E+00  0.00000000000E+00  0.54548848687E+03  0.18844019883E+04  0.18037220308E+04 0.  0.
        5    1    3    3  502    0  0.40180205610E+03 -0.65273736455E+03 -0.22371703119E+03  0.79848754493E+03  0.46999998093E+01 0.  1.
       -5    1    3    3    0  502 -0.40180205610E+03  0.65273736455E+03  0.76920551806E+03  0.10859144434E+04  0.46999998093E+01 0. -1.
</event>
<event>
 5   0  0.3909859E-05  0.1804986E+04  0.7818609E-02  0.8703653E-01
       -2   -1    0    0    0  501  0.00000000000E+00  0.00000000000E+00  0.65600981798E+03  0.65600981798E+03  0.25500000920E-02 0.  1.
        2   -1    0    0  501    0  0.00000000000E+00  0.00000000000E+00 -0.12415869189E+04  0.12415869189E+04  0.25500000920E-02 0. -1.
    10030    2    1    2    0    0  0.00000000000E+00  0.00000000000E+00 -0.58557710096E+03  0.18975967369E+04  0.18049855497E+04 0.  0.
        4    1    3    3  502    0 -0.53235931836E+03 -0.25777347266E+03 -0.10094062870E+04  0.11699385762E+04  0.12699999809E+01 0. -1.
       -4    1    3    3    0  502  0.53235931836E+03  0.25777347266E+03  0.42382918600E+03  0.72765816071E+03  0.12699999809E+01 0.  1.
</event>
<event>
 5   0  0.2038338E-05  0.1805134E+04  0.7818609E-02  0.8703574E-01
        1   -1    0    0  501    0  0.00000000000E+00  0.00000000000E+00  0.13163118185E+04  0.13163118185E+04  0.50400001928E-02 0.  1.
       -1   -1    0    0    0  501  0.00000000000E+00  0.00000000000E+00 -0.61887114391E+03  0.61887114393E+03  0.50400001928E-02 0. -1.
    10030    2    1    2    0    0  0.00000000000E+00  0.00000000000E+00  0.69744067458E+03  0.19351829624E+04  0.18051342342E+04 0.  0.
        1    1    3    3  502    0  0.15659543457E+03  0.13749723326E+03 -0.59272688433E+03  0.62829354502E+03  0.50400001928E-02 0. -1.
       -1    1    3    3    0  502 -0.15659543457E+03 -0.13749723326E+03  0.12901675589E+04  0.13068894174E+04  0.50400001928E-02 0.  1.
</event>
<event>
 5   0  0.3993393E-05  0.1801239E+04  0.7818609E-02  0.8705641E-01
        2   -1    0    0  501    0  0.00000000000E+00  0.00000000000E+00  0.13720501178E+04  0.13720501178E+04  0.25500000920E-02 0.  1.
       -2   -1    0    0    0  501  0.00000000000E+00  0.00000000000E+00 -0.59117012763E+03  0.59117012763E+03  0.25500000920E-02 0. -1.
    10030    2    1    2    0    0  0.00000000000E+00  0.00000000000E+00  0.78087999019E+03  0.19632202454E+04  0.18012385109E+04 0.  0.
        5    1    3    3  502    0 -0.12995544373E+03  0.21343805109E+03  0.13334946165E+04  0.13567144877E+04  0.46999998093E+01 0.  1.
       -5    1    3    3    0  502  0.12995544373E+03 -0.21343805109E+03 -0.55261462627E+03  0.60650575774E+03  0.46999998093E+01 0. -1.
</event>
<event>
 5   0  0.2054876E-05  0.1799528E+04  0.7818609E-02  0.8706550E-01
        1   -1    0    0  501    0  0.00000000000E+00  0.00000000000E+00  0.81551971840E+03  0.81551971842E+03  0.50400001928E-02 0.  1.
       -1   -1    0    0    0  501  0.00000000000E+00  0.00000000000E+00 -0.99271097478E+03  0.99271097479E+03  0.50400001928E-02 0. -1.
    10030    2    1    2    0    0  0.00000000000E+00  0.00000000000E+00 -0.17719125638E+03  0.18082306932E+04  0.17995281322E+04 0.  0.
        5    1    3    3  502    0  0.69083184287E+03  0.55991321111E+03 -0.22637856474E+03  0.91761690463E+03  0.46999998093E+01 0. -1.
       -5    1    3    3    0  502 -0.69083184287E+03 -0.55991321111E+03  0.49187308357E+02  0.89061378858E+03  0.46999998093E+01 0.  1.
</event>
<event>
 5   0  0.3983176E-05  0.1798796E+04  0.7818609E-02  0.8706940E-01
       -2   -1    0    0    0  501  0.00000000000E+00  0.00000000000E+00  0.10441971951E+04  0.10441971951E+04  0.25500000920E-02 0. -1.
        2   -1    0    0  501    0  0.00000000000E+00  0.00000000000E+00 -0.77467857318E+03  0.77467857318E+03  0.25500000920E-02 0.  1.
    10030    2    1    2    0    0  0.00000000000E+00  0.00000000000E+00  0.26951862194E+03  0.18188757683E+04  0.17987964790E+04 0.  0.
        3    1    3    3  502    0 -0.79525607486E+03  0.41833401357E+03  0.17368068678E+03  0.91520520249E+03  0.10100000352E+00 0. -1.
       -3    1    3    3    0  502  0.79525607486E+03 -0.41833401357E+03  0.95837935159E+02  0.90367056582E+03  0.10100000352E+00 0.  1.
</event>
<event>
 5   0  0.3993393E-05  0.1799943E+04  0.7818609E-02  0.8706330E-01
       -2   -1    0    0    0  501  0.00000000000E+00  0.00000000000E+00  0.40585974800E+03  0.40585974801E+03  0.25500000920E-02 0. -1.
        2   -1    0    0  501    0  0.00000000000E+00  0.00000000000E+00 -0.19956366079E+04  0.19956366079E+04  0.25500000920E-02 0.  1.
    10030    2    1    2    0    0  0.00000000000E+00  0.00000000000E+00 -0.15897768599E+04  0.24014963559E+04  0.17999428555E+04 0.  0.
        5    1    3    3  502    0 -0.61049144280E+03 -0.57889617193E+02  0.83943371239E+02  0.61896654924E+03  0.46999998093E+01 0. -1.
       -5    1    3    3    0  502  0.61049144280E+03  0.57889617193E+02 -0.16737202311E+04  0.17825298066E+04  0.46999998093E+01 0.  1.
</event>
<event>
 5   0  0.1906857E-05  0.1776637E+04  0.7818609E-02  0.8718823E-01
       -1   -1    0    0    0  501  0.00000000000E+00  0.00000000000E+00  0.49296000712E+03  0.49296000714E+03  0.50400001928E-02 0. -1.
        1   -1    0    0  501    0  0.00000000000E+00  0.00000000000E+00 -0.16007582224E+04  0.16007582224E+04  0.50400001928E-02 0.  1.
    10030    2    1    2    0    0  0.00000000000E+00  0.00000000000E+00 -0.11077982153E+04  0.20937182296E+04  0.17766370307E+04 0.  0.
        4    1    3    3  502    0  0.23657567958E+03  0.53507063968E+03 -0.13416616340E+04  0.14636687449E+04  0.12699999809E+01 0.  1.
       -4    1    3    3    0  502 -0.23657567958E+03 -0.53507063968E+03  0.23386341874E+03  0.63004948467E+03  0.12699999809E+01 0. -1.
</event>
<event>
 5   0  0.3983176E-05  0.1806062E+04  0.7818609E-02  0.8703082E-01
       -2   -1    0    0    0  501  0.00000000000E+00  0.00000000000E+00  0.82594439235E+03  0.82594439236E+03  0.25500000920E-02 0. -1.
        2   -1    0    0  501    0  0.00000000000E+00  0.00000000000E+00 -0.98731240197E+03  0.98731240197E+03  0.25500000920E-02 0.  1.
    10030    2    1    2    0    0  0.00000000000E+00  0.00000000000E+00 -0.16136800962E+03  0.18132567943E+04  0.18060621716E+04 0.  0.
        3    1    3    3  502    0  0.56871107870E+03 -0.55471150398E+02  0.62135527932E+03  0.84415148694E+03  0.10100000352E+00 0. -1.
       -3    1    3    3    0  502 -0.56871107870E+03  0.55471150398E+02 -0.78272328894E+03  0.96910530739E+03  0.10100000352E+00 0.  1.
</event>
<event>
 5   0  0.4015729E-05  0.1801196E+04  0.7818609E-02  0.8705664E-01
        2   -1    0    0  501    0  0.00000000000E+00  0.00000000000E+00  0.60432589002E+03  0.60432589002E+03  0.25500000920E-02 0. -1.
       -2   -1    0    0    0  501  0.00000000000E+00  0.00000000000E+00 -0.13421176714E+04  0.13421176714E+04  0.25500000920E-02 0.  1.
    10030    2    1    2    0    0  0.00000000000E+00  0.00000000000E+00 -0.73779178137E+03  0.19464435614E+04  0.18011956654E+04 0.  0.
        2    1    3    3  502    0 -0.54416701394E+03 -0.71750852316E+03 -0.38169298297E+03  0.97807246824E+03  0.25500000920E-02 0.  1.
       -2    1    3    3    0  502  0.54416701394E+03  0.71750852316E+03 -0.35609879840E+03  0.96837109318E+03  0.25500000920E-02 0. -1.
</event>
<event>
 5   0  0.3909859E-05  0.1790804E+04  0.7818609E-02  0.8711205E-01
        2   -1    0    0  501    0  0.00000000000E+00  0.00000000000E+00  0.99584609454E+03  0.99584609454E+03  0.25500000920E-02 0.  1.
       -2   -1    0    0    0  501  0.00000000000E+00  0.00000000000E+00 -0.80508926749E+03  0.80508926750E+03  0.25500000920E-02 0. -1.
    10030    2    1    2    0    0  0.00000000000E+00  0.00000000000E+00  0.19075682705E+03  0.18009353620E+04  0.17908042917E+04 0.  0.
        4    1    3    3  502    0  0.33956412534E+03  0.38935830969E+03  0.83084308848E+03  0.97836881548E+03  0.12699999809E+01 0.  1.
       -4    1    3    3    0  502 -0.33956412534E+03 -0.38935830969E+03 -0.64008626143E+03  0.82256654656E+03  0.12699999809E+01 0. -1.
</event>
<event>
 5   0  0.3993393E-05  0.1799374E+04  0.7818609E-02  0.8706633E-01
        2   -1    0    0  501    0  0.00000000000E+00  0.00000000000E+00  0.10519879474E+04  0.10519879474E+04  0.25500000920E-02 0. -1.
       -2   -1    0    0    0  501  0.00000000000E+00  0.00000000000E+00 -0.76943513468E+03  0.76943513469E+03  0.25500000920E-02 0.  1.
    10030    2    1    2    0    0  0.00000000000E+00  0.00000000000E+00  0.28255281272E+03  0.18214230821E+04  0.17993737666E+04 0.  0.
        5    1    3    3  502    0 -0.18223004315E+03  0.80232068186E+03 -0.22717306788E+03  0.85355489451E+03  0.46999998093E+01 0.  1.
       -5    1    3    3    0  502  0.18223004315E+03 -0.80232068186E+03  0.50972588060E+03  0.96786818758E+03  0.46999998093E+01 0. -1.
</event>
<event>
 5   0  0.3984648E-05  0.1799833E+04  0.7818609E-02  0.8706388E-01
        2   -1    0    0  501    0  0.00000000000E+00  0.00000000000E+00  0.11607233368E+04  0.11607233368E+04  0.25500000920E-02 0. -1.
       -2   -1    0    0    0  501  0.00000000000E+00  0.00000000000E+00 -0.69771094066E+03  0.69771094067E+03  0.25500000920E-02 0.  1.
    10030    2    1    2    0    0  0.00000000000E+00  0.00000000000E+00  0.46301239617E+03  0.18584342775E+04  0.17998326269E+04 0.  0.
        1    1    3    3  502    0  0.81466403558E+03 -0.34752209306E+03  0.66942401832E+02  0.88821753035E+03  0.50400001928E-02 0.  1.
       -1    1    3    3    0  502 -0.81466403558E+03  0.34752209306E+03  0.39606999434E+03  0.97021674716E+03  0.50400001928E-02 0. -1.
</event>
<event>
 5   0  0.3984648E-05  0.1797771E+04  0.7818609E-02  0.8707486E-01
        2   -1    0    0  501    0  0.00000000000E+00  0.00000000000E+00  0.11519833794E+04  0.11519833794E+04  0.25500000920E-02 0.  1.
       -2   -1    0    0    0  501  0.00000000000E+00  0.00000000000E+00 -0.70139461913E+03  0.70139461913E+03  0.25500000920E-02 0. -1.
    10030    2    1    2    0    0  0.00000000000E+00  0.00000000000E+00  0.45058876028E+03  0.18533779985E+04  0.17977707792E+04 0.  0.
        1    1    3    3  502    0 -0.39756454667E+03 -0.62990737563E+03  0.74400142400E+03  0.10527957967E+04  0.50400001928E-02 0.  1.
       -1    1    3    3    0  502  0.39756454667E+03  0.62990737563E+03 -0.29341266372E+03  0.80058220183E+03  0.50400001928E-02 0. -1.
</event>
<event>
 5   0  0.2038338E-05  0.1803633E+04  0.7818609E-02  0.8704370E-01
        1   -1    0    0  501    0  0.00000000000E+00  0.00000000000E+00  0.91806695904E+03  0.91806695906E+03  0.50400001928E-02 0. -1.
       -1   -1    0    0    0  501  0.00000000000E+00  0.00000000000E+00 -0.88585337684E+03  0.88585337685E+03  0.50400001928E-02 0.  1.
    10030    2    1    2    0    0  0.00000000000E+00  0.00000000000E+00  0.32213582206E+02  0.18039203359E+04  0.18036326853E+04 0.  0.
        1    1    3    3  502    0  0.90371602694E+02 -0.10773882539E+03 -0.87482034143E+03  0.88605039974E+03  0.50400001928E-02 0.  1.
       -1    1    3    3    0  502 -0.90371602694E+02  0.10773882539E+03  0.90703392364E+03  0.91786993617E+03  0.50400001928E-02 0. -1.
</event>
<event>
 5   0  0.2001811E-05  0.1799035E+04  0.7818609E-02  0.8706813E-01
        1   -1    0    0  501    0  0.00000000000E+00  0.00000000000E+00  0.79278445060E+03  0.79278445061E+03  0.50400001928E-02 0.  1.
       -1   -1    0    0    0  501  0.00000000000E+00  0.00000000000E+00 -0.10206202754E+04  0.10206202754E+04  0.50400001928E-02 0. -1.
    10030    2    1    2    0    0  0.00000000000E+00  0.00000000000E+00 -0.22783582482E+03  0.18134047260E+04  0.17990351685E+04 0.  0.
        2    1    3    3  502    0 -0.76718808885E+03  0.12117263674E+03  0.34343686280E+03  0.84924039606E+03  0.25500000920E-02 0.  1.
       -2    1    3    3    0  502  0.76718808885E+03 -0.12117263674E+03 -0.57127268762E+03  0.96416432998E+03  0.25500000920E-02 0. -1.
</event>
<event>
 5   0  0.3984648E-05  0.1803724E+04  0.7818609E-02  0.8704322E-01
       -2   -1    0    0    0  501  0.00000000000E+00  0.00000000000E+00  0.52220270049E+03  0.52220270049E+03  0.25500000920E-02 0.  1.
        2   -1    0    0  501    0  0.00000000000E+00  0.00000000000E+00 -0.15575458775E+04  0.15575458775E+04  0.25500000920E-02 0. -1.
    10030    2    1    2    0    0  0.00000000000E+00  0.00000000000E+00 -0.10353431770E+04  0.20797485780E+04  0.18037235524E+04 0.  0.
        1    1    3    3  502    0 -0.39912814275E+03  0.79891271777E+03 -0.37278440254E+03  0.96774635920E+03  0.50400001928E-02 0. -1.
       -1    1    3    3    0  502  0.39912814275E+03 -0.79891271777E+03 -0.66255877447E+03  0.11120022188E+04  0.50400001928E-02 0.  1.
</event>
<event>
 5   0  0.1960300E-05  0.1798489E+04  0.7818609E-02  0.8707103E-01
        1   -1    0    0  501    0  0.00000000000E+00  0.00000000000E+00  0.70872042242E+03  0.70872042243E+03  0.50400001928E-02 0.  1.
       -1   -1    0    0    0  501  0.00000000000E+00  0.00000000000E+00 -0.11409868139E+04  0.11409868139E+04  0.50400001928E-02 0. -1.
    10030    2    1    2    0    0  0.00000000000E+00  0.00000000000E+00 -0.43226639144E+03  0.18497072363E+04  0.17984889844E+04 0.  0.
        3    1    3    3  502    0  0.15744789879E+03  0.55456947235E+03 -0.92593500595E+03  0.10907303910E+04  0.10100000352E+00 0. -1.
       -3    1    3    3    0  502 -0.15744789879E+03 -0.55456947235E+03  0.49366861451E+03  0.75897684526E+03  0.10100000352E+00 0.  1.
</event>
<event>
 5   0  0.3993393E-05  0.1798468E+04  0.7818609E-02  0.8707115E-01
        2   -1    0    0  501    0  0.00000000000E+00  0.00000000000E+00  0.46815570111E+03  0.46815570112E+03  0.25500000920E-02 0. -1.
       -2   -1    0    0    0  501  0.00000000000E+00  0.00000000000E+00 -0.17272496234E+04  0.17272496234E+04  0.25500000920E-02 0.  1.
    10030    2    1    2    0    0  0.00000000000E+00  0.00000000000E+00 -0.12590939223E+04  0.21954053246E+04  0.17984679685E+04 0.  0.
        5    1    3    3  502    0 -0.34175493393E+03  0.82921068096E+03 -0.70877913300E+03  0.11431433583E+04  0.46999998093E+01 0.  1.
       -5    1    3    3    0  502  0.34175493393E+03 -0.82921068096E+03 -0.55031478934E+03  0.10522619663E+04  0.46999998093E+01 0. -1.
</event>
<event>
 5   0  0.1960300E-05  0.1798896E+04  0.7818609E-02  0.8706887E-01
        1   -1    0    0  501    0  0.00000000000E+00  0.00000000000E+00  0.11661935223E+04  0.11661935223E+04  0.50400001928E-02 0.  1.
       -1   -1    0    0    0  501  0.00000000000E+00  0.00000000000E+00 -0.69371546056E+03  0.69371546058E+03  0.50400001928E-02 0. -1.
    10030    2    1    2    0    0  0.00000000000E+00  0.00000000000E+00  0.47247806172E+03  0.18599089829E+04  0.17988957462E+04 0.  0.
        3    1    3    3  502    0  0.80973996798E+03  0.39078168744E+03  0.21055033759E+03  0.92342871834E+03  0.10100000352E+00 0.  1.
       -3    1    3    3    0  502 -0.80973996798E+03 -0.39078168744E+03  0.26192772413E+03  0.93648026453E+03  0.10100000352E+00 0. -1.
</event>
<event>
 5   0  0.4015729E-05  0.1802841E+04  0.7818609E-02  0.8704790E-01
        2   -1    0    0  501    0  0.00000000000E+00  0.00000000000E+00  0.11098845541E+04  0.11098845541E+04  0.25500000920E-02 0.  1.
       -2   -1    0    0    0  501  0.00000000000E+00  0.00000000000E+00 -0.73211137673E+03  0.73211137674E+03  0.25500000920E-02 0. -1.
    10030    2    1    2    0    0  0.00000000000E+00  0.00000000000E+00  0.37777317741E+03  0.18419959309E+04  0.18028412120E+04 0.  0.
        2    1    3    3  502    0 -0.68872026555E+03 -0.53666955608E+03  0.41782741157E+03  0.96795121905E+03  0.25500000920E-02 0. -1.
       -2    1    3    3    0  502  0.68872026555E+03  0.53666955608E+03 -0.40054234157E+02  0.87404471183E+03  0.25500000920E-02 0.  1.
</event>
<event>
 5   0  0.1906857E-05  0.1802062E+04  0.7818609E-02  0.8705204E-01
       -1   -1    0    0    0  501  0.00000000000E+00  0.00000000000E+00  0.32677147459E+03  0.32677147462E+03  0.50400001928E-02 0. -1.
        1   -1    0    0  501    0  0.00000000000E+00  0.00000000000E+00 -0.24844790852E+04  0.24844790852E+04  0.50400001928E-02 0.  1.
    10030    2    1    2    0    0  0.00000000000E+00  0.00000000000E+00 -0.21577076106E+04  0.28112505598E+04  0.18020620348E+04 0.  0.
        4    1    3    3  502    0 -0.36291780090E+03 -0.81681340039E+03 -0.90124568707E+03  0.12693064495E+04  0.12699999809E+01 0. -1.
       -4    1    3    3    0  502  0.36291780090E+03  0.81681340039E+03 -0.12564619235E+04  0.15419441103E+04  0.12699999809E+01 0.  1.
</event>
<event>
 5   0  0.2054876E-05  0.1799447E+04  0.7818609E-02  0.8706594E-01
       -1   -1    0    0    0  501  0.00000000000E+00  0.00000000000E+00  0.60478762375E+03  0.60478762377E+03  0.50400001928E-02 0. -1.
        1   -1    0    0  501    0  0.00000000000E+00  0.00000000000E+00 -0.13384904718E+04  0.13384904718E+04  0.50400001928E-02 0.  1.
    10030    2    1    2    0    0  0.00000000000E+00  0.00000000000E+00 -0.73370284801E+03  0.19432780955E+04  0.17994471060E+04 0.  0.
        5    1    3    3  502    0  0.97619586291E+02 -0.89388145298E+03 -0.39972722082E+03  0.98405161281E+03  0.46999998093E+01 0.  1.
       -5    1    3    3    0  502 -0.97619586291E+02  0.89388145298E+03 -0.33397562718E+03  0.95922648272E+03  0.46999998093E+01 0. -1.
</event>
<event>
 5   0  0.2038338E-05  0.1809896E+04  0.7818609E-02  0.8701054E-01
       -1   -1    0    0    0  501  0.00000000000E+00  0.00000000000E+00  0.36170769346E+03  0.36170769349E+03  0.50400001928E-02 0. -1.
        1   -1    0    0  501    0  0.00000000000E+00  0.00000000000E+00 -0.22640687453E+04  0.22640687453E+04  0.50400001928E-02 0.  1.
    10030    2    1    2    0    0  0.00000000000E+00  0.00000000000E+00 -0.19023610519E+04  0.26257764388E+04  0.18098962222E+04 0.  0.
        1    1    3    3  502    0  0.69472942302E+03 -0.36813700449E+03 -0.30114109463E+03  0.84193811185E+03  0.50400001928E-02 0. -1.
       -1    1    3    3    0  502 -0.69472942302E+03  0.36813700449E+03 -0.16012199572E+04  0.17838383270E+04  0.50400001928E-02 0.  1.
</event>
<event>
 5   0  0.2001811E-05  0.1802059E+04  0.7818609E-02  0.8705205E-01
        1   -1    0    0  501    0  0.00000000000E+00  0.00000000000E+00  0.11148732304E+04  0.11148732304E+04  0.50400001928E-02 0.  1.
       -1   -1    0    0    0  501  0.00000000000E+00  0.00000000000E+00 -0.72820319403E+03  0.72820319404E+03  0.50400001928E-02 0. -1.
    10030    2    1    2    0    0  0.00000000000E+00  0.00000000000E+00  0.38667003639E+03  0.18430764245E+04  0.18020590971E+04 0.  0.
        2    1    3    3  502    0  0.56392865960E+03  0.56386278555E+03 -0.23561245634E+03  0.83154675372E+03  0.25500000920E-02 0. -1.
       -2    1    3    3    0  502 -0.56392865960E+03 -0.56386278555E+03  0.62228249273E+03  0.10115296707E+04  0.25500000920E-02 0.  1.
</event>
<event>
 5   0  0.3983176E-05  0.1800376E+04  0.7818609E-02  0.8706100E-01
       -2   -1    0    0    0  501  0.00000000000E+00  0.00000000000E+00  0.10384800765E+04  0.10384800765E+04  0.25500000920E-02 0.  1.
        2   -1    0    0  501    0  0.00000000000E+00  0.00000000000E+00 -0.78031183046E+03  0.78031183047E+03  0.25500000920E-02 0. -1.
    10030    2    1    2    0    0  0.00000000000E+00  0.00000000000E+00  0.25816824603E+03  0.18187919070E+04  0.18003758379E+04 0.  0.
        3    1    3    3  502    0 -0.20430886852E+03  0.54501186846E+03  0.82280937140E+03  0.10078667186E+04  0.10100000352E+00 0.  1.
       -3    1    3    3    0  502  0.20430886852E+03 -0.54501186846E+03 -0.56464112537E+03  0.81092518840E+03  0.10100000352E+00 0. -1.
</event>
<event>
 5   0  0.3984648E-05  0.1795961E+04  0.7818609E-02  0.8708450E-01
        2   -1    0    0  501    0  0.00000000000E+00  0.00000000000E+00  0.44672348343E+03  0.44672348343E+03  0.25500000920E-02 0. -1.
       -2   -1    0    0    0  501  0.00000000000E+00  0.00000000000E+00 -0.18050740025E+04  0.18050740025E+04  0.25500000920E-02 0.  1.
    10030    2    1    2    0    0  0.00000000000E+00  0.00000000000E+00 -0.13583505191E+04  0.22517974860E+04  0.17959609642E+04 0.  0.
        1    1    3    3  502    0 -0.30717091990E+03 -0.31004752361E+03 -0.16631465534E+04  0.17194591880E+04  0.50400001928E-02 0.  1.
       -1    1    3    3    0  502  0.30717091990E+03  0.31004752361E+03  0.30479603433E+03  0.53233829798E+03  0.50400001928E-02 0. -1.
</event>
<event>
 5   0  0.2001811E-05  0.1801212E+04  0.7818609E-02  0.8705655E-01
       -1   -1    0    0    0  501  0.00000000000E+00  0.00000000000E+00  0.63763884176E+03  0.63763884178E+03  0.50400001928E-02 0.  1.
        1   -1    0    0  501    0  0.00000000000E+00  0.00000000000E+00 -0.12720230549E+04  0.12720230549E+04  0.50400001928E-02 0. -1.
    10030    2    1    2    0    0  0.00000000000E+00  0.00000000000E+00 -0.63438421313E+03  0.19096618967E+04  0.18012121557E+04 0.  0.
        2    1    3    3  502    0 -0.47616769587E+03  0.74429388390E+03 -0.13239227956E+03  0.89344097505E+03  0.25500000920E-02 0.  1.
       -2    1    3    3    0  502  0.47616769587E+03 -0.74429388390E+03 -0.50199193356E+03  0.10162209216E+04  0.25500000920E-02 0. -1.
</event>
<event>
 5   0  0.1906857E-05  0.1790470E+04  0.7818609E-02  0.8711384E-01
        1   -1    0    0  501    0  0.00000000000E+00  0.00000000000E+00  0.93449161742E+03  0.93449161744E+03  0.50400001928E-02 0.  1.
       -1   -1    0    0    0  501  0.00000000000E+00  0.00000000000E+00 -0.85762736804E+03  0.85762736806E+03  0.50400001928E-02 0. -1.
    10030    2    1    2    0    0  0.00000000000E+00  0.00000000000E+00  0.76864249380E+02  0.17921189855E+04  0.17904698672E+04 0.  0.
        4    1    3    3  502    0 -0.29475468682E+03  0.20686317752E+03 -0.78193932661E+03  0.86087363939E+03  0.12699999809E+01 0. -1.
       -4    1    3    3    0  502  0.29475468682E+03 -0.20686317752E+03  0.85880357599E+03  0.93124534610E+03  0.12699999809E+01 0.  1.
</event>
<event>
 5   0  0.1960300E-05  0.1800997E+04  0.7818609E-02  0.8705769E-01
        1   -1    0    0  501    0  0.00000000000E+00  0.00000000000E+00  0.12258487289E+04  0.12258487289E+04  0.50400001928E-02 0.  1.
       -1   -1    0    0    0  501  0.00000000000E+00  0.00000000000E+00 -0.66149919787E+03  0.66149919789E+03  0.50400001928E-02 0. -1.
    10030    2    1    2    0    0  0.00000000000E+00  0.00000000000E+00  0.56434953102E+03  0.18873479268E+04  0.18009974469E+04 0.  0.
        3    1    3    3  502    0  0.27303373825E+03  0.37216798340E+03  0.10924487674E+04  0.11859598432E+04  0.10100000352E+00 0.  1.
       -3    1    3    3    0  502 -0.27303373825E+03 -0.37216798340E+03 -0.52809923640E+03  0.70138808357E+03  0.10100000352E+00 0. -1.
</event>
<event>
 5   0  0.1906857E-05  0.1800251E+04  0.7818609E-02  0.8706166E-01
        1   -1    0    0  501    0  0.00000000000E+00  0.00000000000E+00  0.15863680044E+04  0.15863680044E+04  0.50400001928E-02 0. -1.
       -1   -1    0    0    0  501  0.00000000000E+00  0.00000000000E+00 -0.51074284373E+03  0.51074284376E+03  0.50400001928E-02 0.  1.
    10030    2    1    2    0    0  0.00000000000E+00  0.00000000000E+00  0.10756251607E+04  0.20971108482E+04  0.18002512112E+04 0.  0.
        4    1    3    3  502    0  0.86829093367E+03  0.91666333250E+02  0.28288159655E+03  0.91779925512E+03  0.12699999809E+01 0.  1.
       -4    1    3    3    0  502 -0.86829093367E+03 -0.91666333250E+02  0.79274356415E+03  0.11793115931E+04  0.12699999809E+01 0. -1.
</event>
<event>
 5   0  0.4015729E-05  0.1797982E+04  0.7818609E-02  0.8707373E-01
        2   -1    0    0  501    0  0.00000000000E+00  0.00000000000E+00  0.21786859847E+04  0.21786859847E+04  0.25500000920E-02 0.  1.
       -2   -1    0    0    0  501  0.00000000000E+00  0.00000000000E+00 -0.37095062572E+03  0.37095062573E+03  0.25500000920E-02 0. -1.
    10030    2    1    2    0    0  0.00000000000E+00  0.00000000000E+00  0.18077353590E+04  0.25496366105E+04  0.17979821237E+04 0.  0.
        2    1    3    3  502    0 -0.18332957054E+03 -0.36186612482E+03 -0.23378689453E+03  0.46820202455E+03  0.25500000920E-02 0. -1.
       -2    1    3    3    0  502  0.18332957054E+03  0.36186612482E+03  0.20415222535E+04  0.20814345859E+04  0.25500000920E-02 0.  1.
</event>
<event>
 5   0  0.3984648E-05  0.1799466E+04  0.7818609E-02  0.8706584E-01
        2   -1    0    0  501    0  0.00000000000E+00  0.00000000000E+00  0.12064637077E+04  0.12064637077E+04  0.25500000920E-02 0.  1.
       -2   -1    0    0    0  501  0.00000000000E+00  0.00000000000E+00 -0.67098524271E+03  0.67098524271E+03  0.25500000920E-02 0. -1.
    10030    2    1    2    0    0  0.00000000000E+00  0.00000000000E+00  0.53547846500E+03  0.18774489504E+04  0.17994658582E+04 0.  0.
        1    1    3    3  502    0 -0.97043549369E+02  0.97144738114E+01 -0.66545395816E+03  0.67256285352E+03  0.50400001928E-02 0. -1.
       -1    1    3    3    0  502  0.97043549369E+02 -0.97144738114E+01  0.12009324232E+04  0.12048860969E+04  0.50400001928E-02 0.  1.
</event>
<event>
 5   0  0.2038338E-05  0.1759679E+04  0.7818609E-02  0.8728040E-01
        1   -1    0    0  501    0  0.00000000000E+00  0.00000000000E+00  0.85748765703E+03  0.85748765704E+03  0.50400001928E-02 0. -1.
       -1   -1    0    0    0  501  0.00000000000E+00  0.00000000000E+00 -0.90277420564E+03  0.90277420566E+03  0.50400001928E-02 0.  1.
    10030    2    1    2    0    0  0.00000000000E+00  0.00000000000E+00 -0.45286548616E+02  0.17602618627E+04  0.17596792190E+04 0.  0.
        1    1    3    3  502    0 -0.23497815816E+03  0.80813584321E+03 -0.27928126143E+03  0.88673349937E+03  0.50400001928E-02 0.  1.
       -1    1    3    3    0  502  0.23497815816E+03 -0.80813584321E+03  0.23399471282E+03  0.87352836333E+03  0.50400001928E-02 0. -1.
</event>
<event>
 5   0  0.4015729E-05  0.1802999E+04  0.7818609E-02  0.8704706E-01
        2   -1    0    0  501    0  0.00000000000E+00  0.00000000000E+00  0.10443334225E+04  0.10443334225E+04  0.25500000920E-02 0. -1.
       -2   -1    0    0    0  501  0.00000000000E+00  0.00000000000E+00 -0.77820074979E+03  0.77820074980E+03  0.25500000920E-02 0.  1.
    10030    2    1    2    0    0  0.00000000000E+00  0.00000000000E+00  0.26613267274E+03  0.18225341723E+04  0.18029986716E+04 0.  0.
        2    1    3    3  502    0  0.88554727252E+03  0.10492480016E+03  0.26677908849E+03  0.93079227952E+03  0.25500000920E-02 0.  1.
       -2    1    3    3    0  502 -0.88554727252E+03 -0.10492480016E+03 -0.64641574614E+00  0.89174189282E+03  0.25500000920E-02 0. -1.
</event>
<event>
 5   0  0.1960300E-05  0.1793283E+04  0.7818609E-02  0.8709879E-01
       -1   -1    0    0    0  501  0.00000000000E+00  0.00000000000E+00  0.47880851577E+03  0.47880851580E+03  0.50400001928E-02 0. -1.
        1   -1    0    0  501    0  0.00000000000E+00  0.00000000000E+00 -0.16790977518E+04  0.16790977519E+04  0.50400001928E-02 0.  1.
    10030    2    1    2    0    0  0.00000000000E+00  0.00000000000E+00 -0.12002892361E+04  0.21579062676E+04  0.17932833601E+04 0.  0.
        3    1    3    3  502    0  0.10158545099E+03 -0.36362066930E+03  0.37849888652E+03  0.53460360295E+03  0.10100000352E+00 0. -1.
       -3    1    3    3    0  502 -0.10158545099E+03  0.36362066930E+03 -0.15787881226E+04  0.16233026647E+04  0.10100000352E+00 0.  1.
</event>
<event>
 5   0  0.3984648E-05  0.1797927E+04  0.7818609E-02  0.8707403E-01
        2   -1    0    0  501    0  0.00000000000E+00  0.00000000000E+00  0.63264161042E+03  0.63264161042E+03  0.25500000920E-02 0. -1.
       -2   -1    0    0    0  501  0.00000000000E+00  0.00000000000E+00 -0.12773984049E+04  0.12773984049E+04  0.25500000920E-02 0.  1.
    10030    2    1    2    0    0  0.00000000000E+00  0.00000000000E+00 -0.64475679445E+03  0.19100400153E+04  0.17979270108E+04 0.  0.
        1    1    3    3  502    0  0.59452944421E+02  0.51299033951E+03 -0.11040894206E+04  0.12188958896E+04  0.50400001928E-02 0.  1.
       -1    1    3    3    0  502 -0.59452944421E+02 -0.51299033951E+03  0.45933262612E+03  0.69114412569E+03  0.50400001928E-02 0. -1.
</event>
<event>
 5   0  0.1960300E-05  0.1798663E+04  0.7818609E-02  0.8707011E-01
       -1   -1    0    0    0  501  0.00000000000E+00  0.00000000000E+00  0.19670737929E+04  0.19670737929E+04  0.50400001928E-02 0.  1.
        1   -1    0    0  501    0  0.00000000000E+00  0.00000000000E+00 -0.41116770424E+03  0.41116770427E+03  0.50400001928E-02 0. -1.
    10030    2    1    2    0    0  0.00000000000E+00  0.00000000000E+00  0.15559060886E+04  0.23782414971E+04  0.17986630763E+04 0.  0.
        3    1    3    3  502    0  0.21242653092E+03 -0.37723106912E+03 -0.26431851644E+03  0.50724017869E+03  0.10100000352E+00 0. -1.
       -3    1    3    3    0  502 -0.21242653092E+03  0.37723106912E+03  0.18202246051E+04  0.18710013184E+04  0.10100000352E+00 0.  1.
</event>
<event>
 5   0  0.3993393E-05  0.1816068E+04  0.7818609E-02  0.8697801E-01
       -2   -1    0    0    0  501  0.00000000000E+00  0.00000000000E+00  0.76530904333E+03  0.76530904334E+03  0.25500000920E-02 0. -1.
        2   -1    0    0  501    0  0.00000000000E+00  0.00000000000E+00 -0.10773760198E+04  0.10773760198E+04  0.25500000920E-02 0.  1.
    10030    2    1    2    0    0  0.00000000000E+00  0.00000000000E+00 -0.31206697647E+03  0.18426850631E+04  0.18160678523E+04 0.  0.
        5    1    3    3  502    0 -0.68830557802E+03  0.44566839578E+03 -0.55177376412E+03  0.98836292145E+03  0.46999998093E+01 0.  1.
       -5    1    3    3    0  502  0.68830557802E+03 -0.44566839578E+03  0.23970678765E+03  0.85432214169E+03  0.46999998093E+01 0. -1.
</event>
<event>
 5   0  0.3984648E-05  0.1798303E+04  0.7818609E-02  0.8707202E-01
       -2   -1    0    0    0  501  0.00000000000E+00  0.00000000000E+00  0.43520511326E+03  0.43520511327E+03  0.25500000920E-02 0.  1.
        2   -1    0    0  501    0  0.00000000000E+00  0.00000000000E+00 -0.18576838243E+04  0.18576838243E+04  0.25500000920E-02 0. -1.
    10030    2    1    2    0    0  0.00000000000E+00  0.00000000000E+00 -0.14224787111E+04  0.22928889376E+04  0.17983030881E+04 0.  0.
        1    1    3    3  502    0  0.35947921350E+03 -0.73100072154E+03 -0.11965653454E+04  0.14475344506E+04  0.50400001928E-02 0.  1.
       -1    1    3    3    0  502 -0.35947921350E+03  0.73100072154E+03 -0.22591336562E+03  0.84535448696E+03  0.50400001928E-02 0. -1.
</event>
<event>
 5   0  0.2001811E-05  0.1803675E+04  0.7818609E-02  0.8704348E-01
        1   -1    0    0  501    0  0.00000000000E+00  0.00000000000E+00  0.10385009040E+04  0.10385009040E+04  0.50400001928E-02 0. -1.
       -1   -1    0    0    0  501  0.00000000000E+00  0.00000000000E+00 -0.78315824892E+03  0.78315824893E+03  0.50400001928E-02 0.  1.
    10030    2    1    2    0    0  0.00000000000E+00  0.00000000000E+00  0.25534265504E+03  0.18216591529E+04  0.18036746375E+04 0.  0.
        2    1    3    3  502    0 -0.54923322381E+03 -0.11206039367E+02 -0.59467182365E+03  0.80957846272E+03  0.25500000920E-02 0.  1.
       -2    1    3    3    0  502  0.54923322381E+03  0.11206039367E+02  0.85001447869E+03  0.10120806902E+04  0.25500000920E-02 0. -1.
</event>
<event>
 5   0  0.4015729E-05  0.1801809E+04  0.7818609E-02  0.8705338E-01
       -2   -1    0    0    0  501  0.00000000000E+00  0.00000000000E+00  0.96644514447E+03  0.96644514448E+03  0.25500000920E-02 0.  1.
        2   -1    0    0  501    0  0.00000000000E+00  0.00000000000E+00 -0.83980897133E+03  0.83980897133E+03  0.25500000920E-02 0. -1.
    10030    2    1    2    0    0  0.00000000000E+00  0.00000000000E+00  0.12663617314E+03  0.18062541158E+04  0.18018094268E+04 0.  0.
        2    1    3    3  502    0 -0.23374230476E+03 -0.74311820685E+03 -0.39031244607E+03  0.87132309734E+03  0.25500000920E-02 0. -1.
       -2    1    3    3    0  502  0.23374230476E+03  0.74311820685E+03  0.51694861921E+03  0.93493101847E+03  0.25500000920E-02 0.  1.
</event>
<event>
 5   0  0.3984648E-05  0.1800169E+04  0.7818609E-02  0.8706209E-01
        2   -1    0    0  501    0  0.00000000000E+00  0.00000000000E+00  0.18916987093E+04  0.18916987093E+04  0.25500000920E-02 0. -1.
       -2   -1    0    0    0  501  0.00000000000E+00  0.00000000000E+00 -0.42826715171E+03  0.42826715172E+03  0.25500000920E-02 0.  1.
    10030    2    1    2    0    0  0.00000000000E+00  0.00000000000E+00  0.14634315576E+04  0.23199658610E+04  0.18001693455E+04 0.  0.
        1    1    3    3  502    0  0.54460454050E+03 -0.68036387089E+03  0.10217939422E+04  0.13429638724E+04  0.50400001928E-02 0. -1.
       -1    1    3    3    0  502 -0.54460454050E+03  0.68036387089E+03  0.44163761540E+03  0.97700198859E+03  0.50400001928E-02 0.  1.
</event>
<event>
 5   0  0.2001811E-05  0.1801687E+04  0.7818609E-02  0.8705403E-01
        1   -1    0    0  501    0  0.00000000000E+00  0.00000000000E+00  0.20924039682E+04  0.20924039682E+04  0.50400001928E-02 0. -1.
       -1   -1    0    0    0  501  0.00000000000E+00  0.00000000000E+00 -0.38784066527E+03  0.38784066530E+03  0.50400001928E-02 0.  1.
    10030    2    1    2    0    0  0.00000000000E+00  0.00000000000E+00  0.17045633029E+04  0.24802446335E+04  0.18016873725E+04 0.  0.
        2    1    3    3  502    0  0.33309825050E+03 -0.18839917027E+03 -0.27038022975E+03  0.46856606844E+03  0.25500000920E-02 0.  1.
       -2    1    3    3    0  502 -0.33309825050E+03  0.18839917027E+03  0.19749435327E+04  0.20116785651E+04  0.25500000920E-02 0. -1.
</event>
<event>
 5   0  0.1906857E-05  0.1795880E+04  0.7818609E-02  0.8708493E-01
        1   -1    0    0  501    0  0.00000000000E+00  0.00000000000E+00  0.15125554458E+04  0.15125554458E+04  0.50400001928E-02 0. -1.
       -1   -1    0    0    0  501  0.00000000000E+00  0.00000000000E+00 -0.53306900385E+03  0.53306900387E+03  0.50400001928E-02 0.  1.
    10030    2    1    2    0    0  0.00000000000E+00  0.00000000000E+00  0.97948644199E+03  0.20456244497E+04  0.17958802018E+04 0.  0.
        4    1    3    3  502    0  0.24344811485E+03 -0.19064741781E+03  0.14499969768E+04  0.14826011831E+04  0.12699999809E+01 0. -1.
       -4    1    3    3    0  502 -0.24344811485E+03  0.19064741781E+03 -0.47051053477E+03  0.56302326664E+03  0.12699999809E+01 0.  1.
</event>
<event>
 5   0  0.3993393E-05  0.1800100E+04  0.7818609E-02  0.8706246E-01
       -2   -1    0    0    0  501  0.00000000000E+00  0.00000000000E+00  0.30094330297E+03  0.30094330298E+03  0.25500000920E-02 0.  1.
        2   -1    0    0  501    0  0.00000000000E+00  0.00000000000E+00 -0.26918348315E+04  0.26918348315E+04  0.25500000920E-02 0. -1.
    10030    2    1    2    0    0  0.00000000000E+00  0.00000000000E+00 -0.23908915285E+04  0.29927781345E+04  0.18000996253E+04 0.  0.
        5    1    3    3  502    0  0.26866195512E+03  0.60111543177E-01  0.23270251292E+03  0.35545998264E+03  0.46999998093E+01 0.  1.
       -5    1    3    3    0  502 -0.26866195512E+03 -0.60111543177E-01 -0.26235940414E+04  0.26373181518E+04  0.46999998093E+01 0. -1.
</event>
<event>
 5   0  0.1960300E-05  0.1802365E+04  0.7818609E-02  0.8705043E-01
        1   -1    0    0  501    0  0.00000000000E+00  0.00000000000E+00  0.49478738000E+03  0.49478738002E+03  0.50400001928E-02 0. -1.
       -1   -1    0    0    0  501  0.00000000000E+00  0.00000000000E+00 -0.16413719074E+04  0.16413719074E+04  0.50400001928E-02 0.  1.
    10030    2    1    2    0    0  0.00000000000E+00  0.00000000000E+00 -0.11465845274E+04  0.21361592874E+04  0.18023652301E+04 0.  0.
        3    1    3    3  502    0  0.30800923444E+03 -0.81814663880E+03 -0.31390858116E+03  0.92885532706E+03  0.10100000352E+00 0. -1.
       -3    1    3    3    0  502 -0.30800923444E+03  0.81814663880E+03 -0.83267594624E+03  0.12073039604E+04  0.10100000352E+00 0.  1.
</event>
<event>
 5   0  0.1960300E-05  0.1790453E+04  0.7818609E-02  0.8711393E-01
        1   -1    0    0  501    0  0.00000000000E+00  0.00000000000E+00  0.11204590546E+04  0.11204590546E+04  0.50400001928E-02 0.  1.
       -1   -1    0    0    0  501  0.00000000000E+00  0.00000000000E+00 -0.71526940237E+03  0.71526940238E+03  0.50400001928E-02 0. -1.
    10030    2    1    2    0    0  0.00000000000E+00  0.00000000000E+00  0.40518965219E+03  0.18357284570E+04  0.17904525443E+04 0.  0.
        3    1    3    3  502    0 -0.49556281776E+03  0.68101446508E+03  0.51369287819E+03  0.98653108988E+03  0.10100000352E+00 0.  1.
       -3    1    3    3    0  502  0.49556281776E+03 -0.68101446508E+03 -0.10850322600E+03  0.84919736707E+03  0.10100000352E+00 0. -1.
</event>
<event>
 5   0  0.3983176E-05  0.1800659E+04  0.7818609E-02  0.8705949E-01
       -2   -1    0    0    0  501  0.00000000000E+00  0.00000000000E+00  0.69584546063E+03  0.69584546064E+03  0.25500000920E-02 0. -1.
        2   -1    0    0  501    0  0.00000000000E+00  0.00000000000E+00 -0.11649036000E+04  0.11649036000E+04  0.25500000920E-02 0.  1.
    10030    2    1    2    0    0  0.00000000000E+00  0.00000000000E+00 -0.46905813935E+03  0.18607490606E+04  0.18006586374E+04 0.  0.
        3    1    3    3  502    0 -0.74905852557E+03  0.49501553730E+03 -0.30357045782E+03  0.94777850259E+03  0.10100000352E+00 0. -1.
       -3    1    3    3    0  502  0.74905852557E+03 -0.49501553730E+03 -0.16548768153E+03  0.91297055804E+03  0.10100000352E+00 0.  1.
</event>
<event>
 5   0  0.3993393E-05  0.1799539E+04  0.7818609E-02  0.8706544E-01
        2   -1    0    0  501    0  0.00000000000E+00  0.00000000000E+00  0.69350983950E+03  0.69350983951E+03  0.25500000920E-02 0.  1.
       -2   -1    0    0    0  501  0.00000000000E+00  0.00000000000E+00 -0.11673741486E+04  0.11673741486E+04  0.25500000920E-02 0. -1.
    10030    2    1    2    0    0  0.00000000000E+00  0.00000000000E+00 -0.47386430909E+03  0.18608839881E+04  0.17995393393E+04 0.  0.
        5    1    3    3  502    0  0.22928243569E+03 -0.42261405939E+03 -0.10233773265E+04  0.11307061161E+04  0.46999998093E+01 0. -1.
       -5    1    3    3    0  502 -0.22928243569E+03  0.42261405939E+03  0.54951301741E+03  0.73017787204E+03  0.46999998093E+01 0.  1.
</event>
<event>
 5   0  0.2054876E-05  0.1800749E+04  0.7818609E-02  0.8705901E-01
       -1   -1    0    0    0  501  0.00000000000E+00  0.00000000000E+00  0.69741982072E+03  0.69741982073E+03  0.50400001928E-02 0. -1.
        1   -1    0    0  501    0  0.00000000000E+00  0.00000000000E+00 -0.11623909956E+04  0.11623909957E+04  0.50400001928E-02 0.  1.
    10030    2    1    2    0    0  0.00000000000E+00  0.00000000000E+00 -0.46497117493E+03  0.18598108164E+04  0.18007493105E+04 0.  0.
        5    1    3    3  502    0  0.78920095180E+03  0.14064851668E+03 -0.65584758835E+03  0.10357501131E+04  0.46999998093E+01 0.  1.
       -5    1    3    3    0  502 -0.78920095180E+03 -0.14064851668E+03  0.19087641342E+03  0.82406070333E+03  0.46999998093E+01 0. -1.
</event>
<event>
 5   0  0.2001811E-05  0.1800513E+04  0.7818609E-02  0.8706027E-01
        1   -1    0    0  501    0  0.00000000000E+00  0.00000000000E+00  0.10985789209E+04  0.10985789209E+04  0.50400001928E-02 0. -1.
       -1   -1    0    0    0  501  0.00000000000E+00  0.00000000000E+00 -0.73773633370E+03  0.73773633372E+03  0.50400001928E-02 0.  1.
    10030    2    1    2    0    0  0.00000000000E+00  0.00000000000E+00  0.36084258719E+03  0.18363152546E+04  0.18005127996E+04 0.  0.
        2    1    3    3  502    0  0.17239206659E+02  0.75216640980E+03  0.68463029174E+03  0.10172365185E+04  0.25500000920E-02 0. -1.
       -2    1    3    3    0  502 -0.17239206659E+02 -0.75216640980E+03 -0.32378770455E+03  0.81907873608E+03  0.25500000920E-02 0.  1.
</event>
<event>
 5   0  0.3909859E-05  0.1799724E+04  0.7818609E-02  0.8706446E-01
       -2   -1    0    0    0  501  0.00000000000E+00  0.00000000000E+00  0.33609697998E+03  0.33609697999E+03  0.25500000920E-02 0.  1.
        2   -1    0    0  501    0  0.00000000000E+00  0.00000000000E+00 -0.24092803221E+04  0.24092803221E+04  0.25500000920E-02 0. -1.
    10030    2    1    2    0    0  0.00000000000E+00  0.00000000000E+00 -0.20731833421E+04  0.27453773021E+04  0.17997242458E+04 0.  0.
        4    1    3    3  502    0 -0.63775647404E+03 -0.18772401678E+03 -0.11149286932E+03  0.67409635770E+03  0.12699999809E+01 0.  1.
       -4    1    3    3    0  502  0.63775647404E+03  0.18772401678E+03 -0.19616904728E+04  0.20712809444E+04  0.12699999809E+01 0. -1.
</event>
<event>
 5   0  0.3993393E-05  0.1797465E+04  0.7818609E-02  0.8707649E-01
        2   -1    0    0  501    0  0.00000000000E+00  0.00000000000E+00  0.57438184791E+03  0.57438184792E+03  0.25500000920E-02 0.  1.
       -2   -1    0    0    0  501  0.00000000000E+00  0.00000000000E+00 -0.14062417507E+04  0.14062417507E+04  0.25500000920E-02 0. -1.
    10030    2    1    2    0    0  0.00000000000E+00  0.00000000000E+00 -0.83185990276E+03  0.19806235986E+04  0.17974645870E+04 0.  0.
        5    1    3    3  502    0  0.65294298060E+03  0.24845085739E+03  0.20704267135E+03  0.72866392954E+03  0.46999998093E+01 0.  1.
       -5    1    3    3    0  502 -0.65294298060E+03 -0.24845085739E+03 -0.10389025741E+04  0.12519596691E+04  0.46999998093E+01 0. -1.
</event>
<event>
 5   0  0.2038338E-05  0.1801317E+04  0.7818609E-02  0.8705599E-01
        1   -1    0    0  501    0  0.00000000000E+00  0.00000000000E+00  0.76695583655E+03  0.76695583657E+03  0.50400001928E-02 0.  1.
       -1   -1    0    0    0  501  0.00000000000E+00  0.00000000000E+00 -0.10576694765E+04  0.10576694765E+04  0.50400001928E-02 0. -1.
    10030    2    1    2    0    0  0.00000000000E+00  0.00000000000E+00 -0.29071363997E+03  0.18246253131E+04  0.18013170495E+04 0.  0.
        1    1    3    3  502    0  0.86531392960E+03  0.24511572676E+03 -0.96400685791E+02  0.90451258063E+03  0.50400001928E-02 0.  1.
       -1    1    3    3    0  502 -0.86531392960E+03 -0.24511572676E+03 -0.19431295418E+03  0.92011273247E+03  0.50400001928E-02 0. -1.
</event>
<event>
 5   0  0.4015729E-05  0.1800349E+04  0.7818609E-02  0.8706114E-01
       -2   -1    0    0    0  501  0.00000000000E+00  0.00000000000E+00  0.40455901901E+03  0.40455901901E+03  0.25500000920E-02 0.  1.
        2   -1    0    0  501    0  0.00000000000E+00  0.00000000000E+00 -0.20029557549E+04  0.20029557549E+04  0.25500000920E-02 0. -1.
    10030    2    1    2    0    0  0.00000000000E+00  0.00000000000E+00 -0.15983967359E+04  0.24075147739E+04  0.18003486499E+04 0.  0.
        2    1    3    3  502    0  0.12242330184E+03 -0.18235999077E+03 -0.19665726294E+04  0.19788002773E+04  0.25500000920E-02 0. -1.
       -2    1    3    3    0  502 -0.12242330184E+03  0.18235999077E+03  0.36817589344E+03  0.42871449659E+03  0.25500000920E-02 0.  1.
</event>
<event>
 5   0  0.2001811E-05  0.1796601E+04  0.7818609E-02  0.8708109E-01
       -1   -1    0    0    0  501  0.00000000000E+00  0.00000000000E+00  0.10056135506E+04  0.10056135506E+04  0.50400001928E-02 0. -1.
        1   -1    0    0  501    0  0.00000000000E+00  0.00000000000E+00 -0.80243946164E+03  0.80243946166E+03  0.50400001928E-02 0.  1.
    10030    2    1    2    0    0  0.00000000000E+00  0.00000000000E+00  0.20317408891E+03  0.18080530122E+04  0.17966012314E+04 0.  0.
        2    1    3    3  502    0  0.45209201248E+03  0.38236932422E+03 -0.57825612141E+03  0.82763133689E+03  0.25500000920E-02 0.  1.
       -2    1    3    3    0  502 -0.45209201248E+03 -0.38236932422E+03  0.78143021032E+03  0.98042167533E+03  0.25500000920E-02 0. -1.
</event>
<event>
 5   0  0.3984648E-05  0.1800901E+04  0.7818609E-02  0.8705820E-01
        2   -1    0    0  501    0  0.00000000000E+00  0.00000000000E+00  0.14803331875E+04  0.14803331875E+04  0.25500000920E-02 0.  1.
       -2   -1    0    0    0  501  0.00000000000E+00  0.00000000000E+00 -0.54772225493E+03  0.54772225494E+03  0.25500000920E-02 0. -1.
    10030    2    1    2    0    0  0.00000000000E+00  0.00000000000E+00  0.93261093258E+03  0.20280554425E+04  0.18009013649E+04 0.  0.
        1    1    3    3  502    0 -0.20790513442E+03 -0.87404922433E+03  0.39850474431E+03  0.98284923703E+03  0.50400001928E-02 0.  1.
       -1    1    3    3    0  502  0.20790513442E+03  0.87404922433E+03  0.53410618828E+03  0.10452062054E+04  0.50400001928E-02 0. -1.
</event>
<event>
 5   0  0.1960300E-05  0.1801776E+04  0.7818609E-02  0.8705356E-01
        1   -1    0    0  501    0  0.00000000000E+00  0.00000000000E+00  0.92095601349E+03  0.92095601351E+03  0.50400001928E-02 0.  1.
       -1   -1    0    0    0  501  0.00000000000E+00  0.00000000000E+00 -0.88125683056E+03  0.88125683058E+03  0.50400001928E-02 0. -1.
    10030    2    1    2    0    0  0.00000000000E+00  0.00000000000E+00  0.39699182930E+02  0.18022128441E+04  0.18017755438E+04 0.  0.
        3    1    3    3  502    0 -0.52598317087E+03 -0.70563873155E+03  0.21228768864E+03  0.90534545255E+03  0.10100000352E+00 0.  1.
       -3    1    3    3    0  502  0.52598317087E+03  0.70563873155E+03 -0.17258850571E+03  0.89686739154E+03  0.10100000352E+00 0. -1.
</event>
<event>
 5   0  0.1960300E-05  0.1800022E+04  0.7818609E-02  0.8706288E-01
       -1   -1    0    0    0  501  0.00000000000E+00  0.00000000000E+00  0.25692234387E+04  0.25692234387E+04  0.50400001928E-02 0. -1.
        1   -1    0    0  501    0  0.00000000000E+00  0.00000000000E+00 -0.31527798811E+03  0.31527798815E+03  0.50400001928E-02 0.  1.
    10030    2    1    2    0    0  0.00000000000E+00  0.00000000000E+00  0.22539454505E+04  0.28845014268E+04  0.18000217741E+04 0.  0.
        3    1    3    3  502    0 -0.58179320750E+03 -0.62176897454E+03  0.15940062823E+04  0.18071900930E+04  0.10100000352E+00 0. -1.
       -3    1    3    3    0  502  0.58179320750E+03  0.62176897454E+03  0.65993916821E+03  0.10773113338E+04  0.10100000352E+00 0.  1.
</event>
<event>
 5   0  0.3909859E-05  0.1793373E+04  0.7818609E-02  0.8709831E-01
        2   -1    0    0  501    0  0.00000000000E+00  0.00000000000E+00  0.51404355693E+03  0.51404355694E+03  0.25500000920E-02 0.  1.
       -2   -1    0    0    0  501  0.00000000000E+00  0.00000000000E+00 -0.15641612071E+04  0.15641612071E+04  0.25500000920E-02 0. -1.
    10030    2    1    2    0    0  0.00000000000E+00  0.00000000000E+00 -0.10501176502E+04  0.20782047641E+04  0.17933733471E+04 0.  0.
        4    1    3    3  502    0 -0.11791526650E+03  0.24282988873E+03 -0.15159553280E+04  0.15398027583E+04  0.12699999809E+01 0. -1.
       -4    1    3    3    0  502  0.11791526650E+03 -0.24282988873E+03  0.46583767779E+03  0.53840200583E+03  0.12699999809E+01 0.  1.
</event>
<event>
 5   0  0.3984648E-05  0.1797174E+04  0.7818609E-02  0.8707804E-01
       -2   -1    0    0    0  501  0.00000000000E+00  0.00000000000E+00  0.28986456319E+03  0.28986456320E+03  0.25500000920E-02 0. -1.
        2   -1    0    0  501    0  0.00000000000E+00  0.00000000000E+00 -0.27856398289E+04  0.27856398289E+04  0.25500000920E-02 0.  1.
    10030    2    1    2    0    0  0.00000000000E+00  0.00000000000E+00 -0.24957752657E+04  0.30755043921E+04  0.17971736391E+04 0.  0.
        1    1    3    3  502    0 -0.76482960487E+03 -0.10480106109E+02 -0.44087897685E+03  0.88286376602E+03  0.50400001928E-02 0. -1.
       -1    1    3    3    0  502  0.76482960487E+03  0.10480106109E+02 -0.20548962889E+04  0.21926406261E+04  0.50400001928E-02 0.  1.
</event>
<event>
 5   0  0.1446750E-05  0.1802360E+04  0.7818609E-02  0.8705046E-01
        4   -1    0    0  501    0  0.00000000000E+00  0.00000000000E+00  0.74506432823E+03  0.74506541062E+03  0.12699999809E+01 0. -1.
       -4   -1    0    0    0  501  0.00000000000E+00  0.00000000000E+00 -0.10900046149E+04  0.10900053548E+04  0.12699999809E+01 0.  1.
    10030    2    1    2    0    0  0.00000000000E+00  0.00000000000E+00 -0.34494028671E+03  0.18350707654E+04  0.18023598178E+04 0.  0.
        1    1    3    3  502    0 -0.54314434918E+02  0.45152630105E+03 -0.96459995662E+03  0.10664329021E+04  0.50400001928E-02 0.  1.
       -1    1    3    3    0  502  0.54314434918E+02 -0.45152630105E+03  0.61965966991E+03  0.76863786331E+03  0.50400001928E-02 0. -1.
</event>
<event>
 5   0  0.1906857E-05  0.1801448E+04  0.7818609E-02  0.8705530E-01
        1   -1    0    0  501    0  0.00000000000E+00  0.00000000000E+00  0.24932158580E+04  0.24932158580E+04  0.50400001928E-02 0.  1.
       -1   -1    0    0    0  501  0.00000000000E+00  0.00000000000E+00 -0.32540441066E+03  0.32540441070E+03  0.50400001928E-02 0. -1.
    10030    2    1    2    0    0  0.00000000000E+00  0.00000000000E+00  0.21678114473E+04  0.28186202687E+04  0.18014476812E+04 0.  0.
        4    1    3    3  502    0 -0.36826165517E+03 -0.44301949046E+03  0.54647205215E+00  0.57609446025E+03  0.12699999809E+01 0. -1.
       -4    1    3    3    0  502  0.36826165517E+03  0.44301949046E+03  0.21672649752E+04  0.22425258084E+04  0.12699999809E+01 0.  1.
</event>
<event>
 5   0  0.2054876E-05  0.1802285E+04  0.7818609E-02  0.8705085E-01
       -1   -1    0    0    0  501  0.00000000000E+00  0.00000000000E+00  0.66390260746E+03  0.66390260748E+03  0.50400001928E-02 0.  1.
        1   -1    0    0  501    0  0.00000000000E+00  0.00000000000E+00 -0.12231577803E+04  0.12231577803E+04  0.50400001928E-02 0. -1.
    10030    2    1    2    0    0  0.00000000000E+00  0.00000000000E+00 -0.55925517286E+03  0.18870603878E+04  0.18022848162E+04 0.  0.
        5    1    3    3  502    0  0.18658102130E+02  0.70576897015E+02 -0.12200437949E+04  0.12222349098E+04  0.46999998093E+01 0. -1.
       -5    1    3    3    0  502 -0.18658102130E+02 -0.70576897015E+02  0.66078862207E+03  0.66482547802E+03  0.46999998093E+01 0.  1.
</event>
<event>
 5   0  0.4015729E-05  0.1799278E+04  0.7818609E-02  0.8706683E-01
       -2   -1    0    0    0  501  0.00000000000E+00  0.00000000000E+00  0.15940354487E+04  0.15940354487E+04  0.25500000920E-02 0.  1.
        2   -1    0    0  501    0  0.00000000000E+00  0.00000000000E+00 -0.50773682735E+03  0.50773682735E+03  0.25500000920E-02 0. -1.
    10030    2    1    2    0    0  0.00000000000E+00  0.00000000000E+00  0.10862986214E+04  0.21017722761E+04  0.17992781902E+04 0.  0.
        2    1    3    3  502    0  0.87018531385E+03 -0.78074335572E+02  0.29252728111E+03  0.92135242579E+03  0.25500000920E-02 0.  1.
       -2    1    3    3    0  502 -0.87018531385E+03  0.78074335572E+02  0.79377134029E+03  0.11804198503E+04  0.25500000920E-02 0. -1.
</event>
<event>
 5   0  0.1906857E-05  0.1800012E+04  0.7818609E-02  0.8706293E-01
        1   -1    0    0  501    0  0.00000000000E+00  0.00000000000E+00  0.71841278471E+03  0.71841278473E+03  0.50400001928E-02 0.  1.
       -1   -1    0    0    0  501  0.00000000000E+00  0.00000000000E+00 -0.11275003961E+04  0.11275003961E+04  0.50400001928E-02 0. -1.
    10030    2    1    2    0    0  0.00000000000E+00  0.00000000000E+00 -0.40908761141E+03  0.18459131809E+04  0.18000118881E+04 0.  0.
        4    1    3    3  502    0  0.60631773645E+03 -0.23735054569E+03  0.43263180303E+03  0.78174699806E+03  0.12699999809E+01 0.  1.
       -4    1    3    3    0  502 -0.60631773645E+03  0.23735054569E+03 -0.84171941444E+03  0.10641661828E+04  0.12699999809E+01 0. -1.
</event>
<event>
 5   0  0.3993393E-05  0.1802873E+04  0.7818609E-02  0.8704773E-01
       -2   -1    0    0    0  501  0.00000000000E+00  0.00000000000E+00  0.45624300198E+03  0.45624300199E+03  0.25500000920E-02 0.  1.
        2   -1    0    0  501    0  0.00000000000E+00  0.00000000000E+00 -0.17810423506E+04  0.17810423506E+04  0.25500000920E-02 0. -1.
    10030    2    1    2    0    0  0.00000000000E+00  0.00000000000E+00 -0.13247993486E+04  0.22372853526E+04  0.18028733829E+04 0.  0.
        5    1    3    3  502    0 -0.51460867043E+03 -0.15663493151E+03 -0.15600225979E+04  0.16501664102E+04  0.46999998093E+01 0. -1.
       -5    1    3    3    0  502  0.51460867043E+03  0.15663493151E+03  0.23522324932E+03  0.58711894235E+03  0.46999998093E+01 0.  1.
</event>
<event>
 5   0  0.2054876E-05  0.1804341E+04  0.7818609E-02  0.8703994E-01
       -1   -1    0    0    0  501  0.00000000000E+00  0.00000000000E+00  0.12689213545E+04  0.12689213545E+04  0.50400001928E-02 0. -1.
        1   -1    0    0  501    0  0.00000000000E+00  0.00000000000E+00 -0.64141993467E+03  0.64141993469E+03  0.50400001928E-02 0.  1.
    10030    2    1    2    0    0  0.00000000000E+00  0.00000000000E+00  0.62750141979E+03  0.19103412892E+04  0.18043408240E+04 0.  0.
        5    1    3    3  502    0 -0.38277880409E+03  0.68444216438E+03  0.78594338650E+03  0.11102746444E+04  0.46999998093E+01 0. -1.
       -5    1    3    3    0  502  0.38277880409E+03 -0.68444216438E+03 -0.15844196670E+03  0.80006664476E+03  0.46999998093E+01 0.  1.
</event>
<event>
 5   0  0.2038338E-05  0.1799329E+04  0.7818609E-02  0.8706656E-01
       -1   -1    0    0    0  501  0.00000000000E+00  0.00000000000E+00  0.92843804698E+03  0.92843804699E+03  0.50400001928E-02 0. -1.
        1   -1    0    0  501    0  0.00000000000E+00  0.00000000000E+00 -0.87178271712E+03  0.87178271713E+03  0.50400001928E-02 0.  1.
    10030    2    1    2    0    0  0.00000000000E+00  0.00000000000E+00  0.56655329860E+02  0.18002207641E+04  0.17993290342E+04 0.  0.
        1    1    3    3  502    0 -0.47158034353E+03  0.71465124274E+03  0.30465618664E+03  0.90880680633E+03  0.50400001928E-02 0. -1.
       -1    1    3    3    0  502  0.47158034353E+03 -0.71465124274E+03 -0.24800085678E+03  0.89141395779E+03  0.50400001928E-02 0.  1.
</event>
<event>
 5   0  0.4015729E-05  0.1799808E+04  0.7818609E-02  0.8706401E-01
        2   -1    0    0  501    0  0.00000000000E+00  0.00000000000E+00  0.14464865294E+04  0.14464865294E+04  0.25500000920E-02 0.  1.
       -2   -1    0    0    0  501  0.00000000000E+00  0.00000000000E+00 -0.55985837548E+03  0.55985837549E+03  0.25500000920E-02 0. -1.
    10030    2    1    2    0    0  0.00000000000E+00  0.00000000000E+00  0.88662815394E+03  0.20063449049E+04  0.17998084326E+04 0.  0.
        2    1    3    3  502    0 -0.86599700787E+03 -0.19468127634E+03  0.60856863677E+03  0.10762004473E+04  0.25500000920E-02 0.  1.
       -2    1    3    3    0  502  0.86599700787E+03  0.19468127634E+03  0.27805951716E+03  0.93014445765E+03  0.25500000920E-02 0. -1.
</event>
<event>
 5   0  0.2054876E-05  0.1799149E+04  0.7818609E-02  0.8706752E-01
        1   -1    0    0  501    0  0.00000000000E+00  0.00000000000E+00  0.67733366965E+03  0.67733366967E+03  0.50400001928E-02 0.  1.
       -1   -1    0    0    0  501  0.00000000000E+00  0.00000000000E+00 -0.11947346945E+04  0.11947346945E+04  0.50400001928E-02 0. -1.
    10030    2    1    2    0    0  0.00000000000E+00  0.00000000000E+00 -0.51740102488E+03  0.18720683642E+04  0.17991487264E+04 0.  0.
        5    1    3    3  502    0  0.71694685966E+03 -0.16117346394E+03 -0.79859652660E+03  0.10852502879E+04  0.46999998093E+01 0. -1.
       -5    1    3    3    0  502 -0.71694685966E+03  0.16117346394E+03  0.28119550173E+03  0.78681807633E+03  0.46999998093E+01 0.  1.
</event>
<event>
 5   0  0.3984648E-05  0.1802124E+04  0.7818609E-02  0.8705171E-01
       -2   -1    0    0    0  501  0.00000000000E+00  0.00000000000E+00  0.50495500625E+03  0.50495500626E+03  0.25500000920E-02 0.  1.
        2   -1    0    0  501    0  0.00000000000E+00  0.00000000000E+00 -0.16078920192E+04  0.16078920192E+04  0.25500000920E-02 0. -1.
    10030    2    1    2    0    0  0.00000000000E+00  0.00000000000E+00 -0.11029370129E+04  0.21128470254E+04  0.18021244403E+04 0.  0.
        1    1    3    3  502    0  0.11821577296E+03 -0.85853107556E+03 -0.84070849952E+03  0.12074110145E+04  0.50400001928E-02 0. -1.
       -1    1    3    3    0  502 -0.11821577296E+03  0.85853107556E+03 -0.26222851342E+03  0.90543601097E+03  0.50400001928E-02 0.  1.
</event>
<event>
 5   0  0.2038338E-05  0.1797907E+04  0.7818609E-02  0.8707413E-01
       -1   -1    0    0    0  501  0.00000000000E+00  0.00000000000E+00  0.46506934360E+03  0.46506934362E+03  0.50400001928E-02 0. -1.
        1   -1    0    0  501    0  0.00000000000E+00  0.00000000000E+00 -0.17376283453E+04  0.17376283454E+04  0.50400001928E-02 0.  1.
    10030    2    1    2    0    0  0.00000000000E+00  0.00000000000E+00 -0.12725590017E+04  0.22026976890E+04  0.17979073102E+04 0.  0.
        1    1    3    3  502    0 -0.79943554936E+03 -0.37056026102E+03 -0.41812942105E+03  0.97531754695E+03  0.50400001928E-02 0.  1.
       -1    1    3    3    0  502  0.79943554936E+03  0.37056026102E+03 -0.85442958070E+03  0.12273801420E+04  0.50400001928E-02 0. -1.
</event>
<event>
 5   0  0.2001811E-05  0.1801067E+04  0.7818609E-02  0.8705732E-01
        1   -1    0    0  501    0  0.00000000000E+00  0.00000000000E+00  0.11779983185E+04  0.11779983185E+04  0.50400001928E-02 0.  1.
       -1   -1    0    0    0  501  0.00000000000E+00  0.00000000000E+00 -0.68842218654E+03  0.68842218656E+03  0.50400001928E-02 0. -1.
    10030    2    1    2    0    0  0.00000000000E+00  0.00000000000E+00  0.48957613195E+03  0.18664205051E+04  0.18010665487E+04 0.  0.
        2    1    3    3  502    0 -0.38776941167E+03 -0.21387156798E+03 -0.56779121261E+03  0.72006459803E+03  0.25500000920E-02 0. -1.
       -2    1    3    3    0  502  0.38776941167E+03  0.21387156798E+03  0.10573673446E+04  0.11463559070E+04  0.25500000920E-02 0.  1.
</event>
<event>
 5   0  0.3909859E-05  0.1797943E+04  0.7818609E-02  0.8707394E-01
       -2   -1    0    0    0  501  0.00000000000E+00  0.00000000000E+00  0.51804392711E+03  0.51804392711E+03  0.25500000920E-02 0. -1.
        2   -1    0    0  501    0  0.00000000000E+00  0.00000000000E+00 -0.15600023470E+04  0.15600023470E+04  0.25500000920E-02 0.  1.
    10030    2    1    2    0    0  0.00000000000E+00  0.00000000000E+00 -0.10419584199E+04  0.20780462741E+04  0.17979429826E+04 0.  0.
        4    1    3    3  502    0 -0.86416817166E+03  0.95925777627E+02 -0.25701379358E+03  0.90666757233E+03  0.12699999809E+01 0. -1.
       -4    1    3    3    0  502  0.86416817166E+03 -0.95925777627E+02 -0.78494462632E+03  0.11713787018E+04  0.12699999809E+01 0.  1.
</event>
<event>
 5   0  0.4015729E-05  0.1797956E+04  0.7818609E-02  0.8707387E-01
        2   -1    0    0  501    0  0.00000000000E+00  0.00000000000E+00  0.21491841958E+04  0.21491841958E+04  0.25500000920E-02 0.  1.
       -2   -1    0    0    0  501  0.00000000000E+00  0.00000000000E+00 -0.37603158653E+03  0.37603158654E+03  0.25500000920E-02 0. -1.
    10030    2    1    2    0    0  0.00000000000E+00  0.00000000000E+00  0.17731526093E+04  0.25252157824E+04  0.17979556645E+04 0.  0.
        2    1    3    3  502    0  0.34307269558E+03  0.38483062526E+03  0.19209236611E+04  0.19889045217E+04  0.25500000920E-02 0.  1.
       -2    1    3    3    0  502 -0.34307269558E+03 -0.38483062526E+03 -0.14777105179E+03  0.53631126069E+03  0.25500000920E-02 0. -1.
</event>
<event>
 5   0  0.3909859E-05  0.1800329E+04  0.7818609E-02  0.8706124E-01
       -2   -1    0    0    0  501  0.00000000000E+00  0.00000000000E+00  0.42829711357E+03  0.42829711358E+03  0.25500000920E-02 0.  1.
        2   -1    0    0  501    0  0.00000000000E+00  0.00000000000E+00 -0.18919022218E+04  0.18919022218E+04  0.25500000920E-02 0. -1.
    10030    2    1    2    0    0  0.00000000000E+00  0.00000000000E+00 -0.14636051082E+04  0.23201993354E+04  0.18003291485E+04 0.  0.
        4    1    3    3  502    0 -0.75487430542E+03 -0.42055348017E+03 -0.10568016429E+04  0.13651123660E+04  0.12699999809E+01 0. -1.
       -4    1    3    3    0  502  0.75487430542E+03  0.42055348017E+03 -0.40680346538E+03  0.95508696934E+03  0.12699999809E+01 0.  1.
</event>
<event>
 5   0  0.2001811E-05  0.1800258E+04  0.7818609E-02  0.8706162E-01
       -1   -1    0    0    0  501  0.00000000000E+00  0.00000000000E+00  0.12856148025E+04  0.12856148025E+04  0.50400001928E-02 0.  1.
        1   -1    0    0  501    0  0.00000000000E+00  0.00000000000E+00 -0.63022944529E+03  0.63022944531E+03  0.50400001928E-02 0. -1.
    10030    2    1    2    0    0  0.00000000000E+00  0.00000000000E+00  0.65538535719E+03  0.19158442478E+04  0.18002580969E+04 0.  0.
        2    1    3    3  502    0 -0.18763358419E+03 -0.56483378733E+03  0.10463179459E+04  0.12037544654E+04  0.25500000920E-02 0.  1.
       -2    1    3    3    0  502  0.18763358419E+03  0.56483378733E+03 -0.39093258868E+03  0.71208978235E+03  0.25500000920E-02 0. -1.
</event>
<event>
 5   0  0.3984648E-05  0.1798796E+04  0.7818609E-02  0.8706940E-01
        2   -1    0    0  501    0  0.00000000000E+00  0.00000000000E+00  0.70694163460E+03  0.70694163460E+03  0.25500000920E-02 0. -1.
       -2   -1    0    0    0  501  0.00000000000E+00  0.00000000000E+00 -0.11442481715E+04  0.11442481715E+04  0.25500000920E-02 0.  1.
    10030    2    1    2    0    0  0.00000000000E+00  0.00000000000E+00 -0.43730653689E+03  0.18511898061E+04  0.17987959003E+04 0.  0.
        1    1    3    3  502    0 -0.29442702831E+03  0.40293200933E+03  0.55138919345E+03  0.74368778517E+03  0.50400001928E-02 0. -1.
       -1    1    3    3    0  502  0.29442702831E+03 -0.40293200933E+03 -0.98869573033E+03  0.11075020209E+04  0.50400001928E-02 0.  1.
</event>
<event>
 5   0  0.1906857E-05  0.1835706E+04  0.7818609E-02  0.8687539E-01
       -1   -1    0    0    0  501  0.00000000000E+00  0.00000000000E+00  0.65079443418E+03  0.65079443420E+03  0.50400001928E-02 0. -1.
        1   -1    0    0  501    0  0.00000000000E+00  0.00000000000E+00 -0.12945010770E+04  0.12945010770E+04  0.50400001928E-02 0.  1.
    10030    2    1    2    0    0  0.00000000000E+00  0.00000000000E+00 -0.64370664277E+03  0.19452955112E+04  0.18357059633E+04 0.  0.
        4    1    3    3  502    0  0.88055706777E+03  0.31577571117E+02 -0.49457961156E+02  0.88251096051E+03  0.12699999809E+01 0. -1.
       -4    1    3    3    0  502 -0.88055706777E+03 -0.31577571117E+02 -0.59424868161E+03  0.10627845507E+04  0.12699999809E+01 0.  1.
</event>
<event>
 5   0  0.2001811E-05  0.1799183E+04  0.7818609E-02  0.8706734E-01
        1   -1    0    0  501    0  0.00000000000E+00  0.00000000000E+00  0.19341269345E+04  0.19341269345E+04  0.50400001928E-02 0.  1.
       -1   -1    0    0    0  501  0.00000000000E+00  0.00000000000E+00 -0.41841341576E+03  0.41841341579E+03  0.50400001928E-02 0. -1.
    10030    2    1    2    0    0  0.00000000000E+00  0.00000000000E+00  0.15157135187E+04  0.23525403503E+04  0.17991827669E+04 0.  0.
        2    1    3    3  502    0  0.39608631086E+03 -0.17102139855E+02 -0.29802390918E+03  0.49597893029E+03  0.25500000920E-02 0. -1.
       -2    1    3    3    0  502 -0.39608631086E+03  0.17102139855E+02  0.18137374279E+04  0.18565614200E+04  0.25500000920E-02 0.  1.
</event>
<event>
 5   0  0.2038338E-05  0.1799731E+04  0.7818609E-02  0.8706442E-01
       -1   -1    0    0    0  501  0.00000000000E+00  0.00000000000E+00  0.85907287714E+03  0.85907287716E+03  0.50400001928E-02 0. -1.
        1   -1    0    0  501    0  0.00000000000E+00  0.00000000000E+00 -0.94259562474E+03  0.94259562475E+03  0.50400001928E-02 0.  1.
    10030    2    1    2    0    0  0.00000000000E+00  0.00000000000E+00 -0.83522747591E+02  0.18016685019E+04  0.17997314637E+04 0.  0.
        1    1    3    3  502    0 -0.53250948956E+03  0.49021159488E+03  0.49349584787E+03  0.87602049983E+03  0.50400001928E-02 0. -1.
       -1    1    3    3    0  502  0.53250948956E+03 -0.49021159488E+03 -0.57701859546E+03  0.92564800208E+03  0.50400001928E-02 0.  1.
</event>
<event>
 5   0  0.3984648E-05  0.1800741E+04  0.7818609E-02  0.8705905E-01
       -2   -1    0    0    0  501  0.00000000000E+00  0.00000000000E+00  0.76229353127E+03  0.76229353127E+03  0.25500000920E-02 0. -1.
        2   -1    0    0  501    0  0.00000000000E+00  0.00000000000E+00 -0.10634582502E+04  0.10634582502E+04  0.25500000920E-02 0.  1.
    10030    2    1    2    0    0  0.00000000000E+00  0.00000000000E+00 -0.30116471893E+03  0.18257517815E+04  0.18007413417E+04 0.  0.
        1    1    3    3  502    0 -0.47778646250E+03 -0.14319604188E+03 -0.91058147517E+03  0.10382406432E+04  0.50400001928E-02 0.  1.
       -1    1    3    3    0  502  0.47778646250E+03  0.14319604188E+03  0.60941675624E+03  0.78751113832E+03  0.50400001928E-02 0. -1.
</event>
<event>
 5   0  0.1960300E-05  0.1799161E+04  0.7818609E-02  0.8706746E-01
       -1   -1    0    0    0  501  0.00000000000E+00  0.00000000000E+00  0.58877918908E+03  0.58877918910E+03  0.50400001928E-02 0.  1.
        1   -1    0    0  501    0  0.00000000000E+00  0.00000000000E+00 -0.13744450920E+04  0.13744450920E+04  0.50400001928E-02 0. -1.
    10030    2    1    2    0    0  0.00000000000E+00  0.00000000000E+00 -0.78566590288E+03  0.19632242811E+04  0.17991605450E+04 0.  0.
        3    1    3    3  502    0  0.48762266623E+03 -0.46998982425E+03 -0.10389222517E+04  0.12401716634E+04  0.10100000352E+00 0. -1.
       -3    1    3    3    0  502 -0.48762266623E+03  0.46998982425E+03  0.25325634877E+03  0.72305261767E+03  0.10100000352E+00 0.  1.
</event>
<event>
 5   0  0.2054876E-05  0.1800028E+04  0.7818609E-02  0.8706284E-01
       -1   -1    0    0    0  501  0.00000000000E+00  0.00000000000E+00  0.10487848940E+04  0.10487848940E+04  0.50400001928E-02 0.  1.
        1   -1    0    0  501    0  0.00000000000E+00  0.00000000000E+00 -0.77234657484E+03  0.77234657485E+03  0.50400001928E-02 0. -1.
    10030    2    1    2    0    0  0.00000000000E+00  0.00000000000E+00  0.27643831914E+03  0.18211314688E+04  0.18000282449E+04 0.  0.
        5    1    3    3  502    0 -0.90900478472E+02 -0.24867625937E+02 -0.76732851095E+03  0.77310829094E+03  0.46999998093E+01 0. -1.
       -5    1    3    3    0  502  0.90900478472E+02  0.24867625937E+02  0.10437668301E+04  0.10480231779E+04  0.46999998093E+01 0.  1.
</event>
<event>
 5   0  0.1960300E-05  0.1818551E+04  0.7818609E-02  0.8696496E-01
       -1   -1    0    0    0  501  0.00000000000E+00  0.00000000000E+00  0.79032670852E+03  0.79032670853E+03  0.50400001928E-02 0. -1.
        1   -1    0    0  501    0  0.00000000000E+00  0.00000000000E+00 -0.10461273020E+04  0.10461273020E+04  0.50400001928E-02 0.  1.
    10030    2    1    2    0    0  0.00000000000E+00  0.00000000000E+00 -0.25580059344E+03  0.18364540105E+04  0.18185514535E+04 0.  0.
        3    1    3    3  502    0  0.81202644894E+03  0.35200430843E+03 -0.33849184109E+03  0.94756040631E+03  0.10100000352E+00 0. -1.
       -3    1    3    3    0  502 -0.81202644894E+03 -0.35200430843E+03  0.82691247645E+02  0.88889360419E+03  0.10100000352E+00 0.  1.
</event>
<event>
 5   0  0.4015729E-05  0.1809237E+04  0.7818609E-02  0.8701403E-01
        2   -1    0    0  501    0  0.00000000000E+00  0.00000000000E+00  0.78224545581E+03  0.78224545581E+03  0.25500000920E-02 0.  1.
       -2   -1    0    0    0  501  0.00000000000E+00  0.00000000000E+00 -0.10461352277E+04  0.10461352277E+04  0.25500000920E-02 0. -1.
    10030    2    1    2    0    0  0.00000000000E+00  0.00000000000E+00 -0.26388977192E+03  0.18283806835E+04  0.18092368867E+04 0.  0.
        2    1    3    3  502    0  0.22475144911E+03 -0.71090832074E+03  0.38575549970E+03  0.83947076181E+03  0.25500000920E-02 0. -1.
       -2    1    3    3    0  502 -0.22475144911E+03  0.71090832074E+03 -0.64964527162E+03  0.98890992174E+03  0.25500000920E-02 0.  1.
</event>
<event>
 5   0  0.4015729E-05  0.1798347E+04  0.7818609E-02  0.8707179E-01
        2   -1    0    0  501    0  0.00000000000E+00  0.00000000000E+00  0.11935030330E+04  0.11935030330E+04  0.25500000920E-02 0. -1.
       -2   -1    0    0    0  501  0.00000000000E+00  0.00000000000E+00 -0.67742860918E+03  0.67742860919E+03  0.25500000920E-02 0.  1.
    10030    2    1    2    0    0  0.00000000000E+00  0.00000000000E+00  0.51607442386E+03  0.18709316422E+04  0.17983471297E+04 0.  0.
        2    1    3    3  502    0  0.33093614599E+03  0.41066652090E+03  0.10156801962E+04  0.11444527011E+04  0.25500000920E-02 0. -1.
       -2    1    3    3    0  502 -0.33093614599E+03 -0.41066652090E+03 -0.49960577236E+03  0.72647894112E+03  0.25500000920E-02 0.  1.
</event>
<event>
 5   0  0.3909859E-05  0.1791009E+04  0.7818609E-02  0.8711095E-01
        2   -1    0    0  501    0  0.00000000000E+00  0.00000000000E+00  0.12615019625E+04  0.12615019625E+04  0.25500000920E-02 0.  1.
       -2   -1    0    0    0  501  0.00000000000E+00  0.00000000000E+00 -0.63569335237E+03  0.63569335238E+03  0.25500000920E-02 0. -1.
    10030    2    1    2    0    0  0.00000000000E+00  0.00000000000E+00  0.62580861009E+03  0.18971953148E+04  0.17910091139E+04 0.  0.
        4    1    3    3  502    0 -0.68780769705E+03  0.57239358499E+03  0.34979666885E+03  0.96076696795E+03  0.12699999809E+01 0.  1.
       -4    1    3    3    0  502  0.68780769705E+03 -0.57239358499E+03  0.27601194124E+03  0.93642834689E+03  0.12699999809E+01 0. -1.
</event>
<event>
 5   0  0.1446750E-05  0.1799416E+04  0.7818609E-02  0.8706610E-01
        3   -1    0    0  501    0  0.00000000000E+00  0.00000000000E+00  0.33370213315E+03  0.33370214844E+03  0.10100000352E+00 0.  1.
       -3   -1    0    0    0  501  0.00000000000E+00  0.00000000000E+00 -0.24257406269E+04  0.24257406290E+04  0.10100000352E+00 0. -1.
    10030    2    1    2    0    0  0.00000000000E+00  0.00000000000E+00 -0.20920384937E+04  0.27594427774E+04  0.17994164006E+04 0.  0.
        4    1    3    3  502    0  0.10828672203E+03  0.76900409686E+03 -0.17426833533E+04  0.19078889376E+04  0.12699999809E+01 0. -1.
       -4    1    3    3    0  502 -0.10828672203E+03 -0.76900409686E+03 -0.34935514037E+03  0.85155383985E+03  0.12699999809E+01 0.  1.
</event>
<event>
 5   0  0.1960300E-05  0.1806790E+04  0.7818609E-02  0.8702697E-01
       -1   -1    0    0    0  501  0.00000000000E+00  0.00000000000E+00  0.36216966621E+03  0.36216966624E+03  0.50400001928E-02 0. -1.
        1   -1    0    0  501    0  0.00000000000E+00  0.00000000000E+00 -0.22534262412E+04  0.22534262412E+04  0.50400001928E-02 0.  1.
    10030    2    1    2    0    0  0.00000000000E+00  0.00000000000E+00 -0.18912565750E+04  0.26155959074E+04  0.18067901147E+04 0.  0.
        3    1    3    3  502    0 -0.86031465999E+03 -0.42789428493E+02 -0.55142557823E+03  0.10227621561E+04  0.10100000352E+00 0. -1.
       -3    1    3    3    0  502  0.86031465999E+03  0.42789428493E+02 -0.13398309967E+04  0.15928337513E+04  0.10100000352E+00 0.  1.
</event>
<event>
 5   0  0.1906857E-05  0.1848615E+04  0.7818609E-02  0.8680865E-01
        1   -1    0    0  501    0  0.00000000000E+00  0.00000000000E+00  0.11982849659E+04  0.11982849659E+04  0.50400001928E-02 0.  1.
       -1   -1    0    0    0  501  0.00000000000E+00  0.00000000000E+00 -0.71297260188E+03  0.71297260190E+03  0.50400001928E-02 0. -1.
    10030    2    1    2    0    0  0.00000000000E+00  0.00000000000E+00  0.48531236401E+03  0.19112575678E+04  0.18486149950E+04 0.  0.
        4    1    3    3  502    0  0.69408797070E+03 -0.27583500662E+03 -0.32031330601E+03  0.81267785060E+03  0.12699999809E+01 0. -1.
       -4    1    3    3    0  502 -0.69408797070E+03  0.27583500662E+03  0.80562567002E+03  0.10985797172E+04  0.12699999809E+01 0.  1.
</event>
<event>
 5   0  0.3993393E-05  0.1800082E+04  0.7818609E-02  0.8706256E-01
       -2   -1    0    0    0  501  0.00000000000E+00  0.00000000000E+00  0.64068596379E+03  0.64068596380E+03  0.25500000920E-02 0.  1.
        2   -1    0    0  501    0  0.00000000000E+00  0.00000000000E+00 -0.12643844611E+04  0.12643844611E+04  0.25500000920E-02 0. -1.
    10030    2    1    2    0    0  0.00000000000E+00  0.00000000000E+00 -0.62369849729E+03  0.19050704249E+04  0.18000815282E+04 0.  0.
        5    1    3    3  502    0 -0.26369932648E+03 -0.50977987597E+03 -0.10455654448E+04  0.11927455916E+04  0.46999998093E+01 0. -1.
       -5    1    3    3    0  502  0.26369932648E+03  0.50977987597E+03  0.42186694755E+03  0.71232483332E+03  0.46999998093E+01 0.  1.
</event>
<event>
 5   0  0.1960300E-05  0.1793638E+04  0.7818609E-02  0.8709690E-01
       -1   -1    0    0    0  501  0.00000000000E+00  0.00000000000E+00  0.11950032069E+04  0.11950032069E+04  0.50400001928E-02 0.  1.
        1   -1    0    0  501    0  0.00000000000E+00  0.00000000000E+00 -0.67303938659E+03  0.67303938661E+03  0.50400001928E-02 0. -1.
    10030    2    1    2    0    0  0.00000000000E+00  0.00000000000E+00  0.52196382026E+03  0.18680425935E+04  0.17936378958E+04 0.  0.
        3    1    3    3  502    0 -0.65069512688E+03  0.60654368995E+03  0.37965983843E+03  0.96718198860E+03  0.10100000352E+00 0.  1.
       -3    1    3    3    0  502  0.65069512688E+03 -0.60654368995E+03  0.14230398183E+03  0.90086060487E+03  0.10100000352E+00 0. -1.
</event>
<event>
 5   0  0.2001811E-05  0.1797813E+04  0.7818609E-02  0.8707464E-01
        1   -1    0    0  501    0  0.00000000000E+00  0.00000000000E+00  0.82872788131E+03  0.82872788132E+03  0.50400001928E-02 0. -1.
       -1   -1    0    0    0  501  0.00000000000E+00  0.00000000000E+00 -0.97502759694E+03  0.97502759696E+03  0.50400001928E-02 0.  1.
    10030    2    1    2    0    0  0.00000000000E+00  0.00000000000E+00 -0.14629971563E+03  0.18037554783E+04  0.17978126206E+04 0.  0.
        2    1    3    3  502    0  0.23937264208E+03  0.29137847368E+03  0.74553268590E+03  0.83547571027E+03  0.25500000920E-02 0. -1.
       -2    1    3    3    0  502 -0.23937264208E+03 -0.29137847368E+03 -0.89183240153E+03  0.96827976801E+03  0.25500000920E-02 0.  1.
</event>
<event>
 5   0  0.3983176E-05  0.1798516E+04  0.7818609E-02  0.8707089E-01
        2   -1    0    0  501    0  0.00000000000E+00  0.00000000000E+00  0.13883471103E+04  0.13883471103E+04  0.25500000920E-02 0. -1.
       -2   -1    0    0    0  501  0.00000000000E+00  0.00000000000E+00 -0.58246626785E+03  0.58246626786E+03  0.25500000920E-02 0.  1.
    10030    2    1    2    0    0  0.00000000000E+00  0.00000000000E+00  0.80588084246E+03  0.19708133782E+04  0.17985164551E+04 0.  0.
        3    1    3    3  502    0  0.21265886534E+03  0.73743425978E+03  0.91648619586E+03  0.11953995307E+04  0.10100000352E+00 0. -1.
       -3    1    3    3    0  502 -0.21265886534E+03 -0.73743425978E+03 -0.11060535340E+03  0.77541384751E+03  0.10100000352E+00 0.  1.
</event>
<event>
 5   0  0.1960300E-05  0.1802434E+04  0.7818609E-02  0.8705006E-01
        1   -1    0    0  501    0  0.00000000000E+00  0.00000000000E+00  0.14361617863E+04  0.14361617863E+04  0.50400001928E-02 0. -1.
       -1   -1    0    0    0  501  0.00000000000E+00  0.00000000000E+00 -0.56552984422E+03  0.56552984424E+03  0.50400001928E-02 0.  1.
    10030    2    1    2    0    0  0.00000000000E+00  0.00000000000E+00  0.87063194204E+03  0.20016916305E+04  0.18024342998E+04 0.  0.
        3    1    3    3  502    0 -0.67065532799E+03  0.25062974368E+03 -0.17254960560E+03  0.73645584659E+03  0.10100000352E+00 0.  1.
       -3    1    3    3    0  502  0.67065532799E+03 -0.25062974368E+03  0.10431815476E+04  0.12652357839E+04  0.10100000352E+00 0. -1.
</event>
<event>
 5   0  0.1960300E-05  0.1793011E+04  0.7818609E-02  0.8710025E-01
        1   -1    0    0  501    0  0.00000000000E+00  0.00000000000E+00  0.78205389661E+03  0.78205389662E+03  0.50400001928E-02 0. -1.
       -1   -1    0    0    0  501  0.00000000000E+00  0.00000000000E+00 -0.10277067956E+04  0.10277067956E+04  0.50400001928E-02 0.  1.
    10030    2    1    2    0    0  0.00000000000E+00  0.00000000000E+00 -0.24565289899E+03  0.18097606922E+04  0.17930109917E+04 0.  0.
        3    1    3    3  502    0 -0.14797510407E+03  0.80112580514E+03 -0.50051841279E+03  0.95614741480E+03  0.10100000352E+00 0.  1.
       -3    1    3    3    0  502  0.14797510407E+03 -0.80112580514E+03  0.25486551380E+03  0.85361327743E+03  0.10100000352E+00 0. -1.
</event>
<event>
 5   0  0.1960300E-05  0.1822603E+04  0.7818609E-02  0.8694371E-01
       -1   -1    0    0    0  501  0.00000000000E+00  0.00000000000E+00  0.29615600603E+03  0.29615600607E+03  0.50400001928E-02 0. -1.
        1   -1    0    0  501    0  0.00000000000E+00  0.00000000000E+00 -0.28041664388E+04  0.28041664388E+04  0.50400001928E-02 0.  1.
    10030    2    1    2    0    0  0.00000000000E+00  0.00000000000E+00 -0.25080104327E+04  0.31003224448E+04  0.18226033390E+04 0.  0.
        3    1    3    3  502    0  0.72383649661E+03  0.40864331108E+03 -0.61857579519E+03  0.10361296512E+04  0.10100000352E+00 0.  1.
       -3    1    3    3    0  502 -0.72383649661E+03 -0.40864331108E+03 -0.18894346376E+04  0.20641927936E+04  0.10100000352E+00 0. -1.
</event>
<event>
 5   0  0.1446750E-05  0.1800273E+04  0.7818609E-02  0.8706154E-01
        4   -1    0    0  501    0  0.00000000000E+00  0.00000000000E+00  0.12243000069E+04  0.12243006656E+04  0.12699999809E+01 0.  1.
       -4   -1    0    0    0  501  0.00000000000E+00  0.00000000000E+00 -0.66180180240E+03  0.66180302096E+03  0.12699999809E+01 0. -1.
    10030    2    1    2    0    0  0.00000000000E+00  0.00000000000E+00  0.56249820450E+03  0.18861036866E+04  0.18002730033E+04 0.  0.
        3    1    3    3  502    0  0.12467827493E+03 -0.21863436595E+03 -0.62418832010E+03  0.67302059951E+03  0.10100000352E+00 0. -1.
       -3    1    3    3    0  502 -0.12467827493E+03  0.21863436595E+03  0.11866865246E+04  0.12130830870E+04  0.10100000352E+00 0.  1.
</event>
<event>
 5   0  0.1906857E-05  0.1800862E+04  0.7818609E-02  0.8705841E-01
       -1   -1    0    0    0  501  0.00000000000E+00  0.00000000000E+00  0.14742640477E+04  0.14742640477E+04  0.50400001928E-02 0. -1.
        1   -1    0    0  501    0  0.00000000000E+00  0.00000000000E+00 -0.54995278755E+03  0.54995278757E+03  0.50400001928E-02 0.  1.
    10030    2    1    2    0    0  0.00000000000E+00  0.00000000000E+00  0.92431126015E+03  0.20242168353E+04  0.18008615967E+04 0.  0.
        4    1    3    3  502    0 -0.25828288770E+03  0.56021900976E+03  0.11994166920E+04  0.13487614330E+04  0.12699999809E+01 0. -1.
       -4    1    3    3    0  502  0.25828288770E+03 -0.56021900976E+03 -0.27510543189E+03  0.67545540233E+03  0.12699999809E+01 0.  1.
</event>
<event>
 5   0  0.1906857E-05  0.1783404E+04  0.7818609E-02  0.8715175E-01
        1   -1    0    0  501    0  0.00000000000E+00  0.00000000000E+00  0.89719242050E+03  0.89719242051E+03  0.50400001928E-02 0.  1.
       -1   -1    0    0    0  501  0.00000000000E+00  0.00000000000E+00 -0.88624488668E+03  0.88624488670E+03  0.50400001928E-02 0. -1.
    10030    2    1    2    0    0  0.00000000000E+00  0.00000000000E+00  0.10947533817E+02  0.17834373072E+04  0.17834037065E+04 0.  0.
        4    1    3    3  502    0  0.27743538311E+03 -0.57388715683E+03  0.62903480870E+03  0.89554634946E+03  0.12699999809E+01 0. -1.
       -4    1    3    3    0  502 -0.27743538311E+03  0.57388715683E+03 -0.61808727489E+03  0.88789095775E+03  0.12699999809E+01 0.  1.
</event>
<event>
 5   0  0.3983176E-05  0.1798769E+04  0.7818609E-02  0.8706955E-01
       -2   -1    0    0    0  501  0.00000000000E+00  0.00000000000E+00  0.11953078096E+04  0.11953078096E+04  0.25500000920E-02 0.  1.
        2   -1    0    0  501    0  0.00000000000E+00  0.00000000000E+00 -0.67672295025E+03  0.67672295025E+03  0.25500000920E-02 0. -1.
    10030    2    1    2    0    0  0.00000000000E+00  0.00000000000E+00  0.51858485931E+03  0.18720307598E+04  0.17987687204E+04 0.  0.
        3    1    3    3  502    0 -0.47518867840E+03 -0.56982493363E+03 -0.26972915074E+03  0.78946726343E+03  0.10100000352E+00 0. -1.
       -3    1    3    3    0  502  0.47518867840E+03  0.56982493363E+03  0.78831401005E+03  0.10825634964E+04  0.10100000352E+00 0.  1.
</event>
<event>
 5   0  0.3909859E-05  0.1802353E+04  0.7818609E-02  0.8705049E-01
        2   -1    0    0  501    0  0.00000000000E+00  0.00000000000E+00  0.63064155664E+03  0.63064155665E+03  0.25500000920E-02 0. -1.
       -2   -1    0    0    0  501  0.00000000000E+00  0.00000000000E+00 -0.12877661263E+04  0.12877661263E+04  0.25500000920E-02 0.  1.
    10030    2    1    2    0    0  0.00000000000E+00  0.00000000000E+00 -0.65712456969E+03  0.19184076830E+04  0.18023527230E+04 0.  0.
        4    1    3    3  502    0  0.13695108261E+03 -0.65796548459E+03  0.31046505942E+03  0.74031367943E+03  0.12699999809E+01 0. -1.
       -4    1    3    3    0  502 -0.13695108261E+03  0.65796548459E+03 -0.96758962911E+03  0.11780940035E+04  0.12699999809E+01 0.  1.
</event>
<event>
 5   0  0.3909859E-05  0.1799630E+04  0.7818609E-02  0.8706496E-01
        2   -1    0    0  501    0  0.00000000000E+00  0.00000000000E+00  0.93832249059E+03  0.93832249059E+03  0.25500000920E-02 0. -1.
       -2   -1    0    0    0  501  0.00000000000E+00  0.00000000000E+00 -0.86288787217E+03  0.86288787218E+03  0.25500000920E-02 0.  1.
    10030    2    1    2    0    0  0.00000000000E+00  0.00000000000E+00  0.75434618416E+02  0.18012103628E+04  0.17996300701E+04 0.  0.
        4    1    3    3  502    0 -0.21155195818E+02  0.72630597065E+03  0.56893527328E+03  0.92285256861E+03  0.12699999809E+01 0. -1.
       -4    1    3    3    0  502  0.21155195818E+02 -0.72630597065E+03 -0.49350065486E+03  0.87835779416E+03  0.12699999809E+01 0.  1.
</event>
<event>
 5   0  0.2054876E-05  0.1802411E+04  0.7818609E-02  0.8705018E-01
       -1   -1    0    0    0  501  0.00000000000E+00  0.00000000000E+00  0.11198026997E+04  0.11198026997E+04  0.50400001928E-02 0. -1.
        1   -1    0    0  501    0  0.00000000000E+00  0.00000000000E+00 -0.72528114835E+03  0.72528114837E+03  0.50400001928E-02 0.  1.
    10030    2    1    2    0    0  0.00000000000E+00  0.00000000000E+00  0.39452155132E+03  0.18450838481E+04  0.18024114824E+04 0.  0.
        5    1    3    3  502    0  0.88779375716E+03 -0.15165815609E+03  0.22917164479E+03  0.92936520504E+03  0.46999998093E+01 0.  1.
       -5    1    3    3    0  502 -0.88779375716E+03  0.15165815609E+03  0.16534990653E+03  0.91571864301E+03  0.46999998093E+01 0. -1.
</event>
<event>
 5   0  0.1960300E-05  0.1807792E+04  0.7818609E-02  0.8702167E-01
       -1   -1    0    0    0  501  0.00000000000E+00  0.00000000000E+00  0.11059203597E+04  0.11059203598E+04  0.50400001928E-02 0.  1.
        1   -1    0    0  501    0  0.00000000000E+00  0.00000000000E+00 -0.73877611530E+03  0.73877611532E+03  0.50400001928E-02 0. -1.
    10030    2    1    2    0    0  0.00000000000E+00  0.00000000000E+00  0.36714424444E+03  0.18446964751E+04  0.18077915225E+04 0.  0.
        3    1    3    3  502    0 -0.81611410460E+03 -0.22668734434E+03  0.50560648466E+03  0.98644174250E+03  0.10100000352E+00 0.  1.
       -3    1    3    3    0  502  0.81611410460E+03  0.22668734434E+03 -0.13846224022E+03  0.85825473257E+03  0.10100000352E+00 0. -1.
</event>
<event>
 5   0  0.3909859E-05  0.1800757E+04  0.7818609E-02  0.8705897E-01
        2   -1    0    0  501    0  0.00000000000E+00  0.00000000000E+00  0.71323885697E+03  0.71323885697E+03  0.25500000920E-02 0. -1.
       -2   -1    0    0    0  501  0.00000000000E+00  0.00000000000E+00 -0.11366199821E+04  0.11366199821E+04  0.25500000920E-02 0.  1.
    10030    2    1    2    0    0  0.00000000000E+00  0.00000000000E+00 -0.42338112511E+03  0.18498588390E+04  0.18007571039E+04 0.  0.
        4    1    3    3  502    0 -0.61114747518E+02  0.34543344089E+03 -0.10635303232E+04  0.11198917965E+04  0.12699999809E+01 0.  1.
       -4    1    3    3    0  502  0.61114747518E+02 -0.34543344089E+03  0.64014919814E+03  0.72996704257E+03  0.12699999809E+01 0. -1.
</event>
<event>
 5   0  0.3993393E-05  0.1803738E+04  0.7818609E-02  0.8704314E-01
        2   -1    0    0  501    0  0.00000000000E+00  0.00000000000E+00  0.16467573833E+04  0.16467573833E+04  0.25500000920E-02 0. -1.
       -2   -1    0    0    0  501  0.00000000000E+00  0.00000000000E+00 -0.49392089025E+03  0.49392089026E+03  0.25500000920E-02 0.  1.
    10030    2    1    2    0    0  0.00000000000E+00  0.00000000000E+00  0.11528364930E+04  0.21406782736E+04  0.18037381992E+04 0.  0.
        5    1    3    3  502    0 -0.55145327588E+03  0.51237772463E+03  0.11659061726E+04  0.13878007572E+04  0.46999998093E+01 0. -1.
       -5    1    3    3    0  502  0.55145327588E+03 -0.51237772463E+03 -0.13069679590E+02  0.75287751640E+03  0.46999998093E+01 0.  1.
</event>
<event>
 5   0  0.2054876E-05  0.1802224E+04  0.7818609E-02  0.8705118E-01
        1   -1    0    0  501    0  0.00000000000E+00  0.00000000000E+00  0.72271127478E+03  0.72271127480E+03  0.50400001928E-02 0. -1.
       -1   -1    0    0    0  501  0.00000000000E+00  0.00000000000E+00 -0.11235507290E+04  0.11235507290E+04  0.50400001928E-02 0.  1.
    10030    2    1    2    0    0  0.00000000000E+00  0.00000000000E+00 -0.40083945421E+03  0.18462620038E+04  0.18022239369E+04 0.  0.
        5    1    3    3  502    0 -0.81916446481E+03 -0.37509769883E+03 -0.18415778435E+03  0.91960039343E+03  0.46999998093E+01 0.  1.
       -5    1    3    3    0  502  0.81916446481E+03  0.37509769883E+03 -0.21668166986E+03  0.92666161036E+03  0.46999998093E+01 0. -1.
</event>
<event>
 5   0  0.1960300E-05  0.1797666E+04  0.7818609E-02  0.8707541E-01
        1   -1    0    0  501    0  0.00000000000E+00  0.00000000000E+00  0.21199839041E+04  0.21199839041E+04  0.50400001928E-02 0. -1.
       -1   -1    0    0    0  501  0.00000000000E+00  0.00000000000E+00 -0.38108836383E+03  0.38108836386E+03  0.50400001928E-02 0.  1.
    10030    2    1    2    0    0  0.00000000000E+00  0.00000000000E+00  0.17388955403E+04  0.25010722680E+04  0.17976664845E+04 0.  0.
        3    1    3    3  502    0 -0.26150453210E+03  0.52151630272E+03  0.18207647697E+04  0.19119488045E+04  0.10100000352E+00 0. -1.
       -3    1    3    3    0  502  0.26150453210E+03 -0.52151630272E+03 -0.81869229387E+02  0.58912346349E+03  0.10100000352E+00 0.  1.
</event>
<event>
 5   0  0.4015729E-05  0.1792107E+04  0.7818609E-02  0.8710508E-01
       -2   -1    0    0    0  501  0.00000000000E+00  0.00000000000E+00  0.63877487588E+03  0.63877487588E+03  0.25500000920E-02 0. -1.
        2   -1    0    0  501    0  0.00000000000E+00  0.00000000000E+00 -0.12569562294E+04  0.12569562294E+04  0.25500000920E-02 0.  1.
    10030    2    1    2    0    0  0.00000000000E+00  0.00000000000E+00 -0.61818135349E+03  0.18957311053E+04  0.17921072060E+04 0.  0.
        2    1    3    3  502    0  0.18216444445E+03  0.26751581581E+03  0.57478525585E+03  0.65964133200E+03  0.25500000920E-02 0. -1.
       -2    1    3    3    0  502 -0.18216444445E+03 -0.26751581581E+03 -0.11929666093E+04  0.12360897733E+04  0.25500000920E-02 0.  1.
</event>
<event>
 5   0  0.3993393E-05  0.1801546E+04  0.7818609E-02  0.8705478E-01
       -2   -1    0    0    0  501  0.00000000000E+00  0.00000000000E+00  0.85902928412E+03  0.85902928412E+03  0.25500000920E-02 0. -1.
        2   -1    0    0  501    0  0.00000000000E+00  0.00000000000E+00 -0.94454526927E+03  0.94454526927E+03  0.25500000920E-02 0.  1.
    10030    2    1    2    0    0  0.00000000000E+00  0.00000000000E+00 -0.85515985145E+02  0.18035745534E+04  0.18015460543E+04 0.  0.
        5    1    3    3  502    0  0.40698976853E+02 -0.87897814105E+03 -0.23561699956E+03  0.91093163280E+03  0.46999998093E+01 0.  1.
       -5    1    3    3    0  502 -0.40698976853E+02  0.87897814105E+03  0.15010101441E+03  0.89264292059E+03  0.46999998093E+01 0. -1.
</event>
<event>
 5   0  0.3984648E-05  0.1803960E+04  0.7818609E-02  0.8704196E-01
        2   -1    0    0  501    0  0.00000000000E+00  0.00000000000E+00  0.12639008375E+04  0.12639008375E+04  0.25500000920E-02 0.  1.
       -2   -1    0    0    0  501  0.00000000000E+00  0.00000000000E+00 -0.64369610596E+03  0.64369610597E+03  0.25500000920E-02 0. -1.
    10030    2    1    2    0    0  0.00000000000E+00  0.00000000000E+00  0.62020473153E+03  0.19075969435E+04  0.18039601408E+04 0.  0.
        1    1    3    3  502    0  0.56774493505E+03  0.63971590677E+03  0.72998753649E+01  0.85535024455E+03  0.50400001928E-02 0. -1.
       -1    1    3    3    0  502 -0.56774493505E+03 -0.63971590677E+03  0.61290485617E+03  0.10522466989E+04  0.50400001928E-02 0.  1.
</event>
<event>
 5   0  0.3909859E-05  0.1799757E+04  0.7818609E-02  0.8706429E-01
       -2   -1    0    0    0  501  0.00000000000E+00  0.00000000000E+00  0.66961538032E+03  0.66961538033E+03  0.25500000920E-02 0.  1.
        2   -1    0    0  501    0  0.00000000000E+00  0.00000000000E+00 -0.12093230450E+04  0.12093230450E+04  0.25500000920E-02 0. -1.
    10030    2    1    2    0    0  0.00000000000E+00  0.00000000000E+00 -0.53970766468E+03  0.18789384253E+04  0.17997569955E+04 0.  0.
        4    1    3    3  502    0  0.55952587035E+03  0.45238712818E+03 -0.83405246597E+03  0.11015300460E+04  0.12699999809E+01 0.  1.
       -4    1    3    3    0  502 -0.55952587035E+03 -0.45238712818E+03  0.29434480129E+03  0.77740837935E+03  0.12699999809E+01 0. -1.
</event>
<event>
 5   0  0.3993393E-05  0.1799630E+04  0.7818609E-02  0.8706496E-01
        2   -1    0    0  501    0  0.00000000000E+00  0.00000000000E+00  0.92446006401E+03  0.92446006401E+03  0.25500000920E-02 0.  1.
       -2   -1    0    0    0  501  0.00000000000E+00  0.00000000000E+00 -0.87582730911E+03  0.87582730911E+03  0.25500000920E-02 0. -1.
    10030    2    1    2    0    0  0.00000000000E+00  0.00000000000E+00  0.48632754895E+02  0.18002873731E+04  0.17996303734E+04 0.  0.
        5    1    3    3  502    0  0.35347789052E+03  0.61032144598E+03  0.58327468781E+03  0.91524332171E+03  0.46999998093E+01 0.  1.
       -5    1    3    3    0  502 -0.35347789052E+03 -0.61032144598E+03 -0.53464193291E+03  0.88504405141E+03  0.46999998093E+01 0. -1.
</event>
<event>
 5   0  0.3983176E-05  0.1792588E+04  0.7818609E-02  0.8710251E-01
        2   -1    0    0  501    0  0.00000000000E+00  0.00000000000E+00  0.13612106563E+04  0.13612106563E+04  0.25500000920E-02 0. -1.
       -2   -1    0    0    0  501  0.00000000000E+00  0.00000000000E+00 -0.59016790366E+03  0.59016790367E+03  0.25500000920E-02 0.  1.
    10030    2    1    2    0    0  0.00000000000E+00  0.00000000000E+00  0.77104275262E+03  0.19513785599E+04  0.17925878940E+04 0.  0.
        3    1    3    3  502    0  0.78056382633E+03 -0.18637382471E+03 -0.48995618760E+02  0.80399979500E+03  0.10100000352E+00 0.  1.
       -3    1    3    3    0  502 -0.78056382633E+03  0.18637382471E+03  0.82003837138E+03  0.11473787649E+04  0.10100000352E+00 0. -1.
</event>
<event>
 5   0  0.1906857E-05  0.1799570E+04  0.7818609E-02  0.8706528E-01
        1   -1    0    0  501    0  0.00000000000E+00  0.00000000000E+00  0.89332485249E+03  0.89332485251E+03  0.50400001928E-02 0.  1.
       -1   -1    0    0    0  501  0.00000000000E+00  0.00000000000E+00 -0.90629217461E+03  0.90629217463E+03  0.50400001928E-02 0. -1.
    10030    2    1    2    0    0  0.00000000000E+00  0.00000000000E+00 -0.12967322120E+02  0.17996170271E+04  0.17995703079E+04 0.  0.
        4    1    3    3  502    0  0.65024719148E+03 -0.28639454046E+02 -0.62776469477E+03  0.90428521676E+03  0.12699999809E+01 0. -1.
       -4    1    3    3    0  502 -0.65024719148E+03  0.28639454046E+02  0.61479737265E+03  0.89533181037E+03  0.12699999809E+01 0.  1.
</event>
<event>
 5   0  0.3993393E-05  0.1804502E+04  0.7818609E-02  0.8703909E-01
        2   -1    0    0  501    0  0.00000000000E+00  0.00000000000E+00  0.19273843293E+04  0.19273843293E+04  0.25500000920E-02 0. -1.
       -2   -1    0    0    0  501  0.00000000000E+00  0.00000000000E+00 -0.42236331218E+03  0.42236331219E+03  0.25500000920E-02 0.  1.
    10030    2    1    2    0    0  0.00000000000E+00  0.00000000000E+00  0.15050210172E+04  0.23497476415E+04  0.18045015148E+04 0.  0.
        5    1    3    3  502    0 -0.88421737098E+02  0.87534549232E+03  0.10128973682E+04  0.13416524524E+04  0.46999998093E+01 0. -1.
       -5    1    3    3    0  502  0.88421737098E+02 -0.87534549232E+03  0.49212364901E+03  0.10080951892E+04  0.46999998093E+01 0.  1.
</event>
<event>
 5   0  0.2054876E-05  0.1800853E+04  0.7818609E-02  0.8705846E-01
       -1   -1    0    0    0  501  0.00000000000E+00  0.00000000000E+00  0.69090884954E+03  0.69090884955E+03  0.50400001928E-02 0.  1.
        1   -1    0    0  501    0  0.00000000000E+00  0.00000000000E+00 -0.11734802717E+04  0.11734802717E+04  0.50400001928E-02 0. -1.
    10030    2    1    2    0    0  0.00000000000E+00  0.00000000000E+00 -0.48257142212E+03  0.18643891212E+04  0.18008530251E+04 0.  0.
        5    1    3    3  502    0 -0.38617982636E+03  0.54966061851E+03 -0.86200918607E+03  0.10928602750E+04  0.46999998093E+01 0. -1.
       -5    1    3    3    0  502  0.38617982636E+03 -0.54966061851E+03  0.37943776395E+03  0.77152884621E+03  0.46999998093E+01 0.  1.
</event>
<event>
 5   0  0.2054876E-05  0.1803585E+04  0.7818609E-02  0.8704396E-01
        1   -1    0    0  501    0  0.00000000000E+00  0.00000000000E+00  0.14284603437E+04  0.14284603437E+04  0.50400001928E-02 0.  1.
       -1   -1    0    0    0  501  0.00000000000E+00  0.00000000000E+00 -0.56930483196E+03  0.56930483198E+03  0.50400001928E-02 0. -1.
    10030    2    1    2    0    0  0.00000000000E+00  0.00000000000E+00  0.85915551172E+03  0.19977651757E+04  0.18035846262E+04 0.  0.
        5    1    3    3  502    0 -0.65256329256E+02 -0.55245780464E+03  0.12157375306E+04  0.13369771306E+04  0.46999998093E+01 0.  1.
       -5    1    3    3    0  502  0.65256329256E+02  0.55245780464E+03 -0.35658201884E+03  0.66078804512E+03  0.46999998093E+01 0. -1.
</event>
<event>
 5   0  0.2054876E-05  0.1791575E+04  0.7818609E-02  0.8710793E-01
       -1   -1    0    0    0  501  0.00000000000E+00  0.00000000000E+00  0.11195667536E+04  0.11195667536E+04  0.50400001928E-02 0.  1.
        1   -1    0    0  501    0  0.00000000000E+00  0.00000000000E+00 -0.71673689764E+03  0.71673689766E+03  0.50400001928E-02 0. -1.
    10030    2    1    2    0    0  0.00000000000E+00  0.00000000000E+00  0.40282985592E+03  0.18363036512E+04  0.17915745049E+04 0.  0.
        5    1    3    3  502    0  0.67351900485E+03 -0.59057908993E+03  0.20029197966E+03  0.91790548450E+03  0.46999998093E+01 0.  1.
       -5    1    3    3    0  502 -0.67351900485E+03  0.59057908993E+03  0.20253787626E+03  0.91839816674E+03  0.46999998093E+01 0. -1.
</event>
<event>
 5   0  0.2038338E-05  0.1798559E+04  0.7818609E-02  0.8707066E-01
       -1   -1    0    0    0  501  0.00000000000E+00  0.00000000000E+00  0.58119928164E+03  0.58119928166E+03  0.50400001928E-02 0. -1.
        1   -1    0    0  501    0  0.00000000000E+00  0.00000000000E+00 -0.13914388872E+04  0.13914388872E+04  0.50400001928E-02 0.  1.
    10030    2    1    2    0    0  0.00000000000E+00  0.00000000000E+00 -0.81023960551E+03  0.19726381688E+04  0.17985586248E+04 0.  0.
        1    1    3    3  502    0  0.57520484481E+03 -0.85991150475E+02 -0.11573984497E+04  0.12953093310E+04  0.50400001928E-02 0.  1.
       -1    1    3    3    0  502 -0.57520484481E+03  0.85991150475E+02  0.34715884420E+03  0.67732883785E+03  0.50400001928E-02 0. -1.
</event>
<event>
 5   0  0.3983176E-05  0.1798412E+04  0.7818609E-02  0.8707145E-01
        2   -1    0    0  501    0  0.00000000000E+00  0.00000000000E+00  0.12146967419E+04  0.12146967419E+04  0.25500000920E-02 0. -1.
       -2   -1    0    0    0  501  0.00000000000E+00  0.00000000000E+00 -0.66565670621E+03  0.66565670622E+03  0.25500000920E-02 0.  1.
    10030    2    1    2    0    0  0.00000000000E+00  0.00000000000E+00  0.54904003568E+03  0.18803534481E+04  0.17984115572E+04 0.  0.
        3    1    3    3  502    0  0.44656148949E+03  0.35737516384E+03  0.99999104124E+03  0.11520053231E+04  0.10100000352E+00 0. -1.
       -3    1    3    3    0  502 -0.44656148949E+03 -0.35737516384E+03 -0.45095100556E+03  0.72834812504E+03  0.10100000352E+00 0.  1.
</event>
<event>
 5   0  0.1446750E-05  0.1798599E+04  0.7818609E-02  0.8707045E-01
        4   -1    0    0  501    0  0.00000000000E+00  0.00000000000E+00  0.99634352255E+03  0.99634433196E+03  0.12699999809E+01 0.  1.
       -4   -1    0    0    0  501  0.00000000000E+00  0.00000000000E+00 -0.81170621379E+03  0.81170720732E+03  0.12699999809E+01 0. -1.
    10030    2    1    2    0    0  0.00000000000E+00  0.00000000000E+00  0.18463730876E+03  0.18080515393E+04  0.17985992975E+04 0.  0.
        4    1    3    3  502    0 -0.32718321425E+02 -0.96603191231E+02 -0.80587323540E+03  0.81230286812E+03  0.12699999809E+01 0. -1.
       -4    1    3    3    0  502  0.32718321425E+02  0.96603191231E+02  0.99051054416E+03  0.99574867115E+03  0.12699999809E+01 0.  1.
</event>
<event>
 5   0  0.1906857E-05  0.1805976E+04  0.7818609E-02  0.8703128E-01
       -1   -1    0    0    0  501  0.00000000000E+00  0.00000000000E+00  0.70122791102E+03  0.70122791104E+03  0.50400001928E-02 0. -1.
        1   -1    0    0  501    0  0.00000000000E+00  0.00000000000E+00 -0.11627993868E+04  0.11627993868E+04  0.50400001928E-02 0.  1.
    10030    2    1    2    0    0  0.00000000000E+00  0.00000000000E+00 -0.46157147580E+03  0.18640272979E+04  0.18059760629E+04 0.  0.
        4    1    3    3  502    0 -0.54318410930E+03 -0.13656042659E+03 -0.96185269431E+03  0.11130408551E+04  0.12699999809E+01 0.  1.
       -4    1    3    3    0  502  0.54318410930E+03  0.13656042659E+03  0.50028121851E+03  0.75098644275E+03  0.12699999809E+01 0. -1.
</event>
<event>
 5   0  0.4015729E-05  0.1795986E+04  0.7818609E-02  0.8708437E-01
       -2   -1    0    0    0  501  0.00000000000E+00  0.00000000000E+00  0.82021289388E+03  0.82021289388E+03  0.25500000920E-02 0. -1.
        2   -1    0    0  501    0  0.00000000000E+00  0.00000000000E+00 -0.98314899844E+03  0.98314899845E+03  0.25500000920E-02 0.  1.
    10030    2    1    2    0    0  0.00000000000E+00  0.00000000000E+00 -0.16293610457E+03  0.18033618923E+04  0.17959860636E+04 0.  0.
        2    1    3    3  502    0  0.81348443847E+03  0.34442107540E+03 -0.24340242775E+03  0.91631192869E+03  0.25500000920E-02 0.  1.
       -2    1    3    3    0  502 -0.81348443847E+03 -0.34442107540E+03  0.80466323183E+02  0.88704996364E+03  0.25500000920E-02 0. -1.
</event>
<event>
 5   0  0.4015729E-05  0.1803800E+04  0.7818609E-02  0.8704282E-01
       -2   -1    0    0    0  501  0.00000000000E+00  0.00000000000E+00  0.95701314970E+03  0.95701314970E+03  0.25500000920E-02 0.  1.
        2   -1    0    0  501    0  0.00000000000E+00  0.00000000000E+00 -0.84996028835E+03  0.84996028835E+03  0.25500000920E-02 0. -1.
    10030    2    1    2    0    0  0.00000000000E+00  0.00000000000E+00  0.10705286135E+03  0.18069734381E+04  0.18037995151E+04 0.  0.
        2    1    3    3  502    0  0.18048244829E+03 -0.24416240299E+03 -0.79722285378E+03  0.85308468031E+03  0.25500000920E-02 0. -1.
       -2    1    3    3    0  502 -0.18048244829E+03  0.24416240299E+03  0.90427571513E+03  0.95388875775E+03  0.25500000920E-02 0.  1.
</event>
<event>
 5   0  0.2038338E-05  0.1800466E+04  0.7818609E-02  0.8706052E-01
       -1   -1    0    0    0  501  0.00000000000E+00  0.00000000000E+00  0.10287065690E+04  0.10287065690E+04  0.50400001928E-02 0.  1.
        1   -1    0    0  501    0  0.00000000000E+00  0.00000000000E+00 -0.78780449505E+03  0.78780449506E+03  0.50400001928E-02 0. -1.
    10030    2    1    2    0    0  0.00000000000E+00  0.00000000000E+00  0.24090207393E+03  0.18165110641E+04  0.18004662276E+04 0.  0.
        1    1    3    3  502    0 -0.24095658874E+03 -0.83717006099E+03 -0.10852046531E+03  0.87788978813E+03  0.50400001928E-02 0. -1.
       -1    1    3    3    0  502  0.24095658874E+03  0.83717006099E+03  0.34942253925E+03  0.93862127593E+03  0.50400001928E-02 0.  1.
</event>
<event>
 5   0  0.3993393E-05  0.1805524E+04  0.7818609E-02  0.8703367E-01
       -2   -1    0    0    0  501  0.00000000000E+00  0.00000000000E+00  0.43570011400E+03  0.43570011401E+03  0.25500000920E-02 0. -1.
        2   -1    0    0  501    0  0.00000000000E+00  0.00000000000E+00 -0.18705045646E+04  0.18705045646E+04  0.25500000920E-02 0.  1.
    10030    2    1    2    0    0  0.00000000000E+00  0.00000000000E+00 -0.14348044506E+04  0.23062046786E+04  0.18055238044E+04 0.  0.
        5    1    3    3  502    0 -0.42770723408E+03  0.83298085595E+02  0.29246467686E+03  0.52481399215E+03  0.46999998093E+01 0. -1.
       -5    1    3    3    0  502  0.42770723408E+03 -0.83298085595E+02 -0.17272691275E+04  0.17813906865E+04  0.46999998093E+01 0.  1.
</event>
<event>
 5   0  0.1960300E-05  0.1801217E+04  0.7818609E-02  0.8705652E-01
        1   -1    0    0  501    0  0.00000000000E+00  0.00000000000E+00  0.17991989202E+04  0.17991989203E+04  0.50400001928E-02 0.  1.
       -1   -1    0    0    0  501  0.00000000000E+00  0.00000000000E+00 -0.45080939807E+03  0.45080939809E+03  0.50400001928E-02 0. -1.
    10030    2    1    2    0    0  0.00000000000E+00  0.00000000000E+00  0.13483895222E+04  0.22500083183E+04  0.18012171244E+04 0.  0.
        3    1    3    3  502    0 -0.73267020764E+03  0.52293176823E+03  0.71023696997E+03  0.11466036068E+04  0.10100000352E+00 0.  1.
       -3    1    3    3    0  502  0.73267020764E+03 -0.52293176823E+03  0.63815255221E+03  0.11034047116E+04  0.10100000352E+00 0. -1.
</event>
<event>
 5   0  0.3909859E-05  0.1804394E+04  0.7818609E-02  0.8703966E-01
        2   -1    0    0  501    0  0.00000000000E+00  0.00000000000E+00  0.16572988323E+04  0.16572988323E+04  0.25500000920E-02 0.  1.
       -2   -1    0    0    0  501  0.00000000000E+00  0.00000000000E+00 -0.49113635708E+03  0.49113635709E+03  0.25500000920E-02 0. -1.
    10030    2    1    2    0    0  0.00000000000E+00  0.00000000000E+00  0.11661624753E+04  0.21484351894E+04  0.18043943151E+04 0.  0.
        4    1    3    3  502    0  0.64121554166E+03 -0.43380361724E+02 -0.17082798590E+03  0.66499852655E+03  0.12699999809E+01 0. -1.
       -4    1    3    3    0  502 -0.64121554166E+03  0.43380361724E+02  0.13369904611E+04  0.14834366629E+04  0.12699999809E+01 0.  1.
</event>
<event>
 5   0  0.1446750E-05  0.1799792E+04  0.7818609E-02  0.8706410E-01
        3   -1    0    0  501    0  0.00000000000E+00  0.00000000000E+00  0.63905920434E+03  0.63905921232E+03  0.10100000352E+00 0. -1.
       -3   -1    0    0    0  501  0.00000000000E+00  0.00000000000E+00 -0.12671947474E+04  0.12671947514E+04  0.10100000352E+00 0.  1.
    10030    2    1    2    0    0  0.00000000000E+00  0.00000000000E+00 -0.62813554308E+03  0.19062539638E+04  0.17997916307E+04 0.  0.
        5    1    3    3  502    0 -0.29770917159E+03 -0.72013157436E+03  0.16263344485E+03  0.79604771378E+03  0.46999998093E+01 0.  1.
       -5    1    3    3    0  502  0.29770917159E+03  0.72013157436E+03 -0.79076898792E+03  0.11102062500E+04  0.46999998093E+01 0. -1.
</event>
<event>
 5   0  0.1446750E-05  0.1798172E+04  0.7818609E-02  0.8707272E-01
        4   -1    0    0  501    0  0.00000000000E+00  0.00000000000E+00  0.71239325638E+03  0.71239438841E+03  0.12699999809E+01 0.  1.
       -4   -1    0    0    0  501  0.00000000000E+00  0.00000000000E+00 -0.11347014638E+04  0.11347021745E+04  0.12699999809E+01 0. -1.
    10030    2    1    2    0    0  0.00000000000E+00  0.00000000000E+00 -0.42230820742E+03  0.18470965629E+04  0.17981717078E+04 0.  0.
        4    1    3    3  502    0  0.18067340117E+03 -0.11548513530E+03 -0.11080509500E+04  0.11286089735E+04  0.12699999809E+01 0. -1.
       -4    1    3    3    0  502 -0.18067340117E+03  0.11548513530E+03  0.68574274254E+03  0.71848758946E+03  0.12699999809E+01 0.  1.
</event>
<event>
 5   0  0.2038338E-05  0.1803049E+04  0.7818609E-02  0.8704680E-01
        1   -1    0    0  501    0  0.00000000000E+00  0.00000000000E+00  0.15656118497E+04  0.15656118497E+04  0.50400001928E-02 0. -1.
       -1   -1    0    0    0  501  0.00000000000E+00  0.00000000000E+00 -0.51912366807E+03  0.51912366809E+03  0.50400001928E-02 0.  1.
    10030    2    1    2    0    0  0.00000000000E+00  0.00000000000E+00  0.10464881816E+04  0.20847355178E+04  0.18030487139E+04 0.  0.
        1    1    3    3  502    0  0.53809292145E+03  0.61432215520E+03  0.96475135208E+03  0.12639940165E+04  0.50400001928E-02 0. -1.
       -1    1    3    3    0  502 -0.53809292145E+03 -0.61432215520E+03  0.81736829507E+02  0.82074150121E+03  0.50400001928E-02 0.  1.
</event>
<event>
 5   0  0.2038338E-05  0.1798307E+04  0.7818609E-02  0.8707200E-01
        1   -1    0    0  501    0  0.00000000000E+00  0.00000000000E+00  0.12276837506E+04  0.12276837506E+04  0.50400001928E-02 0.  1.
       -1   -1    0    0    0  501  0.00000000000E+00  0.00000000000E+00 -0.65853828258E+03  0.65853828259E+03  0.50400001928E-02 0. -1.
    10030    2    1    2    0    0  0.00000000000E+00  0.00000000000E+00  0.56914546805E+03  0.18862220332E+04  0.17983067021E+04 0.  0.
        1    1    3    3  502    0 -0.27639939897E+03  0.57652548735E+03  0.94769758085E+03  0.11432011941E+04  0.50400001928E-02 0.  1.
       -1    1    3    3    0  502  0.27639939897E+03 -0.57652548735E+03 -0.37855211280E+03  0.74302083917E+03  0.50400001928E-02 0. -1.
</event>
<event>
 5   0  0.1960300E-05  0.1814554E+04  0.7818609E-02  0.8698598E-01
        1   -1    0    0  501    0  0.00000000000E+00  0.00000000000E+00  0.96197209648E+03  0.96197209650E+03  0.50400001928E-02 0.  1.
       -1   -1    0    0    0  501  0.00000000000E+00  0.00000000000E+00 -0.85569136259E+03  0.85569136261E+03  0.50400001928E-02 0. -1.
    10030    2    1    2    0    0  0.00000000000E+00  0.00000000000E+00  0.10628073389E+03  0.18176634591E+04  0.18145536245E+04 0.  0.
        3    1    3    3  502    0 -0.78564536147E+02  0.55330748264E+03 -0.66280802287E+03  0.86696945856E+03  0.10100000352E+00 0. -1.
       -3    1    3    3    0  502  0.78564536147E+02 -0.55330748264E+03  0.76908875677E+03  0.95069400055E+03  0.10100000352E+00 0.  1.
</event>
<event>
 5   0  0.3909859E-05  0.1800356E+04  0.7818609E-02  0.8706110E-01
        2   -1    0    0  501    0  0.00000000000E+00  0.00000000000E+00  0.20935072364E+04  0.20935072364E+04  0.25500000920E-02 0. -1.
       -2   -1    0    0    0  501  0.00000000000E+00  0.00000000000E+00 -0.38706377734E+03  0.38706377735E+03  0.25500000920E-02 0.  1.
    10030    2    1    2    0    0  0.00000000000E+00  0.00000000000E+00  0.17064434591E+04  0.24805710138E+04  0.18003564301E+04 0.  0.
        4    1    3    3  502    0 -0.45603821465E+03  0.31065471816E+03  0.18331642734E+04  0.19144111558E+04  0.12699999809E+01 0. -1.
       -4    1    3    3    0  502  0.45603821465E+03 -0.31065471816E+03 -0.12672081433E+03  0.56615985801E+03  0.12699999809E+01 0.  1.
</event>
<event>
 5   0  0.3984648E-05  0.1802051E+04  0.7818609E-02  0.8705210E-01
       -2   -1    0    0    0  501  0.00000000000E+00  0.00000000000E+00  0.58520967544E+03  0.58520967545E+03  0.25500000920E-02 0.  1.
        2   -1    0    0  501    0  0.00000000000E+00  0.00000000000E+00 -0.13872748077E+04  0.13872748077E+04  0.25500000920E-02 0. -1.
    10030    2    1    2    0    0  0.00000000000E+00  0.00000000000E+00 -0.80206513223E+03  0.19724844831E+04  0.18020506541E+04 0.  0.
        1    1    3    3  502    0 -0.11705431362E+03  0.36245914511E+03 -0.12948196444E+04  0.13496800568E+04  0.50400001928E-02 0. -1.
       -1    1    3    3    0  502  0.11705431362E+03 -0.36245914511E+03  0.49275451214E+03  0.62280442634E+03  0.50400001928E-02 0.  1.
</event>
<event>
 5   0  0.1446750E-05  0.1798294E+04  0.7818609E-02  0.8707207E-01
        4   -1    0    0  501    0  0.00000000000E+00  0.00000000000E+00  0.96723848712E+03  0.96723932088E+03  0.12699999809E+01 0. -1.
       -4   -1    0    0    0  501  0.00000000000E+00  0.00000000000E+00 -0.83584690336E+03  0.83584786819E+03  0.12699999809E+01 0.  1.
    10030    2    1    2    0    0  0.00000000000E+00  0.00000000000E+00  0.13139158376E+03  0.18030871891E+04  0.17982935420E+04 0.  0.
        4    1    3    3  502    0  0.15713547151E+03 -0.64271300050E+03 -0.54477178228E+03  0.85705861239E+03  0.12699999809E+01 0.  1.
       -4    1    3    3    0  502 -0.15713547151E+03  0.64271300050E+03  0.67616336604E+03  0.94602857668E+03  0.12699999809E+01 0. -1.
</event>
<event>
 5   0  0.2001811E-05  0.1801489E+04  0.7818609E-02  0.8705508E-01
        1   -1    0    0  501    0  0.00000000000E+00  0.00000000000E+00  0.13935214395E+04  0.13935214395E+04  0.50400001928E-02 0.  1.
       -1   -1    0    0    0  501  0.00000000000E+00  0.00000000000E+00 -0.58222318042E+03  0.58222318044E+03  0.50400001928E-02 0. -1.
    10030    2    1    2    0    0  0.00000000000E+00  0.00000000000E+00  0.81129825911E+03  0.19757446200E+04  0.18014888116E+04 0.  0.
        2    1    3    3  502    0  0.30600109078E+03 -0.54460203465E+03  0.11173512745E+04  0.12801179299E+04  0.25500000920E-02 0.  1.
       -2    1    3    3    0  502 -0.30600109078E+03  0.54460203465E+03 -0.30605301544E+03  0.69562669009E+03  0.25500000920E-02 0. -1.
</event>
<event>
 5   0  0.2054876E-05  0.1790317E+04  0.7818609E-02  0.8711466E-01
        1   -1    0    0  501    0  0.00000000000E+00  0.00000000000E+00  0.16292457236E+04  0.16292457236E+04  0.50400001928E-02 0.  1.
       -1   -1    0    0    0  501  0.00000000000E+00  0.00000000000E+00 -0.49182788429E+03  0.49182788432E+03  0.50400001928E-02 0. -1.
    10030    2    1    2    0    0  0.00000000000E+00  0.00000000000E+00  0.11374178393E+04  0.21210736079E+04  0.17903167064E+04 0.  0.
        5    1    3    3  502    0  0.39455807045E+03  0.56968490525E+03 -0.10260453422E+03  0.70054745925E+03  0.46999998093E+01 0. -1.
       -5    1    3    3    0  502 -0.39455807045E+03 -0.56968490525E+03  0.12400223735E+04  0.14205261487E+04  0.46999998093E+01 0.  1.
</event>
<event>
 5   0  0.3909859E-05  0.1808630E+04  0.7818609E-02  0.8701724E-01
        2   -1    0    0  501    0  0.00000000000E+00  0.00000000000E+00  0.20851818943E+04  0.20851818943E+04  0.25500000920E-02 0.  1.
       -2   -1    0    0    0  501  0.00000000000E+00  0.00000000000E+00 -0.39218908108E+03  0.39218908108E+03  0.25500000920E-02 0. -1.
    10030    2    1    2    0    0  0.00000000000E+00  0.00000000000E+00  0.16929928132E+04  0.24773709754E+04  0.18086299467E+04 0.  0.
        4    1    3    3  502    0  0.27237403384E+03  0.44867009456E+03 -0.16219360965E+03  0.54936403957E+03  0.12699999809E+01 0. -1.
       -4    1    3    3    0  502 -0.27237403384E+03 -0.44867009456E+03  0.18551864229E+04  0.19280069358E+04  0.12699999809E+01 0.  1.
</event>
<event>
 5   0  0.1960300E-05  0.1800750E+04  0.7818609E-02  0.8705901E-01
        1   -1    0    0  501    0  0.00000000000E+00  0.00000000000E+00  0.10161090759E+04  0.10161090759E+04  0.50400001928E-02 0. -1.
       -1   -1    0    0    0  501  0.00000000000E+00  0.00000000000E+00 -0.79782294885E+03  0.79782294887E+03  0.50400001928E-02 0.  1.
    10030    2    1    2    0    0  0.00000000000E+00  0.00000000000E+00  0.21828612708E+03  0.18139320248E+04  0.18007499986E+04 0.  0.
        3    1    3    3  502    0  0.77166972451E+03 -0.43347005575E+03  0.27559394539E+03  0.92699648645E+03  0.10100000352E+00 0. -1.
       -3    1    3    3    0  502 -0.77166972451E+03  0.43347005575E+03 -0.57307818308E+02  0.88693553836E+03  0.10100000352E+00 0.  1.
</event>
<event>
 5   0  0.3909859E-05  0.1800283E+04  0.7818609E-02  0.8706149E-01
       -2   -1    0    0    0  501  0.00000000000E+00  0.00000000000E+00  0.58574213630E+03  0.58574213630E+03  0.25500000920E-02 0.  1.
        2   -1    0    0  501    0  0.00000000000E+00  0.00000000000E+00 -0.13832962886E+04  0.13832962886E+04  0.25500000920E-02 0. -1.
    10030    2    1    2    0    0  0.00000000000E+00  0.00000000000E+00 -0.79755415226E+03  0.19690384249E+04  0.18002832257E+04 0.  0.
        4    1    3    3  502    0  0.59075001203E+02 -0.42638245953E+02  0.58251112525E+03  0.58705084935E+03  0.12699999809E+01 0.  1.
       -4    1    3    3    0  502 -0.59075001203E+02  0.42638245953E+02 -0.13800652775E+04  0.13819875755E+04  0.12699999809E+01 0. -1.
</event>
<event>
 5   0  0.1960300E-05  0.1796549E+04  0.7818609E-02  0.8708137E-01
       -1   -1    0    0    0  501  0.00000000000E+00  0.00000000000E+00  0.66877148600E+03  0.66877148602E+03  0.50400001928E-02 0. -1.
        1   -1    0    0  501    0  0.00000000000E+00  0.00000000000E+00 -0.12065360979E+04  0.12065360979E+04  0.50400001928E-02 0.  1.
    10030    2    1    2    0    0  0.00000000000E+00  0.00000000000E+00 -0.53776461190E+03  0.18753075839E+04  0.17965488461E+04 0.  0.
        3    1    3    3  502    0 -0.65425950385E+03 -0.47721170079E+03 -0.67465301250E+03  0.10540129047E+04  0.10100000352E+00 0.  1.
       -3    1    3    3    0  502  0.65425950385E+03  0.47721170079E+03  0.13688840060E+03  0.82129467925E+03  0.10100000352E+00 0. -1.
</event>
<event>
 5   0  0.2038338E-05  0.1807196E+04  0.7818609E-02  0.8702482E-01
        1   -1    0    0  501    0  0.00000000000E+00  0.00000000000E+00  0.61693493251E+03  0.61693493253E+03  0.50400001928E-02 0. -1.
       -1   -1    0    0    0  501  0.00000000000E+00  0.00000000000E+00 -0.13234610790E+04  0.13234610790E+04  0.50400001928E-02 0.  1.
    10030    2    1    2    0    0  0.00000000000E+00  0.00000000000E+00 -0.70652614653E+03  0.19403960116E+04  0.18071960287E+04 0.  0.
        1    1    3    3  502    0  0.17189701267E+03  0.78163860356E+03 -0.80368454841E+03  0.11342029549E+04  0.50400001928E-02 0. -1.
       -1    1    3    3    0  502 -0.17189701267E+03 -0.78163860356E+03  0.97158401881E+02  0.80619305667E+03  0.50400001928E-02 0.  1.
</event>
<event>
 5   0  0.3909859E-05  0.1806383E+04  0.7818609E-02  0.8702913E-01
        2   -1    0    0  501    0  0.00000000000E+00  0.00000000000E+00  0.11294722958E+04  0.11294722958E+04  0.25500000920E-02 0.  1.
       -2   -1    0    0    0  501  0.00000000000E+00  0.00000000000E+00 -0.72224404811E+03  0.72224404812E+03  0.25500000920E-02 0. -1.
    10030    2    1    2    0    0  0.00000000000E+00  0.00000000000E+00  0.40722824773E+03  0.18517163440E+04  0.18063827315E+04 0.  0.
        4    1    3    3  502    0 -0.72750122066E+03 -0.37959834720E+03  0.59044384317E+03  0.10109295109E+04  0.12699999809E+01 0.  1.
       -4    1    3    3    0  502  0.72750122066E+03  0.37959834720E+03 -0.18321559544E+03  0.84078683302E+03  0.12699999809E+01 0. -1.
</event>
<event>
 5   0  0.3984648E-05  0.1797349E+04  0.7818609E-02  0.8707711E-01
        2   -1    0    0  501    0  0.00000000000E+00  0.00000000000E+00  0.13212498148E+04  0.13212498148E+04  0.25500000920E-02 0. -1.
       -2   -1    0    0    0  501  0.00000000000E+00  0.00000000000E+00 -0.61125121621E+03  0.61125121621E+03  0.25500000920E-02 0.  1.
    10030    2    1    2    0    0  0.00000000000E+00  0.00000000000E+00  0.70999859863E+03  0.19325010311E+04  0.17973486654E+04 0.  0.
        1    1    3    3  502    0 -0.51573660178E+03  0.70990875038E+03  0.56365614238E+03  0.10429107935E+04  0.50400001928E-02 0. -1.
       -1    1    3    3    0  502  0.51573660178E+03 -0.70990875038E+03  0.14634245625E+03  0.88959023758E+03  0.50400001928E-02 0.  1.
</event>
<event>
 5   0  0.3909859E-05  0.1800540E+04  0.7818609E-02  0.8706012E-01
        2   -1    0    0  501    0  0.00000000000E+00  0.00000000000E+00  0.54551244777E+03  0.54551244778E+03  0.25500000920E-02 0.  1.
       -2   -1    0    0    0  501  0.00000000000E+00  0.00000000000E+00 -0.14857339781E+04  0.14857339781E+04  0.25500000920E-02 0. -1.
    10030    2    1    2    0    0  0.00000000000E+00  0.00000000000E+00 -0.94022153032E+03  0.20312464259E+04  0.18005403402E+04 0.  0.
        4    1    3    3  502    0 -0.66632352134E+03 -0.57577663202E+03 -0.68110153667E+03  0.11132864327E+04  0.12699999809E+01 0. -1.
       -4    1    3    3    0  502  0.66632352134E+03  0.57577663202E+03 -0.25911999365E+03  0.91795999318E+03  0.12699999809E+01 0.  1.
</event>
<event>
 5   0  0.3909859E-05  0.1800131E+04  0.7818609E-02  0.8706230E-01
        2   -1    0    0  501    0  0.00000000000E+00  0.00000000000E+00  0.17056632733E+04  0.17056632733E+04  0.25500000920E-02 0. -1.
       -2   -1    0    0    0  501  0.00000000000E+00  0.00000000000E+00 -0.47495748577E+03  0.47495748577E+03  0.25500000920E-02 0.  1.
    10030    2    1    2    0    0  0.00000000000E+00  0.00000000000E+00  0.12307057875E+04  0.21806207591E+04  0.18001305951E+04 0.  0.
        4    1    3    3  502    0  0.13371144780E+02  0.98589294813E+02 -0.46827479712E+03  0.47872908318E+03  0.12699999809E+01 0.  1.
       -4    1    3    3    0  502 -0.13371144780E+02 -0.98589294813E+02  0.16989805846E+04  0.17018916759E+04  0.12699999809E+01 0. -1.
</event>
<event>
 5   0  0.2038338E-05  0.1791221E+04  0.7818609E-02  0.8710982E-01
       -1   -1    0    0    0  501  0.00000000000E+00  0.00000000000E+00  0.98151499869E+03  0.98151499870E+03  0.50400001928E-02 0. -1.
        1   -1    0    0  501    0  0.00000000000E+00  0.00000000000E+00 -0.81722461406E+03  0.81722461408E+03  0.50400001928E-02 0.  1.
    10030    2    1    2    0    0  0.00000000000E+00  0.00000000000E+00  0.16429038463E+03  0.17987396128E+04  0.17912210540E+04 0.  0.
        1    1    3    3  502    0  0.48288502850E+03  0.54843723524E+03 -0.43786705588E+03  0.85187376435E+03  0.50400001928E-02 0.  1.
       -1    1    3    3    0  502 -0.48288502850E+03 -0.54843723524E+03  0.60215744051E+03  0.94686584843E+03  0.50400001928E-02 0. -1.
</event>
<event>
 5   0  0.1960300E-05  0.1798059E+04  0.7818609E-02  0.8707333E-01
       -1   -1    0    0    0  501  0.00000000000E+00  0.00000000000E+00  0.62435934814E+03  0.62435934816E+03  0.50400001928E-02 0.  1.
        1   -1    0    0  501    0  0.00000000000E+00  0.00000000000E+00 -0.12945329994E+04  0.12945329994E+04  0.50400001928E-02 0. -1.
    10030    2    1    2    0    0  0.00000000000E+00  0.00000000000E+00 -0.67017365126E+03  0.19188923476E+04  0.17980587084E+04 0.  0.
        3    1    3    3  502    0 -0.38492546925E+03  0.96835532932E+01 -0.12020810499E+04  0.12622441320E+04  0.10100000352E+00 0. -1.
       -3    1    3    3    0  502  0.38492546925E+03 -0.96835532932E+01  0.53190739863E+03  0.65664821556E+03  0.10100000352E+00 0.  1.
</event>
<event>
 5   0  0.4015729E-05  0.1800490E+04  0.7818609E-02  0.8706039E-01
       -2   -1    0    0    0  501  0.00000000000E+00  0.00000000000E+00  0.57253779316E+03  0.57253779317E+03  0.25500000920E-02 0.  1.
        2   -1    0    0  501    0  0.00000000000E+00  0.00000000000E+00 -0.14155239907E+04  0.14155239907E+04  0.25500000920E-02 0. -1.
    10030    2    1    2    0    0  0.00000000000E+00  0.00000000000E+00 -0.84298619753E+03  0.19880617839E+04  0.18004899131E+04 0.  0.
        2    1    3    3  502    0 -0.21610573605E+03  0.66640567593E+03 -0.10457618923E+04  0.12587359332E+04  0.25500000920E-02 0. -1.
       -2    1    3    3    0  502  0.21610573605E+03 -0.66640567593E+03  0.20277569478E+03  0.72932585068E+03  0.25500000920E-02 0.  1.
</event>
<event>
 5   0  0.2001811E-05  0.1801045E+04  0.7818609E-02  0.8705744E-01
       -1   -1    0    0    0  501  0.00000000000E+00  0.00000000000E+00  0.12374079192E+04  0.12374079192E+04  0.50400001928E-02 0. -1.
        1   -1    0    0  501    0  0.00000000000E+00  0.00000000000E+00 -0.65535411655E+03  0.65535411657E+03  0.50400001928E-02 0.  1.
    10030    2    1    2    0    0  0.00000000000E+00  0.00000000000E+00  0.58205380262E+03  0.18927620357E+04  0.18010445566E+04 0.  0.
        2    1    3    3  502    0  0.73881664879E+03  0.43102560295E+03  0.58698350837E+03  0.10373922836E+04  0.25500000920E-02 0. -1.
       -2    1    3    3    0  502 -0.73881664879E+03 -0.43102560295E+03 -0.49297057509E+01  0.85536975217E+03  0.25500000920E-02 0.  1.
</event>
<event>
 5   0  0.1906857E-05  0.1801496E+04  0.7818609E-02  0.8705504E-01
        1   -1    0    0  501    0  0.00000000000E+00  0.00000000000E+00  0.21181895696E+04  0.21181895696E+04  0.50400001928E-02 0. -1.
       -1   -1    0    0    0  501  0.00000000000E+00  0.00000000000E+00 -0.38303792945E+03  0.38303792949E+03  0.50400001928E-02 0.  1.
    10030    2    1    2    0    0  0.00000000000E+00  0.00000000000E+00  0.17351516402E+04  0.25012274991E+04  0.18014959861E+04 0.  0.
        4    1    3    3  502    0  0.34727812840E+03 -0.73965054631E+03  0.34133044994E+03  0.88554679045E+03  0.12699999809E+01 0.  1.
       -4    1    3    3    0  502 -0.34727812840E+03  0.73965054631E+03  0.13938211902E+04  0.16156807087E+04  0.12699999809E+01 0. -1.
</event>
<event>
 5   0  0.1906857E-05  0.1800981E+04  0.7818609E-02  0.8705778E-01
       -1   -1    0    0    0  501  0.00000000000E+00  0.00000000000E+00  0.49715174510E+03  0.49715174513E+03  0.50400001928E-02 0. -1.
        1   -1    0    0  501    0  0.00000000000E+00  0.00000000000E+00 -0.16310575256E+04  0.16310575256E+04  0.50400001928E-02 0.  1.
    10030    2    1    2    0    0  0.00000000000E+00  0.00000000000E+00 -0.11339057805E+04  0.21282092707E+04  0.18009809496E+04 0.  0.
        4    1    3    3  502    0  0.69835628369E+03  0.49715312368E+03 -0.89276377411E+03  0.12376960437E+04  0.12699999809E+01 0. -1.
       -4    1    3    3    0  502 -0.69835628369E+03 -0.49715312368E+03 -0.24114200638E+03  0.89051322702E+03  0.12699999809E+01 0.  1.
</event>
<event>
 5   0  0.4015729E-05  0.1800240E+04  0.7818609E-02  0.8706172E-01
       -2   -1    0    0    0  501  0.00000000000E+00  0.00000000000E+00  0.42866683467E+03  0.42866683468E+03  0.25500000920E-02 0. -1.
        2   -1    0    0  501    0  0.00000000000E+00  0.00000000000E+00 -0.18900831140E+04  0.18900831140E+04  0.25500000920E-02 0.  1.
    10030    2    1    2    0    0  0.00000000000E+00  0.00000000000E+00 -0.14614162793E+04  0.23187499486E+04  0.18002399237E+04 0.  0.
        2    1    3    3  502    0  0.83143220237E+03  0.25544290884E+03 -0.10291443105E+04  0.13474674759E+04  0.25500000920E-02 0. -1.
       -2    1    3    3    0  502 -0.83143220237E+03 -0.25544290884E+03 -0.43227196879E+03  0.97128247272E+03  0.25500000920E-02 0.  1.
</event>
<event>
 5   0  0.2038338E-05  0.1796926E+04  0.7818609E-02  0.8707936E-01
       -1   -1    0    0    0  501  0.00000000000E+00  0.00000000000E+00  0.97632989714E+03  0.97632989715E+03  0.50400001928E-02 0. -1.
        1   -1    0    0  501    0  0.00000000000E+00  0.00000000000E+00 -0.82680635470E+03  0.82680635472E+03  0.50400001928E-02 0.  1.
    10030    2    1    2    0    0  0.00000000000E+00  0.00000000000E+00  0.14952354244E+03  0.18031362519E+04  0.17969260010E+04 0.  0.
        1    1    3    3  502    0  0.38410236883E+02 -0.17797401040E+03 -0.80810031248E+03  0.82835753738E+03  0.50400001928E-02 0.  1.
       -1    1    3    3    0  502 -0.38410236883E+02  0.17797401040E+03  0.95762385492E+03  0.97477871449E+03  0.50400001928E-02 0. -1.
</event>
<event>
 5   0  0.4015729E-05  0.1802923E+04  0.7818609E-02  0.8704747E-01
       -2   -1    0    0    0  501  0.00000000000E+00  0.00000000000E+00  0.10277708281E+04  0.10277708281E+04  0.25500000920E-02 0. -1.
        2   -1    0    0  501    0  0.00000000000E+00  0.00000000000E+00 -0.79067509093E+03  0.79067509093E+03  0.25500000920E-02 0.  1.
    10030    2    1    2    0    0  0.00000000000E+00  0.00000000000E+00  0.23709573717E+03  0.18184459190E+04  0.18029229523E+04 0.  0.
        2    1    3    3  502    0 -0.10298828873E+03 -0.49674785810E+03 -0.63303081713E+03  0.81122933723E+03  0.25500000920E-02 0.  1.
       -2    1    3    3    0  502  0.10298828873E+03  0.49674785810E+03  0.87012655430E+03  0.10072165818E+04  0.25500000920E-02 0. -1.
</event>
<event>
 5   0  0.4015729E-05  0.1798668E+04  0.7818609E-02  0.8707008E-01
        2   -1    0    0  501    0  0.00000000000E+00  0.00000000000E+00  0.79363059579E+03  0.79363059580E+03  0.25500000920E-02 0.  1.
       -2   -1    0    0    0  501  0.00000000000E+00  0.00000000000E+00 -0.10191162363E+04  0.10191162363E+04  0.25500000920E-02 0. -1.
    10030    2    1    2    0    0  0.00000000000E+00  0.00000000000E+00 -0.22548564047E+03  0.18127468321E+04  0.17986682026E+04 0.  0.
        2    1    3    3  502    0  0.28173067455E+02 -0.43780048989E+03  0.67847464324E+03  0.80795472163E+03  0.25500000920E-02 0.  1.
       -2    1    3    3    0  502 -0.28173067455E+02  0.43780048989E+03 -0.90396028371E+03  0.10047921104E+04  0.25500000920E-02 0. -1.
</event>
<event>
 5   0  0.4015729E-05  0.1800794E+04  0.7818609E-02  0.8705877E-01
        2   -1    0    0  501    0  0.00000000000E+00  0.00000000000E+00  0.30351167285E+03  0.30351167286E+03  0.25500000920E-02 0. -1.
       -2   -1    0    0    0  501  0.00000000000E+00  0.00000000000E+00 -0.26711152958E+04  0.26711152958E+04  0.25500000920E-02 0.  1.
    10030    2    1    2    0    0  0.00000000000E+00  0.00000000000E+00 -0.23676036229E+04  0.29746269686E+04  0.18007939047E+04 0.  0.
        2    1    3    3  502    0  0.27477152299E+03 -0.51382248207E+03 -0.23176944643E+04  0.23898160103E+04  0.25500000920E-02 0.  1.
       -2    1    3    3    0  502 -0.27477152299E+03  0.51382248207E+03 -0.49909158598E+02  0.58481095838E+03  0.25500000920E-02 0. -1.
</event>
<event>
 5   0  0.3984648E-05  0.1800052E+04  0.7818609E-02  0.8706272E-01
        2   -1    0    0  501    0  0.00000000000E+00  0.00000000000E+00  0.90771215497E+03  0.90771215498E+03  0.25500000920E-02 0.  1.
       -2   -1    0    0    0  501  0.00000000000E+00  0.00000000000E+00 -0.89240526270E+03  0.89240526270E+03  0.25500000920E-02 0. -1.
    10030    2    1    2    0    0  0.00000000000E+00  0.00000000000E+00  0.15306892273E+02  0.18001174177E+04  0.18000523371E+04 0.  0.
        1    1    3    3  502    0  0.43659296785E+03  0.45984935479E+03  0.64640359781E+03  0.90549017662E+03  0.50400001928E-02 0.  1.
       -1    1    3    3    0  502 -0.43659296785E+03 -0.45984935479E+03 -0.63109670553E+03  0.89462724105E+03  0.50400001928E-02 0. -1.
</event>
<event>
 5   0  0.2001811E-05  0.1786563E+04  0.7818609E-02  0.8713478E-01
       -1   -1    0    0    0  501  0.00000000000E+00  0.00000000000E+00  0.45407130829E+03  0.45407130831E+03  0.50400001928E-02 0.  1.
        1   -1    0    0  501    0  0.00000000000E+00  0.00000000000E+00 -0.17573280058E+04  0.17573280059E+04  0.50400001928E-02 0. -1.
    10030    2    1    2    0    0  0.00000000000E+00  0.00000000000E+00 -0.13032566976E+04  0.22113993142E+04  0.17865634349E+04 0.  0.
        2    1    3    3  502    0 -0.56578811925E+03 -0.29939673830E+03 -0.14228428123E+04  0.15602039198E+04  0.25500000920E-02 0. -1.
       -2    1    3    3    0  502  0.56578811925E+03  0.29939673830E+03  0.11958611476E+03  0.65119539436E+03  0.25500000920E-02 0.  1.
</event>
<event>
 5   0  0.3909859E-05  0.1801531E+04  0.7818609E-02  0.8705486E-01
       -2   -1    0    0    0  501  0.00000000000E+00  0.00000000000E+00  0.66346743469E+03  0.66346743469E+03  0.25500000920E-02 0.  1.
        2   -1    0    0  501    0  0.00000000000E+00  0.00000000000E+00 -0.12229365731E+04  0.12229365731E+04  0.25500000920E-02 0. -1.
    10030    2    1    2    0    0  0.00000000000E+00  0.00000000000E+00 -0.55946913837E+03  0.18864040078E+04  0.18015311165E+04 0.  0.
        4    1    3    3  502    0  0.10822416313E+03  0.89389503527E+03 -0.30572687372E+03  0.95091079381E+03  0.12699999809E+01 0.  1.
       -4    1    3    3    0  502 -0.10822416313E+03 -0.89389503527E+03 -0.25374226465E+03  0.93549321394E+03  0.12699999809E+01 0. -1.
</event>
<event>
 5   0  0.3993393E-05  0.1800085E+04  0.7818609E-02  0.8706254E-01
        2   -1    0    0  501    0  0.00000000000E+00  0.00000000000E+00  0.88902348813E+03  0.88902348814E+03  0.25500000920E-02 0. -1.
       -2   -1    0    0    0  501  0.00000000000E+00  0.00000000000E+00 -0.91119810155E+03  0.91119810156E+03  0.25500000920E-02 0.  1.
    10030    2    1    2    0    0  0.00000000000E+00  0.00000000000E+00 -0.22174613419E+02  0.18002215897E+04  0.18000850142E+04 0.  0.
        5    1    3    3  502    0  0.46209326994E+03  0.58170404960E+03 -0.51920521271E+03  0.90636964554E+03  0.46999998093E+01 0.  1.
       -5    1    3    3    0  502 -0.46209326994E+03 -0.58170404960E+03  0.49703059929E+03  0.89385194416E+03  0.46999998093E+01 0. -1.
</event>
<event>
 5   0  0.1960300E-05  0.1800956E+04  0.7818609E-02  0.8705791E-01
       -1   -1    0    0    0  501  0.00000000000E+00  0.00000000000E+00  0.91274043336E+03  0.91274043337E+03  0.50400001928E-02 0. -1.
        1   -1    0    0  501    0  0.00000000000E+00  0.00000000000E+00 -0.88838049850E+03  0.88838049852E+03  0.50400001928E-02 0.  1.
    10030    2    1    2    0    0  0.00000000000E+00  0.00000000000E+00  0.24359934857E+02  0.18011209319E+04  0.18009561918E+04 0.  0.
        3    1    3    3  502    0 -0.41262890187E+03 -0.74152594280E+03 -0.28907417354E+03  0.89648604145E+03  0.10100000352E+00 0.  1.
       -3    1    3    3    0  502  0.41262890187E+03  0.74152594280E+03  0.31343410840E+03  0.90463489044E+03  0.10100000352E+00 0. -1.
</event>
<event>
 5   0  0.3993393E-05  0.1799831E+04  0.7818609E-02  0.8706390E-01
        2   -1    0    0  501    0  0.00000000000E+00  0.00000000000E+00  0.13283092242E+04  0.13283092242E+04  0.25500000920E-02 0.  1.
       -2   -1    0    0    0  501  0.00000000000E+00  0.00000000000E+00 -0.60968304231E+03  0.60968304231E+03  0.25500000920E-02 0. -1.
    10030    2    1    2    0    0  0.00000000000E+00  0.00000000000E+00  0.71862618190E+03  0.19379922665E+04  0.17998306686E+04 0.  0.
        5    1    3    3  502    0  0.49327963516E+03 -0.35876599905E+03 -0.35313324774E+03  0.70481417494E+03  0.46999998093E+01 0. -1.
       -5    1    3    3    0  502 -0.49327963516E+03  0.35876599905E+03  0.10717594296E+04  0.12331780916E+04  0.46999998093E+01 0.  1.
</event>
<event>
 5   0  0.2054876E-05  0.1794145E+04  0.7818609E-02  0.8709419E-01
        1   -1    0    0  501    0  0.00000000000E+00  0.00000000000E+00  0.87757842386E+03  0.87757842388E+03  0.50400001928E-02 0.  1.
       -1   -1    0    0    0  501  0.00000000000E+00  0.00000000000E+00 -0.91699965690E+03  0.91699965691E+03  0.50400001928E-02 0. -1.
    10030    2    1    2    0    0  0.00000000000E+00  0.00000000000E+00 -0.39421233038E+02  0.17945780808E+04  0.17941450483E+04 0.  0.
        5    1    3    3  502    0  0.74523199241E+03 -0.42707340184E+02  0.47792567834E+03  0.88635753702E+03  0.46999998093E+01 0.  1.
       -5    1    3    3    0  502 -0.74523199241E+03  0.42707340184E+02 -0.51734691138E+03  0.90822054377E+03  0.46999998093E+01 0. -1.
</event>
<event>
 5   0  0.3993393E-05  0.1817528E+04  0.7818609E-02  0.8697034E-01
        2   -1    0    0  501    0  0.00000000000E+00  0.00000000000E+00  0.15704317393E+04  0.15704317393E+04  0.25500000920E-02 0.  1.
       -2   -1    0    0    0  501  0.00000000000E+00  0.00000000000E+00 -0.52587556172E+03  0.52587556173E+03  0.25500000920E-02 0. -1.
    10030    2    1    2    0    0  0.00000000000E+00  0.00000000000E+00  0.10445561775E+04  0.20963073010E+04  0.18175276317E+04 0.  0.
        5    1    3    3  502    0 -0.66961063449E+03  0.48210234333E+03  0.83039366034E+02  0.82928806670E+03  0.46999998093E+01 0. -1.
       -5    1    3    3    0  502  0.66961063449E+03 -0.48210234333E+03  0.96151681151E+03  0.12670192343E+04  0.46999998093E+01 0.  1.
</event>
<event>
 5   0  0.4015729E-05  0.1764542E+04  0.7818609E-02  0.8725386E-01
       -2   -1    0    0    0  501  0.00000000000E+00  0.00000000000E+00  0.34542695657E+03  0.34542695658E+03  0.25500000920E-02 0. -1.
        2   -1    0    0  501    0  0.00000000000E+00  0.00000000000E+00 -0.22534494595E+04  0.22534494595E+04  0.25500000920E-02 0.  1.
    10030    2    1    2    0    0  0.00000000000E+00  0.00000000000E+00 -0.19080225029E+04  0.25988764161E+04  0.17645420806E+04 0.  0.
        2    1    3    3  502    0 -0.27379068809E+03 -0.83525018338E+03 -0.10661593520E+04  0.13817742122E+04  0.25500000920E-02 0.  1.
       -2    1    3    3    0  502  0.27379068809E+03  0.83525018338E+03 -0.84186315094E+03  0.12171022039E+04  0.25500000920E-02 0. -1.
</event>
<event>
 5   0  0.2038338E-05  0.1797982E+04  0.7818609E-02  0.8707373E-01
        1   -1    0    0  501    0  0.00000000000E+00  0.00000000000E+00  0.88691560852E+03  0.88691560854E+03  0.50400001928E-02 0.  1.
       -1   -1    0    0    0  501  0.00000000000E+00  0.00000000000E+00 -0.91123057128E+03  0.91123057130E+03  0.50400001928E-02 0. -1.
    10030    2    1    2    0    0  0.00000000000E+00  0.00000000000E+00 -0.24314962763E+02  0.17981461798E+04  0.17979817759E+04 0.  0.
        1    1    3    3  502    0 -0.53493912948E+03 -0.69269392763E+03  0.19328736453E+03  0.89629501557E+03  0.50400001928E-02 0.  1.
       -1    1    3    3    0  502  0.53493912948E+03  0.69269392763E+03 -0.21760232729E+03  0.90185116427E+03  0.50400001928E-02 0. -1.
</event>
<event>
 5   0  0.1960300E-05  0.1801314E+04  0.7818609E-02  0.8705601E-01
        1   -1    0    0  501    0  0.00000000000E+00  0.00000000000E+00  0.73806094502E+03  0.73806094504E+03  0.50400001928E-02 0.  1.
       -1   -1    0    0    0  501  0.00000000000E+00  0.00000000000E+00 -0.10990730068E+04  0.10990730068E+04  0.50400001928E-02 0. -1.
    10030    2    1    2    0    0  0.00000000000E+00  0.00000000000E+00 -0.36101206178E+03  0.18371339519E+04  0.18013138117E+04 0.  0.
        3    1    3    3  502    0  0.39475127358E+02  0.45417926305E+03  0.61169349484E+03  0.76289319730E+03  0.10100000352E+00 0.  1.
       -3    1    3    3    0  502 -0.39475127358E+02 -0.45417926305E+03 -0.97270555662E+03  0.10742407546E+04  0.10100000352E+00 0. -1.
</event>
<event>
 5   0  0.3909859E-05  0.1801873E+04  0.7818609E-02  0.8705304E-01
       -2   -1    0    0    0  501  0.00000000000E+00  0.00000000000E+00  0.57842040189E+03  0.57842040189E+03  0.25500000920E-02 0.  1.
        2   -1    0    0  501    0  0.00000000000E+00  0.00000000000E+00 -0.14032812801E+04  0.14032812801E+04  0.25500000920E-02 0. -1.
    10030    2    1    2    0    0  0.00000000000E+00  0.00000000000E+00 -0.82486087819E+03  0.19817016820E+04  0.18018729389E+04 0.  0.
        4    1    3    3  502    0  0.36120813906E+03  0.63418729607E+03 -0.99337117584E+03  0.12326608423E+04  0.12699999809E+01 0. -1.
       -4    1    3    3    0  502 -0.36120813906E+03 -0.63418729607E+03  0.16851029764E+03  0.74904083969E+03  0.12699999809E+01 0.  1.
</event>
<event>
 5   0  0.3909859E-05  0.1812907E+04  0.7818609E-02  0.8699465E-01
       -2   -1    0    0    0  501  0.00000000000E+00  0.00000000000E+00  0.32118392915E+03  0.32118392916E+03  0.25500000920E-02 0.  1.
        2   -1    0    0  501    0  0.00000000000E+00  0.00000000000E+00 -0.25582171869E+04  0.25582171869E+04  0.25500000920E-02 0. -1.
    10030    2    1    2    0    0  0.00000000000E+00  0.00000000000E+00 -0.22370332577E+04  0.28794011160E+04  0.18129073310E+04 0.  0.
        4    1    3    3  502    0 -0.47027328478E+03 -0.72085085579E+03 -0.66683725043E+03  0.10887866872E+04  0.12699999809E+01 0.  1.
       -4    1    3    3    0  502  0.47027328478E+03  0.72085085579E+03 -0.15701960073E+04  0.17906144289E+04  0.12699999809E+01 0. -1.
</event>
<event>
 5   0  0.3984648E-05  0.1802220E+04  0.7818609E-02  0.8705120E-01
        2   -1    0    0  501    0  0.00000000000E+00  0.00000000000E+00  0.48905481048E+03  0.48905481049E+03  0.25500000920E-02 0. -1.
       -2   -1    0    0    0  501  0.00000000000E+00  0.00000000000E+00 -0.16603441560E+04  0.16603441560E+04  0.25500000920E-02 0.  1.
    10030    2    1    2    0    0  0.00000000000E+00  0.00000000000E+00 -0.11712893455E+04  0.21493989665E+04  0.18022200715E+04 0.  0.
        1    1    3    3  502    0 -0.28816450095E+02 -0.77243850618E+03 -0.33273991344E+02  0.77369166478E+03  0.50400001928E-02 0. -1.
       -1    1    3    3    0  502  0.28816450095E+02  0.77243850618E+03 -0.11380153542E+04  0.13757073017E+04  0.50400001928E-02 0.  1.
</event>
<event>
 5   0  0.3993393E-05  0.1799495E+04  0.7818609E-02  0.8706568E-01
       -2   -1    0    0    0  501  0.00000000000E+00  0.00000000000E+00  0.76215170353E+03  0.76215170354E+03  0.25500000920E-02 0. -1.
        2   -1    0    0  501    0  0.00000000000E+00  0.00000000000E+00 -0.10621840209E+04  0.10621840209E+04  0.25500000920E-02 0.  1.
    10030    2    1    2    0    0  0.00000000000E+00  0.00000000000E+00 -0.30003231734E+03  0.18243357244E+04  0.17994947746E+04 0.  0.
        5    1    3    3  502    0 -0.40056986867E+03  0.63021152567E+03 -0.65884143122E+03  0.99584984223E+03  0.46999998093E+01 0.  1.
       -5    1    3    3    0  502  0.40056986867E+03 -0.63021152567E+03  0.35880911388E+03  0.82848588218E+03  0.46999998093E+01 0. -1.
</event>
<event>
 5   0  0.1960300E-05  0.1796635E+04  0.7818609E-02  0.8708091E-01
       -1   -1    0    0    0  501  0.00000000000E+00  0.00000000000E+00  0.14715806952E+04  0.14715806952E+04  0.50400001928E-02 0.  1.
        1   -1    0    0  501    0  0.00000000000E+00  0.00000000000E+00 -0.54837250974E+03  0.54837250977E+03  0.50400001928E-02 0. -1.
    10030    2    1    2    0    0  0.00000000000E+00  0.00000000000E+00  0.92320818548E+03  0.20199532050E+04  0.17966350761E+04 0.  0.
        3    1    3    3  502    0 -0.56019161896E+03  0.65535165031E+02  0.12477005774E+04  0.13692575539E+04  0.10100000352E+00 0.  1.
       -3    1    3    3    0  502  0.56019161896E+03 -0.65535165031E+02 -0.32449239190E+03  0.65069565114E+03  0.10100000352E+00 0. -1.
</event>
<event>
 5   0  0.2038338E-05  0.1821643E+04  0.7818609E-02  0.8694874E-01
       -1   -1    0    0    0  501  0.00000000000E+00  0.00000000000E+00  0.68588612820E+03  0.68588612822E+03  0.50400001928E-02 0. -1.
        1   -1    0    0  501    0  0.00000000000E+00  0.00000000000E+00 -0.12095247375E+04  0.12095247375E+04  0.50400001928E-02 0.  1.
    10030    2    1    2    0    0  0.00000000000E+00  0.00000000000E+00 -0.52363860933E+03  0.18954108658E+04  0.18216434769E+04 0.  0.
        1    1    3    3  502    0  0.34681879811E+03  0.81793191222E+03 -0.47069811159E+03  0.10054116590E+04  0.50400001928E-02 0.  1.
       -1    1    3    3    0  502 -0.34681879811E+03 -0.81793191222E+03 -0.52940497745E+02  0.88999920678E+03  0.50400001928E-02 0. -1.
</event>
<event>
 5   0  0.4015729E-05  0.1796544E+04  0.7818609E-02  0.8708140E-01
        2   -1    0    0  501    0  0.00000000000E+00  0.00000000000E+00  0.16647649327E+04  0.16647649327E+04  0.25500000920E-02 0. -1.
       -2   -1    0    0    0  501  0.00000000000E+00  0.00000000000E+00 -0.48468852305E+03  0.48468852305E+03  0.25500000920E-02 0.  1.
    10030    2    1    2    0    0  0.00000000000E+00  0.00000000000E+00  0.11800764097E+04  0.21494534558E+04  0.17965438558E+04 0.  0.
        2    1    3    3  502    0 -0.56781882362E+03  0.66107034368E+03  0.32938972862E+03  0.93162750554E+03  0.25500000920E-02 0. -1.
       -2    1    3    3    0  502  0.56781882362E+03 -0.66107034368E+03  0.85068668107E+03  0.12178259503E+04  0.25500000920E-02 0.  1.
</event>
<event>
 5   0  0.2054876E-05  0.1795432E+04  0.7818609E-02  0.8708732E-01
        1   -1    0    0  501    0  0.00000000000E+00  0.00000000000E+00  0.63879865748E+03  0.63879865750E+03  0.50400001928E-02 0. -1.
       -1   -1    0    0    0  501  0.00000000000E+00  0.00000000000E+00 -0.12615775510E+04  0.12615775510E+04  0.50400001928E-02 0.  1.
    10030    2    1    2    0    0  0.00000000000E+00  0.00000000000E+00 -0.62277889350E+03  0.19003762085E+04  0.17954320326E+04 0.  0.
        5    1    3    3  502    0  0.37416145346E+03  0.56651249788E+03  0.31025435758E+03  0.74646705212E+03  0.46999998093E+01 0. -1.
       -5    1    3    3    0  502 -0.37416145346E+03 -0.56651249788E+03 -0.93303325108E+03  0.11539091564E+04  0.46999998093E+01 0.  1.
</event>
<event>
 5   0  0.1960300E-05  0.1800512E+04  0.7818609E-02  0.8706027E-01
        1   -1    0    0  501    0  0.00000000000E+00  0.00000000000E+00  0.81418290664E+03  0.81418290666E+03  0.50400001928E-02 0. -1.
       -1   -1    0    0    0  501  0.00000000000E+00  0.00000000000E+00 -0.99542825251E+03  0.99542825252E+03  0.50400001928E-02 0.  1.
    10030    2    1    2    0    0  0.00000000000E+00  0.00000000000E+00 -0.18124534587E+03  0.18096111592E+04  0.18005117806E+04 0.  0.
        3    1    3    3  502    0  0.14167399074E+03 -0.47478974117E+02  0.80163352621E+03  0.81543981579E+03  0.10100000352E+00 0. -1.
       -3    1    3    3    0  502 -0.14167399074E+03  0.47478974117E+02 -0.98287887208E+03  0.99417134339E+03  0.10100000352E+00 0.  1.
</event>
<event>
 5   0  0.2001811E-05  0.1802033E+04  0.7818609E-02  0.8705219E-01
       -1   -1    0    0    0  501  0.00000000000E+00  0.00000000000E+00  0.98976063271E+03  0.98976063273E+03  0.50400001928E-02 0. -1.
        1   -1    0    0  501    0  0.00000000000E+00  0.00000000000E+00 -0.82022958628E+03  0.82022958630E+03  0.50400001928E-02 0.  1.
    10030    2    1    2    0    0  0.00000000000E+00  0.00000000000E+00  0.16953104643E+03  0.18099902190E+04  0.18020332453E+04 0.  0.
        2    1    3    3  502    0 -0.80947587407E+03  0.37997676237E+03  0.19569513253E+03  0.91538522795E+03  0.25500000920E-02 0. -1.
       -2    1    3    3    0  502  0.80947587407E+03 -0.37997676237E+03 -0.26164086102E+02  0.89460499107E+03  0.25500000920E-02 0.  1.
</event>
<event>
 5   0  0.4015729E-05  0.1802229E+04  0.7818609E-02  0.8705115E-01
        2   -1    0    0  501    0  0.00000000000E+00  0.00000000000E+00  0.18968290184E+04  0.18968290184E+04  0.25500000920E-02 0.  1.
       -2   -1    0    0    0  501  0.00000000000E+00  0.00000000000E+00 -0.42808656737E+03  0.42808656738E+03  0.25500000920E-02 0. -1.
    10030    2    1    2    0    0  0.00000000000E+00  0.00000000000E+00  0.14687424510E+04  0.23249155857E+04  0.18022286463E+04 0.  0.
        2    1    3    3  502    0 -0.18977769439E+03 -0.59140488728E+03  0.15765808078E+04  0.16945153754E+04  0.25500000920E-02 0.  1.
       -2    1    3    3    0  502  0.18977769439E+03  0.59140488728E+03 -0.10783835680E+03  0.63040021033E+03  0.25500000920E-02 0. -1.
</event>
<event>
 5   0  0.3983176E-05  0.1799711E+04  0.7818609E-02  0.8706453E-01
       -2   -1    0    0    0  501  0.00000000000E+00  0.00000000000E+00  0.55993296191E+03  0.55993296192E+03  0.25500000920E-02 0. -1.
        2   -1    0    0  501    0  0.00000000000E+00  0.00000000000E+00 -0.14461368551E+04  0.14461368551E+04  0.25500000920E-02 0.  1.
    10030    2    1    2    0    0  0.00000000000E+00  0.00000000000E+00 -0.88620389321E+03  0.20060698170E+04  0.17997107463E+04 0.  0.
        3    1    3    3  502    0 -0.72842823935E+03  0.31536559383E+03 -0.91558801037E+03  0.12117609387E+04  0.10100000352E+00 0.  1.
       -3    1    3    3    0  502  0.72842823935E+03 -0.31536559383E+03  0.29384117161E+02  0.79430887833E+03  0.10100000352E+00 0. -1.
</event>
<event>
 5   0  0.2054876E-05  0.1804900E+04  0.7818609E-02  0.8703698E-01
       -1   -1    0    0    0  501  0.00000000000E+00  0.00000000000E+00  0.61755548545E+03  0.61755548547E+03  0.50400001928E-02 0.  1.
        1   -1    0    0  501    0  0.00000000000E+00  0.00000000000E+00 -0.13187742234E+04  0.13187742234E+04  0.50400001928E-02 0. -1.
    10030    2    1    2    0    0  0.00000000000E+00  0.00000000000E+00 -0.70121873794E+03  0.19363297089E+04  0.18049002806E+04 0.  0.
        5    1    3    3  502    0  0.76456797285E+03  0.18176878911E+03  0.12530378246E+03  0.79581857587E+03  0.46999998093E+01 0.  1.
       -5    1    3    3    0  502 -0.76456797285E+03 -0.18176878911E+03 -0.82652252041E+03  0.11405111330E+04  0.46999998093E+01 0. -1.
</event>
<event>
 5   0  0.2038338E-05  0.1797493E+04  0.7818609E-02  0.8707634E-01
        1   -1    0    0  501    0  0.00000000000E+00  0.00000000000E+00  0.15433682270E+04  0.15433682270E+04  0.50400001928E-02 0.  1.
       -1   -1    0    0    0  501  0.00000000000E+00  0.00000000000E+00 -0.52336549661E+03  0.52336549664E+03  0.50400001928E-02 0. -1.
    10030    2    1    2    0    0  0.00000000000E+00  0.00000000000E+00  0.10200027304E+04  0.20667337236E+04  0.17974934532E+04 0.  0.
        1    1    3    3  502    0 -0.52497619707E+03  0.72928758140E+03  0.52942202854E+03  0.10429516135E+04  0.50400001928E-02 0. -1.
       -1    1    3    3    0  502  0.52497619707E+03 -0.72928758140E+03  0.49058070183E+03  0.10237821101E+04  0.50400001928E-02 0.  1.
</event>
<event>
 5   0  0.1960300E-05  0.1800336E+04  0.7818609E-02  0.8706121E-01
        1   -1    0    0  501    0  0.00000000000E+00  0.00000000000E+00  0.91657282558E+03  0.91657282560E+03  0.50400001928E-02 0. -1.
       -1   -1    0    0    0  501  0.00000000000E+00  0.00000000000E+00 -0.88405688952E+03  0.88405688953E+03  0.50400001928E-02 0.  1.
    10030    2    1    2    0    0  0.00000000000E+00  0.00000000000E+00  0.32515936067E+02  0.18006297151E+04  0.18003361033E+04 0.  0.
        3    1    3    3  502    0  0.45065398375E+03  0.32420564761E+03  0.72496664084E+03  0.91311278359E+03  0.10100000352E+00 0. -1.
       -3    1    3    3    0  502 -0.45065398375E+03 -0.32420564761E+03 -0.69245070478E+03  0.88751693154E+03  0.10100000352E+00 0.  1.
</event>
<event>
 5   0  0.3993393E-05  0.1794383E+04  0.7818609E-02  0.8709292E-01
       -2   -1    0    0    0  501  0.00000000000E+00  0.00000000000E+00  0.75659380421E+03  0.75659380422E+03  0.25500000920E-02 0. -1.
        2   -1    0    0  501    0  0.00000000000E+00  0.00000000000E+00 -0.10639163431E+04  0.10639163431E+04  0.25500000920E-02 0.  1.
    10030    2    1    2    0    0  0.00000000000E+00  0.00000000000E+00 -0.30732253892E+03  0.18205101473E+04  0.17943829172E+04 0.  0.
        5    1    3    3  502    0  0.44145419656E+02  0.83328432698E+03  0.18071122851E+03  0.85380924437E+03  0.46999998093E+01 0. -1.
       -5    1    3    3    0  502 -0.44145419656E+02 -0.83328432698E+03 -0.48803376743E+03  0.96670090298E+03  0.46999998093E+01 0.  1.
</event>
<event>
 5   0  0.1446750E-05  0.1801022E+04  0.7818609E-02  0.8705756E-01
        3   -1    0    0  501    0  0.00000000000E+00  0.00000000000E+00  0.47110844856E+03  0.47110845939E+03  0.10100000352E+00 0. -1.
       -3   -1    0    0    0  501  0.00000000000E+00  0.00000000000E+00 -0.17213027989E+04  0.17213028019E+04  0.10100000352E+00 0.  1.
    10030    2    1    2    0    0  0.00000000000E+00  0.00000000000E+00 -0.12501943504E+04  0.21924112613E+04  0.18010222722E+04 0.  0.
        4    1    3    3  502    0 -0.47406119103E+03 -0.61247573306E+03 -0.11843446236E+04  0.14151093021E+04  0.12699999809E+01 0.  1.
       -4    1    3    3    0  502  0.47406119103E+03  0.61247573306E+03 -0.65849726778E+02  0.77730195924E+03  0.12699999809E+01 0. -1.
</event>
<event>
 5   0  0.4015729E-05  0.1790544E+04  0.7818609E-02  0.8711344E-01
       -2   -1    0    0    0  501  0.00000000000E+00  0.00000000000E+00  0.11044738639E+04  0.11044738639E+04  0.25500000920E-02 0. -1.
        2   -1    0    0  501    0  0.00000000000E+00  0.00000000000E+00 -0.72569543353E+03  0.72569543353E+03  0.25500000920E-02 0.  1.
    10030    2    1    2    0    0  0.00000000000E+00  0.00000000000E+00  0.37877843040E+03  0.18301692975E+04  0.17905436487E+04 0.  0.
        2    1    3    3  502    0  0.12522814095E+02 -0.13682699003E+03 -0.71485447042E+03  0.72793911831E+03  0.25500000920E-02 0.  1.
       -2    1    3    3    0  502 -0.12522814095E+02  0.13682699003E+03  0.10936329008E+04  0.11022301792E+04  0.25500000920E-02 0. -1.
</event>
<event>
 5   0  0.4015729E-05  0.1800032E+04  0.7818609E-02  0.8706283E-01
        2   -1    0    0  501    0  0.00000000000E+00  0.00000000000E+00  0.94584487619E+03  0.94584487619E+03  0.25500000920E-02 0. -1.
       -2   -1    0    0    0  501  0.00000000000E+00  0.00000000000E+00 -0.85640741775E+03  0.85640741775E+03  0.25500000920E-02 0.  1.
    10030    2    1    2    0    0  0.00000000000E+00  0.00000000000E+00  0.89437458443E+02  0.18022522939E+04  0.18000317420E+04 0.  0.
        2    1    3    3  502    0 -0.53651297137E+03  0.37271449914E+03 -0.57513003746E+03  0.87036591518E+03  0.25500000920E-02 0.  1.
       -2    1    3    3    0  502  0.53651297137E+03 -0.37271449914E+03  0.66456749590E+03  0.93188637877E+03  0.25500000920E-02 0. -1.
</event>
<event>
 5   0  0.3993393E-05  0.1799913E+04  0.7818609E-02  0.8706346E-01
       -2   -1    0    0    0  501  0.00000000000E+00  0.00000000000E+00  0.97392108389E+03  0.97392108389E+03  0.25500000920E-02 0. -1.
        2   -1    0    0  501    0  0.00000000000E+00  0.00000000000E+00 -0.83160926173E+03  0.83160926173E+03  0.25500000920E-02 0.  1.
    10030    2    1    2    0    0  0.00000000000E+00  0.00000000000E+00  0.14231182216E+03  0.18055303456E+04  0.17999131019E+04 0.  0.
        5    1    3    3  502    0  0.78325564839E+03 -0.31893629427E+03 -0.23752171987E+03  0.87843521556E+03  0.46999998093E+01 0.  1.
       -5    1    3    3    0  502 -0.78325564839E+03  0.31893629427E+03  0.37983354203E+03  0.92709513006E+03  0.46999998093E+01 0. -1.
</event>
<event>
 5   0  0.3984648E-05  0.1801375E+04  0.7818609E-02  0.8705569E-01
       -2   -1    0    0    0  501  0.00000000000E+00  0.00000000000E+00  0.63507816712E+03  0.63507816712E+03  0.25500000920E-02 0.  1.
        2   -1    0    0  501    0  0.00000000000E+00  0.00000000000E+00 -0.12773823121E+04  0.12773823121E+04  0.25500000920E-02 0. -1.
    10030    2    1    2    0    0  0.00000000000E+00  0.00000000000E+00 -0.64230414501E+03  0.19124604793E+04  0.18013746057E+04 0.  0.
        1    1    3    3  502    0 -0.17387732034E+03 -0.68242434269E+03  0.27499212577E+03  0.75601387242E+03  0.50400001928E-02 0.  1.
       -1    1    3    3    0  502  0.17387732034E+03  0.68242434269E+03 -0.91729627079E+03  0.11564466068E+04  0.50400001928E-02 0. -1.
</event>
<event>
 5   0  0.4015729E-05  0.1802572E+04  0.7818609E-02  0.8704933E-01
       -2   -1    0    0    0  501  0.00000000000E+00  0.00000000000E+00  0.36773306886E+03  0.36773306887E+03  0.25500000920E-02 0. -1.
        2   -1    0    0  501    0  0.00000000000E+00  0.00000000000E+00 -0.22089839044E+04  0.22089839044E+04  0.25500000920E-02 0.  1.
    10030    2    1    2    0    0  0.00000000000E+00  0.00000000000E+00 -0.18412508355E+04  0.25767169732E+04  0.18025719739E+04 0.  0.
        2    1    3    3  502    0 -0.21851278983E+03 -0.81858516269E+03 -0.48122551608E+03  0.97437544367E+03  0.25500000920E-02 0. -1.
       -2    1    3    3    0  502  0.21851278983E+03  0.81858516269E+03 -0.13600253194E+04  0.16023415296E+04  0.25500000920E-02 0.  1.
</event>
<event>
 5   0  0.3984648E-05  0.1801426E+04  0.7818609E-02  0.8705541E-01
        2   -1    0    0  501    0  0.00000000000E+00  0.00000000000E+00  0.21699187645E+04  0.21699187645E+04  0.25500000920E-02 0.  1.
       -2   -1    0    0    0  501  0.00000000000E+00  0.00000000000E+00 -0.37387766102E+03  0.37387766103E+03  0.25500000920E-02 0. -1.
    10030    2    1    2    0    0  0.00000000000E+00  0.00000000000E+00  0.17960411035E+04  0.25437964255E+04  0.18014262708E+04 0.  0.
        1    1    3    3  502    0  0.70965816420E+03  0.16747595812E+03  0.16447287918E+04  0.17991096979E+04  0.50400001928E-02 0. -1.
       -1    1    3    3    0  502 -0.70965816420E+03 -0.16747595812E+03  0.15131231167E+03  0.74468672759E+03  0.50400001928E-02 0.  1.
</event>
<event>
 5   0  0.1906857E-05  0.1800738E+04  0.7818609E-02  0.8705907E-01
       -1   -1    0    0    0  501  0.00000000000E+00  0.00000000000E+00  0.79985575688E+03  0.79985575689E+03  0.50400001928E-02 0.  1.
        1   -1    0    0  501    0  0.00000000000E+00  0.00000000000E+00 -0.10135133914E+04  0.10135133914E+04  0.50400001928E-02 0. -1.
    10030    2    1    2    0    0  0.00000000000E+00  0.00000000000E+00 -0.21365763452E+03  0.18133691483E+04  0.18007382051E+04 0.  0.
        4    1    3    3  502    0  0.17207284554E+03  0.43042291877E+03 -0.88411729885E+03  0.99826748129E+03  0.12699999809E+01 0. -1.
       -4    1    3    3    0  502 -0.17207284554E+03 -0.43042291877E+03  0.67045966433E+03  0.81510166701E+03  0.12699999809E+01 0.  1.
</event>
<event>
 5   0  0.1906857E-05  0.1796140E+04  0.7818609E-02  0.8708355E-01
        1   -1    0    0  501    0  0.00000000000E+00  0.00000000000E+00  0.87601610391E+03  0.87601610393E+03  0.50400001928E-02 0.  1.
       -1   -1    0    0    0  501  0.00000000000E+00  0.00000000000E+00 -0.92067942979E+03  0.92067942980E+03  0.50400001928E-02 0. -1.
    10030    2    1    2    0    0  0.00000000000E+00  0.00000000000E+00 -0.44663325877E+02  0.17966955337E+04  0.17961403142E+04 0.  0.
        4    1    3    3  502    0 -0.17750749892E+02  0.89789343626E+03 -0.21505479777E+02  0.89832722911E+03  0.12699999809E+01 0. -1.
       -4    1    3    3    0  502  0.17750749892E+02 -0.89789343626E+03 -0.23157846099E+02  0.89836830462E+03  0.12699999809E+01 0.  1.
</event>
<event>
 5   0  0.1906857E-05  0.1799620E+04  0.7818609E-02  0.8706501E-01
       -1   -1    0    0    0  501  0.00000000000E+00  0.00000000000E+00  0.74926236555E+03  0.74926236557E+03  0.50400001928E-02 0.  1.
        1   -1    0    0  501    0  0.00000000000E+00  0.00000000000E+00 -0.10806072973E+04  0.10806072973E+04  0.50400001928E-02 0. -1.
    10030    2    1    2    0    0  0.00000000000E+00  0.00000000000E+00 -0.33134493177E+03  0.18298696629E+04  0.17996203820E+04 0.  0.
        4    1    3    3  502    0  0.80288247602E+02  0.28252004025E+03  0.69914888332E+03  0.75833669949E+03  0.12699999809E+01 0.  1.
       -4    1    3    3    0  502 -0.80288247602E+02 -0.28252004025E+03 -0.10304938151E+04  0.10715329634E+04  0.12699999809E+01 0. -1.
</event>
<event>
 5   0  0.3909859E-05  0.1798037E+04  0.7818609E-02  0.8707344E-01
        2   -1    0    0  501    0  0.00000000000E+00  0.00000000000E+00  0.16893084003E+04  0.16893084003E+04  0.25500000920E-02 0.  1.
       -2   -1    0    0    0  501  0.00000000000E+00  0.00000000000E+00 -0.47844116354E+03  0.47844116355E+03  0.25500000920E-02 0. -1.
    10030    2    1    2    0    0  0.00000000000E+00  0.00000000000E+00  0.12108672367E+04  0.21677495638E+04  0.17980374597E+04 0.  0.
        4    1    3    3  502    0 -0.16375480024E+03 -0.74857239865E+03  0.38591248923E+02  0.76724648453E+03  0.12699999809E+01 0. -1.
       -4    1    3    3    0  502  0.16375480024E+03  0.74857239865E+03  0.11722759878E+04  0.14005030793E+04  0.12699999809E+01 0.  1.
</event>
<event>
 5   0  0.2054876E-05  0.1801025E+04  0.7818609E-02  0.8705754E-01
       -1   -1    0    0    0  501  0.00000000000E+00  0.00000000000E+00  0.47817930884E+03  0.47817930887E+03  0.50400001928E-02 0.  1.
        1   -1    0    0  501    0  0.00000000000E+00  0.00000000000E+00 -0.16958556304E+04  0.16958556304E+04  0.50400001928E-02 0. -1.
    10030    2    1    2    0    0  0.00000000000E+00  0.00000000000E+00 -0.12176763216E+04  0.21740349393E+04  0.18010253449E+04 0.  0.
        5    1    3    3  502    0 -0.83818673165E+03 -0.21032731160E+03 -0.91446917113E+03  0.12582013074E+04  0.46999998093E+01 0. -1.
       -5    1    3    3    0  502  0.83818673165E+03  0.21032731160E+03 -0.30320715044E+03  0.91583363184E+03  0.46999998093E+01 0.  1.
</event>
<event>
 5   0  0.2001811E-05  0.1801288E+04  0.7818609E-02  0.8705615E-01
       -1   -1    0    0    0  501  0.00000000000E+00  0.00000000000E+00  0.23232407031E+04  0.23232407031E+04  0.50400001928E-02 0.  1.
        1   -1    0    0  501    0  0.00000000000E+00  0.00000000000E+00 -0.34914996113E+03  0.34914996116E+03  0.50400001928E-02 0. -1.
    10030    2    1    2    0    0  0.00000000000E+00  0.00000000000E+00  0.19740907420E+04  0.26723906643E+04  0.18012877630E+04 0.  0.
        2    1    3    3  502    0  0.61149054797E+03  0.64767846678E+03  0.78937930981E+03  0.11901797265E+04  0.25500000920E-02 0. -1.
       -2    1    3    3    0  502 -0.61149054797E+03 -0.64767846678E+03  0.11847114322E+04  0.14822109378E+04  0.25500000920E-02 0.  1.
</event>
<event>
 5   0  0.1906857E-05  0.1799169E+04  0.7818609E-02  0.8706741E-01
        1   -1    0    0  501    0  0.00000000000E+00  0.00000000000E+00  0.12462702558E+04  0.12462702558E+04  0.50400001928E-02 0. -1.
       -1   -1    0    0    0  501  0.00000000000E+00  0.00000000000E+00 -0.64933949025E+03  0.64933949027E+03  0.50400001928E-02 0.  1.
    10030    2    1    2    0    0  0.00000000000E+00  0.00000000000E+00  0.59693076556E+03  0.18956097461E+04  0.17991692446E+04 0.  0.
        4    1    3    3  502    0  0.20220409780E+03  0.78153642957E+03  0.71668755716E+03  0.10795037542E+04  0.12699999809E+01 0. -1.
       -4    1    3    3    0  502 -0.20220409780E+03 -0.78153642957E+03 -0.11975679161E+03  0.81610599186E+03  0.12699999809E+01 0.  1.
</event>
<event>
 5   0  0.1906857E-05  0.1796720E+04  0.7818609E-02  0.8708045E-01
       -1   -1    0    0    0  501  0.00000000000E+00  0.00000000000E+00  0.13769395410E+04  0.13769395410E+04  0.50400001928E-02 0.  1.
        1   -1    0    0  501    0  0.00000000000E+00  0.00000000000E+00 -0.58611950632E+03  0.58611950634E+03  0.50400001928E-02 0. -1.
    10030    2    1    2    0    0  0.00000000000E+00  0.00000000000E+00  0.79082003465E+03  0.19630590473E+04  0.17967204836E+04 0.  0.
        4    1    3    3  502    0 -0.74809646725E+03 -0.36834318565E+03  0.76060686791E+03  0.11286493907E+04  0.12699999809E+01 0.  1.
       -4    1    3    3    0  502  0.74809646725E+03  0.36834318565E+03  0.30213166742E+02  0.83440965662E+03  0.12699999809E+01 0. -1.
</event>
<event>
 5   0  0.3983176E-05  0.1854826E+04  0.7818609E-02  0.8677675E-01
       -2   -1    0    0    0  501  0.00000000000E+00  0.00000000000E+00  0.16880468103E+04  0.16880468103E+04  0.25500000920E-02 0.  1.
        2   -1    0    0  501    0  0.00000000000E+00  0.00000000000E+00 -0.50952082976E+03  0.50952082977E+03  0.25500000920E-02 0. -1.
    10030    2    1    2    0    0  0.00000000000E+00  0.00000000000E+00  0.11785259806E+04  0.21975676401E+04  0.18548261498E+04 0.  0.
        3    1    3    3  502    0  0.43419232878E+03  0.81831013593E+03  0.64145461614E+03  0.11267734873E+04  0.10100000352E+00 0.  1.
       -3    1    3    3    0  502 -0.43419232878E+03 -0.81831013593E+03  0.53707136442E+03  0.10707941528E+04  0.10100000352E+00 0. -1.
</event>
<event>
 5   0  0.2001811E-05  0.1799787E+04  0.7818609E-02  0.8706413E-01
       -1   -1    0    0    0  501  0.00000000000E+00  0.00000000000E+00  0.10767338358E+04  0.10767338358E+04  0.50400001928E-02 0.  1.
        1   -1    0    0  501    0  0.00000000000E+00  0.00000000000E+00 -0.75209736273E+03  0.75209736275E+03  0.50400001928E-02 0. -1.
    10030    2    1    2    0    0  0.00000000000E+00  0.00000000000E+00  0.32463647307E+03  0.18288311986E+04  0.17997874078E+04 0.  0.
        2    1    3    3  502    0  0.38132597458E+03  0.30432449870E+02  0.99000127382E+03  0.10613379081E+04  0.25500000920E-02 0.  1.
       -2    1    3    3    0  502 -0.38132597458E+03 -0.30432449870E+02 -0.66536480075E+03  0.76749329051E+03  0.25500000920E-02 0. -1.
</event>
<event>
 5   0  0.3983176E-05  0.1793612E+04  0.7818609E-02  0.8709704E-01
       -2   -1    0    0    0  501  0.00000000000E+00  0.00000000000E+00  0.10940215942E+04  0.10940215942E+04  0.25500000920E-02 0.  1.
        2   -1    0    0  501    0  0.00000000000E+00  0.00000000000E+00 -0.73514213454E+03  0.73514213454E+03  0.25500000920E-02 0. -1.
    10030    2    1    2    0    0  0.00000000000E+00  0.00000000000E+00  0.35887945970E+03  0.18291637288E+04  0.17936124108E+04 0.  0.
        3    1    3    3  502    0 -0.10777281837E+03  0.34457444424E+03 -0.65775500422E+03  0.75032538527E+03  0.10100000352E+00 0. -1.
       -3    1    3    3    0  502  0.10777281837E+03 -0.34457444424E+03  0.10166344639E+04  0.10788383435E+04  0.10100000352E+00 0.  1.
</event>
<event>
 5   0  0.2054876E-05  0.1781352E+04  0.7818609E-02  0.8716279E-01
       -1   -1    0    0    0  501  0.00000000000E+00  0.00000000000E+00  0.56933871274E+03  0.56933871276E+03  0.50400001928E-02 0.  1.
        1   -1    0    0  501    0  0.00000000000E+00  0.00000000000E+00 -0.13933781444E+04  0.13933781444E+04  0.50400001928E-02 0. -1.
    10030    2    1    2    0    0  0.00000000000E+00  0.00000000000E+00 -0.82403943162E+03  0.19627168571E+04  0.17813524290E+04 0.  0.
        5    1    3    3  502    0 -0.52892087280E+03  0.33136308597E+03  0.28806352244E+03  0.68743106373E+03  0.46999998093E+01 0.  1.
       -5    1    3    3    0  502  0.52892087280E+03 -0.33136308597E+03 -0.11121029541E+04  0.12752857934E+04  0.46999998093E+01 0. -1.
</event>
<event>
 5   0  0.3983176E-05  0.1793770E+04  0.7818609E-02  0.8709620E-01
       -2   -1    0    0    0  501  0.00000000000E+00  0.00000000000E+00  0.66257882100E+03  0.66257882100E+03  0.25500000920E-02 0.  1.
        2   -1    0    0  501    0  0.00000000000E+00  0.00000000000E+00 -0.12140479697E+04  0.12140479697E+04  0.25500000920E-02 0. -1.
    10030    2    1    2    0    0  0.00000000000E+00  0.00000000000E+00 -0.55146914869E+03  0.18766267907E+04  0.17937697426E+04 0.  0.
        3    1    3    3  502    0 -0.61970912695E+02  0.66783924294E+03  0.34721326828E+03  0.75525274730E+03  0.10100000352E+00 0.  1.
       -3    1    3    3    0  502  0.61970912695E+02 -0.66783924294E+03 -0.89868241697E+03  0.11213740434E+04  0.10100000352E+00 0. -1.
</event>
<event>
 5   0  0.1960300E-05  0.1800244E+04  0.7818609E-02  0.8706170E-01
       -1   -1    0    0    0  501  0.00000000000E+00  0.00000000000E+00  0.78045667280E+03  0.78045667282E+03  0.50400001928E-02 0.  1.
        1   -1    0    0  501    0  0.00000000000E+00  0.00000000000E+00 -0.10381352014E+04  0.10381352014E+04  0.50400001928E-02 0. -1.
    10030    2    1    2    0    0  0.00000000000E+00  0.00000000000E+00 -0.25767852863E+03  0.18185918743E+04  0.18002439226E+04 0.  0.
        3    1    3    3  502    0 -0.12806553666E+03  0.14597439807E+03 -0.10167228188E+04  0.10351012545E+04  0.10100000352E+00 0. -1.
       -3    1    3    3    0  502  0.12806553666E+03 -0.14597439807E+03  0.75904429019E+03  0.78349061975E+03  0.10100000352E+00 0.  1.
</event>
<event>
 5   0  0.2054876E-05  0.1800376E+04  0.7818609E-02  0.8706099E-01
        1   -1    0    0  501    0  0.00000000000E+00  0.00000000000E+00  0.17778107179E+04  0.17778107179E+04  0.50400001928E-02 0.  1.
       -1   -1    0    0    0  501  0.00000000000E+00  0.00000000000E+00 -0.45580702995E+03  0.45580702998E+03  0.50400001928E-02 0. -1.
    10030    2    1    2    0    0  0.00000000000E+00  0.00000000000E+00  0.13220036879E+04  0.22336177479E+04  0.18003762086E+04 0.  0.
        5    1    3    3  502    0 -0.26690378972E+03  0.46197203316E+03 -0.23849233648E+03  0.58442833346E+03  0.46999998093E+01 0. -1.
       -5    1    3    3    0  502  0.26690378972E+03 -0.46197203316E+03  0.15604960244E+04  0.16491894144E+04  0.46999998093E+01 0.  1.
</event>
<event>
 5   0  0.3993393E-05  0.1799969E+04  0.7818609E-02  0.8706316E-01
        2   -1    0    0  501    0  0.00000000000E+00  0.00000000000E+00  0.12515000026E+04  0.12515000026E+04  0.25500000920E-02 0. -1.
       -2   -1    0    0    0  501  0.00000000000E+00  0.00000000000E+00 -0.64720111871E+03  0.64720111872E+03  0.25500000920E-02 0.  1.
    10030    2    1    2    0    0  0.00000000000E+00  0.00000000000E+00  0.60429888387E+03  0.18987011213E+04  0.17999691128E+04 0.  0.
        5    1    3    3  502    0 -0.61293356932E+03 -0.65563036326E+03  0.37221082348E+03  0.97164896991E+03  0.46999998093E+01 0. -1.
       -5    1    3    3    0  502  0.61293356932E+03  0.65563036326E+03  0.23208806040E+03  0.92705215139E+03  0.46999998093E+01 0.  1.
</event>
<event>
 5   0  0.1960300E-05  0.1801057E+04  0.7818609E-02  0.8705738E-01
        1   -1    0    0  501    0  0.00000000000E+00  0.00000000000E+00  0.21648705327E+04  0.21648705327E+04  0.50400001928E-02 0. -1.
       -1   -1    0    0    0  501  0.00000000000E+00  0.00000000000E+00 -0.37459581742E+03  0.37459581745E+03  0.50400001928E-02 0.  1.
    10030    2    1    2    0    0  0.00000000000E+00  0.00000000000E+00  0.17902747153E+04  0.25394663502E+04  0.18010568529E+04 0.  0.
        3    1    3    3  502    0 -0.48910131237E+03  0.41294379472E+03  0.20370342839E+01  0.64011470149E+03  0.10100000352E+00 0.  1.
       -3    1    3    3    0  502  0.48910131237E+03 -0.41294379472E+03  0.17882376810E+04  0.18993516487E+04  0.10100000352E+00 0. -1.
</event>
<event>
 5   0  0.2001811E-05  0.1799462E+04  0.7818609E-02  0.8706586E-01
        1   -1    0    0  501    0  0.00000000000E+00  0.00000000000E+00  0.65887836922E+03  0.65887836924E+03  0.50400001928E-02 0.  1.
       -1   -1    0    0    0  501  0.00000000000E+00  0.00000000000E+00 -0.12286265116E+04  0.12286265116E+04  0.50400001928E-02 0. -1.
    10030    2    1    2    0    0  0.00000000000E+00  0.00000000000E+00 -0.56974814238E+03  0.18875048808E+04  0.17994615110E+04 0.  0.
        2    1    3    3  502    0  0.14796743016E+03  0.85969311826E+03 -0.53755504408E+02  0.87398871402E+03  0.25500000920E-02 0. -1.
       -2    1    3    3    0  502 -0.14796743016E+03 -0.85969311826E+03 -0.51599263798E+03  0.10135161668E+04  0.25500000920E-02 0.  1.
</event>
<event>
 5   0  0.4015729E-05  0.1799932E+04  0.7818609E-02  0.8706336E-01
        2   -1    0    0  501    0  0.00000000000E+00  0.00000000000E+00  0.10107805770E+04  0.10107805770E+04  0.25500000920E-02 0. -1.
       -2   -1    0    0    0  501  0.00000000000E+00  0.00000000000E+00 -0.80130031442E+03  0.80130031442E+03  0.25500000920E-02 0.  1.
    10030    2    1    2    0    0  0.00000000000E+00  0.00000000000E+00  0.20948026260E+03  0.18120808914E+04  0.17999319922E+04 0.  0.
        2    1    3    3  502    0  0.65464147417E+03  0.56384617798E+03  0.35835477798E+03  0.93535881833E+03  0.25500000920E-02 0. -1.
       -2    1    3    3    0  502 -0.65464147417E+03 -0.56384617798E+03 -0.14887451538E+03  0.87672207310E+03  0.25500000920E-02 0.  1.
</event>
<event>
 5   0  0.4015729E-05  0.1804059E+04  0.7818609E-02  0.8704144E-01
       -2   -1    0    0    0  501  0.00000000000E+00  0.00000000000E+00  0.42658615213E+03  0.42658615214E+03  0.25500000920E-02 0. -1.
        2   -1    0    0  501    0  0.00000000000E+00  0.00000000000E+00 -0.19073687590E+04  0.19073687590E+04  0.25500000920E-02 0.  1.
    10030    2    1    2    0    0  0.00000000000E+00  0.00000000000E+00 -0.14807826069E+04  0.23339549111E+04  0.18040588678E+04 0.  0.
        2    1    3    3  502    0 -0.49779160723E+03 -0.67376871816E+03 -0.30762874664E+03  0.89241034035E+03  0.25500000920E-02 0.  1.
       -2    1    3    3    0  502  0.49779160723E+03  0.67376871816E+03 -0.11731538602E+04  0.14415445708E+04  0.25500000920E-02 0. -1.
</event>
<event>
 5   0  0.3909859E-05  0.1804395E+04  0.7818609E-02  0.8703966E-01
        2   -1    0    0  501    0  0.00000000000E+00  0.00000000000E+00  0.57887073155E+03  0.57887073156E+03  0.25500000920E-02 0.  1.
       -2   -1    0    0    0  501  0.00000000000E+00  0.00000000000E+00 -0.14061173622E+04  0.14061173622E+04  0.25500000920E-02 0. -1.
    10030    2    1    2    0    0  0.00000000000E+00  0.00000000000E+00 -0.82724663064E+03  0.19849880938E+04  0.18043948416E+04 0.  0.
        4    1    3    3  502    0 -0.39008463960E+03 -0.37193590985E+02  0.48036713847E+03  0.61992224504E+03  0.12699999809E+01 0.  1.
       -4    1    3    3    0  502  0.39008463960E+03  0.37193590985E+02 -0.13076137691E+04  0.13650658487E+04  0.12699999809E+01 0. -1.
</event>
<event>
 5   0  0.3984648E-05  0.1796440E+04  0.7818609E-02  0.8708195E-01
       -2   -1    0    0    0  501  0.00000000000E+00  0.00000000000E+00  0.65452467239E+03  0.65452467239E+03  0.25500000920E-02 0.  1.
        2   -1    0    0  501    0  0.00000000000E+00  0.00000000000E+00 -0.12326493317E+04  0.12326493317E+04  0.25500000920E-02 0. -1.
    10030    2    1    2    0    0  0.00000000000E+00  0.00000000000E+00 -0.57812465936E+03  0.18871740041E+04  0.17964402579E+04 0.  0.
        1    1    3    3  502    0 -0.34359187408E+02  0.22746288917E+03 -0.12011784426E+04  0.12230084099E+04  0.50400001928E-02 0. -1.
       -1    1    3    3    0  502  0.34359187408E+02 -0.22746288917E+03  0.62305378325E+03  0.66416559423E+03  0.50400001928E-02 0.  1.
</event>
<event>
 5   0  0.1446750E-05  0.1795493E+04  0.7818609E-02  0.8708700E-01
       -4   -1    0    0    0  501  0.00000000000E+00  0.00000000000E+00  0.67006349234E+03  0.67006469588E+03  0.12699999809E+01 0. -1.
        4   -1    0    0  501    0  0.00000000000E+00  0.00000000000E+00 -0.12027920097E+04  0.12027926801E+04  0.12699999809E+01 0.  1.
    10030    2    1    2    0    0  0.00000000000E+00  0.00000000000E+00 -0.53272851731E+03  0.18728573760E+04  0.17954929902E+04 0.  0.
        4    1    3    3  502    0 -0.46632419192E+03  0.41867475884E+03  0.40413967895E+03  0.74570590628E+03  0.12699999809E+01 0. -1.
       -4    1    3    3    0  502  0.46632419192E+03 -0.41867475884E+03 -0.93686819626E+03  0.11271514697E+04  0.12699999809E+01 0.  1.
</event>
<event>
 5   0  0.3909859E-05  0.1799451E+04  0.7818609E-02  0.8706591E-01
        2   -1    0    0  501    0  0.00000000000E+00  0.00000000000E+00  0.16349562218E+04  0.16349562218E+04  0.25500000920E-02 0.  1.
       -2   -1    0    0    0  501  0.00000000000E+00  0.00000000000E+00 -0.49512399015E+03  0.49512399015E+03  0.25500000920E-02 0. -1.
    10030    2    1    2    0    0  0.00000000000E+00  0.00000000000E+00  0.11398322317E+04  0.21300802120E+04  0.17994510810E+04 0.  0.
        4    1    3    3  502    0 -0.34601225683E+03  0.32163725151E+03 -0.33649820961E+03  0.58000660463E+03  0.12699999809E+01 0. -1.
       -4    1    3    3    0  502  0.34601225683E+03 -0.32163725151E+03  0.14763304413E+04  0.15500736073E+04  0.12699999809E+01 0.  1.
</event>
<event>
 5   0  0.3983176E-05  0.1799042E+04  0.7818609E-02  0.8706809E-01
       -2   -1    0    0    0  501  0.00000000000E+00  0.00000000000E+00  0.11132367927E+04  0.11132367927E+04  0.25500000920E-02 0.  1.
        2   -1    0    0  501    0  0.00000000000E+00  0.00000000000E+00 -0.72683368076E+03  0.72683368077E+03  0.25500000920E-02 0. -1.
    10030    2    1    2    0    0  0.00000000000E+00  0.00000000000E+00  0.38640311196E+03  0.18400704735E+04  0.17990419624E+04 0.  0.
        3    1    3    3  502    0 -0.74698334576E+03 -0.40064012973E+03  0.50113464105E+03  0.98469922873E+03  0.10100000352E+00 0. -1.
       -3    1    3    3    0  502  0.74698334576E+03  0.40064012973E+03 -0.11473152909E+03  0.85537124476E+03  0.10100000352E+00 0.  1.
</event>
<event>
 5   0  0.1446750E-05  0.1801333E+04  0.7818609E-02  0.8705591E-01
       -3   -1    0    0    0  501  0.00000000000E+00  0.00000000000E+00  0.83306981967E+03  0.83306982579E+03  0.10100000352E+00 0.  1.
        3   -1    0    0  501    0  0.00000000000E+00  0.00000000000E+00 -0.97374788846E+03  0.97374789369E+03  0.10100000352E+00 0. -1.
    10030    2    1    2    0    0  0.00000000000E+00  0.00000000000E+00 -0.14067806879E+03  0.18068177195E+04  0.18013328267E+04 0.  0.
        3    1    3    3  502    0  0.15892264680E+03 -0.53736478424E+03  0.63691977217E+03  0.84834198611E+03  0.10100000352E+00 0.  1.
       -3    1    3    3    0  502 -0.15892264680E+03  0.53736478424E+03 -0.77759784096E+03  0.95847573338E+03  0.10100000352E+00 0. -1.
</event>
<event>
 5   0  0.1446750E-05  0.1812191E+04  0.7818609E-02  0.8699843E-01
        3   -1    0    0  501    0  0.00000000000E+00  0.00000000000E+00  0.11126692600E+04  0.11126692646E+04  0.10100000352E+00 0. -1.
       -3   -1    0    0    0  501  0.00000000000E+00  0.00000000000E+00 -0.73787311258E+03  0.73787311950E+03  0.10100000352E+00 0.  1.
    10030    2    1    2    0    0  0.00000000000E+00  0.00000000000E+00  0.37479614745E+03  0.18505423841E+04  0.18121906531E+04 0.  0.
        1    1    3    3  502    0 -0.78506458190E+03  0.43656756068E+03  0.66179904092E+02  0.90072049634E+03  0.50400001928E-02 0. -1.
       -1    1    3    3    0  502  0.78506458190E+03 -0.43656756068E+03  0.30861624336E+03  0.94982188777E+03  0.50400001928E-02 0.  1.
</event>
<event>
 5   0  0.1960300E-05  0.1793883E+04  0.7818609E-02  0.8709559E-01
       -1   -1    0    0    0  501  0.00000000000E+00  0.00000000000E+00  0.76112016056E+03  0.76112016058E+03  0.50400001928E-02 0.  1.
        1   -1    0    0  501    0  0.00000000000E+00  0.00000000000E+00 -0.10569994829E+04  0.10569994829E+04  0.50400001928E-02 0. -1.
    10030    2    1    2    0    0  0.00000000000E+00  0.00000000000E+00 -0.29587932237E+03  0.18181196435E+04  0.17938825114E+04 0.  0.
        3    1    3    3  502    0  0.61513628651E+03 -0.59028889146E+02 -0.80682045624E+03  0.10162855502E+04  0.10100000352E+00 0. -1.
       -3    1    3    3    0  502 -0.61513628651E+03  0.59028889146E+02  0.51094113387E+03  0.80183409332E+03  0.10100000352E+00 0.  1.
</event>
<event>
 5   0  0.3993393E-05  0.1804884E+04  0.7818609E-02  0.8703707E-01
        2   -1    0    0  501    0  0.00000000000E+00  0.00000000000E+00  0.99005417788E+03  0.99005417788E+03  0.25500000920E-02 0.  1.
       -2   -1    0    0    0  501  0.00000000000E+00  0.00000000000E+00 -0.82258280062E+03  0.82258280062E+03  0.25500000920E-02 0. -1.
    10030    2    1    2    0    0  0.00000000000E+00  0.00000000000E+00  0.16747137726E+03  0.18126369785E+04  0.18048839723E+04 0.  0.
        5    1    3    3  502    0  0.69220377484E+03  0.25818899519E+03 -0.43672960252E+03  0.85823217072E+03  0.46999998093E+01 0. -1.
       -5    1    3    3    0  502 -0.69220377484E+03 -0.25818899519E+03  0.60420097978E+03  0.95440480778E+03  0.46999998093E+01 0.  1.
</event>
<event>
 5   0  0.1906857E-05  0.1800568E+04  0.7818609E-02  0.8705998E-01
        1   -1    0    0  501    0  0.00000000000E+00  0.00000000000E+00  0.96351435764E+03  0.96351435765E+03  0.50400001928E-02 0.  1.
       -1   -1    0    0    0  501  0.00000000000E+00  0.00000000000E+00 -0.84120290807E+03  0.84120290808E+03  0.50400001928E-02 0. -1.
    10030    2    1    2    0    0  0.00000000000E+00  0.00000000000E+00  0.12231144957E+03  0.18047172657E+04  0.18005677767E+04 0.  0.
        4    1    3    3  502    0 -0.15105550913E+03  0.88532797215E+03  0.12363783069E+03  0.90659324462E+03  0.12699999809E+01 0. -1.
       -4    1    3    3    0  502  0.15105550913E+03 -0.88532797215E+03 -0.13263811208E+01  0.89812402111E+03  0.12699999809E+01 0.  1.
</event>
<event>
 5   0  0.3984648E-05  0.1791303E+04  0.7818609E-02  0.8710938E-01
       -2   -1    0    0    0  501  0.00000000000E+00  0.00000000000E+00  0.53921930314E+03  0.53921930315E+03  0.25500000920E-02 0. -1.
        2   -1    0    0  501    0  0.00000000000E+00  0.00000000000E+00 -0.14876914596E+04  0.14876914596E+04  0.25500000920E-02 0.  1.
    10030    2    1    2    0    0  0.00000000000E+00  0.00000000000E+00 -0.94847215643E+03  0.20269107627E+04  0.17913033826E+04 0.  0.
        1    1    3    3  502    0  0.10780997031E+03 -0.76915408239E+03  0.30495329659E+02  0.77727148237E+03  0.50400001928E-02 0. -1.
       -1    1    3    3    0  502 -0.10780997031E+03  0.76915408239E+03 -0.97896748609E+03  0.12496392803E+04  0.50400001928E-02 0.  1.
</event>
<event>
 5   0  0.4015729E-05  0.1802684E+04  0.7818609E-02  0.8704873E-01
        2   -1    0    0  501    0  0.00000000000E+00  0.00000000000E+00  0.13624875873E+04  0.13624875873E+04  0.25500000920E-02 0. -1.
       -2   -1    0    0    0  501  0.00000000000E+00  0.00000000000E+00 -0.59627521269E+03  0.59627521270E+03  0.25500000920E-02 0.  1.
    10030    2    1    2    0    0  0.00000000000E+00  0.00000000000E+00  0.76621237461E+03  0.19587628000E+04  0.18026841941E+04 0.  0.
        2    1    3    3  502    0 -0.10030881160E+03 -0.26343933905E+03 -0.54714660172E+03  0.61549292996E+03  0.25500000920E-02 0.  1.
       -2    1    3    3    0  502  0.10030881160E+03  0.26343933905E+03  0.13133589763E+04  0.13432698700E+04  0.25500000920E-02 0. -1.
</event>
<event>
 5   0  0.2054876E-05  0.1799429E+04  0.7818609E-02  0.8706603E-01
       -1   -1    0    0    0  501  0.00000000000E+00  0.00000000000E+00  0.98948441382E+03  0.98948441383E+03  0.50400001928E-02 0. -1.
        1   -1    0    0  501    0  0.00000000000E+00  0.00000000000E+00 -0.81808889518E+03  0.81808889520E+03  0.50400001928E-02 0.  1.
    10030    2    1    2    0    0  0.00000000000E+00  0.00000000000E+00  0.17139551863E+03  0.18075733090E+04  0.17994290327E+04 0.  0.
        5    1    3    3  502    0  0.48407634821E+03 -0.17614143555E+03  0.82667337068E+03  0.97404654304E+03  0.46999998093E+01 0. -1.
       -5    1    3    3    0  502 -0.48407634821E+03  0.17614143555E+03 -0.65527785205E+03  0.83352676598E+03  0.46999998093E+01 0.  1.
</event>
<event>
 5   0  0.3909859E-05  0.1799898E+04  0.7818609E-02  0.8706354E-01
        2   -1    0    0  501    0  0.00000000000E+00  0.00000000000E+00  0.10844843084E+04  0.10844843084E+04  0.25500000920E-02 0.  1.
       -2   -1    0    0    0  501  0.00000000000E+00  0.00000000000E+00 -0.74681434609E+03  0.74681434610E+03  0.25500000920E-02 0. -1.
    10030    2    1    2    0    0  0.00000000000E+00  0.00000000000E+00  0.33766996228E+03  0.18312986545E+04  0.17998982634E+04 0.  0.
        4    1    3    3  502    0  0.28093868284E+03 -0.83021825134E+03  0.37664794543E+03  0.95396759697E+03  0.12699999809E+01 0. -1.
       -4    1    3    3    0  502 -0.28093868284E+03  0.83021825134E+03 -0.38977983155E+02  0.87733105750E+03  0.12699999809E+01 0.  1.
</event>
<event>
 5   0  0.3993393E-05  0.1812234E+04  0.7818609E-02  0.8699821E-01
       -2   -1    0    0    0  501  0.00000000000E+00  0.00000000000E+00  0.16974066102E+04  0.16974066102E+04  0.25500000920E-02 0. -1.
        2   -1    0    0  501    0  0.00000000000E+00  0.00000000000E+00 -0.48370725086E+03  0.48370725087E+03  0.25500000920E-02 0.  1.
    10030    2    1    2    0    0  0.00000000000E+00  0.00000000000E+00  0.12136993594E+04  0.21811138611E+04  0.18122338536E+04 0.  0.
        5    1    3    3  502    0  0.79446987432E+03 -0.37091726680E+03  0.33170281418E+03  0.93744911699E+03  0.46999998093E+01 0. -1.
       -5    1    3    3    0  502 -0.79446987432E+03  0.37091726680E+03  0.88199654520E+03  0.12436647441E+04  0.46999998093E+01 0.  1.
</event>
<event>
 5   0  0.1906857E-05  0.1796873E+04  0.7818609E-02  0.8707964E-01
        1   -1    0    0  501    0  0.00000000000E+00  0.00000000000E+00  0.20558338767E+04  0.20558338767E+04  0.50400001928E-02 0.  1.
       -1   -1    0    0    0  501  0.00000000000E+00  0.00000000000E+00 -0.39263304200E+03  0.39263304203E+03  0.50400001928E-02 0. -1.
    10030    2    1    2    0    0  0.00000000000E+00  0.00000000000E+00  0.16632008347E+04  0.24484669187E+04  0.17968731829E+04 0.  0.
        4    1    3    3  502    0 -0.31218399822E+03 -0.50210676559E+02  0.19775090930E+04  0.20026292185E+04  0.12699999809E+01 0.  1.
       -4    1    3    3    0  502  0.31218399822E+03  0.50210676559E+02 -0.31430825835E+03  0.44583770024E+03  0.12699999809E+01 0. -1.
</event>
<event>
 5   0  0.3983176E-05  0.1795660E+04  0.7818609E-02  0.8708611E-01
       -2   -1    0    0    0  501  0.00000000000E+00  0.00000000000E+00  0.48589747901E+03  0.48589747902E+03  0.25500000920E-02 0.  1.
        2   -1    0    0  501    0  0.00000000000E+00  0.00000000000E+00 -0.16589898989E+04  0.16589898989E+04  0.25500000920E-02 0. -1.
    10030    2    1    2    0    0  0.00000000000E+00  0.00000000000E+00 -0.11730924199E+04  0.21448873779E+04  0.17956603349E+04 0.  0.
        3    1    3    3  502    0 -0.39931535980E+03  0.18340598056E+03 -0.15217656989E+04  0.15839385603E+04  0.10100000352E+00 0. -1.
       -3    1    3    3    0  502  0.39931535980E+03 -0.18340598056E+03  0.34867327901E+03  0.56094881761E+03  0.10100000352E+00 0.  1.
</event>
<event>
 5   0  0.2054876E-05  0.1799204E+04  0.7818609E-02  0.8706723E-01
        1   -1    0    0  501    0  0.00000000000E+00  0.00000000000E+00  0.47727140453E+03  0.47727140455E+03  0.50400001928E-02 0.  1.
       -1   -1    0    0    0  501  0.00000000000E+00  0.00000000000E+00 -0.16956476706E+04  0.16956476706E+04  0.50400001928E-02 0. -1.
    10030    2    1    2    0    0  0.00000000000E+00  0.00000000000E+00 -0.12183762661E+04  0.21729190751E+04  0.17992044301E+04 0.  0.
        5    1    3    3  502    0 -0.43406158351E+03  0.22392749167E+03  0.30318067675E+03  0.57488572130E+03  0.46999998093E+01 0.  1.
       -5    1    3    3    0  502  0.43406158351E+03 -0.22392749167E+03 -0.15215569428E+04  0.15980333538E+04  0.46999998093E+01 0. -1.
</event>
<event>
 5   0  0.1960300E-05  0.1799753E+04  0.7818609E-02  0.8706431E-01
       -1   -1    0    0    0  501  0.00000000000E+00  0.00000000000E+00  0.52815859069E+03  0.52815859072E+03  0.50400001928E-02 0.  1.
        1   -1    0    0  501    0  0.00000000000E+00  0.00000000000E+00 -0.15332090273E+04  0.15332090273E+04  0.50400001928E-02 0. -1.
    10030    2    1    2    0    0  0.00000000000E+00  0.00000000000E+00 -0.10050504366E+04  0.20613676180E+04  0.17997527821E+04 0.  0.
        3    1    3    3  502    0 -0.61066242787E+03  0.33317999282E+03 -0.11563451002E+04  0.13494634153E+04  0.10100000352E+00 0. -1.
       -3    1    3    3    0  502  0.61066242787E+03 -0.33317999282E+03  0.15129466353E+03  0.71190420272E+03  0.10100000352E+00 0.  1.
</event>
<event>
 5   0  0.1960300E-05  0.1801248E+04  0.7818609E-02  0.8705636E-01
        1   -1    0    0  501    0  0.00000000000E+00  0.00000000000E+00  0.13935748431E+04  0.13935748431E+04  0.50400001928E-02 0.  1.
       -1   -1    0    0    0  501  0.00000000000E+00  0.00000000000E+00 -0.58204543219E+03  0.58204543222E+03  0.50400001928E-02 0. -1.
    10030    2    1    2    0    0  0.00000000000E+00  0.00000000000E+00  0.81152941093E+03  0.19756202754E+04  0.18012483137E+04 0.  0.
        3    1    3    3  502    0 -0.64409064484E+03  0.52642491806E+03  0.27171252800E+02  0.83229456342E+03  0.10100000352E+00 0. -1.
       -3    1    3    3    0  502  0.64409064484E+03 -0.52642491806E+03  0.78435815813E+03  0.11433257119E+04  0.10100000352E+00 0.  1.
</event>
<event>
 5   0  0.2038338E-05  0.1801645E+04  0.7818609E-02  0.8705425E-01
        1   -1    0    0  501    0  0.00000000000E+00  0.00000000000E+00  0.11912957074E+04  0.11912957074E+04  0.50400001928E-02 0.  1.
       -1   -1    0    0    0  501  0.00000000000E+00  0.00000000000E+00 -0.68117527299E+03  0.68117527301E+03  0.50400001928E-02 0. -1.
    10030    2    1    2    0    0  0.00000000000E+00  0.00000000000E+00  0.51012043438E+03  0.18724709804E+04  0.18016450024E+04 0.  0.
        1    1    3    3  502    0  0.51437766750E+02  0.15739195759E+03  0.11753431839E+04  0.11869497344E+04  0.50400001928E-02 0.  1.
       -1    1    3    3    0  502 -0.51437766750E+02 -0.15739195759E+03 -0.66522274950E+03  0.68552124595E+03  0.50400001928E-02 0. -1.
</event>
<event>
 5   0  0.3983176E-05  0.1800843E+04  0.7818609E-02  0.8705851E-01
        2   -1    0    0  501    0  0.00000000000E+00  0.00000000000E+00  0.18948355881E+04  0.18948355881E+04  0.25500000920E-02 0.  1.
       -2   -1    0    0    0  501  0.00000000000E+00  0.00000000000E+00 -0.42787811387E+03  0.42787811388E+03  0.25500000920E-02 0. -1.
    10030    2    1    2    0    0  0.00000000000E+00  0.00000000000E+00  0.14669574742E+04  0.23227137020E+04  0.18008427778E+04 0.  0.
        3    1    3    3  502    0 -0.88826452032E+03  0.39575265724E+02  0.91669561630E+03  0.12770712286E+04  0.10100000352E+00 0.  1.
       -3    1    3    3    0  502  0.88826452032E+03 -0.39575265724E+02  0.55026185795E+03  0.10456424734E+04  0.10100000352E+00 0. -1.
</event>
<event>
 5   0  0.1446750E-05  0.1800663E+04  0.7818609E-02  0.8705947E-01
        3   -1    0    0  501    0  0.00000000000E+00  0.00000000000E+00  0.11357942793E+04  0.11357942838E+04  0.10100000352E+00 0.  1.
       -3   -1    0    0    0  501  0.00000000000E+00  0.00000000000E+00 -0.71368310723E+03  0.71368311438E+03  0.10100000352E+00 0. -1.
    10030    2    1    2    0    0  0.00000000000E+00  0.00000000000E+00  0.42211117211E+03  0.18494773982E+04  0.18006634346E+04 0.  0.
        4    1    3    3  502    0 -0.26916633040E+03  0.31975517921E+03  0.10301075873E+04  0.11116731275E+04  0.12699999809E+01 0.  1.
       -4    1    3    3    0  502  0.26916633040E+03 -0.31975517921E+03 -0.60799641522E+03  0.73780427070E+03  0.12699999809E+01 0. -1.
</event>
<event>
 5   0  0.3983176E-05  0.1783764E+04  0.7818609E-02  0.8714982E-01
       -2   -1    0    0    0  501  0.00000000000E+00  0.00000000000E+00  0.12615926588E+04  0.12615926588E+04  0.25500000920E-02 0.  1.
        2   -1    0    0  501    0  0.00000000000E+00  0.00000000000E+00 -0.63051521610E+03  0.63051521611E+03  0.25500000920E-02 0. -1.
    10030    2    1    2    0    0  0.00000000000E+00  0.00000000000E+00  0.63107744273E+03  0.18921078749E+04  0.17837638498E+04 0.  0.
        3    1    3    3  502    0  0.54121046394E+03 -0.58789000879E+03  0.73574392308E+03  0.10862055787E+04  0.10100000352E+00 0.  1.
       -3    1    3    3    0  502 -0.54121046394E+03  0.58789000879E+03 -0.10466648036E+03  0.80590229620E+03  0.10100000352E+00 0. -1.
</event>
<event>
 5   0  0.3993393E-05  0.1802973E+04  0.7818609E-02  0.8704720E-01
        2   -1    0    0  501    0  0.00000000000E+00  0.00000000000E+00  0.14795958213E+04  0.14795958213E+04  0.25500000920E-02 0.  1.
       -2   -1    0    0    0  501  0.00000000000E+00  0.00000000000E+00 -0.54925643189E+03  0.54925643189E+03  0.25500000920E-02 0. -1.
    10030    2    1    2    0    0  0.00000000000E+00  0.00000000000E+00  0.93033938941E+03  0.20288522532E+04  0.18029725693E+04 0.  0.
        5    1    3    3  502    0 -0.12364199536E+03  0.39779012889E+03 -0.43444445618E+03  0.60190398334E+03  0.46999998093E+01 0. -1.
       -5    1    3    3    0  502  0.12364199536E+03 -0.39779012889E+03  0.13647838456E+04  0.14269482699E+04  0.46999998093E+01 0.  1.
</event>
<event>
 5   0  0.2001811E-05  0.1796148E+04  0.7818609E-02  0.8708351E-01
       -1   -1    0    0    0  501  0.00000000000E+00  0.00000000000E+00  0.14516421878E+04  0.14516421879E+04  0.50400001928E-02 0. -1.
        1   -1    0    0  501    0  0.00000000000E+00  0.00000000000E+00 -0.55560298092E+03  0.55560298094E+03  0.50400001928E-02 0.  1.
    10030    2    1    2    0    0  0.00000000000E+00  0.00000000000E+00  0.89603920693E+03  0.20072451688E+04  0.17961477966E+04 0.  0.
        2    1    3    3  502    0 -0.13502745833E+03 -0.87224401463E+03  0.26271646497E+03  0.92090280515E+03  0.25500000920E-02 0.  1.
       -2    1    3    3    0  502  0.13502745833E+03  0.87224401463E+03  0.63332274196E+03  0.10863423636E+04  0.25500000920E-02 0. -1.
</event>
<event>
 5   0  0.1906857E-05  0.1798358E+04  0.7818609E-02  0.8707173E-01
        1   -1    0    0  501    0  0.00000000000E+00  0.00000000000E+00  0.79356963008E+03  0.79356963010E+03  0.50400001928E-02 0. -1.
       -1   -1    0    0    0  501  0.00000000000E+00  0.00000000000E+00 -0.10188433715E+04  0.10188433715E+04  0.50400001928E-02 0.  1.
    10030    2    1    2    0    0  0.00000000000E+00  0.00000000000E+00 -0.22527374143E+03  0.18124130016E+04  0.17983583152E+04 0.  0.
        4    1    3    3  502    0  0.43301396722E+03  0.60660828662E+03  0.39433212088E+03  0.84319282709E+03  0.12699999809E+01 0. -1.
       -4    1    3    3    0  502 -0.43301396722E+03 -0.60660828662E+03 -0.61960586231E+03  0.96922017453E+03  0.12699999809E+01 0.  1.
</event>
<event>
 5   0  0.4015729E-05  0.1797198E+04  0.7818609E-02  0.8707791E-01
       -2   -1    0    0    0  501  0.00000000000E+00  0.00000000000E+00  0.16106206877E+04  0.16106206877E+04  0.25500000920E-02 0.  1.
        2   -1    0    0  501    0  0.00000000000E+00  0.00000000000E+00 -0.50134702610E+03  0.50134702610E+03  0.25500000920E-02 0. -1.
    10030    2    1    2    0    0  0.00000000000E+00  0.00000000000E+00  0.11092736616E+04  0.21119677138E+04  0.17971976986E+04 0.  0.
        2    1    3    3  502    0 -0.80318549506E+03 -0.34151739723E+03  0.80596079330E+03  0.11879873200E+04  0.25500000920E-02 0. -1.
       -2    1    3    3    0  502  0.80318549506E+03  0.34151739723E+03  0.30331286831E+03  0.92398039383E+03  0.25500000920E-02 0.  1.
</event>
<event>
 5   0  0.3983176E-05  0.1800149E+04  0.7818609E-02  0.8706220E-01
       -2   -1    0    0    0  501  0.00000000000E+00  0.00000000000E+00  0.44416796229E+03  0.44416796229E+03  0.25500000920E-02 0.  1.
        2   -1    0    0  501    0  0.00000000000E+00  0.00000000000E+00 -0.18239369167E+04  0.18239369167E+04  0.25500000920E-02 0. -1.
    10030    2    1    2    0    0  0.00000000000E+00  0.00000000000E+00 -0.13797689544E+04  0.22681048790E+04  0.18001492645E+04 0.  0.
        3    1    3    3  502    0 -0.50106830949E+03  0.71841541770E+03 -0.42878456637E+03  0.97521606720E+03  0.10100000352E+00 0.  1.
       -3    1    3    3    0  502  0.50106830949E+03 -0.71841541770E+03 -0.95098438805E+03  0.12928888118E+04  0.10100000352E+00 0. -1.
</event>
<event>
 5   0  0.2038338E-05  0.1800205E+04  0.7818609E-02  0.8706190E-01
        1   -1    0    0  501    0  0.00000000000E+00  0.00000000000E+00  0.12153568342E+04  0.12153568342E+04  0.50400001928E-02 0. -1.
       -1   -1    0    0    0  501  0.00000000000E+00  0.00000000000E+00 -0.66662304211E+03  0.66662304213E+03  0.50400001928E-02 0.  1.
    10030    2    1    2    0    0  0.00000000000E+00  0.00000000000E+00  0.54873379208E+03  0.18819798763E+04  0.18002053995E+04 0.  0.
        1    1    3    3  502    0  0.55616652626E+03 -0.70707223207E+03  0.30594710527E+03  0.95019786232E+03  0.50400001928E-02 0.  1.
       -1    1    3    3    0  502 -0.55616652626E+03  0.70707223207E+03  0.24278668681E+03  0.93178201400E+03  0.50400001928E-02 0. -1.
</event>
<event>
 5   0  0.3993393E-05  0.1798591E+04  0.7818609E-02  0.8707049E-01
        2   -1    0    0  501    0  0.00000000000E+00  0.00000000000E+00  0.14530139872E+04  0.14530139872E+04  0.25500000920E-02 0.  1.
       -2   -1    0    0    0  501  0.00000000000E+00  0.00000000000E+00 -0.55658941070E+03  0.55658941071E+03  0.25500000920E-02 0. -1.
    10030    2    1    2    0    0  0.00000000000E+00  0.00000000000E+00  0.89642457646E+03  0.20096033979E+04  0.17985907804E+04 0.  0.
        5    1    3    3  502    0 -0.37945907262E+03 -0.35947677261E+02 -0.46185837827E+03  0.59884611953E+03  0.46999998093E+01 0. -1.
       -5    1    3    3    0  502  0.37945907262E+03  0.35947677261E+02  0.13582829547E+04  0.14107572783E+04  0.46999998093E+01 0.  1.
</event>
<event>
 5   0  0.1906857E-05  0.1789333E+04  0.7818609E-02  0.8711992E-01
        1   -1    0    0  501    0  0.00000000000E+00  0.00000000000E+00  0.12111456266E+04  0.12111456266E+04  0.50400001928E-02 0.  1.
       -1   -1    0    0    0  501  0.00000000000E+00  0.00000000000E+00 -0.66088547295E+03  0.66088547296E+03  0.50400001928E-02 0. -1.
    10030    2    1    2    0    0  0.00000000000E+00  0.00000000000E+00  0.55026015362E+03  0.18720310995E+04  0.17893334516E+04 0.  0.
        4    1    3    3  502    0 -0.45532200469E+03 -0.21702059524E+01  0.10808558226E+04  0.11728485665E+04  0.12699999809E+01 0.  1.
       -4    1    3    3    0  502  0.45532200469E+03  0.21702059524E+01 -0.53059566896E+03  0.69918253308E+03  0.12699999809E+01 0. -1.
</event>
<event>
 5   0  0.2054876E-05  0.1799044E+04  0.7818609E-02  0.8706808E-01
        1   -1    0    0  501    0  0.00000000000E+00  0.00000000000E+00  0.13997415966E+04  0.13997415966E+04  0.50400001928E-02 0.  1.
       -1   -1    0    0    0  501  0.00000000000E+00  0.00000000000E+00 -0.57806357702E+03  0.57806357704E+03  0.50400001928E-02 0. -1.
    10030    2    1    2    0    0  0.00000000000E+00  0.00000000000E+00  0.82167801959E+03  0.19778051737E+04  0.17990437841E+04 0.  0.
        5    1    3    3  502    0 -0.58888980714E+03 -0.55742309532E+03 -0.17216143441E+02  0.81106732011E+03  0.46999998093E+01 0. -1.
       -5    1    3    3    0  502  0.58888980714E+03  0.55742309532E+03  0.83889416304E+03  0.11667378536E+04  0.46999998093E+01 0.  1.
</event>
<event>
 5   0  0.4015729E-05  0.1827527E+04  0.7818609E-02  0.8691797E-01
       -2   -1    0    0    0  501  0.00000000000E+00  0.00000000000E+00  0.91727684425E+03  0.91727684425E+03  0.25500000920E-02 0. -1.
        2   -1    0    0  501    0  0.00000000000E+00  0.00000000000E+00 -0.91026313840E+03  0.91026313840E+03  0.25500000920E-02 0.  1.
    10030    2    1    2    0    0  0.00000000000E+00  0.00000000000E+00  0.70137058508E+01  0.18275399827E+04  0.18275265241E+04 0.  0.
        2    1    3    3  502    0  0.53718778796E+03  0.48140405488E+03 -0.55742750130E+03  0.91161724578E+03  0.25500000920E-02 0.  1.
       -2    1    3    3    0  502 -0.53718778796E+03 -0.48140405488E+03  0.56444120715E+03  0.91592273688E+03  0.25500000920E-02 0. -1.
</event>
<event>
 5   0  0.2038338E-05  0.1794422E+04  0.7818609E-02  0.8709272E-01
       -1   -1    0    0    0  501  0.00000000000E+00  0.00000000000E+00  0.47623201129E+03  0.47623201131E+03  0.50400001928E-02 0.  1.
        1   -1    0    0  501    0  0.00000000000E+00  0.00000000000E+00 -0.16903257475E+04  0.16903257475E+04  0.50400001928E-02 0. -1.
    10030    2    1    2    0    0  0.00000000000E+00  0.00000000000E+00 -0.12140937362E+04  0.21665577588E+04  0.17944216121E+04 0.  0.
        1    1    3    3  502    0 -0.98742367193E+02  0.35414462821E+03  0.38110667671E+03  0.52953826285E+03  0.50400001928E-02 0.  1.
       -1    1    3    3    0  502  0.98742367193E+02 -0.35414462821E+03 -0.15952004129E+04  0.16370194960E+04  0.50400001928E-02 0. -1.
</event>
<event>
 5   0  0.2001811E-05  0.1795211E+04  0.7818609E-02  0.8708850E-01
       -1   -1    0    0    0  501  0.00000000000E+00  0.00000000000E+00  0.48263287842E+03  0.48263287845E+03  0.50400001928E-02 0. -1.
        1   -1    0    0  501    0  0.00000000000E+00  0.00000000000E+00 -0.16693756557E+04  0.16693756557E+04  0.50400001928E-02 0.  1.
    10030    2    1    2    0    0  0.00000000000E+00  0.00000000000E+00 -0.11867427773E+04  0.21520085342E+04  0.17952109379E+04 0.  0.
        2    1    3    3  502    0 -0.11751196434E+03  0.27117927616E+03 -0.16093768506E+04  0.16362888220E+04  0.25500000920E-02 0.  1.
       -2    1    3    3    0  502  0.11751196434E+03 -0.27117927616E+03  0.42263407334E+03  0.51571971219E+03  0.25500000920E-02 0. -1.
</event>
<event>
 5   0  0.3993393E-05  0.1793876E+04  0.7818609E-02  0.8709563E-01
       -2   -1    0    0    0  501  0.00000000000E+00  0.00000000000E+00  0.63927674180E+03  0.63927674181E+03  0.25500000920E-02 0. -1.
        2   -1    0    0  501    0  0.00000000000E+00  0.00000000000E+00 -0.12584498058E+04  0.12584498058E+04  0.25500000920E-02 0.  1.
    10030    2    1    2    0    0  0.00000000000E+00  0.00000000000E+00 -0.61917306404E+03  0.18977265477E+04  0.17938759061E+04 0.  0.
        5    1    3    3  502    0  0.48010676480E+03 -0.10710739087E+03  0.48383306916E+03  0.68999349823E+03  0.46999998093E+01 0. -1.
       -5    1    3    3    0  502 -0.48010676480E+03  0.10710739087E+03 -0.11030061332E+04  0.12077330494E+04  0.46999998093E+01 0.  1.
</event>
<event>
 5   0  0.3909859E-05  0.1800615E+04  0.7818609E-02  0.8705972E-01
        2   -1    0    0  501    0  0.00000000000E+00  0.00000000000E+00  0.12970108659E+04  0.12970108659E+04  0.25500000920E-02 0.  1.
       -2   -1    0    0    0  501  0.00000000000E+00  0.00000000000E+00 -0.62493976416E+03  0.62493976416E+03  0.25500000920E-02 0. -1.
    10030    2    1    2    0    0  0.00000000000E+00  0.00000000000E+00  0.67207110179E+03  0.19219506301E+04  0.18006150779E+04 0.  0.
        4    1    3    3  502    0 -0.21511935145E+03  0.77539635983E+03 -0.94950653989E+02  0.81026729528E+03  0.12699999809E+01 0.  1.
       -4    1    3    3    0  502  0.21511935145E+03 -0.77539635983E+03  0.76702175578E+03  0.11116833348E+04  0.12699999809E+01 0. -1.
</event>
<event>
 5   0  0.2001811E-05  0.1798980E+04  0.7818609E-02  0.8706842E-01
        1   -1    0    0  501    0  0.00000000000E+00  0.00000000000E+00  0.99436205675E+03  0.99436205676E+03  0.50400001928E-02 0. -1.
       -1   -1    0    0    0  501  0.00000000000E+00  0.00000000000E+00 -0.81366952344E+03  0.81366952345E+03  0.50400001928E-02 0.  1.
    10030    2    1    2    0    0  0.00000000000E+00  0.00000000000E+00  0.18069253331E+03  0.18080315802E+04  0.17989798230E+04 0.  0.
        2    1    3    3  502    0  0.36106593079E+03 -0.29764463250E+03 -0.68171242379E+03  0.82685715960E+03  0.25500000920E-02 0.  1.
       -2    1    3    3    0  502 -0.36106593079E+03  0.29764463250E+03  0.86240495709E+03  0.98117442061E+03  0.25500000920E-02 0. -1.
</event>
<event>
 5   0  0.1960300E-05  0.1800086E+04  0.7818609E-02  0.8706254E-01
       -1   -1    0    0    0  501  0.00000000000E+00  0.00000000000E+00  0.70581160291E+03  0.70581160292E+03  0.50400001928E-02 0.  1.
        1   -1    0    0  501    0  0.00000000000E+00  0.00000000000E+00 -0.11477251784E+04  0.11477251784E+04  0.50400001928E-02 0. -1.
    10030    2    1    2    0    0  0.00000000000E+00  0.00000000000E+00 -0.44191357552E+03  0.18535367814E+04  0.18000863845E+04 0.  0.
        3    1    3    3  502    0  0.73624315836E+03 -0.11355173295E+03  0.29914508335E+03  0.80276757246E+03  0.10100000352E+00 0.  1.
       -3    1    3    3    0  502 -0.73624315836E+03  0.11355173295E+03 -0.74105865887E+03  0.10507692089E+04  0.10100000352E+00 0. -1.
</event>
<event>
 5   0  0.2001811E-05  0.1791164E+04  0.7818609E-02  0.8711012E-01
        1   -1    0    0  501    0  0.00000000000E+00  0.00000000000E+00  0.40827835800E+03  0.40827835803E+03  0.50400001928E-02 0. -1.
       -1   -1    0    0    0  501  0.00000000000E+00  0.00000000000E+00 -0.19645107955E+04  0.19645107955E+04  0.50400001928E-02 0.  1.
    10030    2    1    2    0    0  0.00000000000E+00  0.00000000000E+00 -0.15562324375E+04  0.23727891536E+04  0.17911641376E+04 0.  0.
        2    1    3    3  502    0 -0.38079670873E+03  0.52566652193E+03 -0.15955180942E+04  0.17225009186E+04  0.25500000920E-02 0.  1.
       -2    1    3    3    0  502  0.38079670873E+03 -0.52566652193E+03  0.39285656716E+02  0.65028823493E+03  0.25500000920E-02 0. -1.
</event>
<event>
 5   0  0.3983176E-05  0.1800491E+04  0.7818609E-02  0.8706038E-01
        2   -1    0    0  501    0  0.00000000000E+00  0.00000000000E+00  0.14086776524E+04  0.14086776524E+04  0.25500000920E-02 0.  1.
       -2   -1    0    0    0  501  0.00000000000E+00  0.00000000000E+00 -0.57532109501E+03  0.57532109502E+03  0.25500000920E-02 0. -1.
    10030    2    1    2    0    0  0.00000000000E+00  0.00000000000E+00  0.83335655738E+03  0.19839987474E+04  0.18004910103E+04 0.  0.
        3    1    3    3  502    0  0.17854050675E+03 -0.46378668563E+02  0.13876290020E+04  0.13998364014E+04  0.10100000352E+00 0.  1.
       -3    1    3    3    0  502 -0.17854050675E+03  0.46378668563E+02 -0.55427244459E+03  0.58416234599E+03  0.10100000352E+00 0. -1.
</event>
<event>
 5   0  0.2054876E-05  0.1799764E+04  0.7818609E-02  0.8706425E-01
        1   -1    0    0  501    0  0.00000000000E+00  0.00000000000E+00  0.92787368545E+03  0.92787368546E+03  0.50400001928E-02 0. -1.
       -1   -1    0    0    0  501  0.00000000000E+00  0.00000000000E+00 -0.87273445545E+03  0.87273445547E+03  0.50400001928E-02 0.  1.
    10030    2    1    2    0    0  0.00000000000E+00  0.00000000000E+00  0.55139229992E+02  0.18006081409E+04  0.17997636907E+04 0.  0.
        5    1    3    3  502    0 -0.53124730742E+03 -0.68342487557E+03 -0.21845628554E+03  0.89277012768E+03  0.46999998093E+01 0.  1.
       -5    1    3    3    0  502  0.53124730742E+03  0.68342487557E+03  0.27359551553E+03  0.90783801325E+03  0.46999998093E+01 0. -1.
</event>
<event>
 5   0  0.1906857E-05  0.1803095E+04  0.7818609E-02  0.8704655E-01
        1   -1    0    0  501    0  0.00000000000E+00  0.00000000000E+00  0.18766964691E+04  0.18766964691E+04  0.50400001928E-02 0.  1.
       -1   -1    0    0    0  501  0.00000000000E+00  0.00000000000E+00 -0.43309498809E+03  0.43309498812E+03  0.50400001928E-02 0. -1.
    10030    2    1    2    0    0  0.00000000000E+00  0.00000000000E+00  0.14436014810E+04  0.23097914572E+04  0.18030949337E+04 0.  0.
        4    1    3    3  502    0  0.33025803203E+03  0.39125642101E+03 -0.22877296159E+03  0.56079464652E+03  0.12699999809E+01 0. -1.
       -4    1    3    3    0  502 -0.33025803203E+03 -0.39125642101E+03  0.16723744426E+04  0.17489968107E+04  0.12699999809E+01 0.  1.
</event>
<event>
 5   0  0.1960300E-05  0.1797274E+04  0.7818609E-02  0.8707751E-01
        1   -1    0    0  501    0  0.00000000000E+00  0.00000000000E+00  0.93002416920E+03  0.93002416921E+03  0.50400001928E-02 0.  1.
       -1   -1    0    0    0  501  0.00000000000E+00  0.00000000000E+00 -0.86830878106E+03  0.86830878108E+03  0.50400001928E-02 0. -1.
    10030    2    1    2    0    0  0.00000000000E+00  0.00000000000E+00  0.61715388137E+02  0.17983329503E+04  0.17972736606E+04 0.  0.
        3    1    3    3  502    0  0.59086013229E+03 -0.26228001530E+03  0.65543841340E+03  0.92060090502E+03  0.10100000352E+00 0.  1.
       -3    1    3    3    0  502 -0.59086013229E+03  0.26228001530E+03 -0.59372302527E+03  0.87773204527E+03  0.10100000352E+00 0. -1.
</event>
<event>
 5   0  0.3984648E-05  0.1799809E+04  0.7818609E-02  0.8706401E-01
        2   -1    0    0  501    0  0.00000000000E+00  0.00000000000E+00  0.97557730815E+03  0.97557730816E+03  0.25500000920E-02 0. -1.
       -2   -1    0    0    0  501  0.00000000000E+00  0.00000000000E+00 -0.83010163467E+03  0.83010163467E+03  0.25500000920E-02 0.  1.
    10030    2    1    2    0    0  0.00000000000E+00  0.00000000000E+00  0.14547567348E+03  0.18056789428E+04  0.17998092324E+04 0.  0.
        1    1    3    3  502    0 -0.49422143571E+03  0.10619237925E+03  0.81967693447E+03  0.96301709531E+03  0.50400001928E-02 0. -1.
       -1    1    3    3    0  502  0.49422143571E+03 -0.10619237925E+03 -0.67420126099E+03  0.84266184752E+03  0.50400001928E-02 0.  1.
</event>
<event>
 5   0  0.2038338E-05  0.1802064E+04  0.7818609E-02  0.8705203E-01
        1   -1    0    0  501    0  0.00000000000E+00  0.00000000000E+00  0.14057594792E+04  0.14057594792E+04  0.50400001928E-02 0. -1.
       -1   -1    0    0    0  501  0.00000000000E+00  0.00000000000E+00 -0.57752314647E+03  0.57752314649E+03  0.50400001928E-02 0.  1.
    10030    2    1    2    0    0  0.00000000000E+00  0.00000000000E+00  0.82823633268E+03  0.19832826257E+04  0.18020639696E+04 0.  0.
        1    1    3    3  502    0  0.16680470641E+03  0.58564696816E+03  0.11450207992E+04  0.12968727046E+04  0.50400001928E-02 0. -1.
       -1    1    3    3    0  502 -0.16680470641E+03 -0.58564696816E+03 -0.31678446653E+03  0.68640992101E+03  0.50400001928E-02 0.  1.
</event>
<event>
 5   0  0.3983176E-05  0.1800064E+04  0.7818609E-02  0.8706266E-01
       -2   -1    0    0    0  501  0.00000000000E+00  0.00000000000E+00  0.11286250090E+04  0.11286250090E+04  0.25500000920E-02 0.  1.
        2   -1    0    0  501    0  0.00000000000E+00  0.00000000000E+00 -0.71773822525E+03  0.71773822525E+03  0.25500000920E-02 0. -1.
    10030    2    1    2    0    0  0.00000000000E+00  0.00000000000E+00  0.41088678377E+03  0.18463632343E+04  0.18000636777E+04 0.  0.
        3    1    3    3  502    0  0.73540461071E+03  0.47783426917E+03 -0.20257030132E+01  0.87701176954E+03  0.10100000352E+00 0. -1.
       -3    1    3    3    0  502 -0.73540461071E+03 -0.47783426917E+03  0.41291248678E+03  0.96935146474E+03  0.10100000352E+00 0.  1.
</event>
<event>
 5   0  0.3983176E-05  0.1803741E+04  0.7818609E-02  0.8704313E-01
       -2   -1    0    0    0  501  0.00000000000E+00  0.00000000000E+00  0.13216787566E+04  0.13216787566E+04  0.25500000920E-02 0.  1.
        2   -1    0    0  501    0  0.00000000000E+00  0.00000000000E+00 -0.61540680420E+03  0.61540680420E+03  0.25500000920E-02 0. -1.
    10030    2    1    2    0    0  0.00000000000E+00  0.00000000000E+00  0.70627195238E+03  0.19370855608E+04  0.18037406685E+04 0.  0.
        3    1    3    3  502    0  0.74071314973E+03 -0.39785985675E+03  0.70347596222E+03  0.10962786486E+04  0.10100000352E+00 0.  1.
       -3    1    3    3    0  502 -0.74071314973E+03  0.39785985675E+03  0.27959901684E+01  0.84080691217E+03  0.10100000352E+00 0. -1.
</event>
<event>
 5   0  0.3909859E-05  0.1795192E+04  0.7818609E-02  0.8708860E-01
       -2   -1    0    0    0  501  0.00000000000E+00  0.00000000000E+00  0.14103211118E+04  0.14103211118E+04  0.25500000920E-02 0. -1.
        2   -1    0    0  501    0  0.00000000000E+00  0.00000000000E+00 -0.57127333303E+03  0.57127333303E+03  0.25500000920E-02 0.  1.
    10030    2    1    2    0    0  0.00000000000E+00  0.00000000000E+00  0.83904777874E+03  0.19815944448E+04  0.17951922929E+04 0.  0.
        4    1    3    3  502    0 -0.43537960353E+03  0.59155963281E+03  0.98901994543E+03  0.12319335468E+04  0.12699999809E+01 0. -1.
       -4    1    3    3    0  502  0.43537960353E+03 -0.59155963281E+03 -0.14997216669E+03  0.74966089802E+03  0.12699999809E+01 0.  1.
</event>
<event>
 5   0  0.1960300E-05  0.1801134E+04  0.7818609E-02  0.8705697E-01
       -1   -1    0    0    0  501  0.00000000000E+00  0.00000000000E+00  0.70235393430E+03  0.70235393432E+03  0.50400001928E-02 0. -1.
        1   -1    0    0  501    0  0.00000000000E+00  0.00000000000E+00 -0.11547183660E+04  0.11547183660E+04  0.50400001928E-02 0.  1.
    10030    2    1    2    0    0  0.00000000000E+00  0.00000000000E+00 -0.45236443173E+03  0.18570723004E+04  0.18011340732E+04 0.  0.
        3    1    3    3  502    0 -0.22795309510E+03  0.75907008436E+03 -0.66709750145E+03  0.10359387497E+04  0.10100000352E+00 0.  1.
       -3    1    3    3    0  502  0.22795309510E+03 -0.75907008436E+03  0.21473306973E+03  0.82113355063E+03  0.10100000352E+00 0. -1.
</event>
<event>
 5   0  0.3909859E-05  0.1799848E+04  0.7818609E-02  0.8706380E-01
       -2   -1    0    0    0  501  0.00000000000E+00  0.00000000000E+00  0.75652100453E+03  0.75652100453E+03  0.25500000920E-02 0. -1.
        2   -1    0    0  501    0  0.00000000000E+00  0.00000000000E+00 -0.10705101431E+04  0.10705101431E+04  0.25500000920E-02 0.  1.
    10030    2    1    2    0    0  0.00000000000E+00  0.00000000000E+00 -0.31398913855E+03  0.18270311476E+04  0.17998482256E+04 0.  0.
        4    1    3    3  502    0  0.85104732919E+03  0.29049127004E+03 -0.12190280701E+03  0.90748478872E+03  0.12699999809E+01 0.  1.
       -4    1    3    3    0  502 -0.85104732919E+03 -0.29049127004E+03 -0.19208633154E+03  0.91954635890E+03  0.12699999809E+01 0. -1.
</event>
<event>
 5   0  0.2054876E-05  0.1811855E+04  0.7818609E-02  0.8700020E-01
       -1   -1    0    0    0  501  0.00000000000E+00  0.00000000000E+00  0.13691286425E+04  0.13691286425E+04  0.50400001928E-02 0.  1.
        1   -1    0    0  501    0  0.00000000000E+00  0.00000000000E+00 -0.59943575613E+03  0.59943575616E+03  0.50400001928E-02 0. -1.
    10030    2    1    2    0    0  0.00000000000E+00  0.00000000000E+00  0.76969288634E+03  0.19685643986E+04  0.18118550307E+04 0.  0.
        5    1    3    3  502    0 -0.65225754307E+03  0.48146497402E+03  0.82408209537E+03  0.11560198154E+04  0.46999998093E+01 0.  1.
       -5    1    3    3    0  502  0.65225754307E+03 -0.48146497402E+03 -0.54389209023E+02  0.81254458324E+03  0.46999998093E+01 0. -1.
</event>
<event>
 5   0  0.3984648E-05  0.1799588E+04  0.7818609E-02  0.8706519E-01
       -2   -1    0    0    0  501  0.00000000000E+00  0.00000000000E+00  0.48142926839E+03  0.48142926840E+03  0.25500000920E-02 0. -1.
        2   -1    0    0  501    0  0.00000000000E+00  0.00000000000E+00 -0.16817196792E+04  0.16817196792E+04  0.25500000920E-02 0.  1.
    10030    2    1    2    0    0  0.00000000000E+00  0.00000000000E+00 -0.12002904108E+04  0.21631489476E+04  0.17995878137E+04 0.  0.
        1    1    3    3  502    0  0.73354985498E+03  0.24452835828E+03 -0.47031536236E+02  0.77466216712E+03  0.50400001928E-02 0. -1.
       -1    1    3    3    0  502 -0.73354985498E+03 -0.24452835828E+03 -0.11532588746E+04  0.13884867805E+04  0.50400001928E-02 0.  1.
</event>
<event>
 5   0  0.2001811E-05  0.1798035E+04  0.7818609E-02  0.8707345E-01
       -1   -1    0    0    0  501  0.00000000000E+00  0.00000000000E+00  0.39813480857E+03  0.39813480860E+03  0.50400001928E-02 0. -1.
        1   -1    0    0  501    0  0.00000000000E+00  0.00000000000E+00 -0.20300482050E+04  0.20300482050E+04  0.50400001928E-02 0.  1.
    10030    2    1    2    0    0  0.00000000000E+00  0.00000000000E+00 -0.16319133965E+04  0.24281830136E+04  0.17980354318E+04 0.  0.
        2    1    3    3  502    0 -0.56086772126E+02  0.51972202378E+03  0.17180090133E+03  0.55024745135E+03  0.25500000920E-02 0. -1.
       -2    1    3    3    0  502  0.56086772126E+02 -0.51972202378E+03 -0.18037142978E+04  0.18779355623E+04  0.25500000920E-02 0.  1.
</event>
<event>
 5   0  0.3993393E-05  0.1750924E+04  0.7818609E-02  0.8732842E-01
        2   -1    0    0  501    0  0.00000000000E+00  0.00000000000E+00  0.26799131622E+04  0.26799131622E+04  0.25500000920E-02 0.  1.
       -2   -1    0    0    0  501  0.00000000000E+00  0.00000000000E+00 -0.28599207673E+03  0.28599207674E+03  0.25500000920E-02 0. -1.
    10030    2    1    2    0    0  0.00000000000E+00  0.00000000000E+00  0.23939210854E+04  0.29659052389E+04  0.17509242482E+04 0.  0.
        5    1    3    3  502    0 -0.45395333952E+03 -0.54560953404E+03  0.20650756798E+04  0.21836490220E+04  0.46999998093E+01 0.  1.
       -5    1    3    3    0  502  0.45395333952E+03  0.54560953404E+03  0.32884540569E+03  0.78225621694E+03  0.46999998093E+01 0. -1.
</event>
<event>
 5   0  0.1960300E-05  0.1799337E+04  0.7818609E-02  0.8706652E-01
        1   -1    0    0  501    0  0.00000000000E+00  0.00000000000E+00  0.84007078430E+03  0.84007078431E+03  0.50400001928E-02 0.  1.
       -1   -1    0    0    0  501  0.00000000000E+00  0.00000000000E+00 -0.96349461929E+03  0.96349461930E+03  0.50400001928E-02 0. -1.
    10030    2    1    2    0    0  0.00000000000E+00  0.00000000000E+00 -0.12342383499E+03  0.18035654036E+04  0.17993373008E+04 0.  0.
        3    1    3    3  502    0 -0.29208134763E+03 -0.57336866016E+03 -0.69195049956E+03  0.94491197375E+03  0.10100000352E+00 0. -1.
       -3    1    3    3    0  502  0.29208134763E+03  0.57336866016E+03  0.56852666457E+03  0.85865342986E+03  0.10100000352E+00 0.  1.
</event>
<event>
 5   0  0.1960300E-05  0.1797300E+04  0.7818609E-02  0.8707736E-01
       -1   -1    0    0    0  501  0.00000000000E+00  0.00000000000E+00  0.63141380870E+03  0.63141380872E+03  0.50400001928E-02 0. -1.
        1   -1    0    0  501    0  0.00000000000E+00  0.00000000000E+00 -0.12789904008E+04  0.12789904008E+04  0.50400001928E-02 0.  1.
    10030    2    1    2    0    0  0.00000000000E+00  0.00000000000E+00 -0.64757659213E+03  0.19104042096E+04  0.17973004204E+04 0.  0.
        3    1    3    3  502    0 -0.67529459901E+01  0.70434409025E+03  0.26938558216E+03  0.75413181993E+03  0.10100000352E+00 0. -1.
       -3    1    3    3    0  502  0.67529459901E+01 -0.70434409025E+03 -0.91696217430E+03  0.11562723896E+04  0.10100000352E+00 0.  1.
</event>
<event>
 5   0  0.1446750E-05  0.1799227E+04  0.7818609E-02  0.8706711E-01
        3   -1    0    0  501    0  0.00000000000E+00  0.00000000000E+00  0.81654468818E+03  0.81654469443E+03  0.10100000352E+00 0.  1.
       -3   -1    0    0    0  501  0.00000000000E+00  0.00000000000E+00 -0.99113325243E+03  0.99113325757E+03  0.10100000352E+00 0. -1.
    10030    2    1    2    0    0  0.00000000000E+00  0.00000000000E+00 -0.17458856425E+03  0.18076779520E+04  0.17992271706E+04 0.  0.
        1    1    3    3  502    0 -0.31114986549E+03  0.63056447033E+03  0.47648197210E+03  0.84938852111E+03  0.50400001928E-02 0.  1.
       -1    1    3    3    0  502  0.31114986549E+03 -0.63056447033E+03 -0.65107053635E+03  0.95828943089E+03  0.50400001928E-02 0. -1.
</event>
<event>
 5   0  0.2038338E-05  0.1797581E+04  0.7818609E-02  0.8707587E-01
        1   -1    0    0  501    0  0.00000000000E+00  0.00000000000E+00  0.62507071174E+03  0.62507071176E+03  0.50400001928E-02 0.  1.
       -1   -1    0    0    0  501  0.00000000000E+00  0.00000000000E+00 -0.12923733386E+04  0.12923733386E+04  0.50400001928E-02 0. -1.
    10030    2    1    2    0    0  0.00000000000E+00  0.00000000000E+00 -0.66730262690E+03  0.19174440504E+04  0.17975814003E+04 0.  0.
        1    1    3    3  502    0  0.64599684384E+03 -0.57401248211E+03 -0.70152278749E+02  0.86701995024E+03  0.50400001928E-02 0.  1.
       -1    1    3    3    0  502 -0.64599684384E+03  0.57401248211E+03 -0.59715034815E+03  0.10504241002E+04  0.50400001928E-02 0. -1.
</event>
<event>
 5   0  0.2001811E-05  0.1803149E+04  0.7818609E-02  0.8704626E-01
        1   -1    0    0  501    0  0.00000000000E+00  0.00000000000E+00  0.60818401786E+03  0.60818401788E+03  0.50400001928E-02 0. -1.
       -1   -1    0    0    0  501  0.00000000000E+00  0.00000000000E+00 -0.13364984802E+04  0.13364984802E+04  0.50400001928E-02 0.  1.
    10030    2    1    2    0    0  0.00000000000E+00  0.00000000000E+00 -0.72831446229E+03  0.19446824980E+04  0.18031494842E+04 0.  0.
        2    1    3    3  502    0 -0.48652943265E+03 -0.59052051830E+02  0.45196917164E+03  0.66668895729E+03  0.25500000920E-02 0. -1.
       -2    1    3    3    0  502  0.48652943265E+03  0.59052051830E+02 -0.11802836339E+04  0.12779935407E+04  0.25500000920E-02 0.  1.
</event>
<event>
 5   0  0.2054876E-05  0.1805049E+04  0.7818609E-02  0.8703619E-01
        1   -1    0    0  501    0  0.00000000000E+00  0.00000000000E+00  0.12691321719E+04  0.12691321719E+04  0.50400001928E-02 0. -1.
       -1   -1    0    0    0  501  0.00000000000E+00  0.00000000000E+00 -0.64181700935E+03  0.64181700937E+03  0.50400001928E-02 0.  1.
    10030    2    1    2    0    0  0.00000000000E+00  0.00000000000E+00  0.62731516258E+03  0.19109491813E+04  0.18050491573E+04 0.  0.
        5    1    3    3  502    0 -0.76862591608E+03  0.13659112358E+03 -0.16577514812E+03  0.79808923288E+03  0.46999998093E+01 0.  1.
       -5    1    3    3    0  502  0.76862591608E+03 -0.13659112358E+03  0.79309031069E+03  0.11128599484E+04  0.46999998093E+01 0. -1.
</event>
<event>
 5   0  0.3993393E-05  0.1799051E+04  0.7818609E-02  0.8706804E-01
        2   -1    0    0  501    0  0.00000000000E+00  0.00000000000E+00  0.63452489614E+03  0.63452489614E+03  0.25500000920E-02 0.  1.
       -2   -1    0    0    0  501  0.00000000000E+00  0.00000000000E+00 -0.12752003218E+04  0.12752003218E+04  0.25500000920E-02 0. -1.
    10030    2    1    2    0    0  0.00000000000E+00  0.00000000000E+00 -0.64067542570E+03  0.19097252180E+04  0.17990512519E+04 0.  0.
        5    1    3    3  502    0  0.68027968915E+03  0.53748789164E+03 -0.57477135111E+03  0.10402201138E+04  0.46999998093E+01 0. -1.
       -5    1    3    3    0  502 -0.68027968915E+03 -0.53748789164E+03 -0.65904074592E+02  0.86950510417E+03  0.46999998093E+01 0.  1.
</event>
<event>
 5   0  0.2054876E-05  0.1799141E+04  0.7818609E-02  0.8706756E-01
        1   -1    0    0  501    0  0.00000000000E+00  0.00000000000E+00  0.14619255537E+04  0.14619255537E+04  0.50400001928E-02 0.  1.
       -1   -1    0    0    0  501  0.00000000000E+00  0.00000000000E+00 -0.55353498053E+03  0.55353498055E+03  0.50400001928E-02 0. -1.
    10030    2    1    2    0    0  0.00000000000E+00  0.00000000000E+00  0.90839057318E+03  0.20154605343E+04  0.17991408316E+04 0.  0.
        5    1    3    3  502    0 -0.26419689214E+03  0.16033683835E+03  0.14005763830E+04  0.14342747973E+04  0.46999998093E+01 0.  1.
       -5    1    3    3    0  502  0.26419689214E+03 -0.16033683835E+03 -0.49218580978E+03  0.58118573701E+03  0.46999998093E+01 0. -1.
</event>
<event>
 5   0  0.3984648E-05  0.1805784E+04  0.7818609E-02  0.8703230E-01
        2   -1    0    0  501    0  0.00000000000E+00  0.00000000000E+00  0.72318526831E+03  0.72318526832E+03  0.25500000920E-02 0. -1.
       -2   -1    0    0    0  501  0.00000000000E+00  0.00000000000E+00 -0.11272543339E+04  0.11272543339E+04  0.25500000920E-02 0.  1.
    10030    2    1    2    0    0  0.00000000000E+00  0.00000000000E+00 -0.40406906562E+03  0.18504396023E+04  0.18057837389E+04 0.  0.
        1    1    3    3  502    0  0.37943664643E+03 -0.50927355286E+03  0.45561662194E+03  0.78161258083E+03  0.50400001928E-02 0. -1.
       -1    1    3    3    0  502 -0.37943664643E+03  0.50927355286E+03 -0.85968568757E+03  0.10688270214E+04  0.50400001928E-02 0.  1.
</event>
<event>
 5   0  0.2038338E-05  0.1803045E+04  0.7818609E-02  0.8704682E-01
        1   -1    0    0  501    0  0.00000000000E+00  0.00000000000E+00  0.13679975967E+04  0.13679975967E+04  0.50400001928E-02 0. -1.
       -1   -1    0    0    0  501  0.00000000000E+00  0.00000000000E+00 -0.59411101731E+03  0.59411101733E+03  0.50400001928E-02 0.  1.
    10030    2    1    2    0    0  0.00000000000E+00  0.00000000000E+00  0.77388657937E+03  0.19621086140E+04  0.18030445850E+04 0.  0.
        1    1    3    3  502    0 -0.38466747539E+03 -0.80968032991E+03  0.28261519344E+03  0.93990566061E+03  0.50400001928E-02 0. -1.
       -1    1    3    3    0  502  0.38466747539E+03  0.80968032991E+03  0.49127138593E+03  0.10222029534E+04  0.50400001928E-02 0.  1.
</event>
<event>
 5   0  0.3909859E-05  0.1801794E+04  0.7818609E-02  0.8705346E-01
       -2   -1    0    0    0  501  0.00000000000E+00  0.00000000000E+00  0.11196845585E+04  0.11196845585E+04  0.25500000920E-02 0. -1.
        2   -1    0    0  501    0  0.00000000000E+00  0.00000000000E+00 -0.72486051222E+03  0.72486051222E+03  0.25500000920E-02 0.  1.
    10030    2    1    2    0    0  0.00000000000E+00  0.00000000000E+00  0.39482404630E+03  0.18445450708E+04  0.18017936870E+04 0.  0.
        4    1    3    3  502    0 -0.58018400762E+02 -0.46636468488E+03  0.98425228460E+03  0.10906953409E+04  0.12699999809E+01 0. -1.
       -4    1    3    3    0  502  0.58018400762E+02  0.46636468488E+03 -0.58942823829E+03  0.75384972980E+03  0.12699999809E+01 0.  1.
</event>
<event>
 5   0  0.3983176E-05  0.1799284E+04  0.7818609E-02  0.8706680E-01
        2   -1    0    0  501    0  0.00000000000E+00  0.00000000000E+00  0.15014637079E+04  0.15014637079E+04  0.25500000920E-02 0. -1.
       -2   -1    0    0    0  501  0.00000000000E+00  0.00000000000E+00 -0.53904447935E+03  0.53904447936E+03  0.25500000920E-02 0.  1.
    10030    2    1    2    0    0  0.00000000000E+00  0.00000000000E+00  0.96241922852E+03  0.20405081872E+04  0.17992839939E+04 0.  0.
        3    1    3    3  502    0  0.88957619600E+03 -0.64010446222E+01  0.63322926869E+03  0.10919551725E+04  0.10100000352E+00 0.  1.
       -3    1    3    3    0  502 -0.88957619600E+03  0.64010446222E+01  0.32918995983E+03  0.94855301471E+03  0.10100000352E+00 0. -1.
</event>
<event>
 5   0  0.1960300E-05  0.1799107E+04  0.7818609E-02  0.8706775E-01
        1   -1    0    0  501    0  0.00000000000E+00  0.00000000000E+00  0.13676440766E+04  0.13676440766E+04  0.50400001928E-02 0.  1.
       -1   -1    0    0    0  501  0.00000000000E+00  0.00000000000E+00 -0.59167153685E+03  0.59167153687E+03  0.50400001928E-02 0. -1.
    10030    2    1    2    0    0  0.00000000000E+00  0.00000000000E+00  0.77597253976E+03  0.19593156135E+04  0.17991065257E+04 0.  0.
        3    1    3    3  502    0  0.74163815712E+03  0.20020813044E+03 -0.12176045951E+03  0.77777636328E+03  0.10100000352E+00 0. -1.
       -3    1    3    3    0  502 -0.74163815712E+03 -0.20020813044E+03  0.89773299927E+03  0.11815392502E+04  0.10100000352E+00 0.  1.
</event>
<event>
 5   0  0.2054876E-05  0.1800182E+04  0.7818609E-02  0.8706203E-01
        1   -1    0    0  501    0  0.00000000000E+00  0.00000000000E+00  0.23689260468E+04  0.23689260468E+04  0.50400001928E-02 0. -1.
       -1   -1    0    0    0  501  0.00000000000E+00  0.00000000000E+00 -0.34199619933E+03  0.34199619936E+03  0.50400001928E-02 0.  1.
    10030    2    1    2    0    0  0.00000000000E+00  0.00000000000E+00  0.20269298475E+04  0.27109222462E+04  0.18001818847E+04 0.  0.
        5    1    3    3  502    0  0.34173626949E+03 -0.49942134570E+03  0.10095223734E+02  0.60525148654E+03  0.46999998093E+01 0.  1.
       -5    1    3    3    0  502 -0.34173626949E+03  0.49942134570E+03  0.20168346237E+04  0.21056707596E+04  0.46999998093E+01 0. -1.
</event>
<event>
 5   0  0.1446750E-05  0.1799678E+04  0.7818609E-02  0.8706471E-01
       -3   -1    0    0    0  501  0.00000000000E+00  0.00000000000E+00  0.58659509960E+03  0.58659510829E+03  0.10100000352E+00 0. -1.
        3   -1    0    0  501    0  0.00000000000E+00  0.00000000000E+00 -0.13803559269E+04  0.13803559306E+04  0.10100000352E+00 0.  1.
    10030    2    1    2    0    0  0.00000000000E+00  0.00000000000E+00 -0.79376082733E+03  0.19669510389E+04  0.17996777874E+04 0.  0.
        3    1    3    3  502    0 -0.84321316881E+03 -0.21375387411E+03 -0.64852130142E+03  0.10850249100E+04  0.10100000352E+00 0.  1.
       -3    1    3    3    0  502  0.84321316881E+03  0.21375387411E+03 -0.14523952591E+03  0.88192612890E+03  0.10100000352E+00 0. -1.
</event>
<event>
 5   0  0.1906857E-05  0.1799857E+04  0.7818609E-02  0.8706375E-01
       -1   -1    0    0    0  501  0.00000000000E+00  0.00000000000E+00  0.78213804734E+03  0.78213804736E+03  0.50400001928E-02 0. -1.
        1   -1    0    0  501    0  0.00000000000E+00  0.00000000000E+00 -0.10354586126E+04  0.10354586126E+04  0.50400001928E-02 0.  1.
    10030    2    1    2    0    0  0.00000000000E+00  0.00000000000E+00 -0.25332056526E+03  0.18175966600E+04  0.17998573025E+04 0.  0.
        4    1    3    3  502    0  0.66565512789E+02  0.71016934118E+02  0.77680565946E+03  0.78288122847E+03  0.12699999809E+01 0. -1.
       -4    1    3    3    0  502 -0.66565512789E+02 -0.71016934118E+02 -0.10301262247E+04  0.10347154315E+04  0.12699999809E+01 0.  1.
</event>
<event>
 5   0  0.3983176E-05  0.1799650E+04  0.7818609E-02  0.8706486E-01
       -2   -1    0    0    0  501  0.00000000000E+00  0.00000000000E+00  0.10192840953E+04  0.10192840953E+04  0.25500000920E-02 0. -1.
        2   -1    0    0  501    0  0.00000000000E+00  0.00000000000E+00 -0.79436637357E+03  0.79436637357E+03  0.25500000920E-02 0.  1.
    10030    2    1    2    0    0  0.00000000000E+00  0.00000000000E+00  0.22491772168E+03  0.18136504688E+04  0.17996499775E+04 0.  0.
        3    1    3    3  502    0  0.28939486835E+03  0.84171064632E+03 -0.20700812210E+02  0.89031159477E+03  0.10100000352E+00 0.  1.
       -3    1    3    3    0  502 -0.28939486835E+03 -0.84171064632E+03  0.24561853389E+03  0.92333887406E+03  0.10100000352E+00 0. -1.
</event>
<event>
 5   0  0.4015729E-05  0.1826889E+04  0.7818609E-02  0.8692130E-01
        2   -1    0    0  501    0  0.00000000000E+00  0.00000000000E+00  0.15367732457E+04  0.15367732457E+04  0.25500000920E-02 0. -1.
       -2   -1    0    0    0  501  0.00000000000E+00  0.00000000000E+00 -0.54294309167E+03  0.54294309168E+03  0.25500000920E-02 0.  1.
    10030    2    1    2    0    0  0.00000000000E+00  0.00000000000E+00  0.99383015399E+03  0.20797163373E+04  0.18268885212E+04 0.  0.
        2    1    3    3  502    0  0.32367674525E+03 -0.58600721548E+03  0.12043775931E+04  0.13779319573E+04  0.25500000920E-02 0. -1.
       -2    1    3    3    0  502 -0.32367674525E+03  0.58600721548E+03 -0.21054743913E+03  0.70178438009E+03  0.25500000920E-02 0.  1.
</event>
<event>
 5   0  0.3983176E-05  0.1796234E+04  0.7818609E-02  0.8708305E-01
       -2   -1    0    0    0  501  0.00000000000E+00  0.00000000000E+00  0.72808376429E+03  0.72808376429E+03  0.25500000920E-02 0.  1.
        2   -1    0    0  501    0  0.00000000000E+00  0.00000000000E+00 -0.11078585901E+04  0.11078585902E+04  0.25500000920E-02 0. -1.
    10030    2    1    2    0    0  0.00000000000E+00  0.00000000000E+00 -0.37977482586E+03  0.18359423544E+04  0.17962336737E+04 0.  0.
        3    1    3    3  502    0 -0.83954030606E+02 -0.27278620307E+03  0.68049700251E+03  0.73792734904E+03  0.10100000352E+00 0.  1.
       -3    1    3    3    0  502  0.83954030606E+02  0.27278620307E+03 -0.10602718284E+04  0.10980150054E+04  0.10100000352E+00 0. -1.
</event>
<event>
 5   0  0.4015729E-05  0.1799980E+04  0.7818609E-02  0.8706310E-01
       -2   -1    0    0    0  501  0.00000000000E+00  0.00000000000E+00  0.51840395099E+03  0.51840395100E+03  0.25500000920E-02 0.  1.
        2   -1    0    0  501    0  0.00000000000E+00  0.00000000000E+00 -0.15624530092E+04  0.15624530092E+04  0.25500000920E-02 0. -1.
    10030    2    1    2    0    0  0.00000000000E+00  0.00000000000E+00 -0.10440490582E+04  0.20808569602E+04  0.17999797924E+04 0.  0.
        2    1    3    3  502    0 -0.85788349195E+03  0.18338528011E+03 -0.28969819429E+03  0.92386107749E+03  0.25500000920E-02 0.  1.
       -2    1    3    3    0  502  0.85788349195E+03 -0.18338528011E+03 -0.75435086392E+03  0.11569958827E+04  0.25500000920E-02 0. -1.
</event>
<event>
 5   0  0.3983176E-05  0.1800072E+04  0.7818609E-02  0.8706261E-01
        2   -1    0    0  501    0  0.00000000000E+00  0.00000000000E+00  0.12145710922E+04  0.12145710922E+04  0.25500000920E-02 0. -1.
       -2   -1    0    0    0  501  0.00000000000E+00  0.00000000000E+00 -0.66695566813E+03  0.66695566813E+03  0.25500000920E-02 0.  1.
    10030    2    1    2    0    0  0.00000000000E+00  0.00000000000E+00  0.54761542411E+03  0.18815267604E+04  0.18000723034E+04 0.  0.
        3    1    3    3  502    0  0.10531755266E+03 -0.59240821687E+03 -0.42582797355E+03  0.73713550693E+03  0.10100000352E+00 0.  1.
       -3    1    3    3    0  502 -0.10531755266E+03  0.59240821687E+03  0.97344339766E+03  0.11443912534E+04  0.10100000352E+00 0. -1.
</event>
<event>
 5   0  0.3993393E-05  0.1799300E+04  0.7818609E-02  0.8706672E-01
       -2   -1    0    0    0  501  0.00000000000E+00  0.00000000000E+00  0.45280015574E+03  0.45280015574E+03  0.25500000920E-02 0.  1.
        2   -1    0    0  501    0  0.00000000000E+00  0.00000000000E+00 -0.17874775020E+04  0.17874775020E+04  0.25500000920E-02 0. -1.
    10030    2    1    2    0    0  0.00000000000E+00  0.00000000000E+00 -0.13346773462E+04  0.22402776577E+04  0.17992999653E+04 0.  0.
        5    1    3    3  502    0 -0.83653538258E+03  0.31759176297E+03 -0.78341905036E+03  0.11892953681E+04  0.46999998093E+01 0. -1.
       -5    1    3    3    0  502  0.83653538258E+03 -0.31759176297E+03 -0.55125829586E+03  0.10509822896E+04  0.46999998093E+01 0.  1.
</event>
<event>
 5   0  0.3909859E-05  0.1799345E+04  0.7818609E-02  0.8706648E-01
        2   -1    0    0  501    0  0.00000000000E+00  0.00000000000E+00  0.83526938885E+03  0.83526938886E+03  0.25500000920E-02 0. -1.
       -2   -1    0    0    0  501  0.00000000000E+00  0.00000000000E+00 -0.96904085784E+03  0.96904085785E+03  0.25500000920E-02 0.  1.
    10030    2    1    2    0    0  0.00000000000E+00  0.00000000000E+00 -0.13377146899E+03  0.18043102467E+04  0.17993445085E+04 0.  0.
        4    1    3    3  502    0 -0.52109762452E+03 -0.12760516447E+03 -0.79108569769E+03  0.95584727141E+03  0.12699999809E+01 0.  1.
       -4    1    3    3    0  502  0.52109762452E+03  0.12760516447E+03  0.65731422870E+03  0.84846297529E+03  0.12699999809E+01 0. -1.
</event>
<event>
 5   0  0.3909859E-05  0.1799182E+04  0.7818609E-02  0.8706734E-01
        2   -1    0    0  501    0  0.00000000000E+00  0.00000000000E+00  0.93982546239E+03  0.93982546240E+03  0.25500000920E-02 0.  1.
       -2   -1    0    0    0  501  0.00000000000E+00  0.00000000000E+00 -0.86107921304E+03  0.86107921304E+03  0.25500000920E-02 0. -1.
    10030    2    1    2    0    0  0.00000000000E+00  0.00000000000E+00  0.78746249355E+02  0.18009046754E+04  0.17991822249E+04 0.  0.
        4    1    3    3  502    0  0.36541124368E+03  0.45223354275E+03  0.72648642315E+03  0.93049701242E+03  0.12699999809E+01 0.  1.
       -4    1    3    3    0  502 -0.36541124368E+03 -0.45223354275E+03 -0.64774017380E+03  0.87040766302E+03  0.12699999809E+01 0. -1.
</event>
<event>
 5   0  0.2038338E-05  0.1799790E+04  0.7818609E-02  0.8706411E-01
       -1   -1    0    0    0  501  0.00000000000E+00  0.00000000000E+00  0.12495813598E+04  0.12495813598E+04  0.50400001928E-02 0.  1.
        1   -1    0    0  501    0  0.00000000000E+00  0.00000000000E+00 -0.64806598764E+03  0.64806598766E+03  0.50400001928E-02 0. -1.
    10030    2    1    2    0    0  0.00000000000E+00  0.00000000000E+00  0.60151537212E+03  0.18976473474E+04  0.17997901856E+04 0.  0.
        1    1    3    3  502    0  0.84312654035E+03 -0.17080697578E+03  0.57926704376E+03  0.10371054402E+04  0.50400001928E-02 0. -1.
       -1    1    3    3    0  502 -0.84312654035E+03  0.17080697578E+03  0.22248328356E+02  0.86054190726E+03  0.50400001928E-02 0.  1.
</event>
<event>
 5   0  0.4015729E-05  0.1803093E+04  0.7818609E-02  0.8704657E-01
       -2   -1    0    0    0  501  0.00000000000E+00  0.00000000000E+00  0.13233094522E+04  0.13233094522E+04  0.25500000920E-02 0. -1.
        2   -1    0    0  501    0  0.00000000000E+00  0.00000000000E+00 -0.61420696110E+03  0.61420696110E+03  0.25500000920E-02 0.  1.
    10030    2    1    2    0    0  0.00000000000E+00  0.00000000000E+00  0.70910249110E+03  0.19375164133E+04  0.18030927622E+04 0.  0.
        2    1    3    3  502    0  0.80921863174E+03 -0.13872347156E+03 -0.45648054186E+02  0.82229115304E+03  0.25500000920E-02 0.  1.
       -2    1    3    3    0  502 -0.80921863174E+03  0.13872347156E+03  0.75475054528E+03  0.11152252603E+04  0.25500000920E-02 0. -1.
</event>
<event>
 5   0  0.2054876E-05  0.1795665E+04  0.7818609E-02  0.8708608E-01
        1   -1    0    0  501    0  0.00000000000E+00  0.00000000000E+00  0.11949282257E+04  0.11949282257E+04  0.50400001928E-02 0.  1.
       -1   -1    0    0    0  501  0.00000000000E+00  0.00000000000E+00 -0.67460390725E+03  0.67460390727E+03  0.50400001928E-02 0. -1.
    10030    2    1    2    0    0  0.00000000000E+00  0.00000000000E+00  0.52032431843E+03  0.18695321330E+04  0.17956650578E+04 0.  0.
        5    1    3    3  502    0 -0.18858681654E+03  0.30390478027E+03 -0.59721728164E+03  0.69614199293E+03  0.46999998093E+01 0. -1.
       -5    1    3    3    0  502  0.18858681654E+03 -0.30390478027E+03  0.11175416001E+04  0.11733901400E+04  0.46999998093E+01 0.  1.
</event>
<event>
 5   0  0.1906857E-05  0.1798136E+04  0.7818609E-02  0.8707291E-01
       -1   -1    0    0    0  501  0.00000000000E+00  0.00000000000E+00  0.51561601357E+03  0.51561601359E+03  0.50400001928E-02 0. -1.
        1   -1    0    0  501    0  0.00000000000E+00  0.00000000000E+00 -0.15676849419E+04  0.15676849419E+04  0.50400001928E-02 0.  1.
    10030    2    1    2    0    0  0.00000000000E+00  0.00000000000E+00 -0.10520689284E+04  0.20833009555E+04  0.17981362132E+04 0.  0.
        4    1    3    3  502    0  0.92152508551E+02  0.59141891869E+03 -0.13032857715E+04  0.14341631139E+04  0.12699999809E+01 0.  1.
       -4    1    3    3    0  502 -0.92152508551E+02 -0.59141891869E+03  0.25121684316E+03  0.64913784160E+03  0.12699999809E+01 0. -1.
</event>
<event>
 5   0  0.2054876E-05  0.1801183E+04  0.7818609E-02  0.8705671E-01
        1   -1    0    0  501    0  0.00000000000E+00  0.00000000000E+00  0.21298674028E+04  0.21298674029E+04  0.50400001928E-02 0.  1.
       -1   -1    0    0    0  501  0.00000000000E+00  0.00000000000E+00 -0.38080530410E+03  0.38080530413E+03  0.50400001928E-02 0. -1.
    10030    2    1    2    0    0  0.00000000000E+00  0.00000000000E+00  0.17490620988E+04  0.25106727070E+04  0.18011827271E+04 0.  0.
        5    1    3    3  502    0  0.23654056111E+03 -0.71962661436E+03  0.19561504625E+03  0.78236899061E+03  0.46999998093E+01 0. -1.
       -5    1    3    3    0  502 -0.23654056111E+03  0.71962661436E+03  0.15534470525E+04  0.17283037164E+04  0.46999998093E+01 0.  1.
</event>
<event>
 5   0  0.3984648E-05  0.1799474E+04  0.7818609E-02  0.8706579E-01
       -2   -1    0    0    0  501  0.00000000000E+00  0.00000000000E+00  0.66646822344E+03  0.66646822345E+03  0.25500000920E-02 0. -1.
        2   -1    0    0  501    0  0.00000000000E+00  0.00000000000E+00 -0.12146519037E+04  0.12146519037E+04  0.25500000920E-02 0.  1.
    10030    2    1    2    0    0  0.00000000000E+00  0.00000000000E+00 -0.54818368022E+03  0.18811201271E+04  0.17994742525E+04 0.  0.
        1    1    3    3  502    0 -0.16312557687E+03 -0.47909529085E+03  0.50355864155E+03  0.71394226450E+03  0.50400001928E-02 0. -1.
       -1    1    3    3    0  502  0.16312557687E+03  0.47909529085E+03 -0.10517423218E+04  0.11671778626E+04  0.50400001928E-02 0.  1.
</event>
<event>
 5   0  0.3983176E-05  0.1806321E+04  0.7818609E-02  0.8702945E-01
       -2   -1    0    0    0  501  0.00000000000E+00  0.00000000000E+00  0.43891222537E+03  0.43891222537E+03  0.25500000920E-02 0.  1.
        2   -1    0    0  501    0  0.00000000000E+00  0.00000000000E+00 -0.18584548443E+04  0.18584548443E+04  0.25500000920E-02 0. -1.
    10030    2    1    2    0    0  0.00000000000E+00  0.00000000000E+00 -0.14195426189E+04  0.22973670696E+04  0.18063206265E+04 0.  0.
        3    1    3    3  502    0  0.27225063198E+03 -0.58779099858E+03 -0.15102079111E+04  0.16432731391E+04  0.10100000352E+00 0. -1.
       -3    1    3    3    0  502 -0.27225063198E+03  0.58779099858E+03  0.90665292193E+02  0.65409393059E+03  0.10100000352E+00 0.  1.
</event>
<event>
 5   0  0.3993393E-05  0.1776885E+04  0.7818609E-02  0.8718689E-01
       -2   -1    0    0    0  501  0.00000000000E+00  0.00000000000E+00  0.60116970276E+03  0.60116970277E+03  0.25500000920E-02 0. -1.
        2   -1    0    0  501    0  0.00000000000E+00  0.00000000000E+00 -0.13129909056E+04  0.13129909056E+04  0.25500000920E-02 0.  1.
    10030    2    1    2    0    0  0.00000000000E+00  0.00000000000E+00 -0.71182120282E+03  0.19141606084E+04  0.17768853114E+04 0.  0.
        5    1    3    3  502    0 -0.59186222958E+03  0.23983158386E+03 -0.10212749359E+04  0.12045101378E+04  0.46999998093E+01 0.  1.
       -5    1    3    3    0  502  0.59186222958E+03 -0.23983158386E+03  0.30945373308E+03  0.70965047053E+03  0.46999998093E+01 0. -1.
</event>
<event>
 5   0  0.2054876E-05  0.1797178E+04  0.7818609E-02  0.8707802E-01
        1   -1    0    0  501    0  0.00000000000E+00  0.00000000000E+00  0.81044239053E+03  0.81044239054E+03  0.50400001928E-02 0. -1.
       -1   -1    0    0    0  501  0.00000000000E+00  0.00000000000E+00 -0.99632231455E+03  0.99632231456E+03  0.50400001928E-02 0.  1.
    10030    2    1    2    0    0  0.00000000000E+00  0.00000000000E+00 -0.18587992402E+03  0.18067647051E+04  0.17971776077E+04 0.  0.
        5    1    3    3  502    0 -0.68796386008E+03 -0.31455260173E+03 -0.58050351185E+03  0.95354288278E+03  0.46999998093E+01 0.  1.
       -5    1    3    3    0  502  0.68796386008E+03  0.31455260173E+03  0.39462358783E+03  0.85322182233E+03  0.46999998093E+01 0. -1.
</event>
<event>
 5   0  0.3983176E-05  0.1805442E+04  0.7818609E-02  0.8703411E-01
       -2   -1    0    0    0  501  0.00000000000E+00  0.00000000000E+00  0.13141118633E+04  0.13141118633E+04  0.25500000920E-02 0. -1.
        2   -1    0    0  501    0  0.00000000000E+00  0.00000000000E+00 -0.62011849149E+03  0.62011849150E+03  0.25500000920E-02 0.  1.
    10030    2    1    2    0    0  0.00000000000E+00  0.00000000000E+00  0.69399337182E+03  0.19342303548E+04  0.18054418477E+04 0.  0.
        3    1    3    3  502    0 -0.25761479245E+03  0.64319816667E+02 -0.57733670346E+03  0.63546840949E+03  0.10100000352E+00 0.  1.
       -3    1    3    3    0  502  0.25761479245E+03 -0.64319816667E+02  0.12713300753E+04  0.12987619453E+04  0.10100000352E+00 0. -1.
</event>
<event>
 5   0  0.3909859E-05  0.1801870E+04  0.7818609E-02  0.8705306E-01
       -2   -1    0    0    0  501  0.00000000000E+00  0.00000000000E+00  0.61383111059E+03  0.61383111059E+03  0.25500000920E-02 0.  1.
        2   -1    0    0  501    0  0.00000000000E+00  0.00000000000E+00 -0.13223241789E+04  0.13223241789E+04  0.25500000920E-02 0. -1.
    10030    2    1    2    0    0  0.00000000000E+00  0.00000000000E+00 -0.70849306834E+03  0.19361552895E+04  0.18018698281E+04 0.  0.
        4    1    3    3  502    0  0.83235568089E+03  0.32281924303E+03 -0.22417183178E+03  0.92047969355E+03  0.12699999809E+01 0. -1.
       -4    1    3    3    0  502 -0.83235568089E+03 -0.32281924303E+03 -0.48432123657E+03  0.10156755960E+04  0.12699999809E+01 0.  1.
</event>
<event>
 5   0  0.3993393E-05  0.1807376E+04  0.7818609E-02  0.8702387E-01
       -2   -1    0    0    0  501  0.00000000000E+00  0.00000000000E+00  0.52672740109E+03  0.52672740109E+03  0.25500000920E-02 0.  1.
        2   -1    0    0  501    0  0.00000000000E+00  0.00000000000E+00 -0.15504262530E+04  0.15504262530E+04  0.25500000920E-02 0. -1.
    10030    2    1    2    0    0  0.00000000000E+00  0.00000000000E+00 -0.10236988519E+04  0.20771536541E+04  0.18073759884E+04 0.  0.
        5    1    3    3  502    0  0.72866275742E+03 -0.53682054689E+02 -0.11230149369E+04  0.13397820030E+04  0.46999998093E+01 0. -1.
       -5    1    3    3    0  502 -0.72866275742E+03  0.53682054689E+02  0.99316085025E+02  0.73737165107E+03  0.46999998093E+01 0.  1.
</event>
<event>
 5   0  0.2054876E-05  0.1802145E+04  0.7818609E-02  0.8705160E-01
       -1   -1    0    0    0  501  0.00000000000E+00  0.00000000000E+00  0.51488121192E+03  0.51488121194E+03  0.50400001928E-02 0. -1.
        1   -1    0    0  501    0  0.00000000000E+00  0.00000000000E+00 -0.15769302233E+04  0.15769302233E+04  0.50400001928E-02 0.  1.
    10030    2    1    2    0    0  0.00000000000E+00  0.00000000000E+00 -0.10620490114E+04  0.20918114352E+04  0.18021451046E+04 0.  0.
        5    1    3    3  502    0 -0.50532401754E+03 -0.40563230704E+03  0.19572833044E+03  0.67692067522E+03  0.46999998093E+01 0. -1.
       -5    1    3    3    0  502  0.50532401754E+03  0.40563230704E+03 -0.12577773418E+04  0.14148907600E+04  0.46999998093E+01 0.  1.
</event>
<event>
 5   0  0.3983176E-05  0.1799495E+04  0.7818609E-02  0.8706568E-01
        2   -1    0    0  501    0  0.00000000000E+00  0.00000000000E+00  0.15352879292E+04  0.15352879292E+04  0.25500000920E-02 0.  1.
       -2   -1    0    0    0  501  0.00000000000E+00  0.00000000000E+00 -0.52729225513E+03  0.52729225513E+03  0.25500000920E-02 0. -1.
    10030    2    1    2    0    0  0.00000000000E+00  0.00000000000E+00  0.10079956741E+04  0.20625801843E+04  0.17994948563E+04 0.  0.
        3    1    3    3  502    0 -0.74717591953E+03  0.49980233482E+03  0.46003401420E+03  0.10098047004E+04  0.10100000352E+00 0. -1.
       -3    1    3    3    0  502  0.74717591953E+03 -0.49980233482E+03  0.54796165988E+03  0.10527754839E+04  0.10100000352E+00 0.  1.
</event>
<event>
 5   0  0.3984648E-05  0.1800728E+04  0.7818609E-02  0.8705912E-01
       -2   -1    0    0    0  501  0.00000000000E+00  0.00000000000E+00  0.94053539496E+03  0.94053539496E+03  0.25500000920E-02 0. -1.
        2   -1    0    0  501    0  0.00000000000E+00  0.00000000000E+00 -0.86190834714E+03  0.86190834714E+03  0.25500000920E-02 0.  1.
    10030    2    1    2    0    0  0.00000000000E+00  0.00000000000E+00  0.78627047823E+02  0.18024437421E+04  0.18007279725E+04 0.  0.
        1    1    3    3  502    0  0.48899497951E+03  0.73540147334E+03  0.21476285352E+03  0.90887540414E+03  0.50400001928E-02 0.  1.
       -1    1    3    3    0  502 -0.48899497951E+03 -0.73540147334E+03 -0.13613580570E+03  0.89356833796E+03  0.50400001928E-02 0. -1.
</event>
<event>
 5   0  0.3909859E-05  0.1800150E+04  0.7818609E-02  0.8706220E-01
       -2   -1    0    0    0  501  0.00000000000E+00  0.00000000000E+00  0.15433303690E+04  0.15433303690E+04  0.25500000920E-02 0.  1.
        2   -1    0    0  501    0  0.00000000000E+00  0.00000000000E+00 -0.52492660256E+03  0.52492660257E+03  0.25500000920E-02 0. -1.
    10030    2    1    2    0    0  0.00000000000E+00  0.00000000000E+00  0.10184037665E+04  0.20682569716E+04  0.18001501796E+04 0.  0.
        4    1    3    3  502    0  0.81543745871E+03 -0.21393893101E+03  0.14692175101E+03  0.85574279377E+03  0.12699999809E+01 0. -1.
       -4    1    3    3    0  502 -0.81543745871E+03  0.21393893101E+03  0.87148201547E+03  0.12125141778E+04  0.12699999809E+01 0.  1.
</event>
<event>
 5   0  0.3984648E-05  0.1766583E+04  0.7818609E-02  0.8724275E-01
       -2   -1    0    0    0  501  0.00000000000E+00  0.00000000000E+00  0.79634873676E+03  0.79634873676E+03  0.25500000920E-02 0.  1.
        2   -1    0    0  501    0  0.00000000000E+00  0.00000000000E+00 -0.97972601930E+03  0.97972601930E+03  0.25500000920E-02 0. -1.
    10030    2    1    2    0    0  0.00000000000E+00  0.00000000000E+00 -0.18337728254E+03  0.17760747561E+04  0.17665826647E+04 0.  0.
        1    1    3    3  502    0  0.70744123854E+03 -0.11244284639E+03  0.42789290210E+03  0.83439129632E+03  0.50400001928E-02 0.  1.
       -1    1    3    3    0  502 -0.70744123854E+03  0.11244284639E+03 -0.61127018465E+03  0.94168345974E+03  0.50400001928E-02 0. -1.
</event>
<event>
 5   0  0.3983176E-05  0.1803994E+04  0.7818609E-02  0.8704178E-01
        2   -1    0    0  501    0  0.00000000000E+00  0.00000000000E+00  0.15576270022E+04  0.15576270022E+04  0.25500000920E-02 0. -1.
       -2   -1    0    0    0  501  0.00000000000E+00  0.00000000000E+00 -0.52233206791E+03  0.52233206792E+03  0.25500000920E-02 0.  1.
    10030    2    1    2    0    0  0.00000000000E+00  0.00000000000E+00  0.10352949343E+04  0.20799590701E+04  0.18039939391E+04 0.  0.
        3    1    3    3  502    0 -0.20140130025E+03  0.38429171461E+03 -0.39411843498E+03  0.58615011443E+03  0.10100000352E+00 0.  1.
       -3    1    3    3    0  502  0.20140130025E+03 -0.38429171461E+03  0.14294133693E+04  0.14938089557E+04  0.10100000352E+00 0. -1.
</event>
<event>
 5   0  0.4015729E-05  0.1800419E+04  0.7818609E-02  0.8706077E-01
       -2   -1    0    0    0  501  0.00000000000E+00  0.00000000000E+00  0.10121610886E+04  0.10121610886E+04  0.25500000920E-02 0. -1.
        2   -1    0    0  501    0  0.00000000000E+00  0.00000000000E+00 -0.80064063798E+03  0.80064063798E+03  0.25500000920E-02 0.  1.
    10030    2    1    2    0    0  0.00000000000E+00  0.00000000000E+00  0.21152045060E+03  0.18128017266E+04  0.18004191731E+04 0.  0.
        2    1    3    3  502    0  0.12339757781E+03  0.88788305940E+03  0.18887496906E+03  0.91609881744E+03  0.25500000920E-02 0. -1.
       -2    1    3    3    0  502 -0.12339757781E+03 -0.88788305940E+03  0.22645481536E+02  0.89670290912E+03  0.25500000920E-02 0.  1.
</event>
<event>
 5   0  0.3984648E-05  0.1798091E+04  0.7818609E-02  0.8707315E-01
        2   -1    0    0  501    0  0.00000000000E+00  0.00000000000E+00  0.15311127899E+04  0.15311127899E+04  0.25500000920E-02 0.  1.
       -2   -1    0    0    0  501  0.00000000000E+00  0.00000000000E+00 -0.52790544065E+03  0.52790544066E+03  0.25500000920E-02 0. -1.
    10030    2    1    2    0    0  0.00000000000E+00  0.00000000000E+00  0.10032073493E+04  0.20590182306E+04  0.17980909566E+04 0.  0.
        1    1    3    3  502    0  0.14263118686E+03  0.57258054845E+03 -0.27512659546E+03  0.65106588260E+03  0.50400001928E-02 0. -1.
       -1    1    3    3    0  502 -0.14263118686E+03 -0.57258054845E+03  0.12783339447E+04  0.14079523480E+04  0.50400001928E-02 0.  1.
</event>
<event>
 5   0  0.4015729E-05  0.1803914E+04  0.7818609E-02  0.8704221E-01
        2   -1    0    0  501    0  0.00000000000E+00  0.00000000000E+00  0.15149724136E+04  0.15149724136E+04  0.25500000920E-02 0.  1.
       -2   -1    0    0    0  501  0.00000000000E+00  0.00000000000E+00 -0.53699069127E+03  0.53699069128E+03  0.25500000920E-02 0. -1.
    10030    2    1    2    0    0  0.00000000000E+00  0.00000000000E+00  0.97798172234E+03  0.20519631049E+04  0.18039136162E+04 0.  0.
        2    1    3    3  502    0  0.28516695402E+03 -0.49328101943E+03  0.12843345249E+04  0.14050485855E+04  0.25500000920E-02 0.  1.
       -2    1    3    3    0  502 -0.28516695402E+03  0.49328101943E+03 -0.30635280253E+03  0.64691451941E+03  0.25500000920E-02 0. -1.
</event>
<event>
 5   0  0.2038338E-05  0.1802901E+04  0.7818609E-02  0.8704758E-01
       -1   -1    0    0    0  501  0.00000000000E+00  0.00000000000E+00  0.54963890229E+03  0.54963890231E+03  0.50400001928E-02 0.  1.
        1   -1    0    0  501    0  0.00000000000E+00  0.00000000000E+00 -0.14784496343E+04  0.14784496343E+04  0.50400001928E-02 0. -1.
    10030    2    1    2    0    0  0.00000000000E+00  0.00000000000E+00 -0.92881073197E+03  0.20280885366E+04  0.18029014772E+04 0.  0.
        1    1    3    3  502    0 -0.89988498271E+03 -0.44226136438E+02 -0.49748019583E+03  0.10291916627E+04  0.50400001928E-02 0.  1.
       -1    1    3    3    0  502  0.89988498271E+03  0.44226136438E+02 -0.43133053614E+03  0.99889687390E+03  0.50400001928E-02 0. -1.
</event>
<event>
 5   0  0.2001811E-05  0.1802246E+04  0.7818609E-02  0.8705106E-01
        1   -1    0    0  501    0  0.00000000000E+00  0.00000000000E+00  0.14622667556E+04  0.14622667556E+04  0.50400001928E-02 0.  1.
       -1   -1    0    0    0  501  0.00000000000E+00  0.00000000000E+00 -0.55531771539E+03  0.55531771542E+03  0.50400001928E-02 0. -1.
    10030    2    1    2    0    0  0.00000000000E+00  0.00000000000E+00  0.90694904021E+03  0.20175844710E+04  0.18022459699E+04 0.  0.
        2    1    3    3  502    0 -0.11977938064E+03  0.38930876324E+03  0.13533290628E+04  0.14132968427E+04  0.25500000920E-02 0.  1.
       -2    1    3    3    0  502  0.11977938064E+03 -0.38930876324E+03 -0.44638002264E+03  0.60428762835E+03  0.25500000920E-02 0. -1.
</event>
<event>
 5   0  0.1906857E-05  0.1806852E+04  0.7818609E-02  0.8702664E-01
       -1   -1    0    0    0  501  0.00000000000E+00  0.00000000000E+00  0.77574941428E+03  0.77574941429E+03  0.50400001928E-02 0. -1.
        1   -1    0    0  501    0  0.00000000000E+00  0.00000000000E+00 -0.10521166531E+04  0.10521166531E+04  0.50400001928E-02 0.  1.
    10030    2    1    2    0    0  0.00000000000E+00  0.00000000000E+00 -0.27636723880E+03  0.18278660674E+04  0.18068523763E+04 0.  0.
        4    1    3    3  502    0 -0.10154673815E+02  0.70627643459E+03  0.43161444731E+03  0.82778147085E+03  0.12699999809E+01 0. -1.
       -4    1    3    3    0  502  0.10154673815E+02 -0.70627643459E+03 -0.70798168611E+03  0.10000845965E+04  0.12699999809E+01 0.  1.
</event>
<event>
 5   0  0.2054876E-05  0.1795892E+04  0.7818609E-02  0.8708487E-01
       -1   -1    0    0    0  501  0.00000000000E+00  0.00000000000E+00  0.40356430652E+03  0.40356430655E+03  0.50400001928E-02 0.  1.
        1   -1    0    0  501    0  0.00000000000E+00  0.00000000000E+00 -0.19979649200E+04  0.19979649200E+04  0.50400001928E-02 0. -1.
    10030    2    1    2    0    0  0.00000000000E+00  0.00000000000E+00 -0.15944006135E+04  0.24015292266E+04  0.17958923436E+04 0.  0.
        5    1    3    3  502    0  0.20224846882E+02 -0.71016325849E+03 -0.15315166050E+04  0.16882849580E+04  0.46999998093E+01 0. -1.
       -5    1    3    3    0  502 -0.20224846882E+02  0.71016325849E+03 -0.62884008556E+02  0.71324426859E+03  0.46999998093E+01 0.  1.
</event>
<event>
 5   0  0.3983176E-05  0.1800859E+04  0.7818609E-02  0.8705843E-01
        2   -1    0    0  501    0  0.00000000000E+00  0.00000000000E+00  0.19994180983E+04  0.19994180983E+04  0.25500000920E-02 0.  1.
       -2   -1    0    0    0  501  0.00000000000E+00  0.00000000000E+00 -0.40550471180E+03  0.40550471181E+03  0.25500000920E-02 0. -1.
    10030    2    1    2    0    0  0.00000000000E+00  0.00000000000E+00  0.15939133865E+04  0.24049228101E+04  0.18008591946E+04 0.  0.
        3    1    3    3  502    0  0.67278696042E+03  0.47703082573E+03  0.12795126200E+04  0.15222855375E+04  0.10100000352E+00 0. -1.
       -3    1    3    3    0  502 -0.67278696042E+03 -0.47703082573E+03  0.31440076652E+03  0.88263727261E+03  0.10100000352E+00 0.  1.
</event>
<event>
 5   0  0.1446750E-05  0.1799845E+04  0.7818609E-02  0.8706382E-01
        3   -1    0    0  501    0  0.00000000000E+00  0.00000000000E+00  0.12152713275E+04  0.12152713317E+04  0.10100000352E+00 0. -1.
       -3   -1    0    0    0  501  0.00000000000E+00  0.00000000000E+00 -0.66640320017E+03  0.66640320783E+03  0.10100000352E+00 0.  1.
    10030    2    1    2    0    0  0.00000000000E+00  0.00000000000E+00  0.54886812731E+03  0.18816745395E+04  0.17998452299E+04 0.  0.
        5    1    3    3  502    0  0.50705355102E+03  0.70408610489E+03  0.52403111241E+03  0.10136425620E+04  0.46999998093E+01 0. -1.
       -5    1    3    3    0  502 -0.50705355102E+03 -0.70408610489E+03  0.24837014908E+02  0.86803197753E+03  0.46999998093E+01 0.  1.
</event>
<event>
 5   0  0.3983176E-05  0.1798505E+04  0.7818609E-02  0.8707095E-01
       -2   -1    0    0    0  501  0.00000000000E+00  0.00000000000E+00  0.47556695819E+03  0.47556695820E+03  0.25500000920E-02 0. -1.
        2   -1    0    0  501    0  0.00000000000E+00  0.00000000000E+00 -0.17004028262E+04  0.17004028262E+04  0.25500000920E-02 0.  1.
    10030    2    1    2    0    0  0.00000000000E+00  0.00000000000E+00 -0.12248358681E+04  0.21759697844E+04  0.17985053792E+04 0.  0.
        3    1    3    3  502    0  0.30627830943E+03  0.83483298598E+03 -0.45053447480E+03  0.99686199671E+03  0.10100000352E+00 0. -1.
       -3    1    3    3    0  502 -0.30627830943E+03 -0.83483298598E+03 -0.77430139325E+03  0.11791077877E+04  0.10100000352E+00 0.  1.
</event>
<event>
 5   0  0.1960300E-05  0.1799513E+04  0.7818609E-02  0.8706558E-01
       -1   -1    0    0    0  501  0.00000000000E+00  0.00000000000E+00  0.76351617467E+03  0.76351617469E+03  0.50400001928E-02 0.  1.
        1   -1    0    0  501    0  0.00000000000E+00  0.00000000000E+00 -0.10603075274E+04  0.10603075274E+04  0.50400001928E-02 0. -1.
    10030    2    1    2    0    0  0.00000000000E+00  0.00000000000E+00 -0.29679135276E+03  0.18238237021E+04  0.17995132090E+04 0.  0.
        3    1    3    3  502    0  0.12676034420E+03 -0.24296887937E+03  0.72018838161E+03  0.77056691884E+03  0.10100000352E+00 0.  1.
       -3    1    3    3    0  502 -0.12676034420E+03  0.24296887937E+03 -0.10169797344E+04  0.10532567833E+04  0.10100000352E+00 0. -1.
</event>
<event>
 5   0  0.1906857E-05  0.1801202E+04  0.7818609E-02  0.8705661E-01
       -1   -1    0    0    0  501  0.00000000000E+00  0.00000000000E+00  0.74107571564E+03  0.74107571565E+03  0.50400001928E-02 0. -1.
        1   -1    0    0  501    0  0.00000000000E+00  0.00000000000E+00 -0.10944657306E+04  0.10944657306E+04  0.50400001928E-02 0.  1.
    10030    2    1    2    0    0  0.00000000000E+00  0.00000000000E+00 -0.35339001499E+03  0.18355414463E+04  0.18012017928E+04 0.  0.
        4    1    3    3  502    0  0.40596345228E+03  0.67638418416E+02  0.63963833170E+03  0.76060508052E+03  0.12699999809E+01 0. -1.
       -4    1    3    3    0  502 -0.40596345228E+03 -0.67638418416E+02 -0.99302834668E+03  0.10749363658E+04  0.12699999809E+01 0.  1.
</event>
<event>
 5   0  0.2054876E-05  0.1810190E+04  0.7818609E-02  0.8700899E-01
       -1   -1    0    0    0  501  0.00000000000E+00  0.00000000000E+00  0.68368392542E+03  0.68368392543E+03  0.50400001928E-02 0. -1.
        1   -1    0    0  501    0  0.00000000000E+00  0.00000000000E+00 -0.11982097524E+04  0.11982097524E+04  0.50400001928E-02 0.  1.
    10030    2    1    2    0    0  0.00000000000E+00  0.00000000000E+00 -0.51452582700E+03  0.18818936779E+04  0.18101897658E+04 0.  0.
        5    1    3    3  502    0 -0.39467962338E+03  0.46533936208E+03  0.43769364290E+03  0.75093977258E+03  0.46999998093E+01 0. -1.
       -5    1    3    3    0  502  0.39467962338E+03 -0.46533936208E+03 -0.95221946989E+03  0.11309539053E+04  0.46999998093E+01 0.  1.
</event>
<event>
 5   0  0.3909859E-05  0.1801289E+04  0.7818609E-02  0.8705614E-01
       -2   -1    0    0    0  501  0.00000000000E+00  0.00000000000E+00  0.47230429239E+03  0.47230429240E+03  0.25500000920E-02 0. -1.
        2   -1    0    0  501    0  0.00000000000E+00  0.00000000000E+00 -0.17174541311E+04  0.17174541311E+04  0.25500000920E-02 0.  1.
    10030    2    1    2    0    0  0.00000000000E+00  0.00000000000E+00 -0.12451498387E+04  0.21897584235E+04  0.18012894916E+04 0.  0.
        4    1    3    3  502    0 -0.12918225862E+03 -0.39703885781E+03  0.34754391544E+03  0.54324607372E+03  0.12699999809E+01 0. -1.
       -4    1    3    3    0  502  0.12918225862E+03  0.39703885781E+03 -0.15926937541E+04  0.16465123498E+04  0.12699999809E+01 0.  1.
</event>
<event>
 5   0  0.3909859E-05  0.1811919E+04  0.7818609E-02  0.8699987E-01
        2   -1    0    0  501    0  0.00000000000E+00  0.00000000000E+00  0.73576109693E+03  0.73576109694E+03  0.25500000920E-02 0. -1.
       -2   -1    0    0    0  501  0.00000000000E+00  0.00000000000E+00 -0.11155287465E+04  0.11155287465E+04  0.25500000920E-02 0.  1.
    10030    2    1    2    0    0  0.00000000000E+00  0.00000000000E+00 -0.37976764954E+03  0.18512898434E+04  0.18119190425E+04 0.  0.
        4    1    3    3  502    0  0.47882032507E+03  0.53598181946E+03  0.37365830463E+03  0.81004170017E+03  0.12699999809E+01 0. -1.
       -4    1    3    3    0  502 -0.47882032507E+03 -0.53598181946E+03 -0.75342595416E+03  0.10412481432E+04  0.12699999809E+01 0.  1.
</event>
<event>
 5   0  0.3983176E-05  0.1801583E+04  0.7818609E-02  0.8705458E-01
        2   -1    0    0  501    0  0.00000000000E+00  0.00000000000E+00  0.63388464227E+03  0.63388464228E+03  0.25500000920E-02 0. -1.
       -2   -1    0    0    0  501  0.00000000000E+00  0.00000000000E+00 -0.12800835213E+04  0.12800835213E+04  0.25500000920E-02 0.  1.
    10030    2    1    2    0    0  0.00000000000E+00  0.00000000000E+00 -0.64619887906E+03  0.19139681636E+04  0.18015829540E+04 0.  0.
        3    1    3    3  502    0 -0.53932415697E+03 -0.37368134505E+03 -0.97878498878E+03  0.11783583319E+04  0.10100000352E+00 0.  1.
       -3    1    3    3    0  502  0.53932415697E+03  0.37368134505E+03  0.33258610971E+03  0.73560983170E+03  0.10100000352E+00 0. -1.
</event>
<event>
 5   0  0.2038338E-05  0.1799773E+04  0.7818609E-02  0.8706420E-01
        1   -1    0    0  501    0  0.00000000000E+00  0.00000000000E+00  0.83412187220E+03  0.83412187221E+03  0.50400001928E-02 0.  1.
       -1   -1    0    0    0  501  0.00000000000E+00  0.00000000000E+00 -0.97083670115E+03  0.97083670116E+03  0.50400001928E-02 0. -1.
    10030    2    1    2    0    0  0.00000000000E+00  0.00000000000E+00 -0.13671482895E+03  0.18049585734E+04  0.17997734600E+04 0.  0.
        1    1    3    3  502    0 -0.84693798533E+03  0.26947066106E+03  0.73037204802E+02  0.89176948898E+03  0.50400001928E-02 0.  1.
       -1    1    3    3    0  502  0.84693798533E+03 -0.26947066106E+03 -0.20975203376E+03  0.91318908439E+03  0.50400001928E-02 0. -1.
</event>
<event>
 5   0  0.3909859E-05  0.1799470E+04  0.7818609E-02  0.8706581E-01
       -2   -1    0    0    0  501  0.00000000000E+00  0.00000000000E+00  0.66552352097E+03  0.66552352098E+03  0.25500000920E-02 0.  1.
        2   -1    0    0  501    0  0.00000000000E+00  0.00000000000E+00 -0.12163703376E+04  0.12163703376E+04  0.25500000920E-02 0. -1.
    10030    2    1    2    0    0  0.00000000000E+00  0.00000000000E+00 -0.55084681666E+03  0.18818938586E+04  0.17994699997E+04 0.  0.
        4    1    3    3  502    0  0.52017021401E+03 -0.71179329602E+03 -0.87484714759E+02  0.88593562747E+03  0.12699999809E+01 0. -1.
       -4    1    3    3    0  502 -0.52017021401E+03  0.71179329602E+03 -0.46336210190E+03  0.99595823114E+03  0.12699999809E+01 0.  1.
</event>
<event>
 5   0  0.1906857E-05  0.1769341E+04  0.7818609E-02  0.8722776E-01
       -1   -1    0    0    0  501  0.00000000000E+00  0.00000000000E+00  0.16829296486E+04  0.16829296486E+04  0.50400001928E-02 0.  1.
        1   -1    0    0  501    0  0.00000000000E+00  0.00000000000E+00 -0.46504712519E+03  0.46504712522E+03  0.50400001928E-02 0. -1.
    10030    2    1    2    0    0  0.00000000000E+00  0.00000000000E+00  0.12178825234E+04  0.21479767738E+04  0.17693406625E+04 0.  0.
        4    1    3    3  502    0  0.52603257280E+03  0.54719544852E+03  0.57263650263E+02  0.76119239688E+03  0.12699999809E+01 0. -1.
       -4    1    3    3    0  502 -0.52603257280E+03 -0.54719544852E+03  0.11606188732E+04  0.13867843770E+04  0.12699999809E+01 0.  1.
</event>
<event>
 5   0  0.3984648E-05  0.1797357E+04  0.7818609E-02  0.8707706E-01
        2   -1    0    0  501    0  0.00000000000E+00  0.00000000000E+00  0.16272442371E+04  0.16272442371E+04  0.25500000920E-02 0.  1.
       -2   -1    0    0    0  501  0.00000000000E+00  0.00000000000E+00 -0.49631340546E+03  0.49631340546E+03  0.25500000920E-02 0. -1.
    10030    2    1    2    0    0  0.00000000000E+00  0.00000000000E+00  0.11309308316E+04  0.21235576425E+04  0.17973570917E+04 0.  0.
        1    1    3    3  502    0  0.77566597543E+03  0.36064320979E+03  0.23996165988E+03  0.88842716553E+03  0.50400001928E-02 0.  1.
       -1    1    3    3    0  502 -0.77566597543E+03 -0.36064320979E+03  0.89096917173E+03  0.12351304770E+04  0.50400001928E-02 0. -1.
</event>
<event>
 5   0  0.3993393E-05  0.1805940E+04  0.7818609E-02  0.8703147E-01
       -2   -1    0    0    0  501  0.00000000000E+00  0.00000000000E+00  0.13145511241E+04  0.13145511241E+04  0.25500000920E-02 0.  1.
        2   -1    0    0  501    0  0.00000000000E+00  0.00000000000E+00 -0.62025339341E+03  0.62025339342E+03  0.25500000920E-02 0. -1.
    10030    2    1    2    0    0  0.00000000000E+00  0.00000000000E+00  0.69429773066E+03  0.19348045175E+04  0.18059399719E+04 0.  0.
        5    1    3    3  502    0 -0.24921949614E+03  0.85830760635E+03  0.48489374963E+03  0.10168315213E+04  0.46999998093E+01 0.  1.
       -5    1    3    3    0  502  0.24921949614E+03 -0.85830760635E+03  0.20940398103E+03  0.91797299614E+03  0.46999998093E+01 0. -1.
</event>
<event>
 5   0  0.1906857E-05  0.1795836E+04  0.7818609E-02  0.8708517E-01
       -1   -1    0    0    0  501  0.00000000000E+00  0.00000000000E+00  0.36735306427E+03  0.36735306430E+03  0.50400001928E-02 0.  1.
        1   -1    0    0  501    0  0.00000000000E+00  0.00000000000E+00 -0.21947741816E+04  0.21947741816E+04  0.50400001928E-02 0. -1.
    10030    2    1    2    0    0  0.00000000000E+00  0.00000000000E+00 -0.18274211173E+04  0.25621272459E+04  0.17958363189E+04 0.  0.
        4    1    3    3  502    0  0.80537963990E+03 -0.36691704879E+02 -0.34971512320E+03  0.87879743164E+03  0.12699999809E+01 0.  1.
       -4    1    3    3    0  502 -0.80537963990E+03  0.36691704879E+02 -0.14777059941E+04  0.16833298143E+04  0.12699999809E+01 0. -1.
</event>
<event>
 5   0  0.2038338E-05  0.1799701E+04  0.7818609E-02  0.8706459E-01
        1   -1    0    0  501    0  0.00000000000E+00  0.00000000000E+00  0.12124886935E+04  0.12124886935E+04  0.50400001928E-02 0.  1.
       -1   -1    0    0    0  501  0.00000000000E+00  0.00000000000E+00 -0.66782536148E+03  0.66782536150E+03  0.50400001928E-02 0. -1.
    10030    2    1    2    0    0  0.00000000000E+00  0.00000000000E+00  0.54466333205E+03  0.18803140551E+04  0.17997007530E+04 0.  0.
        1    1    3    3  502    0 -0.80452734465E+03  0.40010742041E+03  0.32330752392E+03  0.95492300800E+03  0.50400001928E-02 0. -1.
       -1    1    3    3    0  502  0.80452734465E+03 -0.40010742041E+03  0.22135580813E+03  0.92539104705E+03  0.50400001928E-02 0.  1.
</event>
<event>
 5   0  0.1906857E-05  0.1798249E+04  0.7818609E-02  0.8707231E-01
       -1   -1    0    0    0  501  0.00000000000E+00  0.00000000000E+00  0.67713876399E+03  0.67713876401E+03  0.50400001928E-02 0.  1.
        1   -1    0    0  501    0  0.00000000000E+00  0.00000000000E+00 -0.11938829841E+04  0.11938829841E+04  0.50400001928E-02 0. -1.
    10030    2    1    2    0    0  0.00000000000E+00  0.00000000000E+00 -0.51674422009E+03  0.18710217481E+04  0.17982485348E+04 0.  0.
        4    1    3    3  502    0 -0.23534488609E+03 -0.46072355542E+03  0.50675780971E+03  0.72419507077E+03  0.12699999809E+01 0.  1.
       -4    1    3    3    0  502  0.23534488609E+03  0.46072355542E+03 -0.10235020298E+04  0.11468266773E+04  0.12699999809E+01 0. -1.
</event>
<event>
 5   0  0.3909859E-05  0.1801205E+04  0.7818609E-02  0.8705659E-01
       -2   -1    0    0    0  501  0.00000000000E+00  0.00000000000E+00  0.12021419255E+04  0.12021419255E+04  0.25500000920E-02 0. -1.
        2   -1    0    0  501    0  0.00000000000E+00  0.00000000000E+00 -0.67469959271E+03  0.67469959272E+03  0.25500000920E-02 0.  1.
    10030    2    1    2    0    0  0.00000000000E+00  0.00000000000E+00  0.52744233279E+03  0.18768415182E+04  0.18012047829E+04 0.  0.
        4    1    3    3  502    0 -0.38296124211E+03 -0.53384350863E+03 -0.37812820329E+03  0.75804403281E+03  0.12699999809E+01 0.  1.
       -4    1    3    3    0  502  0.38296124211E+03  0.53384350863E+03  0.90557053607E+03  0.11187974854E+04  0.12699999809E+01 0. -1.
</event>
<event>
 5   0  0.2038338E-05  0.1800215E+04  0.7818609E-02  0.8706185E-01
        1   -1    0    0  501    0  0.00000000000E+00  0.00000000000E+00  0.73970710585E+03  0.73970710586E+03  0.50400001928E-02 0. -1.
       -1   -1    0    0    0  501  0.00000000000E+00  0.00000000000E+00 -0.10952893440E+04  0.10952893440E+04  0.50400001928E-02 0.  1.
    10030    2    1    2    0    0  0.00000000000E+00  0.00000000000E+00 -0.35558223815E+03  0.18349964499E+04  0.18002147769E+04 0.  0.
        1    1    3    3  502    0 -0.77558346522E+03 -0.16115845700E+03 -0.61347364056E+03  0.10019239829E+04  0.50400001928E-02 0.  1.
       -1    1    3    3    0  502  0.77558346522E+03  0.16115845700E+03  0.25789140241E+03  0.83307246699E+03  0.50400001928E-02 0. -1.
</event>
<event>
 5   0  0.3984648E-05  0.1800617E+04  0.7818609E-02  0.8705972E-01
        2   -1    0    0  501    0  0.00000000000E+00  0.00000000000E+00  0.48966211909E+03  0.48966211909E+03  0.25500000920E-02 0. -1.
       -2   -1    0    0    0  501  0.00000000000E+00  0.00000000000E+00 -0.16553357924E+04  0.16553357924E+04  0.25500000920E-02 0.  1.
    10030    2    1    2    0    0  0.00000000000E+00  0.00000000000E+00 -0.11656736733E+04  0.21449979115E+04  0.18006168187E+04 0.  0.
        1    1    3    3  502    0  0.53555333336E+03 -0.35913052748E+03  0.16563223568E+03  0.66575231593E+03  0.50400001928E-02 0. -1.
       -1    1    3    3    0  502 -0.53555333336E+03  0.35913052748E+03 -0.13313059090E+04  0.14792455956E+04  0.50400001928E-02 0.  1.
</event>
<event>
 5   0  0.1446750E-05  0.1807758E+04  0.7818609E-02  0.8702185E-01
       -3   -1    0    0    0  501  0.00000000000E+00  0.00000000000E+00  0.93587227929E+03  0.93587228474E+03  0.10100000352E+00 0.  1.
        3   -1    0    0  501    0  0.00000000000E+00  0.00000000000E+00 -0.87297958817E+03  0.87297959401E+03  0.10100000352E+00 0. -1.
    10030    2    1    2    0    0  0.00000000000E+00  0.00000000000E+00  0.62892691121E+02  0.18088518788E+04  0.18077581776E+04 0.  0.
        3    1    3    3  502    0 -0.66604060557E+03 -0.46414834183E+03 -0.36622790364E+03  0.89059904508E+03  0.10100000352E+00 0. -1.
       -3    1    3    3    0  502  0.66604060557E+03  0.46414834183E+03  0.42912059476E+03  0.91825283367E+03  0.10100000352E+00 0.  1.
</event>
<event>
 5   0  0.2054876E-05  0.1801805E+04  0.7818609E-02  0.8705340E-01
       -1   -1    0    0    0  501  0.00000000000E+00  0.00000000000E+00  0.34494710217E+03  0.34494710221E+03  0.50400001928E-02 0.  1.
        1   -1    0    0  501    0  0.00000000000E+00  0.00000000000E+00 -0.23528975963E+04  0.23528975963E+04  0.50400001928E-02 0. -1.
    10030    2    1    2    0    0  0.00000000000E+00  0.00000000000E+00 -0.20079504942E+04  0.26978446986E+04  0.18018048814E+04 0.  0.
        5    1    3    3  502    0 -0.48918309754E+02 -0.88179478914E+03 -0.73760680076E+03  0.11506697761E+04  0.46999998093E+01 0.  1.
       -5    1    3    3    0  502  0.48918309754E+02  0.88179478914E+03 -0.12703436934E+04  0.15471749224E+04  0.46999998093E+01 0. -1.
</event>
<event>
 5   0  0.3983176E-05  0.1797762E+04  0.7818609E-02  0.8707491E-01
       -2   -1    0    0    0  501  0.00000000000E+00  0.00000000000E+00  0.65315626628E+03  0.65315626629E+03  0.25500000920E-02 0.  1.
        2   -1    0    0  501    0  0.00000000000E+00  0.00000000000E+00 -0.12370498980E+04  0.12370498980E+04  0.25500000920E-02 0. -1.
    10030    2    1    2    0    0  0.00000000000E+00  0.00000000000E+00 -0.58389363170E+03  0.18902061643E+04  0.17977618225E+04 0.  0.
        3    1    3    3  502    0 -0.13046045915E+03 -0.56255219883E+02  0.64127663637E+03  0.65682594020E+03  0.10100000352E+00 0.  1.
       -3    1    3    3    0  502  0.13046045915E+03  0.56255219883E+02 -0.12251702681E+04  0.12333802241E+04  0.10100000352E+00 0. -1.
</event>
<event>
 5   0  0.2038338E-05  0.1799534E+04  0.7818609E-02  0.8706547E-01
       -1   -1    0    0    0  501  0.00000000000E+00  0.00000000000E+00  0.10877894075E+04  0.10877894075E+04  0.50400001928E-02 0.  1.
        1   -1    0    0  501    0  0.00000000000E+00  0.00000000000E+00 -0.74424386562E+03  0.74424386563E+03  0.50400001928E-02 0. -1.
    10030    2    1    2    0    0  0.00000000000E+00  0.00000000000E+00  0.34354554192E+03  0.18320332732E+04  0.17995339326E+04 0.  0.
        1    1    3    3  502    0  0.26459196466E+03  0.84724608394E+03  0.21645149691E+02  0.88786448687E+03  0.50400001928E-02 0. -1.
       -1    1    3    3    0  502 -0.26459196466E+03 -0.84724608394E+03  0.32190039223E+03  0.94416878632E+03  0.50400001928E-02 0.  1.
</event>
<event>
 5   0  0.2054876E-05  0.1791862E+04  0.7818609E-02  0.8710639E-01
       -1   -1    0    0    0  501  0.00000000000E+00  0.00000000000E+00  0.44491492494E+03  0.44491492497E+03  0.50400001928E-02 0. -1.
        1   -1    0    0  501    0  0.00000000000E+00  0.00000000000E+00 -0.18041486938E+04  0.18041486938E+04  0.50400001928E-02 0.  1.
    10030    2    1    2    0    0  0.00000000000E+00  0.00000000000E+00 -0.13592337689E+04  0.22490636188E+04  0.17918623616E+04 0.  0.
        5    1    3    3  502    0 -0.25209027406E+03 -0.41990348537E+03  0.26200158022E+03  0.55545959469E+03  0.46999998093E+01 0. -1.
       -5    1    3    3    0  502  0.25209027406E+03  0.41990348537E+03 -0.16212353491E+04  0.16936040241E+04  0.46999998093E+01 0.  1.
</event>
<event>
 5   0  0.3993393E-05  0.1800962E+04  0.7818609E-02  0.8705788E-01
        2   -1    0    0  501    0  0.00000000000E+00  0.00000000000E+00  0.86406375900E+03  0.86406375901E+03  0.25500000920E-02 0.  1.
       -2   -1    0    0    0  501  0.00000000000E+00  0.00000000000E+00 -0.93843347313E+03  0.93843347314E+03  0.25500000920E-02 0. -1.
    10030    2    1    2    0    0  0.00000000000E+00  0.00000000000E+00 -0.74369714132E+02  0.18024972321E+04  0.18009623587E+04 0.  0.
        5    1    3    3  502    0  0.86589927406E+03  0.17074798763E+03 -0.21596473983E+03  0.90862494295E+03  0.46999998093E+01 0. -1.
       -5    1    3    3    0  502 -0.86589927406E+03 -0.17074798763E+03  0.14159502570E+03  0.89387228920E+03  0.46999998093E+01 0.  1.
</event>
<event>
 5   0  0.2038338E-05  0.1798066E+04  0.7818609E-02  0.8707329E-01
        1   -1    0    0  501    0  0.00000000000E+00  0.00000000000E+00  0.10748146993E+04  0.10748146993E+04  0.50400001928E-02 0.  1.
       -1   -1    0    0    0  501  0.00000000000E+00  0.00000000000E+00 -0.75199987607E+03  0.75199987609E+03  0.50400001928E-02 0. -1.
    10030    2    1    2    0    0  0.00000000000E+00  0.00000000000E+00  0.32281482319E+03  0.18268145754E+04  0.17980662064E+04 0.  0.
        1    1    3    3  502    0  0.46334822258E+03  0.53169206548E+03 -0.40506653049E+03  0.81330616745E+03  0.50400001928E-02 0. -1.
       -1    1    3    3    0  502 -0.46334822258E+03 -0.53169206548E+03  0.72788135368E+03  0.10135084079E+04  0.50400001928E-02 0.  1.
</event>
<event>
 5   0  0.2054876E-05  0.1786930E+04  0.7818609E-02  0.8713281E-01
        1   -1    0    0  501    0  0.00000000000E+00  0.00000000000E+00  0.16076375374E+04  0.16076375374E+04  0.50400001928E-02 0.  1.
       -1   -1    0    0    0  501  0.00000000000E+00  0.00000000000E+00 -0.49655477668E+03  0.49655477670E+03  0.50400001928E-02 0. -1.
    10030    2    1    2    0    0  0.00000000000E+00  0.00000000000E+00  0.11110827607E+04  0.21041923141E+04  0.17869304389E+04 0.  0.
        5    1    3    3  502    0  0.45192951386E+03  0.62827063846E+03  0.29857574409E+02  0.77451781477E+03  0.46999998093E+01 0. -1.
       -5    1    3    3    0  502 -0.45192951386E+03 -0.62827063846E+03  0.10812251863E+04  0.13296744993E+04  0.46999998093E+01 0.  1.
</event>
<event>
 5   0  0.1960300E-05  0.1789187E+04  0.7818609E-02  0.8712071E-01
       -1   -1    0    0    0  501  0.00000000000E+00  0.00000000000E+00  0.45050106741E+03  0.45050106744E+03  0.50400001928E-02 0.  1.
        1   -1    0    0  501    0  0.00000000000E+00  0.00000000000E+00 -0.17764604460E+04  0.17764604460E+04  0.50400001928E-02 0. -1.
    10030    2    1    2    0    0  0.00000000000E+00  0.00000000000E+00 -0.13259593786E+04  0.22269615134E+04  0.17891867730E+04 0.  0.
        3    1    3    3  502    0  0.38366850922E+03 -0.24062984036E+03  0.29727396016E+03  0.54173431000E+03  0.10100000352E+00 0.  1.
       -3    1    3    3    0  502 -0.38366850922E+03  0.24062984036E+03 -0.16232333387E+04  0.16852272035E+04  0.10100000352E+00 0. -1.
</event>
<event>
 5   0  0.3909859E-05  0.1799447E+04  0.7818609E-02  0.8706594E-01
       -2   -1    0    0    0  501  0.00000000000E+00  0.00000000000E+00  0.85277849968E+03  0.85277849969E+03  0.25500000920E-02 0.  1.
        2   -1    0    0  501    0  0.00000000000E+00  0.00000000000E+00 -0.94925283205E+03  0.94925283206E+03  0.25500000920E-02 0. -1.
    10030    2    1    2    0    0  0.00000000000E+00  0.00000000000E+00 -0.96474332370E+02  0.18020313317E+04  0.17994470328E+04 0.  0.
        4    1    3    3  502    0  0.81686747605E+03  0.32808260910E+03  0.13801413355E+03  0.89104443536E+03  0.12699999809E+01 0.  1.
       -4    1    3    3    0  502 -0.81686747605E+03 -0.32808260910E+03 -0.23448846592E+03  0.91098689638E+03  0.12699999809E+01 0. -1.
</event>
<event>
 5   0  0.2001811E-05  0.1802558E+04  0.7818609E-02  0.8704940E-01
        1   -1    0    0  501    0  0.00000000000E+00  0.00000000000E+00  0.83903064121E+03  0.83903064122E+03  0.50400001928E-02 0.  1.
       -1   -1    0    0    0  501  0.00000000000E+00  0.00000000000E+00 -0.96814587550E+03  0.96814587551E+03  0.50400001928E-02 0. -1.
    10030    2    1    2    0    0  0.00000000000E+00  0.00000000000E+00 -0.12911523429E+03  0.18071765167E+04  0.18025582429E+04 0.  0.
        2    1    3    3  502    0  0.17478742964E+03  0.58737579069E+03 -0.72711620784E+03  0.95092530977E+03  0.25500000920E-02 0. -1.
       -2    1    3    3    0  502 -0.17478742964E+03 -0.58737579069E+03  0.59800097355E+03  0.85625120696E+03  0.25500000920E-02 0.  1.
</event>
<event>
 5   0  0.1446750E-05  0.1800112E+04  0.7818609E-02  0.8706240E-01
        3   -1    0    0  501    0  0.00000000000E+00  0.00000000000E+00  0.10277820980E+04  0.10277821030E+04  0.10100000352E+00 0. -1.
       -3   -1    0    0    0  501  0.00000000000E+00  0.00000000000E+00 -0.78820258939E+03  0.78820259586E+03  0.10100000352E+00 0.  1.
    10030    2    1    2    0    0  0.00000000000E+00  0.00000000000E+00  0.23957950864E+03  0.18159846989E+04  0.18001116870E+04 0.  0.
        4    1    3    3  502    0 -0.81408700783E+03 -0.37952942897E+03  0.17790558119E+03  0.91565946317E+03  0.12699999809E+01 0. -1.
       -4    1    3    3    0  502  0.81408700783E+03  0.37952942897E+03  0.61673927450E+02  0.90032523568E+03  0.12699999809E+01 0.  1.
</event>
<event>
 5   0  0.3984648E-05  0.1799049E+04  0.7818609E-02  0.8706805E-01
       -2   -1    0    0    0  501  0.00000000000E+00  0.00000000000E+00  0.11706135134E+04  0.11706135134E+04  0.25500000920E-02 0. -1.
        2   -1    0    0  501    0  0.00000000000E+00  0.00000000000E+00 -0.69121425987E+03  0.69121425987E+03  0.25500000920E-02 0.  1.
    10030    2    1    2    0    0  0.00000000000E+00  0.00000000000E+00  0.47939925355E+03  0.18618277733E+04  0.17990494749E+04 0.  0.
        1    1    3    3  502    0  0.73731981961E+03 -0.50455491190E+03  0.34788740962E+03  0.95877099732E+03  0.50400001928E-02 0.  1.
       -1    1    3    3    0  502 -0.73731981961E+03  0.50455491190E+03  0.13151184393E+03  0.90305677597E+03  0.50400001928E-02 0. -1.
</event>
<event>
 5   0  0.3909859E-05  0.1806385E+04  0.7818609E-02  0.8702911E-01
        2   -1    0    0  501    0  0.00000000000E+00  0.00000000000E+00  0.80199872005E+03  0.80199872005E+03  0.25500000920E-02 0. -1.
       -2   -1    0    0    0  501  0.00000000000E+00  0.00000000000E+00 -0.10171547012E+04  0.10171547012E+04  0.25500000920E-02 0.  1.
    10030    2    1    2    0    0  0.00000000000E+00  0.00000000000E+00 -0.21515598111E+03  0.18191534212E+04  0.18063850846E+04 0.  0.
        4    1    3    3  502    0  0.21925125810E+03 -0.47757794104E+03 -0.84734729702E+03  0.99707114020E+03  0.12699999809E+01 0.  1.
       -4    1    3    3    0  502 -0.21925125810E+03  0.47757794104E+03  0.63219131591E+03  0.82208228101E+03  0.12699999809E+01 0. -1.
</event>
<event>
 5   0  0.3909859E-05  0.1800749E+04  0.7818609E-02  0.8705901E-01
        2   -1    0    0  501    0  0.00000000000E+00  0.00000000000E+00  0.13576561761E+04  0.13576561761E+04  0.25500000920E-02 0.  1.
       -2   -1    0    0    0  501  0.00000000000E+00  0.00000000000E+00 -0.59711296398E+03  0.59711296399E+03  0.25500000920E-02 0. -1.
    10030    2    1    2    0    0  0.00000000000E+00  0.00000000000E+00  0.76054321208E+03  0.19547691401E+04  0.18007488480E+04 0.  0.
        4    1    3    3  502    0  0.13006799506E+03  0.72995310094E+03 -0.17422480713E+03  0.76164631505E+03  0.12699999809E+01 0. -1.
       -4    1    3    3    0  502 -0.13006799506E+03 -0.72995310094E+03  0.93476801921E+03  0.11931228250E+04  0.12699999809E+01 0.  1.
</event>
<event>
 5   0  0.4015729E-05  0.1799570E+04  0.7818609E-02  0.8706528E-01
       -2   -1    0    0    0  501  0.00000000000E+00  0.00000000000E+00  0.73478796737E+03  0.73478796737E+03  0.25500000920E-02 0. -1.
        2   -1    0    0  501    0  0.00000000000E+00  0.00000000000E+00 -0.11018320201E+04  0.11018320201E+04  0.25500000920E-02 0.  1.
    10030    2    1    2    0    0  0.00000000000E+00  0.00000000000E+00 -0.36704405271E+03  0.18366199874E+04  0.17995698491E+04 0.  0.
        2    1    3    3  502    0 -0.42058378909E+03 -0.69255231233E+03  0.21580522407E+03  0.83850541066E+03  0.25500000920E-02 0. -1.
       -2    1    3    3    0  502  0.42058378909E+03  0.69255231233E+03 -0.58284927678E+03  0.99811457679E+03  0.25500000920E-02 0.  1.
</event>
<event>
 5   0  0.3983176E-05  0.1793286E+04  0.7818609E-02  0.8709878E-01
        2   -1    0    0  501    0  0.00000000000E+00  0.00000000000E+00  0.90495625539E+03  0.90495625539E+03  0.25500000920E-02 0.  1.
       -2   -1    0    0    0  501  0.00000000000E+00  0.00000000000E+00 -0.88840606382E+03  0.88840606382E+03  0.25500000920E-02 0. -1.
    10030    2    1    2    0    0  0.00000000000E+00  0.00000000000E+00  0.16550191570E+02  0.17933623192E+04  0.17932859502E+04 0.  0.
        3    1    3    3  502    0  0.67810214072E+03 -0.28342909074E+03 -0.50537509836E+03  0.89194089657E+03  0.10100000352E+00 0. -1.
       -3    1    3    3    0  502 -0.67810214072E+03  0.28342909074E+03  0.52192528993E+03  0.90142142265E+03  0.10100000352E+00 0.  1.
</event>
<event>
 5   0  0.1960300E-05  0.1792946E+04  0.7818609E-02  0.8710060E-01
        1   -1    0    0  501    0  0.00000000000E+00  0.00000000000E+00  0.15029718025E+04  0.15029718025E+04  0.50400001928E-02 0. -1.
       -1   -1    0    0    0  501  0.00000000000E+00  0.00000000000E+00 -0.53471623409E+03  0.53471623412E+03  0.50400001928E-02 0.  1.
    10030    2    1    2    0    0  0.00000000000E+00  0.00000000000E+00  0.96825556841E+03  0.20376880366E+04  0.17929455343E+04 0.  0.
        3    1    3    3  502    0  0.35798063461E+03 -0.36053734294E+03  0.13235459554E+04  0.14177133761E+04  0.10100000352E+00 0. -1.
       -3    1    3    3    0  502 -0.35798063461E+03  0.36053734294E+03 -0.35529038702E+03  0.61997466054E+03  0.10100000352E+00 0.  1.
</event>
<event>
 5   0  0.1906857E-05  0.1799832E+04  0.7818609E-02  0.8706389E-01
        1   -1    0    0  501    0  0.00000000000E+00  0.00000000000E+00  0.93970828392E+03  0.93970828394E+03  0.50400001928E-02 0. -1.
       -1   -1    0    0    0  501  0.00000000000E+00  0.00000000000E+00 -0.86180892401E+03  0.86180892402E+03  0.50400001928E-02 0.  1.
    10030    2    1    2    0    0  0.00000000000E+00  0.00000000000E+00  0.77899359915E+02  0.18015172080E+04  0.17998321978E+04 0.  0.
        4    1    3    3  502    0  0.84841692161E+03 -0.14810096581E+03  0.30015798387E+03  0.91205350563E+03  0.12699999809E+01 0. -1.
       -4    1    3    3    0  502 -0.84841692161E+03  0.14810096581E+03 -0.22225862396E+03  0.88946370233E+03  0.12699999809E+01 0.  1.
</event>
<event>
 5   0  0.3983176E-05  0.1802053E+04  0.7818609E-02  0.8705208E-01
        2   -1    0    0  501    0  0.00000000000E+00  0.00000000000E+00  0.17836574489E+04  0.17836574489E+04  0.25500000920E-02 0. -1.
       -2   -1    0    0    0  501  0.00000000000E+00  0.00000000000E+00 -0.45515960409E+03  0.45515960410E+03  0.25500000920E-02 0.  1.
    10030    2    1    2    0    0  0.00000000000E+00  0.00000000000E+00  0.13284978448E+04  0.22388170530E+04  0.18020530717E+04 0.  0.
        3    1    3    3  502    0  0.43452004919E+03  0.32571075748E+03 -0.22900889756E+03  0.58935579750E+03  0.10100000352E+00 0.  1.
       -3    1    3    3    0  502 -0.43452004919E+03 -0.32571075748E+03  0.15575067424E+04  0.16494612555E+04  0.10100000352E+00 0. -1.
</event>
<event>
 5   0  0.4015729E-05  0.1800821E+04  0.7818609E-02  0.8705863E-01
       -2   -1    0    0    0  501  0.00000000000E+00  0.00000000000E+00  0.67455397642E+03  0.67455397642E+03  0.25500000920E-02 0.  1.
        2   -1    0    0  501    0  0.00000000000E+00  0.00000000000E+00 -0.12018884676E+04  0.12018884676E+04  0.25500000920E-02 0. -1.
    10030    2    1    2    0    0  0.00000000000E+00  0.00000000000E+00 -0.52733449118E+03  0.18764424440E+04  0.18008205297E+04 0.  0.
        2    1    3    3  502    0  0.85378138367E+02  0.20262392771E+03  0.64615006827E+03  0.68253629451E+03  0.25500000920E-02 0.  1.
       -2    1    3    3    0  502 -0.85378138367E+02 -0.20262392771E+03 -0.11734845594E+04  0.11939061495E+04  0.25500000920E-02 0. -1.
</event>
<event>
 5   0  0.2038338E-05  0.1776230E+04  0.7818609E-02  0.8719043E-01
       -1   -1    0    0    0  501  0.00000000000E+00  0.00000000000E+00  0.88609424211E+03  0.88609424212E+03  0.50400001928E-02 0.  1.
        1   -1    0    0  501    0  0.00000000000E+00  0.00000000000E+00 -0.89014023259E+03  0.89014023260E+03  0.50400001928E-02 0. -1.
    10030    2    1    2    0    0  0.00000000000E+00  0.00000000000E+00 -0.40459904803E+01  0.17762344747E+04  0.17762298666E+04 0.  0.
        1    1    3    3  502    0  0.27116965914E+03 -0.17472169073E+03 -0.82948358892E+03  0.89000206605E+03  0.50400001928E-02 0. -1.
       -1    1    3    3    0  502 -0.27116965914E+03  0.17472169073E+03  0.82543759844E+03  0.88623240868E+03  0.50400001928E-02 0.  1.
</event>
<event>
 5   0  0.3984648E-05  0.1801609E+04  0.7818609E-02  0.8705444E-01
        2   -1    0    0  501    0  0.00000000000E+00  0.00000000000E+00  0.18792315445E+04  0.18792315445E+04  0.25500000920E-02 0. -1.
       -2   -1    0    0    0  501  0.00000000000E+00  0.00000000000E+00 -0.43179831738E+03  0.43179831739E+03  0.25500000920E-02 0.  1.
    10030    2    1    2    0    0  0.00000000000E+00  0.00000000000E+00  0.14474332271E+04  0.23110298619E+04  0.18016093016E+04 0.  0.
        1    1    3    3  502    0  0.68736078306E+03 -0.32883157385E+03  0.13400470490E+04  0.15415320767E+04  0.50400001928E-02 0. -1.
       -1    1    3    3    0  502 -0.68736078306E+03  0.32883157385E+03  0.10738617811E+03  0.76949778514E+03  0.50400001928E-02 0.  1.
</event>
<event>
 5   0  0.2001811E-05  0.1807800E+04  0.7818609E-02  0.8702162E-01
        1   -1    0    0  501    0  0.00000000000E+00  0.00000000000E+00  0.19639985143E+04  0.19639985143E+04  0.50400001928E-02 0. -1.
       -1   -1    0    0    0  501  0.00000000000E+00  0.00000000000E+00 -0.41600604313E+03  0.41600604316E+03  0.50400001928E-02 0.  1.
    10030    2    1    2    0    0  0.00000000000E+00  0.00000000000E+00  0.15479924712E+04  0.23800045574E+04  0.18078000450E+04 0.  0.
        2    1    3    3  502    0  0.52048193212E+03 -0.43324368994E+03 -0.14195400561E+02  0.67735001730E+03  0.25500000920E-02 0.  1.
       -2    1    3    3    0  502 -0.52048193212E+03  0.43324368994E+03  0.15621878717E+04  0.17026545401E+04  0.25500000920E-02 0. -1.
</event>
<event>
 5   0  0.3993393E-05  0.1800137E+04  0.7818609E-02  0.8706227E-01
       -2   -1    0    0    0  501  0.00000000000E+00  0.00000000000E+00  0.63575699252E+03  0.63575699252E+03  0.25500000920E-02 0.  1.
        2   -1    0    0  501    0  0.00000000000E+00  0.00000000000E+00 -0.12742649602E+04  0.12742649602E+04  0.25500000920E-02 0. -1.
    10030    2    1    2    0    0  0.00000000000E+00  0.00000000000E+00 -0.63850796767E+03  0.19100219527E+04  0.18001365046E+04 0.  0.
        5    1    3    3  502    0 -0.16594535564E+03  0.49554805353E+01  0.61935722291E+03  0.64123932928E+03  0.46999998093E+01 0.  1.
       -5    1    3    3    0  502  0.16594535564E+03 -0.49554805353E+01 -0.12578651906E+04  0.12687826234E+04  0.46999998093E+01 0. -1.
</event>
<event>
 5   0  0.2001811E-05  0.1800501E+04  0.7818609E-02  0.8706033E-01
        1   -1    0    0  501    0  0.00000000000E+00  0.00000000000E+00  0.19982810339E+04  0.19982810339E+04  0.50400001928E-02 0.  1.
       -1   -1    0    0    0  501  0.00000000000E+00  0.00000000000E+00 -0.40557421227E+03  0.40557421230E+03  0.50400001928E-02 0. -1.
    10030    2    1    2    0    0  0.00000000000E+00  0.00000000000E+00  0.15927068216E+04  0.24038552462E+04  0.18005013260E+04 0.  0.
        2    1    3    3  502    0  0.21682662105E+03  0.33338784943E+03 -0.28193573015E+03  0.48749256167E+03  0.25500000920E-02 0. -1.
       -2    1    3    3    0  502 -0.21682662105E+03 -0.33338784943E+03  0.18746425517E+04  0.19163626845E+04  0.25500000920E-02 0.  1.
</event>
<event>
 5   0  0.1960300E-05  0.1797292E+04  0.7818609E-02  0.8707741E-01
       -1   -1    0    0    0  501  0.00000000000E+00  0.00000000000E+00  0.18900161579E+04  0.18900161579E+04  0.50400001928E-02 0.  1.
        1   -1    0    0  501    0  0.00000000000E+00  0.00000000000E+00 -0.42727931315E+03  0.42727931318E+03  0.50400001928E-02 0. -1.
    10030    2    1    2    0    0  0.00000000000E+00  0.00000000000E+00  0.14627368447E+04  0.23172954711E+04  0.17972921920E+04 0.  0.
        3    1    3    3  502    0 -0.48100400309E+03 -0.28752298071E+03 -0.17440529578E+03  0.58689993425E+03  0.10100000352E+00 0. -1.
       -3    1    3    3    0  502  0.48100400309E+03  0.28752298071E+03  0.16371421405E+04  0.17303955368E+04  0.10100000352E+00 0.  1.
</event>
<event>
 5   0  0.2054876E-05  0.1801120E+04  0.7818609E-02  0.8705704E-01
        1   -1    0    0  501    0  0.00000000000E+00  0.00000000000E+00  0.12376169293E+04  0.12376169293E+04  0.50400001928E-02 0.  1.
       -1   -1    0    0    0  501  0.00000000000E+00  0.00000000000E+00 -0.65529811273E+03  0.65529811275E+03  0.50400001928E-02 0. -1.
    10030    2    1    2    0    0  0.00000000000E+00  0.00000000000E+00  0.58231881654E+03  0.18929150420E+04  0.18011196940E+04 0.  0.
        5    1    3    3  502    0  0.43744858385E+03 -0.47772774468E+03  0.94866499889E+03  0.11487264390E+04  0.46999998093E+01 0.  1.
       -5    1    3    3    0  502 -0.43744858385E+03  0.47772774468E+03 -0.36634618235E+03  0.74418860302E+03  0.46999998093E+01 0. -1.
</event>
<event>
 5   0  0.3984648E-05  0.1790653E+04  0.7818609E-02  0.8711286E-01
        2   -1    0    0  501    0  0.00000000000E+00  0.00000000000E+00  0.10220371949E+04  0.10220371949E+04  0.25500000920E-02 0. -1.
       -2   -1    0    0    0  501  0.00000000000E+00  0.00000000000E+00 -0.78432563069E+03  0.78432563069E+03  0.25500000920E-02 0.  1.
    10030    2    1    2    0    0  0.00000000000E+00  0.00000000000E+00  0.23771156419E+03  0.18063628256E+04  0.17906534756E+04 0.  0.
        1    1    3    3  502    0  0.27124662769E+02  0.78643371738E+03  0.54968124538E+03  0.95987666433E+03  0.50400001928E-02 0. -1.
       -1    1    3    3    0  502 -0.27124662769E+02 -0.78643371738E+03 -0.31196968119E+03  0.84648616124E+03  0.50400001928E-02 0.  1.
</event>
<event>
 5   0  0.1960300E-05  0.1801281E+04  0.7818609E-02  0.8705619E-01
       -1   -1    0    0    0  501  0.00000000000E+00  0.00000000000E+00  0.11253284011E+04  0.11253284011E+04  0.50400001928E-02 0. -1.
        1   -1    0    0  501    0  0.00000000000E+00  0.00000000000E+00 -0.72081453020E+03  0.72081453022E+03  0.50400001928E-02 0.  1.
    10030    2    1    2    0    0  0.00000000000E+00  0.00000000000E+00  0.40451387086E+03  0.18461429313E+04  0.18012807252E+04 0.  0.
        3    1    3    3  502    0  0.51919028263E+03  0.72027680617E+03  0.47513732597E+02  0.88916522203E+03  0.10100000352E+00 0.  1.
       -3    1    3    3    0  502 -0.51919028263E+03 -0.72027680617E+03  0.35700013826E+03  0.95697770925E+03  0.10100000352E+00 0. -1.
</event>
<event>
 5   0  0.4015729E-05  0.1804266E+04  0.7818609E-02  0.8704034E-01
        2   -1    0    0  501    0  0.00000000000E+00  0.00000000000E+00  0.22798176472E+04  0.22798176472E+04  0.25500000920E-02 0.  1.
       -2   -1    0    0    0  501  0.00000000000E+00  0.00000000000E+00 -0.35697745812E+03  0.35697745813E+03  0.25500000920E-02 0. -1.
    10030    2    1    2    0    0  0.00000000000E+00  0.00000000000E+00  0.19228401890E+04  0.26367951053E+04  0.18042655112E+04 0.  0.
        2    1    3    3  502    0  0.62815340058E+03  0.32121336926E+03  0.17830580251E+04  0.19175637262E+04  0.25500000920E-02 0. -1.
       -2    1    3    3    0  502 -0.62815340058E+03 -0.32121336926E+03  0.13978216391E+03  0.71923137905E+03  0.25500000920E-02 0.  1.
</event>
<event>
 5   0  0.1906857E-05  0.1805302E+04  0.7818609E-02  0.8703485E-01
        1   -1    0    0  501    0  0.00000000000E+00  0.00000000000E+00  0.10129858621E+04  0.10129858621E+04  0.50400001928E-02 0. -1.
       -1   -1    0    0    0  501  0.00000000000E+00  0.00000000000E+00 -0.80433409736E+03  0.80433409738E+03  0.50400001928E-02 0.  1.
    10030    2    1    2    0    0  0.00000000000E+00  0.00000000000E+00  0.20865176470E+03  0.18173199595E+04  0.18053022672E+04 0.  0.
        4    1    3    3  502    0 -0.34208935641E+03 -0.27862213428E+03  0.89704631148E+03  0.99967450669E+03  0.12699999809E+01 0. -1.
       -4    1    3    3    0  502  0.34208935641E+03  0.27862213428E+03 -0.68839454679E+03  0.81764545276E+03  0.12699999809E+01 0.  1.
</event>
<event>
 5   0  0.2054876E-05  0.1801371E+04  0.7818609E-02  0.8705571E-01
       -1   -1    0    0    0  501  0.00000000000E+00  0.00000000000E+00  0.15813931484E+04  0.15813931484E+04  0.50400001928E-02 0. -1.
        1   -1    0    0  501    0  0.00000000000E+00  0.00000000000E+00 -0.51298735654E+03  0.51298735656E+03  0.50400001928E-02 0.  1.
    10030    2    1    2    0    0  0.00000000000E+00  0.00000000000E+00  0.10684057919E+04  0.20943805050E+04  0.18013713564E+04 0.  0.
        5    1    3    3  502    0  0.37305760325E+01 -0.33369189756E+03 -0.43844202069E+03  0.55101514969E+03  0.46999998093E+01 0.  1.
       -5    1    3    3    0  502 -0.37305760325E+01  0.33369189756E+03  0.15068478126E+04  0.15433653553E+04  0.46999998093E+01 0. -1.
</event>
<event>
 5   0  0.3993393E-05  0.1796890E+04  0.7818609E-02  0.8707955E-01
       -2   -1    0    0    0  501  0.00000000000E+00  0.00000000000E+00  0.21008179737E+04  0.21008179737E+04  0.25500000920E-02 0. -1.
        2   -1    0    0  501    0  0.00000000000E+00  0.00000000000E+00 -0.38423271772E+03  0.38423271773E+03  0.25500000920E-02 0.  1.
    10030    2    1    2    0    0  0.00000000000E+00  0.00000000000E+00  0.17165852560E+04  0.24850506915E+04  0.17968895342E+04 0.  0.
        5    1    3    3  502    0 -0.56606318405E+03 -0.66303841240E+00  0.18231612104E+04  0.19090224873E+04  0.46999998093E+01 0. -1.
       -5    1    3    3    0  502  0.56606318405E+03  0.66303841240E+00 -0.10657595437E+03  0.57602820418E+03  0.46999998093E+01 0.  1.
</event>
<event>
 5   0  0.2054876E-05  0.1780285E+04  0.7818609E-02  0.8716855E-01
        1   -1    0    0  501    0  0.00000000000E+00  0.00000000000E+00  0.74945946312E+03  0.74945946313E+03  0.50400001928E-02 0. -1.
       -1   -1    0    0    0  501  0.00000000000E+00  0.00000000000E+00 -0.10572331788E+04  0.10572331788E+04  0.50400001928E-02 0.  1.
    10030    2    1    2    0    0  0.00000000000E+00  0.00000000000E+00 -0.30777371564E+03  0.18066926419E+04  0.17802847082E+04 0.  0.
        5    1    3    3  502    0 -0.78977090087E+03  0.32665797569E+03 -0.40634964784E+03  0.94635386365E+03  0.46999998093E+01 0.  1.
       -5    1    3    3    0  502  0.78977090087E+03 -0.32665797569E+03  0.98575932200E+02  0.86033877825E+03  0.46999998093E+01 0. -1.
</event>
<event>
 5   0  0.2001811E-05  0.1804062E+04  0.7818609E-02  0.8704142E-01
        1   -1    0    0  501    0  0.00000000000E+00  0.00000000000E+00  0.18292847455E+04  0.18292847455E+04  0.50400001928E-02 0.  1.
       -1   -1    0    0    0  501  0.00000000000E+00  0.00000000000E+00 -0.44479690678E+03  0.44479690680E+03  0.50400001928E-02 0. -1.
    10030    2    1    2    0    0  0.00000000000E+00  0.00000000000E+00  0.13844878387E+04  0.22740816523E+04  0.18040623010E+04 0.  0.
        2    1    3    3  502    0 -0.85953624531E+03  0.27354699236E+03  0.69911150451E+03  0.11412218933E+04  0.25500000920E-02 0.  1.
       -2    1    3    3    0  502  0.85953624531E+03 -0.27354699236E+03  0.68537633420E+03  0.11328597590E+04  0.25500000920E-02 0. -1.
</event>
<event>
 5   0  0.3984648E-05  0.1797023E+04  0.7818609E-02  0.8707884E-01
       -2   -1    0    0    0  501  0.00000000000E+00  0.00000000000E+00  0.80877017074E+03  0.80877017075E+03  0.25500000920E-02 0.  1.
        2   -1    0    0  501    0  0.00000000000E+00  0.00000000000E+00 -0.99821006778E+03  0.99821006778E+03  0.25500000920E-02 0. -1.
    10030    2    1    2    0    0  0.00000000000E+00  0.00000000000E+00 -0.18943989704E+03  0.18069802385E+04  0.17970225674E+04 0.  0.
        1    1    3    3  502    0  0.60585266524E+01 -0.19976451982E+03  0.78613641893E+03  0.81114304430E+03  0.50400001928E-02 0.  1.
       -1    1    3    3    0  502 -0.60585266524E+01  0.19976451982E+03 -0.97557631596E+03  0.99583719423E+03  0.50400001928E-02 0. -1.
</event>
<event>
 5   0  0.1906857E-05  0.1799259E+04  0.7818609E-02  0.8706694E-01
       -1   -1    0    0    0  501  0.00000000000E+00  0.00000000000E+00  0.10716273546E+04  0.10716273546E+04  0.50400001928E-02 0. -1.
        1   -1    0    0  501    0  0.00000000000E+00  0.00000000000E+00 -0.75523734644E+03  0.75523734646E+03  0.50400001928E-02 0.  1.
    10030    2    1    2    0    0  0.00000000000E+00  0.00000000000E+00  0.31639000816E+03  0.18268647011E+04  0.17992587359E+04 0.  0.
        4    1    3    3  502    0  0.63120061149E+02 -0.41801980027E+03  0.96448644888E+03  0.10530718962E+04  0.12699999809E+01 0. -1.
       -4    1    3    3    0  502 -0.63120061149E+02  0.41801980027E+03 -0.64809644072E+03  0.77379280490E+03  0.12699999809E+01 0.  1.
</event>
<event>
 5   0  0.3984648E-05  0.1793645E+04  0.7818609E-02  0.8709687E-01
       -2   -1    0    0    0  501  0.00000000000E+00  0.00000000000E+00  0.77564689818E+03  0.77564689819E+03  0.25500000920E-02 0.  1.
        2   -1    0    0  501    0  0.00000000000E+00  0.00000000000E+00 -0.10369282838E+04  0.10369282838E+04  0.25500000920E-02 0. -1.
    10030    2    1    2    0    0  0.00000000000E+00  0.00000000000E+00 -0.26128138559E+03  0.18125751820E+04  0.17936445656E+04 0.  0.
        1    1    3    3  502    0 -0.63300138444E+03  0.61861991636E+03  0.15484383516E+02  0.88522376820E+03  0.50400001928E-02 0. -1.
       -1    1    3    3    0  502  0.63300138444E+03 -0.61861991636E+03 -0.27676576910E+03  0.92735141376E+03  0.50400001928E-02 0.  1.
</event>
<event>
 5   0  0.3984648E-05  0.1800769E+04  0.7818609E-02  0.8705891E-01
        2   -1    0    0  501    0  0.00000000000E+00  0.00000000000E+00  0.14196027391E+04  0.14196027391E+04  0.25500000920E-02 0. -1.
       -2   -1    0    0    0  501  0.00000000000E+00  0.00000000000E+00 -0.57106959412E+03  0.57106959413E+03  0.25500000920E-02 0.  1.
    10030    2    1    2    0    0  0.00000000000E+00  0.00000000000E+00  0.84853314500E+03  0.19906723333E+04  0.18007686804E+04 0.  0.
        1    1    3    3  502    0  0.11337786692E+03  0.76069399313E+03  0.94180709767E+03  0.12159401717E+04  0.50400001928E-02 0. -1.
       -1    1    3    3    0  502 -0.11337786692E+03 -0.76069399313E+03 -0.93273952663E+02  0.77473216157E+03  0.50400001928E-02 0.  1.
</event>
<event>
 5   0  0.1906857E-05  0.1786495E+04  0.7818609E-02  0.8713514E-01
        1   -1    0    0  501    0  0.00000000000E+00  0.00000000000E+00  0.12801718402E+04  0.12801718402E+04  0.50400001928E-02 0.  1.
       -1   -1    0    0    0  501  0.00000000000E+00  0.00000000000E+00 -0.62326903496E+03  0.62326903498E+03  0.50400001928E-02 0. -1.
    10030    2    1    2    0    0  0.00000000000E+00  0.00000000000E+00  0.65690280522E+03  0.19034408752E+04  0.17864954156E+04 0.  0.
        4    1    3    3  502    0 -0.41931003200E+03 -0.59181627999E+03 -0.22704357968E+03  0.76001171844E+03  0.12699999809E+01 0. -1.
       -4    1    3    3    0  502  0.41931003200E+03  0.59181627999E+03  0.88394638490E+03  0.11434291567E+04  0.12699999809E+01 0.  1.
</event>
<event>
 5   0  0.1960300E-05  0.1800173E+04  0.7818609E-02  0.8706207E-01
       -1   -1    0    0    0  501  0.00000000000E+00  0.00000000000E+00  0.79178603010E+03  0.79178603011E+03  0.50400001928E-02 0. -1.
        1   -1    0    0  501    0  0.00000000000E+00  0.00000000000E+00 -0.10232004790E+04  0.10232004790E+04  0.50400001928E-02 0.  1.
    10030    2    1    2    0    0  0.00000000000E+00  0.00000000000E+00 -0.23141444889E+03  0.18149865091E+04  0.18001731531E+04 0.  0.
        3    1    3    3  502    0 -0.51389031211E+03  0.58449099506E+03 -0.57158150760E+03  0.96561814720E+03  0.10100000352E+00 0.  1.
       -3    1    3    3    0  502  0.51389031211E+03 -0.58449099506E+03  0.34016705871E+03  0.84936836191E+03  0.10100000352E+00 0. -1.
</event>
<event>
 5   0  0.3909859E-05  0.1799014E+04  0.7818609E-02  0.8706824E-01
        2   -1    0    0  501    0  0.00000000000E+00  0.00000000000E+00  0.11369616498E+04  0.11369616498E+04  0.25500000920E-02 0.  1.
       -2   -1    0    0    0  501  0.00000000000E+00  0.00000000000E+00 -0.71164508548E+03  0.71164508548E+03  0.25500000920E-02 0. -1.
    10030    2    1    2    0    0  0.00000000000E+00  0.00000000000E+00  0.42531656428E+03  0.18486067352E+04  0.17990143640E+04 0.  0.
        4    1    3    3  502    0  0.45744210447E+03  0.15985370881E+03  0.99137809652E+03  0.11034666421E+04  0.12699999809E+01 0.  1.
       -4    1    3    3    0  502 -0.45744210447E+03 -0.15985370881E+03 -0.56606153224E+03  0.74514009310E+03  0.12699999809E+01 0. -1.
</event>
<event>
 5   0  0.1906857E-05  0.1817667E+04  0.7818609E-02  0.8696961E-01
       -1   -1    0    0    0  501  0.00000000000E+00  0.00000000000E+00  0.38121913286E+03  0.38121913289E+03  0.50400001928E-02 0.  1.
        1   -1    0    0  501    0  0.00000000000E+00  0.00000000000E+00 -0.21666750224E+04  0.21666750224E+04  0.50400001928E-02 0. -1.
    10030    2    1    2    0    0  0.00000000000E+00  0.00000000000E+00 -0.17854558895E+04  0.25478941553E+04  0.18176666067E+04 0.  0.
        4    1    3    3  502    0 -0.12115211264E+02 -0.42820848061E+03  0.23082254480E+03  0.48661066706E+03  0.12699999809E+01 0.  1.
       -4    1    3    3    0  502  0.12115211264E+02  0.42820848061E+03 -0.20162784343E+04  0.20612834882E+04  0.12699999809E+01 0. -1.
</event>
<event>
 5   0  0.2038338E-05  0.1800202E+04  0.7818609E-02  0.8706192E-01
       -1   -1    0    0    0  501  0.00000000000E+00  0.00000000000E+00  0.90170084428E+03  0.90170084429E+03  0.50400001928E-02 0. -1.
        1   -1    0    0  501    0  0.00000000000E+00  0.00000000000E+00 -0.89850445933E+03  0.89850445934E+03  0.50400001928E-02 0.  1.
    10030    2    1    2    0    0  0.00000000000E+00  0.00000000000E+00  0.31963849475E+01  0.18002053036E+04  0.18002024659E+04 0.  0.
        1    1    3    3  502    0  0.79898033390E+01  0.82104555921E+03 -0.36718766825E+03  0.89944784785E+03  0.50400001928E-02 0.  1.
       -1    1    3    3    0  502 -0.79898033390E+01 -0.82104555921E+03  0.37038405320E+03  0.90075745578E+03  0.50400001928E-02 0. -1.
</event>
<event>
 5   0  0.2054876E-05  0.1799212E+04  0.7818609E-02  0.8706719E-01
        1   -1    0    0  501    0  0.00000000000E+00  0.00000000000E+00  0.10855112118E+04  0.10855112118E+04  0.50400001928E-02 0. -1.
       -1   -1    0    0    0  501  0.00000000000E+00  0.00000000000E+00 -0.74553917244E+03  0.74553917245E+03  0.50400001928E-02 0.  1.
    10030    2    1    2    0    0  0.00000000000E+00  0.00000000000E+00  0.33997203937E+03  0.18310503843E+04  0.17992121949E+04 0.  0.
        5    1    3    3  502    0 -0.74940928995E+03 -0.48631534221E+03  0.27745845872E+03  0.93547965357E+03  0.46999998093E+01 0.  1.
       -5    1    3    3    0  502  0.74940928995E+03  0.48631534221E+03  0.62513580650E+02  0.89557073070E+03  0.46999998093E+01 0. -1.
</event>
<event>
 5   0  0.3909859E-05  0.1803748E+04  0.7818609E-02  0.8704309E-01
        2   -1    0    0  501    0  0.00000000000E+00  0.00000000000E+00  0.40653374748E+03  0.40653374749E+03  0.25500000920E-02 0. -1.
       -2   -1    0    0    0  501  0.00000000000E+00  0.00000000000E+00 -0.20007596465E+04  0.20007596465E+04  0.25500000920E-02 0.  1.
    10030    2    1    2    0    0  0.00000000000E+00  0.00000000000E+00 -0.15942258990E+04  0.24072933940E+04  0.18037475621E+04 0.  0.
        4    1    3    3  502    0  0.40986120890E+03  0.18110217641E+03  0.24745908345E+03  0.51188066943E+03  0.12699999809E+01 0. -1.
       -4    1    3    3    0  502 -0.40986120890E+03 -0.18110217641E+03 -0.18416849825E+04  0.18954127246E+04  0.12699999809E+01 0.  1.
</event>
<event>
 5   0  0.4015729E-05  0.1801452E+04  0.7818609E-02  0.8705528E-01
        2   -1    0    0  501    0  0.00000000000E+00  0.00000000000E+00  0.81769577753E+03  0.81769577753E+03  0.25500000920E-02 0. -1.
       -2   -1    0    0    0  501  0.00000000000E+00  0.00000000000E+00 -0.99218758887E+03  0.99218758888E+03  0.25500000920E-02 0.  1.
    10030    2    1    2    0    0  0.00000000000E+00  0.00000000000E+00 -0.17449181135E+03  0.18098833664E+04  0.18014523052E+04 0.  0.
        2    1    3    3  502    0  0.36326576794E+03 -0.10315628962E+03  0.73432471212E+03  0.82573362598E+03  0.25500000920E-02 0. -1.
       -2    1    3    3    0  502 -0.36326576794E+03  0.10315628962E+03 -0.90881652347E+03  0.98414974042E+03  0.25500000920E-02 0.  1.
</event>
<event>
 5   0  0.2054876E-05  0.1803884E+04  0.7818609E-02  0.8704237E-01
        1   -1    0    0  501    0  0.00000000000E+00  0.00000000000E+00  0.15557615325E+04  0.15557615325E+04  0.50400001928E-02 0.  1.
       -1   -1    0    0    0  501  0.00000000000E+00  0.00000000000E+00 -0.52289437389E+03  0.52289437392E+03  0.50400001928E-02 0. -1.
    10030    2    1    2    0    0  0.00000000000E+00  0.00000000000E+00  0.10328671586E+04  0.20786559065E+04  0.18038835356E+04 0.  0.
        5    1    3    3  502    0  0.69609575453E+03 -0.13183014793E+03  0.11596199815E+04  0.13589220282E+04  0.46999998093E+01 0.  1.
       -5    1    3    3    0  502 -0.69609575453E+03  0.13183014793E+03 -0.12675282283E+03  0.71973387823E+03  0.46999998093E+01 0. -1.
</event>
<event>
 5   0  0.2038338E-05  0.1799695E+04  0.7818609E-02  0.8706462E-01
        1   -1    0    0  501    0  0.00000000000E+00  0.00000000000E+00  0.88785826572E+03  0.88785826574E+03  0.50400001928E-02 0.  1.
       -1   -1    0    0    0  501  0.00000000000E+00  0.00000000000E+00 -0.91199817078E+03  0.91199817079E+03  0.50400001928E-02 0. -1.
    10030    2    1    2    0    0  0.00000000000E+00  0.00000000000E+00 -0.24139905056E+02  0.17998564365E+04  0.17996945455E+04 0.  0.
        1    1    3    3  502    0  0.88380093344E+03 -0.14890531036E+03  0.68238160314E+02  0.89885111557E+03  0.50400001928E-02 0.  1.
       -1    1    3    3    0  502 -0.88380093344E+03  0.14890531036E+03 -0.92378065370E+02  0.90100532096E+03  0.50400001928E-02 0. -1.
</event>
<event>
 5   0  0.3983176E-05  0.1807609E+04  0.7818609E-02  0.8702263E-01
        2   -1    0    0  501    0  0.00000000000E+00  0.00000000000E+00  0.15716542877E+04  0.15716542877E+04  0.25500000920E-02 0. -1.
       -2   -1    0    0    0  501  0.00000000000E+00  0.00000000000E+00 -0.51974709739E+03  0.51974709739E+03  0.25500000920E-02 0.  1.
    10030    2    1    2    0    0  0.00000000000E+00  0.00000000000E+00  0.10519071903E+04  0.20914013851E+04  0.18076091991E+04 0.  0.
        3    1    3    3  502    0  0.72146318836E+03  0.88309015968E+02 -0.95555155766E+02  0.73310191137E+03  0.10100000352E+00 0.  1.
       -3    1    3    3    0  502 -0.72146318836E+03 -0.88309015968E+02  0.11474623461E+04  0.13582994737E+04  0.10100000352E+00 0. -1.
</event>
<event>
 5   0  0.3909859E-05  0.1801662E+04  0.7818609E-02  0.8705416E-01
        2   -1    0    0  501    0  0.00000000000E+00  0.00000000000E+00  0.10256100495E+04  0.10256100495E+04  0.25500000920E-02 0.  1.
       -2   -1    0    0    0  501  0.00000000000E+00  0.00000000000E+00 -0.79123280508E+03  0.79123280508E+03  0.25500000920E-02 0. -1.
    10030    2    1    2    0    0  0.00000000000E+00  0.00000000000E+00  0.23437724445E+03  0.18168428546E+04  0.18016618067E+04 0.  0.
        4    1    3    3  502    0 -0.14705122671E+03  0.95942394034E+02  0.10081864424E+04  0.10233623609E+04  0.12699999809E+01 0.  1.
       -4    1    3    3    0  502  0.14705122671E+03 -0.95942394034E+02 -0.77380919791E+03  0.79348049372E+03  0.12699999809E+01 0. -1.
</event>
<event>
 5   0  0.3909859E-05  0.1800070E+04  0.7818609E-02  0.8706262E-01
        2   -1    0    0  501    0  0.00000000000E+00  0.00000000000E+00  0.84419282560E+03  0.84419282560E+03  0.25500000920E-02 0.  1.
       -2   -1    0    0    0  501  0.00000000000E+00  0.00000000000E+00 -0.95957107876E+03  0.95957107877E+03  0.25500000920E-02 0. -1.
    10030    2    1    2    0    0  0.00000000000E+00  0.00000000000E+00 -0.11537825316E+03  0.18037639044E+04  0.18000700212E+04 0.  0.
        4    1    3    3  502    0  0.17845236686E+03  0.80833070966E+03 -0.41170949394E+03  0.92452696214E+03  0.12699999809E+01 0. -1.
       -4    1    3    3    0  502 -0.17845236686E+03 -0.80833070966E+03  0.29633124077E+03  0.87923694223E+03  0.12699999809E+01 0.  1.
</event>
<event>
 5   0  0.1960300E-05  0.1809134E+04  0.7818609E-02  0.8701457E-01
        1   -1    0    0  501    0  0.00000000000E+00  0.00000000000E+00  0.11790166358E+04  0.11790166358E+04  0.50400001928E-02 0. -1.
       -1   -1    0    0    0  501  0.00000000000E+00  0.00000000000E+00 -0.69400307540E+03  0.69400307542E+03  0.50400001928E-02 0.  1.
    10030    2    1    2    0    0  0.00000000000E+00  0.00000000000E+00  0.48501356040E+03  0.18730197112E+04  0.18091336835E+04 0.  0.
        3    1    3    3  502    0 -0.11286441024E+03  0.67662312738E+03  0.85297631674E+03  0.10945893471E+04  0.10100000352E+00 0. -1.
       -3    1    3    3    0  502  0.11286441024E+03 -0.67662312738E+03 -0.36796275633E+03  0.77843036416E+03  0.10100000352E+00 0.  1.
</event>
<event>
 5   0  0.1960300E-05  0.1802468E+04  0.7818609E-02  0.8704988E-01
        1   -1    0    0  501    0  0.00000000000E+00  0.00000000000E+00  0.61549456494E+03  0.61549456497E+03  0.50400001928E-02 0.  1.
       -1   -1    0    0    0  501  0.00000000000E+00  0.00000000000E+00 -0.13196266749E+04  0.13196266749E+04  0.50400001928E-02 0. -1.
    10030    2    1    2    0    0  0.00000000000E+00  0.00000000000E+00 -0.70413210991E+03  0.19351212398E+04  0.18024683588E+04 0.  0.
        3    1    3    3  502    0 -0.78247205861E+03 -0.27532526182E+03 -0.73035642389E+03  0.11052090474E+04  0.10100000352E+00 0. -1.
       -3    1    3    3    0  502  0.78247205861E+03  0.27532526182E+03  0.26224313985E+02  0.82991219244E+03  0.10100000352E+00 0.  1.
</event>
<event>
 5   0  0.2038338E-05  0.1800724E+04  0.7818609E-02  0.8705915E-01
        1   -1    0    0  501    0  0.00000000000E+00  0.00000000000E+00  0.10380335081E+04  0.10380335081E+04  0.50400001928E-02 0. -1.
       -1   -1    0    0    0  501  0.00000000000E+00  0.00000000000E+00 -0.78094956473E+03  0.78094956474E+03  0.50400001928E-02 0.  1.
    10030    2    1    2    0    0  0.00000000000E+00  0.00000000000E+00  0.25708394336E+03  0.18189830728E+04  0.18007240947E+04 0.  0.
        1    1    3    3  502    0  0.73052638333E+03  0.29419160611E+03 -0.31227071985E+03  0.84718976643E+03  0.50400001928E-02 0.  1.
       -1    1    3    3    0  502 -0.73052638333E+03 -0.29419160611E+03  0.56935466321E+03  0.97179330641E+03  0.50400001928E-02 0. -1.
</event>
<event>
 5   0  0.2001811E-05  0.1804657E+04  0.7818609E-02  0.8703827E-01
       -1   -1    0    0    0  501  0.00000000000E+00  0.00000000000E+00  0.54789078554E+03  0.54789078556E+03  0.50400001928E-02 0.  1.
        1   -1    0    0  501    0  0.00000000000E+00  0.00000000000E+00 -0.14860571688E+04  0.14860571688E+04  0.50400001928E-02 0. -1.
    10030    2    1    2    0    0  0.00000000000E+00  0.00000000000E+00 -0.93816638324E+03  0.20339479543E+04  0.18046573410E+04 0.  0.
        2    1    3    3  502    0  0.20434179420E+03  0.14577532587E+02 -0.14595002790E+04  0.14738077003E+04  0.25500000920E-02 0. -1.
       -2    1    3    3    0  502 -0.20434179420E+03 -0.14577532587E+02  0.52133389572E+03  0.56014025400E+03  0.25500000920E-02 0.  1.
</event>
<event>
 5   0  0.3983176E-05  0.1804810E+04  0.7818609E-02  0.8703746E-01
       -2   -1    0    0    0  501  0.00000000000E+00  0.00000000000E+00  0.33925261839E+03  0.33925261840E+03  0.25500000920E-02 0.  1.
        2   -1    0    0  501    0  0.00000000000E+00  0.00000000000E+00 -0.24003778469E+04  0.24003778469E+04  0.25500000920E-02 0. -1.
    10030    2    1    2    0    0  0.00000000000E+00  0.00000000000E+00 -0.20611252285E+04  0.27396304653E+04  0.18048096517E+04 0.  0.
        3    1    3    3  502    0  0.44421677182E+03  0.21252011534E+03  0.11732210039E+03  0.50621914743E+03  0.10100000352E+00 0.  1.
       -3    1    3    3    0  502 -0.44421677182E+03 -0.21252011534E+03 -0.21784473289E+04  0.22334113179E+04  0.10100000352E+00 0. -1.
</event>
<event>
 5   0  0.3983176E-05  0.1799823E+04  0.7818609E-02  0.8706393E-01
       -2   -1    0    0    0  501  0.00000000000E+00  0.00000000000E+00  0.87041840670E+03  0.87041840670E+03  0.25500000920E-02 0.  1.
        2   -1    0    0  501    0  0.00000000000E+00  0.00000000000E+00 -0.93040415251E+03  0.93040415252E+03  0.25500000920E-02 0. -1.
    10030    2    1    2    0    0  0.00000000000E+00  0.00000000000E+00 -0.59985745816E+02  0.18008225592E+04  0.17998232136E+04 0.  0.
        3    1    3    3  502    0  0.46180129273E+03  0.72756766343E+03 -0.28941612833E+03  0.90905271815E+03  0.10100000352E+00 0. -1.
       -3    1    3    3    0  502 -0.46180129273E+03 -0.72756766343E+03  0.22943038251E+03  0.89176984107E+03  0.10100000352E+00 0.  1.
</event>
<event>
 5   0  0.1960300E-05  0.1803017E+04  0.7818609E-02  0.8704697E-01
        1   -1    0    0  501    0  0.00000000000E+00  0.00000000000E+00  0.82128120850E+03  0.82128120851E+03  0.50400001928E-02 0. -1.
       -1   -1    0    0    0  501  0.00000000000E+00  0.00000000000E+00 -0.98957291365E+03  0.98957291366E+03  0.50400001928E-02 0.  1.
    10030    2    1    2    0    0  0.00000000000E+00  0.00000000000E+00 -0.16829170516E+03  0.18108541222E+04  0.18030170697E+04 0.  0.
        3    1    3    3  502    0  0.55630249964E+03  0.50187224410E+02 -0.79484185451E+03  0.97147558512E+03  0.10100000352E+00 0.  1.
       -3    1    3    3    0  502 -0.55630249964E+03 -0.50187224410E+02  0.62655014936E+03  0.83937853705E+03  0.10100000352E+00 0. -1.
</event>
<event>
 5   0  0.4015729E-05  0.1824521E+04  0.7818609E-02  0.8693367E-01
       -2   -1    0    0    0  501  0.00000000000E+00  0.00000000000E+00  0.67047880260E+03  0.67047880261E+03  0.25500000920E-02 0.  1.
        2   -1    0    0  501    0  0.00000000000E+00  0.00000000000E+00 -0.12412316526E+04  0.12412316526E+04  0.25500000920E-02 0. -1.
    10030    2    1    2    0    0  0.00000000000E+00  0.00000000000E+00 -0.57075284995E+03  0.19117104552E+04  0.18245213204E+04 0.  0.
        2    1    3    3  502    0 -0.37866556973E+03 -0.59987155479E+03  0.31560616615E+03  0.77642819891E+03  0.25500000920E-02 0.  1.
       -2    1    3    3    0  502  0.37866556973E+03  0.59987155479E+03 -0.88635901610E+03  0.11352822563E+04  0.25500000920E-02 0. -1.
</event>
<event>
 5   0  0.3984648E-05  0.1799446E+04  0.7818609E-02  0.8706594E-01
       -2   -1    0    0    0  501  0.00000000000E+00  0.00000000000E+00  0.85148105426E+03  0.85148105426E+03  0.25500000920E-02 0.  1.
        2   -1    0    0  501    0  0.00000000000E+00  0.00000000000E+00 -0.95069798095E+03  0.95069798095E+03  0.25500000920E-02 0. -1.
    10030    2    1    2    0    0  0.00000000000E+00  0.00000000000E+00 -0.99216926687E+02  0.18021790352E+04  0.17994458248E+04 0.  0.
        1    1    3    3  502    0 -0.45487054825E+03  0.77059816848E+03 -0.14341270633E+03  0.90625380402E+03  0.50400001928E-02 0.  1.
       -1    1    3    3    0  502  0.45487054825E+03 -0.77059816848E+03  0.44195779647E+02  0.89592523120E+03  0.50400001928E-02 0. -1.
</event>
<event>
 5   0  0.3909859E-05  0.1801862E+04  0.7818609E-02  0.8705310E-01
       -2   -1    0    0    0  501  0.00000000000E+00  0.00000000000E+00  0.86683561001E+03  0.86683561002E+03  0.25500000920E-02 0. -1.
        2   -1    0    0  501    0  0.00000000000E+00  0.00000000000E+00 -0.93636763216E+03  0.93636763216E+03  0.25500000920E-02 0.  1.
    10030    2    1    2    0    0  0.00000000000E+00  0.00000000000E+00 -0.69532022147E+02  0.18032032422E+04  0.18018621564E+04 0.  0.
        4    1    3    3  502    0  0.19136851567E+03 -0.46667597950E+03  0.71229265284E+03  0.87279482974E+03  0.12699999809E+01 0. -1.
       -4    1    3    3    0  502 -0.19136851567E+03  0.46667597950E+03 -0.78182467498E+03  0.93040841244E+03  0.12699999809E+01 0.  1.
</event>
<event>
 5   0  0.2054876E-05  0.1800233E+04  0.7818609E-02  0.8706176E-01
       -1   -1    0    0    0  501  0.00000000000E+00  0.00000000000E+00  0.31537259181E+03  0.31537259185E+03  0.50400001928E-02 0.  1.
        1   -1    0    0  501    0  0.00000000000E+00  0.00000000000E+00 -0.25690551180E+04  0.25690551180E+04  0.50400001928E-02 0. -1.
    10030    2    1    2    0    0  0.00000000000E+00  0.00000000000E+00 -0.22536825262E+04  0.28844277099E+04  0.18002328418E+04 0.  0.
        5    1    3    3  502    0  0.74500802701E+03 -0.46542607919E+03 -0.81233787377E+03  0.11964837260E+04  0.46999998093E+01 0.  1.
       -5    1    3    3    0  502 -0.74500802701E+03  0.46542607919E+03 -0.14413446525E+04  0.16879439839E+04  0.46999998093E+01 0. -1.
</event>
<event>
 5   0  0.3984648E-05  0.1804681E+04  0.7818609E-02  0.8703814E-01
        2   -1    0    0  501    0  0.00000000000E+00  0.00000000000E+00  0.13268883788E+04  0.13268883788E+04  0.25500000920E-02 0.  1.
       -2   -1    0    0    0  501  0.00000000000E+00  0.00000000000E+00 -0.61363002520E+03  0.61363002521E+03  0.25500000920E-02 0. -1.
    10030    2    1    2    0    0  0.00000000000E+00  0.00000000000E+00  0.71325835362E+03  0.19405184040E+04  0.18046811900E+04 0.  0.
        1    1    3    3  502    0 -0.24471866315E+02  0.44632056688E+03 -0.48621852731E+03  0.66046148789E+03  0.50400001928E-02 0. -1.
       -1    1    3    3    0  502  0.24471866315E+02 -0.44632056688E+03  0.11994768809E+04  0.12800569161E+04  0.50400001928E-02 0.  1.
</event>
<event>
 5   0  0.3983176E-05  0.1800359E+04  0.7818609E-02  0.8706109E-01
        2   -1    0    0  501    0  0.00000000000E+00  0.00000000000E+00  0.61183456739E+03  0.61183456740E+03  0.25500000920E-02 0.  1.
       -2   -1    0    0    0  501  0.00000000000E+00  0.00000000000E+00 -0.13244154618E+04  0.13244154618E+04  0.25500000920E-02 0. -1.
    10030    2    1    2    0    0  0.00000000000E+00  0.00000000000E+00 -0.71258089441E+03  0.19362500292E+04  0.18003590321E+04 0.  0.
        3    1    3    3  502    0 -0.28708851471E+03  0.20885634721E+03  0.53336120236E+03  0.64071442268E+03  0.10100000352E+00 0.  1.
       -3    1    3    3    0  502  0.28708851471E+03 -0.20885634721E+03 -0.12459420968E+04  0.12955356065E+04  0.10100000352E+00 0. -1.
</event>
<event>
 5   0  0.1906857E-05  0.1808674E+04  0.7818609E-02  0.8701700E-01
       -1   -1    0    0    0  501  0.00000000000E+00  0.00000000000E+00  0.69048211971E+03  0.69048211973E+03  0.50400001928E-02 0. -1.
        1   -1    0    0  501    0  0.00000000000E+00  0.00000000000E+00 -0.11844268097E+04  0.11844268097E+04  0.50400001928E-02 0.  1.
    10030    2    1    2    0    0  0.00000000000E+00  0.00000000000E+00 -0.49394468997E+03  0.18749089294E+04  0.18086741378E+04 0.  0.
        4    1    3    3  502    0 -0.35832281058E+03 -0.27186158684E+03 -0.10602538948E+04  0.11517134597E+04  0.12699999809E+01 0.  1.
       -4    1    3    3    0  502  0.35832281058E+03  0.27186158684E+03  0.56630920484E+03  0.72319546968E+03  0.12699999809E+01 0. -1.
</event>
<event>
 5   0  0.3993393E-05  0.1810610E+04  0.7818609E-02  0.8700677E-01
        2   -1    0    0  501    0  0.00000000000E+00  0.00000000000E+00  0.13926040484E+04  0.13926040484E+04  0.25500000920E-02 0. -1.
       -2   -1    0    0    0  501  0.00000000000E+00  0.00000000000E+00 -0.58852151985E+03  0.58852151986E+03  0.25500000920E-02 0.  1.
    10030    2    1    2    0    0  0.00000000000E+00  0.00000000000E+00  0.80408252855E+03  0.19811255683E+04  0.18106103403E+04 0.  0.
        5    1    3    3  502    0 -0.59438014280E+03 -0.41900553650E+03 -0.18790301236E+03  0.75112117919E+03  0.46999998093E+01 0.  1.
       -5    1    3    3    0  502  0.59438014280E+03  0.41900553650E+03  0.99198554091E+03  0.12300043891E+04  0.46999998093E+01 0. -1.
</event>
<event>
 5   0  0.4015729E-05  0.1803207E+04  0.7818609E-02  0.8704596E-01
       -2   -1    0    0    0  501  0.00000000000E+00  0.00000000000E+00  0.97371587636E+03  0.97371587637E+03  0.25500000920E-02 0.  1.
        2   -1    0    0  501    0  0.00000000000E+00  0.00000000000E+00 -0.83483144120E+03  0.83483144120E+03  0.25500000920E-02 0. -1.
    10030    2    1    2    0    0  0.00000000000E+00  0.00000000000E+00  0.13888443517E+03  0.18085473176E+04  0.18032067307E+04 0.  0.
        2    1    3    3  502    0  0.69145079533E+03 -0.38276073320E+03  0.50463821317E+03  0.93769382393E+03  0.25500000920E-02 0.  1.
       -2    1    3    3    0  502 -0.69145079533E+03  0.38276073320E+03 -0.36575377800E+03  0.87085349363E+03  0.25500000920E-02 0. -1.
</event>
<event>
 5   0  0.4015729E-05  0.1799244E+04  0.7818609E-02  0.8706701E-01
        2   -1    0    0  501    0  0.00000000000E+00  0.00000000000E+00  0.71126396068E+03  0.71126396068E+03  0.25500000920E-02 0. -1.
       -2   -1    0    0    0  501  0.00000000000E+00  0.00000000000E+00 -0.11378619178E+04  0.11378619178E+04  0.25500000920E-02 0.  1.
    10030    2    1    2    0    0  0.00000000000E+00  0.00000000000E+00 -0.42659795712E+03  0.18491258785E+04  0.17992444796E+04 0.  0.
        2    1    3    3  502    0  0.17281167850E+02 -0.81287117787E+03  0.18242393786E+03  0.83326867437E+03  0.25500000920E-02 0. -1.
       -2    1    3    3    0  502 -0.17281167850E+02  0.81287117787E+03 -0.60902189498E+03  0.10158572041E+04  0.25500000920E-02 0.  1.
</event>
<event>
 5   0  0.1960300E-05  0.1803917E+04  0.7818609E-02  0.8704219E-01
        1   -1    0    0  501    0  0.00000000000E+00  0.00000000000E+00  0.23180987652E+04  0.23180987652E+04  0.50400001928E-02 0. -1.
       -1   -1    0    0    0  501  0.00000000000E+00  0.00000000000E+00 -0.35094680335E+03  0.35094680338E+03  0.50400001928E-02 0.  1.
    10030    2    1    2    0    0  0.00000000000E+00  0.00000000000E+00  0.19671519618E+04  0.26690455686E+04  0.18039172393E+04 0.  0.
        3    1    3    3  502    0 -0.87168576657E+03  0.17193084304E+03  0.75372545906E+03  0.11651173195E+04  0.10100000352E+00 0.  1.
       -3    1    3    3    0  502  0.87168576657E+03 -0.17193084304E+03  0.12134265028E+04  0.15039282490E+04  0.10100000352E+00 0. -1.
</event>
<event>
 5   0  0.2001811E-05  0.1801372E+04  0.7818609E-02  0.8705570E-01
        1   -1    0    0  501    0  0.00000000000E+00  0.00000000000E+00  0.11812154377E+04  0.11812154377E+04  0.50400001928E-02 0. -1.
       -1   -1    0    0    0  501  0.00000000000E+00  0.00000000000E+00 -0.68678032296E+03  0.68678032297E+03  0.50400001928E-02 0.  1.
    10030    2    1    2    0    0  0.00000000000E+00  0.00000000000E+00  0.49443511475E+03  0.18679957607E+04  0.18013722767E+04 0.  0.
        2    1    3    3  502    0 -0.60305254354E+03 -0.66371246379E+03  0.33428054112E+03  0.95704236324E+03  0.25500000920E-02 0.  1.
       -2    1    3    3    0  502  0.60305254354E+03  0.66371246379E+03  0.16015457362E+03  0.91095339745E+03  0.25500000920E-02 0. -1.
</event>
<event>
 5   0  0.3984648E-05  0.1797520E+04  0.7818609E-02  0.8707619E-01
        2   -1    0    0  501    0  0.00000000000E+00  0.00000000000E+00  0.22782840262E+04  0.22782840262E+04  0.25500000920E-02 0. -1.
       -2   -1    0    0    0  501  0.00000000000E+00  0.00000000000E+00 -0.35455192308E+03  0.35455192309E+03  0.25500000920E-02 0.  1.
    10030    2    1    2    0    0  0.00000000000E+00  0.00000000000E+00  0.19237321031E+04  0.26328359493E+04  0.17975204954E+04 0.  0.
        1    1    3    3  502    0 -0.11592270808E+03  0.63354756884E+03  0.18800258133E+04  0.19872890215E+04  0.50400001928E-02 0. -1.
       -1    1    3    3    0  502  0.11592270808E+03 -0.63354756884E+03  0.43706289836E+02  0.64554692782E+03  0.50400001928E-02 0.  1.
</event>
<event>
 5   0  0.2001811E-05  0.1803938E+04  0.7818609E-02  0.8704208E-01
       -1   -1    0    0    0  501  0.00000000000E+00  0.00000000000E+00  0.13906740569E+04  0.13906740569E+04  0.50400001928E-02 0.  1.
        1   -1    0    0  501    0  0.00000000000E+00  0.00000000000E+00 -0.58500257856E+03  0.58500257858E+03  0.50400001928E-02 0. -1.
    10030    2    1    2    0    0  0.00000000000E+00  0.00000000000E+00  0.80567147837E+03  0.19756766355E+04  0.18039378141E+04 0.  0.
        2    1    3    3  502    0  0.43775698652E+03 -0.52853389890E+03 -0.23817913671E+03  0.72643551862E+03  0.25500000920E-02 0. -1.
       -2    1    3    3    0  502 -0.43775698652E+03  0.52853389890E+03  0.10438506151E+04  0.12492411169E+04  0.25500000920E-02 0.  1.
</event>
<event>
 5   0  0.2054876E-05  0.1796671E+04  0.7818609E-02  0.8708072E-01
       -1   -1    0    0    0  501  0.00000000000E+00  0.00000000000E+00  0.16646378486E+04  0.16646378486E+04  0.50400001928E-02 0.  1.
        1   -1    0    0  501    0  0.00000000000E+00  0.00000000000E+00 -0.48479406018E+03  0.48479406020E+03  0.50400001928E-02 0. -1.
    10030    2    1    2    0    0  0.00000000000E+00  0.00000000000E+00  0.11798437884E+04  0.21494319088E+04  0.17966708562E+04 0.  0.
        5    1    3    3  502    0 -0.78047901511E+03 -0.43929654424E+02  0.60404409532E+02  0.78405872883E+03  0.46999998093E+01 0. -1.
       -5    1    3    3    0  502  0.78047901511E+03  0.43929654424E+02  0.11194393789E+04  0.13653731800E+04  0.46999998093E+01 0.  1.
</event>
<event>
 5   0  0.3993393E-05  0.1804104E+04  0.7818609E-02  0.8704120E-01
        2   -1    0    0  501    0  0.00000000000E+00  0.00000000000E+00  0.86481099955E+03  0.86481099956E+03  0.25500000920E-02 0. -1.
       -2   -1    0    0    0  501  0.00000000000E+00  0.00000000000E+00 -0.94089625194E+03  0.94089625195E+03  0.25500000920E-02 0.  1.
    10030    2    1    2    0    0  0.00000000000E+00  0.00000000000E+00 -0.76085252391E+02  0.18057072515E+04  0.18041035759E+04 0.  0.
        5    1    3    3  502    0 -0.55600200818E+03 -0.38689559723E+03  0.55817883917E+03  0.87773124745E+03  0.46999998093E+01 0. -1.
       -5    1    3    3    0  502  0.55600200818E+03  0.38689559723E+03 -0.63426409156E+03  0.92797600405E+03  0.46999998093E+01 0.  1.
</event>
<event>
 5   0  0.2001811E-05  0.1799110E+04  0.7818609E-02  0.8706773E-01
       -1   -1    0    0    0  501  0.00000000000E+00  0.00000000000E+00  0.64335582038E+03  0.64335582040E+03  0.50400001928E-02 0. -1.
        1   -1    0    0  501    0  0.00000000000E+00  0.00000000000E+00 -0.12577788961E+04  0.12577788961E+04  0.50400001928E-02 0.  1.
    10030    2    1    2    0    0  0.00000000000E+00  0.00000000000E+00 -0.61442307570E+03  0.19011347165E+04  0.17991101951E+04 0.  0.
        2    1    3    3  502    0 -0.46273010335E+02 -0.43397632864E+03 -0.11384069986E+04  0.12191993847E+04  0.25500000920E-02 0.  1.
       -2    1    3    3    0  502  0.46273010335E+02  0.43397632864E+03  0.52398392286E+03  0.68193533178E+03  0.25500000920E-02 0. -1.
</event>
<event>
 5   0  0.1960300E-05  0.1795221E+04  0.7818609E-02  0.8708845E-01
       -1   -1    0    0    0  501  0.00000000000E+00  0.00000000000E+00  0.10915269455E+04  0.10915269455E+04  0.50400001928E-02 0. -1.
        1   -1    0    0  501    0  0.00000000000E+00  0.00000000000E+00 -0.73814456252E+03  0.73814456253E+03  0.50400001928E-02 0.  1.
    10030    2    1    2    0    0  0.00000000000E+00  0.00000000000E+00  0.35338238301E+03  0.18296715081E+04  0.17952210780E+04 0.  0.
        3    1    3    3  502    0 -0.21345200551E+03  0.21535344188E+03 -0.68436809663E+03  0.74853093822E+03  0.10100000352E+00 0.  1.
       -3    1    3    3    0  502  0.21345200551E+03 -0.21535344188E+03  0.10377504796E+04  0.10811405699E+04  0.10100000352E+00 0. -1.
</event>
<event>
 5   0  0.2054876E-05  0.1800915E+04  0.7818609E-02  0.8705813E-01
       -1   -1    0    0    0  501  0.00000000000E+00  0.00000000000E+00  0.10793845340E+04  0.10793845341E+04  0.50400001928E-02 0. -1.
        1   -1    0    0  501    0  0.00000000000E+00  0.00000000000E+00 -0.75119081660E+03  0.75119081662E+03  0.50400001928E-02 0.  1.
    10030    2    1    2    0    0  0.00000000000E+00  0.00000000000E+00  0.32819371744E+03  0.18305753507E+04  0.18009150447E+04 0.  0.
        5    1    3    3  502    0  0.14699906915E+03  0.83122268921E+03 -0.15453315677E+03  0.85816226433E+03  0.46999998093E+01 0.  1.
       -5    1    3    3    0  502 -0.14699906915E+03 -0.83122268921E+03  0.48272687422E+03  0.97241308634E+03  0.46999998093E+01 0. -1.
</event>
<event>
 5   0  0.4015729E-05  0.1790569E+04  0.7818609E-02  0.8711331E-01
       -2   -1    0    0    0  501  0.00000000000E+00  0.00000000000E+00  0.59760029636E+03  0.59760029637E+03  0.25500000920E-02 0. -1.
        2   -1    0    0  501    0  0.00000000000E+00  0.00000000000E+00 -0.13412548070E+04  0.13412548070E+04  0.25500000920E-02 0.  1.
    10030    2    1    2    0    0  0.00000000000E+00  0.00000000000E+00 -0.74365451066E+03  0.19388551034E+04  0.17905689266E+04 0.  0.
        2    1    3    3  502    0  0.14263820506E+03 -0.59775397365E+03 -0.10768045966E+04  0.12398240237E+04  0.25500000920E-02 0.  1.
       -2    1    3    3    0  502 -0.14263820506E+03  0.59775397365E+03  0.33315008595E+03  0.69903107966E+03  0.25500000920E-02 0. -1.
</event>
<event>
 5   0  0.3984648E-05  0.1796135E+04  0.7818609E-02  0.8708358E-01
        2   -1    0    0  501    0  0.00000000000E+00  0.00000000000E+00  0.94385772146E+03  0.94385772146E+03  0.25500000920E-02 0.  1.
       -2   -1    0    0    0  501  0.00000000000E+00  0.00000000000E+00 -0.85449849589E+03  0.85449849589E+03  0.25500000920E-02 0. -1.
    10030    2    1    2    0    0  0.00000000000E+00  0.00000000000E+00  0.89359225573E+02  0.17983562174E+04  0.17961347425E+04 0.  0.
        1    1    3    3  502    0  0.30449529220E+03 -0.11194559179E+03  0.88313746228E+03  0.94084056875E+03  0.50400001928E-02 0.  1.
       -1    1    3    3    0  502 -0.30449529220E+03  0.11194559179E+03 -0.79377823671E+03  0.85751564860E+03  0.50400001928E-02 0. -1.
</event>
<event>
 5   0  0.1960300E-05  0.1805882E+04  0.7818609E-02  0.8703178E-01
       -1   -1    0    0    0  501  0.00000000000E+00  0.00000000000E+00  0.47351851104E+03  0.47351851107E+03  0.50400001928E-02 0.  1.
        1   -1    0    0  501    0  0.00000000000E+00  0.00000000000E+00 -0.17217965518E+04  0.17217965518E+04  0.50400001928E-02 0. -1.
    10030    2    1    2    0    0  0.00000000000E+00  0.00000000000E+00 -0.12482780408E+04  0.21953150629E+04  0.18058820998E+04 0.  0.
        3    1    3    3  502    0 -0.14649871284E+03  0.16476288121E+03 -0.16885723229E+04  0.17029049239E+04  0.10100000352E+00 0. -1.
       -3    1    3    3    0  502  0.14649871284E+03 -0.16476288121E+03  0.44029428215E+03  0.49241013899E+03  0.10100000352E+00 0.  1.
</event>
<event>
 5   0  0.3984648E-05  0.1791687E+04  0.7818609E-02  0.8710733E-01
        2   -1    0    0  501    0  0.00000000000E+00  0.00000000000E+00  0.12753517780E+04  0.12753517781E+04  0.25500000920E-02 0. -1.
       -2   -1    0    0    0  501  0.00000000000E+00  0.00000000000E+00 -0.62926573556E+03  0.62926573557E+03  0.25500000920E-02 0.  1.
    10030    2    1    2    0    0  0.00000000000E+00  0.00000000000E+00  0.64608604249E+03  0.19046175136E+04  0.17916865515E+04 0.  0.
        1    1    3    3  502    0  0.61305242925E+02 -0.79791316461E+03 -0.10496563204E+03  0.80711928177E+03  0.50400001928E-02 0.  1.
       -1    1    3    3    0  502 -0.61305242925E+02  0.79791316461E+03  0.75105167453E+03  0.10974982318E+04  0.50400001928E-02 0. -1.
</event>
<event>
 5   0  0.3984648E-05  0.1798246E+04  0.7818609E-02  0.8707233E-01
        2   -1    0    0  501    0  0.00000000000E+00  0.00000000000E+00  0.98996348859E+03  0.98996348860E+03  0.25500000920E-02 0.  1.
       -2   -1    0    0    0  501  0.00000000000E+00  0.00000000000E+00 -0.81661816287E+03  0.81661816287E+03  0.25500000920E-02 0. -1.
    10030    2    1    2    0    0  0.00000000000E+00  0.00000000000E+00  0.17334532572E+03  0.18065816515E+04  0.17982459958E+04 0.  0.
        1    1    3    3  502    0  0.35457990834E+03 -0.49155725617E+03  0.75387972889E+03  0.96731075314E+03  0.50400001928E-02 0.  1.
       -1    1    3    3    0  502 -0.35457990834E+03  0.49155725617E+03 -0.58053440316E+03  0.83927089833E+03  0.50400001928E-02 0. -1.
</event>
<event>
 5   0  0.3993393E-05  0.1798746E+04  0.7818609E-02  0.8706967E-01
       -2   -1    0    0    0  501  0.00000000000E+00  0.00000000000E+00  0.10576742261E+04  0.10576742261E+04  0.25500000920E-02 0.  1.
        2   -1    0    0  501    0  0.00000000000E+00  0.00000000000E+00 -0.76476445649E+03  0.76476445650E+03  0.25500000920E-02 0. -1.
    10030    2    1    2    0    0  0.00000000000E+00  0.00000000000E+00  0.29290976958E+03  0.18224386826E+04  0.17987458460E+04 0.  0.
        5    1    3    3  502    0  0.83150960876E+03  0.30747564930E+03 -0.68660413161E+01  0.88657697742E+03  0.46999998093E+01 0. -1.
       -5    1    3    3    0  502 -0.83150960876E+03 -0.30747564930E+03  0.29977581089E+03  0.93586170515E+03  0.46999998093E+01 0.  1.
</event>
<event>
 5   0  0.3983176E-05  0.1795088E+04  0.7818609E-02  0.8708916E-01
        2   -1    0    0  501    0  0.00000000000E+00  0.00000000000E+00  0.12155472473E+04  0.12155472473E+04  0.25500000920E-02 0.  1.
       -2   -1    0    0    0  501  0.00000000000E+00  0.00000000000E+00 -0.66273491326E+03  0.66273491326E+03  0.25500000920E-02 0. -1.
    10030    2    1    2    0    0  0.00000000000E+00  0.00000000000E+00  0.55281233404E+03  0.18782821606E+04  0.17950884095E+04 0.  0.
        3    1    3    3  502    0 -0.80373617867E+03  0.12802579760E+03 -0.11955378289E+03  0.82260292180E+03  0.10100000352E+00 0. -1.
       -3    1    3    3    0  502  0.80373617867E+03 -0.12802579760E+03  0.67236611693E+03  0.10556792388E+04  0.10100000352E+00 0.  1.
</event>
<event>
 5   0  0.2038338E-05  0.1797015E+04  0.7818609E-02  0.8707888E-01
        1   -1    0    0  501    0  0.00000000000E+00  0.00000000000E+00  0.61619736320E+03  0.61619736322E+03  0.50400001928E-02 0.  1.
       -1   -1    0    0    0  501  0.00000000000E+00  0.00000000000E+00 -0.13101582817E+04  0.13101582817E+04  0.50400001928E-02 0. -1.
    10030    2    1    2    0    0  0.00000000000E+00  0.00000000000E+00 -0.69396091846E+03  0.19263556449E+04  0.17970153906E+04 0.  0.
        1    1    3    3  502    0 -0.23215209888E+03  0.35443876315E+03 -0.11963437296E+04  0.12691571035E+04  0.50400001928E-02 0. -1.
       -1    1    3    3    0  502  0.23215209888E+03 -0.35443876315E+03  0.50238281118E+03  0.65719854141E+03  0.50400001928E-02 0.  1.
</event>
<event>
 5   0  0.2038338E-05  0.1818890E+04  0.7818609E-02  0.8696318E-01
        1   -1    0    0  501    0  0.00000000000E+00  0.00000000000E+00  0.39420994601E+03  0.39420994604E+03  0.50400001928E-02 0.  1.
       -1   -1    0    0    0  501  0.00000000000E+00  0.00000000000E+00 -0.20980966850E+04  0.20980966850E+04  0.50400001928E-02 0. -1.
    10030    2    1    2    0    0  0.00000000000E+00  0.00000000000E+00 -0.17038867390E+04  0.24923066311E+04  0.18188904101E+04 0.  0.
        1    1    3    3  502    0  0.19755469790E+03 -0.87439685245E+03 -0.10619644784E+04  0.13897360424E+04  0.50400001928E-02 0. -1.
       -1    1    3    3    0  502 -0.19755469790E+03  0.87439685245E+03 -0.64192226059E+03  0.11025705886E+04  0.50400001928E-02 0.  1.
</event>
<event>
 5   0  0.2038338E-05  0.1798564E+04  0.7818609E-02  0.8707063E-01
        1   -1    0    0  501    0  0.00000000000E+00  0.00000000000E+00  0.10260757747E+04  0.10260757748E+04  0.50400001928E-02 0. -1.
       -1   -1    0    0    0  501  0.00000000000E+00  0.00000000000E+00 -0.78815652950E+03  0.78815652952E+03  0.50400001928E-02 0.  1.
    10030    2    1    2    0    0  0.00000000000E+00  0.00000000000E+00  0.23791924524E+03  0.18142323043E+04  0.17985642292E+04 0.  0.
        1    1    3    3  502    0 -0.64560444805E+02 -0.60239784347E+03  0.78932188287E+03  0.99502776225E+03  0.50400001928E-02 0. -1.
       -1    1    3    3    0  502  0.64560444805E+02  0.60239784347E+03 -0.55140263763E+03  0.81920454202E+03  0.50400001928E-02 0.  1.
</event>
<event>
 5   0  0.3993393E-05  0.1800631E+04  0.7818609E-02  0.8705964E-01
       -2   -1    0    0    0  501  0.00000000000E+00  0.00000000000E+00  0.54200729275E+03  0.54200729275E+03  0.25500000920E-02 0. -1.
        2   -1    0    0  501    0  0.00000000000E+00  0.00000000000E+00 -0.14954928697E+04  0.14954928697E+04  0.25500000920E-02 0.  1.
    10030    2    1    2    0    0  0.00000000000E+00  0.00000000000E+00 -0.95348557691E+03  0.20375001624E+04  0.18006310467E+04 0.  0.
        5    1    3    3  502    0  0.20490517468E+03 -0.83505290753E+03 -0.17470966681E+03  0.87740814144E+03  0.46999998093E+01 0. -1.
       -5    1    3    3    0  502 -0.20490517468E+03  0.83505290753E+03 -0.77877591010E+03  0.11600920210E+04  0.46999998093E+01 0.  1.
</event>
<event>
 5   0  0.3984648E-05  0.1822213E+04  0.7818609E-02  0.8694575E-01
        2   -1    0    0  501    0  0.00000000000E+00  0.00000000000E+00  0.27426046944E+04  0.27426046944E+04  0.25500000920E-02 0.  1.
       -2   -1    0    0    0  501  0.00000000000E+00  0.00000000000E+00 -0.30267408607E+03  0.30267408608E+03  0.25500000920E-02 0. -1.
    10030    2    1    2    0    0  0.00000000000E+00  0.00000000000E+00  0.24399306084E+04  0.30452787805E+04  0.18222133457E+04 0.  0.
        1    1    3    3  502    0  0.25961794023E+03  0.66154857191E+03  0.21727933454E+04  0.22860618779E+04  0.50400001928E-02 0.  1.
       -1    1    3    3    0  502 -0.25961794023E+03 -0.66154857191E+03  0.26713726298E+03  0.75921690259E+03  0.50400001928E-02 0. -1.
</event>
<event>
 5   0  0.2054876E-05  0.1800762E+04  0.7818609E-02  0.8705894E-01
        1   -1    0    0  501    0  0.00000000000E+00  0.00000000000E+00  0.69751505543E+03  0.69751505545E+03  0.50400001928E-02 0.  1.
       -1   -1    0    0    0  501  0.00000000000E+00  0.00000000000E+00 -0.11622483779E+04  0.11622483779E+04  0.50400001928E-02 0. -1.
    10030    2    1    2    0    0  0.00000000000E+00  0.00000000000E+00 -0.46473332250E+03  0.18597634334E+04  0.18007617741E+04 0.  0.
        5    1    3    3  502    0  0.37055175149E+03 -0.32401971305E+03 -0.10109687998E+04  0.11244453651E+04  0.46999998093E+01 0. -1.
       -5    1    3    3    0  502 -0.37055175149E+03  0.32401971305E+03  0.54623547725E+03  0.73531806831E+03  0.46999998093E+01 0.  1.
</event>
<event>
 5   0  0.1960300E-05  0.1800346E+04  0.7818609E-02  0.8706115E-01
       -1   -1    0    0    0  501  0.00000000000E+00  0.00000000000E+00  0.87660380954E+03  0.87660380955E+03  0.50400001928E-02 0. -1.
        1   -1    0    0  501    0  0.00000000000E+00  0.00000000000E+00 -0.92437614788E+03  0.92437614789E+03  0.50400001928E-02 0.  1.
    10030    2    1    2    0    0  0.00000000000E+00  0.00000000000E+00 -0.47772338340E+02  0.18009799574E+04  0.18003462475E+04 0.  0.
        3    1    3    3  502    0  0.53991964864E+03 -0.71591996405E+03 -0.10301534345E+03  0.90258893916E+03  0.10100000352E+00 0. -1.
       -3    1    3    3    0  502 -0.53991964864E+03  0.71591996405E+03  0.55243005115E+02  0.89839101828E+03  0.10100000352E+00 0.  1.
</event>
<event>
 5   0  0.3984648E-05  0.1798091E+04  0.7818609E-02  0.8707315E-01
       -2   -1    0    0    0  501  0.00000000000E+00  0.00000000000E+00  0.59322810721E+03  0.59322810721E+03  0.25500000920E-02 0.  1.
        2   -1    0    0  501    0  0.00000000000E+00  0.00000000000E+00 -0.13625155645E+04  0.13625155645E+04  0.25500000920E-02 0. -1.
    10030    2    1    2    0    0  0.00000000000E+00  0.00000000000E+00 -0.76928745728E+03  0.19557436717E+04  0.17980906867E+04 0.  0.
        1    1    3    3  502    0  0.11892142881E+03  0.88868721068E+03 -0.31269841540E+03  0.94957230566E+03  0.50400001928E-02 0.  1.
       -1    1    3    3    0  502 -0.11892142881E+03 -0.88868721068E+03 -0.45658904188E+03  0.10061713660E+04  0.50400001928E-02 0. -1.
</event>
<event>
 5   0  0.2038338E-05  0.1794968E+04  0.7818609E-02  0.8708980E-01
       -1   -1    0    0    0  501  0.00000000000E+00  0.00000000000E+00  0.44404170137E+03  0.44404170140E+03  0.50400001928E-02 0. -1.
        1   -1    0    0  501    0  0.00000000000E+00  0.00000000000E+00 -0.18139683420E+04  0.18139683420E+04  0.50400001928E-02 0.  1.
    10030    2    1    2    0    0  0.00000000000E+00  0.00000000000E+00 -0.13699266406E+04  0.22580100434E+04  0.17949680653E+04 0.  0.
        1    1    3    3  502    0  0.88869836000E+03  0.32381013403E+02 -0.83719435875E+03  0.12213630498E+04  0.50400001928E-02 0.  1.
       -1    1    3    3    0  502 -0.88869836000E+03 -0.32381013403E+02 -0.53273228184E+03  0.10366469936E+04  0.50400001928E-02 0. -1.
</event>
<event>
 5   0  0.2001811E-05  0.1796327E+04  0.7818609E-02  0.8708255E-01
       -1   -1    0    0    0  501  0.00000000000E+00  0.00000000000E+00  0.55260693672E+03  0.55260693674E+03  0.50400001928E-02 0. -1.
        1   -1    0    0  501    0  0.00000000000E+00  0.00000000000E+00 -0.14598037203E+04  0.14598037203E+04  0.50400001928E-02 0.  1.
    10030    2    1    2    0    0  0.00000000000E+00  0.00000000000E+00 -0.90719678353E+03  0.20124106570E+04  0.17963269882E+04 0.  0.
        2    1    3    3  502    0 -0.24069291504E+03  0.84160497536E+03 -0.22823962135E+03  0.90461336419E+03  0.25500000920E-02 0. -1.
       -2    1    3    3    0  502  0.24069291504E+03 -0.84160497536E+03 -0.67895716218E+03  0.11077972928E+04  0.25500000920E-02 0.  1.
</event>
<event>
 5   0  0.1906857E-05  0.1799177E+04  0.7818609E-02  0.8706737E-01
        1   -1    0    0  501    0  0.00000000000E+00  0.00000000000E+00  0.53197082396E+03  0.53197082399E+03  0.50400001928E-02 0. -1.
       -1   -1    0    0    0  501  0.00000000000E+00  0.00000000000E+00 -0.15212471102E+04  0.15212471102E+04  0.50400001928E-02 0.  1.
    10030    2    1    2    0    0  0.00000000000E+00  0.00000000000E+00 -0.98927628623E+03  0.20532179342E+04  0.17991765658E+04 0.  0.
        4    1    3    3  502    0 -0.63240358216E+03 -0.55018554692E+03 -0.86726885413E+03  0.12061489564E+04  0.12699999809E+01 0.  1.
       -4    1    3    3    0  502  0.63240358216E+03  0.55018554692E+03 -0.12200743211E+03  0.84706897780E+03  0.12699999809E+01 0. -1.
</event>
<event>
 5   0  0.1906857E-05  0.1807673E+04  0.7818609E-02  0.8702230E-01
       -1   -1    0    0    0  501  0.00000000000E+00  0.00000000000E+00  0.11570948318E+04  0.11570948318E+04  0.50400001928E-02 0. -1.
        1   -1    0    0  501    0  0.00000000000E+00  0.00000000000E+00 -0.70600953804E+03  0.70600953806E+03  0.50400001928E-02 0.  1.
    10030    2    1    2    0    0  0.00000000000E+00  0.00000000000E+00  0.45108529377E+03  0.18631043699E+04  0.18076725231E+04 0.  0.
        4    1    3    3  502    0 -0.34047186800E+03 -0.45016180934E+03 -0.50204508575E+03  0.75539236726E+03  0.12699999809E+01 0.  1.
       -4    1    3    3    0  502  0.34047186800E+03  0.45016180934E+03  0.95313037951E+03  0.11077120026E+04  0.12699999809E+01 0. -1.
</event>
<event>
 5   0  0.2038338E-05  0.1803386E+04  0.7818609E-02  0.8704501E-01
        1   -1    0    0  501    0  0.00000000000E+00  0.00000000000E+00  0.13198507559E+04  0.13198507559E+04  0.50400001928E-02 0. -1.
       -1   -1    0    0    0  501  0.00000000000E+00  0.00000000000E+00 -0.61601703220E+03  0.61601703223E+03  0.50400001928E-02 0.  1.
    10030    2    1    2    0    0  0.00000000000E+00  0.00000000000E+00  0.70383372365E+03  0.19358677881E+04  0.18033863098E+04 0.  0.
        1    1    3    3  502    0 -0.53581015493E+03 -0.24195722272E+02 -0.42615664968E+03  0.68504557892E+03  0.50400001928E-02 0.  1.
       -1    1    3    3    0  502  0.53581015493E+03  0.24195722272E+02  0.11299903733E+04  0.12508222092E+04  0.50400001928E-02 0. -1.
</event>
<event>
 5   0  0.1960300E-05  0.1797389E+04  0.7818609E-02  0.8707689E-01
       -1   -1    0    0    0  501  0.00000000000E+00  0.00000000000E+00  0.72994911751E+03  0.72994911753E+03  0.50400001928E-02 0.  1.
        1   -1    0    0  501    0  0.00000000000E+00  0.00000000000E+00 -0.11064498209E+04  0.11064498209E+04  0.50400001928E-02 0. -1.
    10030    2    1    2    0    0  0.00000000000E+00  0.00000000000E+00 -0.37650070339E+03  0.18363989385E+04  0.17973892960E+04 0.  0.
        3    1    3    3  502    0  0.66627861005E+03  0.18574246134E+03 -0.77448438753E+03  0.10383898713E+04  0.10100000352E+00 0. -1.
       -3    1    3    3    0  502 -0.66627861005E+03 -0.18574246134E+03  0.39798368414E+03  0.79800906712E+03  0.10100000352E+00 0.  1.
</event>
<event>
 5   0  0.1906857E-05  0.1796485E+04  0.7818609E-02  0.8708171E-01
       -1   -1    0    0    0  501  0.00000000000E+00  0.00000000000E+00  0.94770336167E+03  0.94770336168E+03  0.50400001928E-02 0.  1.
        1   -1    0    0  501    0  0.00000000000E+00  0.00000000000E+00 -0.85136259805E+03  0.85136259807E+03  0.50400001928E-02 0. -1.
    10030    2    1    2    0    0  0.00000000000E+00  0.00000000000E+00  0.96340763619E+02  0.17990659598E+04  0.17964845629E+04 0.  0.
        4    1    3    3  502    0  0.13298863409E+03  0.48446982191E+03 -0.69750723734E+03  0.85960161946E+03  0.12699999809E+01 0. -1.
       -4    1    3    3    0  502 -0.13298863409E+03 -0.48446982191E+03  0.79384800096E+03  0.93946434029E+03  0.12699999809E+01 0.  1.
</event>
<event>
 5   0  0.3983176E-05  0.1793977E+04  0.7818609E-02  0.8709509E-01
        2   -1    0    0  501    0  0.00000000000E+00  0.00000000000E+00  0.18050817151E+04  0.18050817151E+04  0.25500000920E-02 0. -1.
       -2   -1    0    0    0  501  0.00000000000E+00  0.00000000000E+00 -0.44573509705E+03  0.44573509706E+03  0.25500000920E-02 0.  1.
    10030    2    1    2    0    0  0.00000000000E+00  0.00000000000E+00  0.13593466180E+04  0.22508168121E+04  0.17939768933E+04 0.  0.
        3    1    3    3  502    0 -0.63929872733E+03 -0.42443193934E+03  0.12624358001E+04  0.14773589589E+04  0.10100000352E+00 0. -1.
       -3    1    3    3    0  502  0.63929872733E+03  0.42443193934E+03  0.96910817938E+02  0.77345785324E+03  0.10100000352E+00 0.  1.
</event>
<event>
 5   0  0.2001811E-05  0.1799191E+04  0.7818609E-02  0.8706730E-01
        1   -1    0    0  501    0  0.00000000000E+00  0.00000000000E+00  0.28022310560E+04  0.28022310560E+04  0.50400001928E-02 0. -1.
       -1   -1    0    0    0  501  0.00000000000E+00  0.00000000000E+00 -0.28879552357E+03  0.28879552361E+03  0.50400001928E-02 0.  1.
    10030    2    1    2    0    0  0.00000000000E+00  0.00000000000E+00  0.25134355325E+04  0.30910265796E+04  0.17991906904E+04 0.  0.
        2    1    3    3  502    0 -0.77545929208E+03  0.45236528433E+03  0.11580208394E+04  0.14652589288E+04  0.25500000920E-02 0. -1.
       -2    1    3    3    0  502  0.77545929208E+03 -0.45236528433E+03  0.13554146931E+04  0.16257676508E+04  0.25500000920E-02 0.  1.
</event>
<event>
 5   0  0.1960300E-05  0.1799458E+04  0.7818609E-02  0.8706588E-01
        1   -1    0    0  501    0  0.00000000000E+00  0.00000000000E+00  0.32338709510E+04  0.32338709510E+04  0.50400001928E-02 0.  1.
       -1   -1    0    0    0  501  0.00000000000E+00  0.00000000000E+00 -0.25032293010E+03  0.25032293015E+03  0.50400001928E-02 0. -1.
    10030    2    1    2    0    0  0.00000000000E+00  0.00000000000E+00  0.29835480209E+04  0.34841938812E+04  0.17994577540E+04 0.  0.
        3    1    3    3  502    0  0.79672137024E+02  0.34850660970E+03  0.30904472522E+04  0.31110558876E+04  0.10100000352E+00 0.  1.
       -3    1    3    3    0  502 -0.79672137024E+02 -0.34850660970E+03 -0.10689923132E+03  0.37313799362E+03  0.10100000352E+00 0. -1.
</event>
<event>
 5   0  0.2001811E-05  0.1819024E+04  0.7818609E-02  0.8696248E-01
        1   -1    0    0  501    0  0.00000000000E+00  0.00000000000E+00  0.13576143628E+04  0.13576143628E+04  0.50400001928E-02 0. -1.
       -1   -1    0    0    0  501  0.00000000000E+00  0.00000000000E+00 -0.60931280564E+03  0.60931280567E+03  0.50400001928E-02 0.  1.
    10030    2    1    2    0    0  0.00000000000E+00  0.00000000000E+00  0.74830155717E+03  0.19669271685E+04  0.18190237122E+04 0.  0.
        2    1    3    3  502    0  0.56701657760E+03  0.57991207070E+03  0.81920643208E+03  0.11527814135E+04  0.25500000920E-02 0. -1.
       -2    1    3    3    0  502 -0.56701657760E+03 -0.57991207070E+03 -0.70904874911E+02  0.81414575496E+03  0.25500000920E-02 0.  1.
</event>
<event>
 5   0  0.3984648E-05  0.1799477E+04  0.7818609E-02  0.8706577E-01
       -2   -1    0    0    0  501  0.00000000000E+00  0.00000000000E+00  0.91115475095E+03  0.91115475095E+03  0.25500000920E-02 0. -1.
        2   -1    0    0  501    0  0.00000000000E+00  0.00000000000E+00 -0.88846570693E+03  0.88846570694E+03  0.25500000920E-02 0.  1.
    10030    2    1    2    0    0  0.00000000000E+00  0.00000000000E+00  0.22689044015E+02  0.17996204579E+04  0.17994774241E+04 0.  0.
        1    1    3    3  502    0 -0.62814605396E+03 -0.63192614636E+03 -0.11369193450E+03  0.89823380896E+03  0.50400001928E-02 0.  1.
       -1    1    3    3    0  502  0.62814605396E+03  0.63192614636E+03  0.13638097851E+03  0.90138664894E+03  0.50400001928E-02 0. -1.
</event>
<event>
 5   0  0.2038338E-05  0.1800221E+04  0.7818609E-02  0.8706182E-01
       -1   -1    0    0    0  501  0.00000000000E+00  0.00000000000E+00  0.60505695897E+03  0.60505695899E+03  0.50400001928E-02 0.  1.
        1   -1    0    0  501    0  0.00000000000E+00  0.00000000000E+00 -0.13390450441E+04  0.13390450441E+04  0.50400001928E-02 0. -1.
    10030    2    1    2    0    0  0.00000000000E+00  0.00000000000E+00 -0.73398808510E+03  0.19441020031E+04  0.18002205668E+04 0.  0.
        1    1    3    3  502    0 -0.10845199437E+03  0.20909755174E+03  0.57118297762E+03  0.61784594777E+03  0.50400001928E-02 0.  1.
       -1    1    3    3    0  502  0.10845199437E+03 -0.20909755174E+03 -0.13051710627E+04  0.13262560553E+04  0.50400001928E-02 0. -1.
</event>
<event>
 5   0  0.4015729E-05  0.1829168E+04  0.7818609E-02  0.8690940E-01
       -2   -1    0    0    0  501  0.00000000000E+00  0.00000000000E+00  0.94229037884E+03  0.94229037884E+03  0.25500000920E-02 0.  1.
        2   -1    0    0  501    0  0.00000000000E+00  0.00000000000E+00 -0.88769243121E+03  0.88769243122E+03  0.25500000920E-02 0. -1.
    10030    2    1    2    0    0  0.00000000000E+00  0.00000000000E+00  0.54597947627E+02  0.18299828101E+04  0.18291681577E+04 0.  0.
        2    1    3    3  502    0  0.34695719939E+03 -0.78077944135E+03  0.35373895170E+03  0.92473081500E+03  0.25500000920E-02 0.  1.
       -2    1    3    3    0  502 -0.34695719939E+03  0.78077944135E+03 -0.29914100407E+03  0.90525199507E+03  0.25500000920E-02 0. -1.
</event>
<event>
 5   0  0.2054876E-05  0.1800565E+04  0.7818609E-02  0.8705999E-01
        1   -1    0    0  501    0  0.00000000000E+00  0.00000000000E+00  0.18006942995E+04  0.18006942995E+04  0.50400001928E-02 0.  1.
       -1   -1    0    0    0  501  0.00000000000E+00  0.00000000000E+00 -0.45010892171E+03  0.45010892174E+03  0.50400001928E-02 0. -1.
    10030    2    1    2    0    0  0.00000000000E+00  0.00000000000E+00  0.13505853777E+04  0.22508032212E+04  0.18005649885E+04 0.  0.
        5    1    3    3  502    0 -0.24172895133E+03 -0.48883577804E+03  0.15707128034E+04  0.16626948321E+04  0.46999998093E+01 0.  1.
       -5    1    3    3    0  502  0.24172895133E+03  0.48883577804E+03 -0.22012742568E+03  0.58810838911E+03  0.46999998093E+01 0. -1.
</event>
<event>
 5   0  0.1906857E-05  0.1800423E+04  0.7818609E-02  0.8706075E-01
       -1   -1    0    0    0  501  0.00000000000E+00  0.00000000000E+00  0.11117129966E+04  0.11117129966E+04  0.50400001928E-02 0.  1.
        1   -1    0    0  501    0  0.00000000000E+00  0.00000000000E+00 -0.72894762332E+03  0.72894762334E+03  0.50400001928E-02 0. -1.
    10030    2    1    2    0    0  0.00000000000E+00  0.00000000000E+00  0.38276537325E+03  0.18406606199E+04  0.18004227800E+04 0.  0.
        4    1    3    3  502    0 -0.40669903266E+03 -0.33138266110E+02  0.10117353108E+04  0.10909226370E+04  0.12699999809E+01 0.  1.
       -4    1    3    3    0  502  0.40669903266E+03  0.33138266110E+02 -0.62896993755E+03  0.74973798295E+03  0.12699999809E+01 0. -1.
</event>
<event>
 5   0  0.1960300E-05  0.1798565E+04  0.7818609E-02  0.8707063E-01
        1   -1    0    0  501    0  0.00000000000E+00  0.00000000000E+00  0.98971585870E+03  0.98971585872E+03  0.50400001928E-02 0.  1.
       -1   -1    0    0    0  501  0.00000000000E+00  0.00000000000E+00 -0.81711217887E+03  0.81711217889E+03  0.50400001928E-02 0. -1.
    10030    2    1    2    0    0  0.00000000000E+00  0.00000000000E+00  0.17260367983E+03  0.18068280376E+04  0.17985648521E+04 0.  0.
        3    1    3    3  502    0  0.81029298256E+03 -0.32346946897E+03 -0.13264823450E+03  0.88249803358E+03  0.10100000352E+00 0. -1.
       -3    1    3    3    0  502 -0.81029298256E+03  0.32346946897E+03  0.30525191432E+03  0.92433000403E+03  0.10100000352E+00 0.  1.
</event>
<event>
 5   0  0.3983176E-05  0.1810824E+04  0.7818609E-02  0.8700564E-01
       -2   -1    0    0    0  501  0.00000000000E+00  0.00000000000E+00  0.72469584253E+03  0.72469584254E+03  0.25500000920E-02 0.  1.
        2   -1    0    0  501    0  0.00000000000E+00  0.00000000000E+00 -0.11311933704E+04  0.11311933704E+04  0.25500000920E-02 0. -1.
    10030    2    1    2    0    0  0.00000000000E+00  0.00000000000E+00 -0.40649752788E+03  0.18558892130E+04  0.18108242683E+04 0.  0.
        3    1    3    3  502    0 -0.52277625111E+03 -0.72846094576E+03 -0.74337914405E+02  0.89970911629E+03  0.10100000352E+00 0. -1.
       -3    1    3    3    0  502  0.52277625111E+03  0.72846094576E+03 -0.33215961347E+03  0.95618009666E+03  0.10100000352E+00 0.  1.
</event>
<event>
 5   0  0.3909859E-05  0.1801347E+04  0.7818609E-02  0.8705584E-01
        2   -1    0    0  501    0  0.00000000000E+00  0.00000000000E+00  0.17672346864E+04  0.17672346864E+04  0.25500000920E-02 0. -1.
       -2   -1    0    0    0  501  0.00000000000E+00  0.00000000000E+00 -0.45902938761E+03  0.45902938761E+03  0.25500000920E-02 0.  1.
    10030    2    1    2    0    0  0.00000000000E+00  0.00000000000E+00  0.13082052988E+04  0.22262640741E+04  0.18013468915E+04 0.  0.
        4    1    3    3  502    0  0.87721088688E+03  0.13621134349E+03  0.46602585261E+03  0.10026136735E+04  0.12699999809E+01 0. -1.
       -4    1    3    3    0  502 -0.87721088688E+03 -0.13621134349E+03  0.84217944622E+03  0.12236504005E+04  0.12699999809E+01 0.  1.
</event>
<event>
 5   0  0.2038338E-05  0.1796845E+04  0.7818609E-02  0.8707979E-01
        1   -1    0    0  501    0  0.00000000000E+00  0.00000000000E+00  0.76281307458E+03  0.76281307460E+03  0.50400001928E-02 0.  1.
       -1   -1    0    0    0  501  0.00000000000E+00  0.00000000000E+00 -0.10581399705E+04  0.10581399705E+04  0.50400001928E-02 0. -1.
    10030    2    1    2    0    0  0.00000000000E+00  0.00000000000E+00 -0.29532689594E+03  0.18209530451E+04  0.17968450176E+04 0.  0.
        1    1    3    3  502    0 -0.44299506316E+03 -0.39415994121E+02 -0.93875508651E+03  0.10387778199E+04  0.50400001928E-02 0. -1.
       -1    1    3    3    0  502  0.44299506316E+03  0.39415994121E+02  0.64342819057E+03  0.78217522527E+03  0.50400001928E-02 0.  1.
</event>
<event>
 5   0  0.2054876E-05  0.1800553E+04  0.7818609E-02  0.8706006E-01
        1   -1    0    0  501    0  0.00000000000E+00  0.00000000000E+00  0.11105663024E+04  0.11105663024E+04  0.50400001928E-02 0.  1.
       -1   -1    0    0    0  501  0.00000000000E+00  0.00000000000E+00 -0.72980549708E+03  0.72980549709E+03  0.50400001928E-02 0. -1.
    10030    2    1    2    0    0  0.00000000000E+00  0.00000000000E+00  0.38076080530E+03  0.18403717995E+04  0.18005525734E+04 0.  0.
        5    1    3    3  502    0 -0.55345597631E+03  0.65555527216E+03  0.46919319816E+03  0.97787043097E+03  0.46999998093E+01 0. -1.
       -5    1    3    3    0  502  0.55345597631E+03 -0.65555527216E+03 -0.88432392870E+02  0.86250136851E+03  0.46999998093E+01 0.  1.
</event>
<event>
 5   0  0.3983176E-05  0.1800006E+04  0.7818609E-02  0.8706296E-01
       -2   -1    0    0    0  501  0.00000000000E+00  0.00000000000E+00  0.38797741520E+03  0.38797741520E+03  0.25500000920E-02 0. -1.
        2   -1    0    0  501    0  0.00000000000E+00  0.00000000000E+00 -0.20877644744E+04  0.20877644744E+04  0.25500000920E-02 0.  1.
    10030    2    1    2    0    0  0.00000000000E+00  0.00000000000E+00 -0.16997870592E+04  0.24757418896E+04  0.18000060715E+04 0.  0.
        3    1    3    3  502    0 -0.74997535011E+02 -0.81151447063E+03 -0.32466595530E+03  0.87726185317E+03  0.10100000352E+00 0.  1.
       -3    1    3    3    0  502  0.74997535011E+02  0.81151447063E+03 -0.13751211039E+04  0.15984800365E+04  0.10100000352E+00 0. -1.
</event>
<event>
 5   0  0.1906857E-05  0.1799114E+04  0.7818609E-02  0.8706771E-01
        1   -1    0    0  501    0  0.00000000000E+00  0.00000000000E+00  0.10367436870E+04  0.10367436870E+04  0.50400001928E-02 0.  1.
       -1   -1    0    0    0  501  0.00000000000E+00  0.00000000000E+00 -0.78052383910E+03  0.78052383911E+03  0.50400001928E-02 0. -1.
    10030    2    1    2    0    0  0.00000000000E+00  0.00000000000E+00  0.25621984788E+03  0.18172675261E+04  0.17991144074E+04 0.  0.
        4    1    3    3  502    0  0.39187114561E+03  0.21658021694E+03 -0.65997495640E+03  0.79752024495E+03  0.12699999809E+01 0. -1.
       -4    1    3    3    0  502 -0.39187114561E+03 -0.21658021694E+03  0.91619480428E+03  0.10197472812E+04  0.12699999809E+01 0.  1.
</event>
<event>
 5   0  0.3983176E-05  0.1763238E+04  0.7818609E-02  0.8726097E-01
       -2   -1    0    0    0  501  0.00000000000E+00  0.00000000000E+00  0.55095984651E+03  0.55095984652E+03  0.25500000920E-02 0. -1.
        2   -1    0    0  501    0  0.00000000000E+00  0.00000000000E+00 -0.14107237933E+04  0.14107237933E+04  0.25500000920E-02 0.  1.
    10030    2    1    2    0    0  0.00000000000E+00  0.00000000000E+00 -0.85976394683E+03  0.19616836399E+04  0.17632381174E+04 0.  0.
        3    1    3    3  502    0  0.51518175759E+03 -0.52268624146E+03 -0.97336842021E+03  0.12190402955E+04  0.10100000352E+00 0.  1.
       -3    1    3    3    0  502 -0.51518175759E+03  0.52268624146E+03  0.11360447338E+03  0.74264334437E+03  0.10100000352E+00 0. -1.
</event>
<event>
 5   0  0.2054876E-05  0.1800321E+04  0.7818609E-02  0.8706129E-01
        1   -1    0    0  501    0  0.00000000000E+00  0.00000000000E+00  0.72876800356E+03  0.72876800358E+03  0.50400001928E-02 0. -1.
       -1   -1    0    0    0  501  0.00000000000E+00  0.00000000000E+00 -0.11118617109E+04  0.11118617109E+04  0.50400001928E-02 0.  1.
    10030    2    1    2    0    0  0.00000000000E+00  0.00000000000E+00 -0.38309370730E+03  0.18406297144E+04  0.18003213483E+04 0.  0.
        5    1    3    3  502    0  0.17399937720E+03  0.46696346911E+03  0.57486111660E+03  0.76080093200E+03  0.46999998093E+01 0. -1.
       -5    1    3    3    0  502 -0.17399937720E+03 -0.46696346911E+03 -0.95795482390E+03  0.10798287824E+04  0.46999998093E+01 0.  1.
</event>
<event>
 5   0  0.2001811E-05  0.1798300E+04  0.7818609E-02  0.8707204E-01
       -1   -1    0    0    0  501  0.00000000000E+00  0.00000000000E+00  0.49892069479E+03  0.49892069481E+03  0.50400001928E-02 0. -1.
        1   -1    0    0  501    0  0.00000000000E+00  0.00000000000E+00 -0.16204396161E+04  0.16204396161E+04  0.50400001928E-02 0.  1.
    10030    2    1    2    0    0  0.00000000000E+00  0.00000000000E+00 -0.11215189213E+04  0.21193603109E+04  0.17983001520E+04 0.  0.
        2    1    3    3  502    0 -0.49189671529E+03 -0.47782426996E+03 -0.12461286368E+04  0.14223624682E+04  0.25500000920E-02 0.  1.
       -2    1    3    3    0  502  0.49189671529E+03  0.47782426996E+03  0.12460971555E+03  0.69699784267E+03  0.25500000920E-02 0. -1.
</event>
<event>
 5   0  0.3993393E-05  0.1807627E+04  0.7818609E-02  0.8702254E-01
        2   -1    0    0  501    0  0.00000000000E+00  0.00000000000E+00  0.25772698428E+04  0.25772698428E+04  0.25500000920E-02 0. -1.
       -2   -1    0    0    0  501  0.00000000000E+00  0.00000000000E+00 -0.31695499199E+03  0.31695499200E+03  0.25500000920E-02 0.  1.
    10030    2    1    2    0    0  0.00000000000E+00  0.00000000000E+00  0.22603148508E+04  0.28942248348E+04  0.18076266676E+04 0.  0.
        5    1    3    3  502    0  0.80981319458E+02 -0.33216538573E+03 -0.20940073722E+03  0.40095208731E+03  0.46999998093E+01 0.  1.
       -5    1    3    3    0  502 -0.80981319458E+02  0.33216538573E+03  0.24697155880E+04  0.24932727475E+04  0.46999998093E+01 0. -1.
</event>
<event>
 5   0  0.2038338E-05  0.1787664E+04  0.7818609E-02  0.8712887E-01
        1   -1    0    0  501    0  0.00000000000E+00  0.00000000000E+00  0.92773544358E+03  0.92773544359E+03  0.50400001928E-02 0. -1.
       -1   -1    0    0    0  501  0.00000000000E+00  0.00000000000E+00 -0.86116766073E+03  0.86116766074E+03  0.50400001928E-02 0.  1.
    10030    2    1    2    0    0  0.00000000000E+00  0.00000000000E+00  0.66567782850E+02  0.17889031043E+04  0.17876641315E+04 0.  0.
        1    1    3    3  502    0  0.84936506685E+03  0.25537230858E+03  0.14426489864E+03  0.89858132285E+03  0.50400001928E-02 0.  1.
       -1    1    3    3    0  502 -0.84936506685E+03 -0.25537230858E+03 -0.77697115789E+02  0.89032178149E+03  0.50400001928E-02 0. -1.
</event>
<event>
 5   0  0.2038338E-05  0.1799881E+04  0.7818609E-02  0.8706363E-01
        1   -1    0    0  501    0  0.00000000000E+00  0.00000000000E+00  0.18302868653E+04  0.18302868653E+04  0.50400001928E-02 0. -1.
       -1   -1    0    0    0  501  0.00000000000E+00  0.00000000000E+00 -0.44249510460E+03  0.44249510463E+03  0.50400001928E-02 0.  1.
    10030    2    1    2    0    0  0.00000000000E+00  0.00000000000E+00  0.13877917607E+04  0.22727819700E+04  0.17998810827E+04 0.  0.
        1    1    3    3  502    0 -0.19709878502E+03  0.68040422379E+03  0.13947964069E+04  0.15643704343E+04  0.50400001928E-02 0. -1.
       -1    1    3    3    0  502  0.19709878502E+03 -0.68040422379E+03 -0.70046462095E+01  0.70841153569E+03  0.50400001928E-02 0.  1.
</event>
<event>
 5   0  0.3983176E-05  0.1798993E+04  0.7818609E-02  0.8706835E-01
        2   -1    0    0  501    0  0.00000000000E+00  0.00000000000E+00  0.53097922764E+03  0.53097922765E+03  0.25500000920E-02 0.  1.
       -2   -1    0    0    0  501  0.00000000000E+00  0.00000000000E+00 -0.15237775219E+04  0.15237775219E+04  0.25500000920E-02 0. -1.
    10030    2    1    2    0    0  0.00000000000E+00  0.00000000000E+00 -0.99279829422E+03  0.20547567495E+04  0.17989932870E+04 0.  0.
        3    1    3    3  502    0  0.38778603374E+03 -0.77376374075E+03 -0.77618627523E+03  0.11625633224E+04  0.10100000352E+00 0. -1.
       -3    1    3    3    0  502 -0.38778603374E+03  0.77376374075E+03 -0.21661201898E+03  0.89219342714E+03  0.10100000352E+00 0.  1.
</event>
<event>
 5   0  0.1906857E-05  0.1799544E+04  0.7818609E-02  0.8706542E-01
        1   -1    0    0  501    0  0.00000000000E+00  0.00000000000E+00  0.15608703562E+04  0.15608703562E+04  0.50400001928E-02 0. -1.
       -1   -1    0    0    0  501  0.00000000000E+00  0.00000000000E+00 -0.51867856631E+03  0.51867856633E+03  0.50400001928E-02 0.  1.
    10030    2    1    2    0    0  0.00000000000E+00  0.00000000000E+00  0.10421917898E+04  0.20795489225E+04  0.17995443852E+04 0.  0.
        4    1    3    3  502    0 -0.87061797317E+03 -0.22077826081E+03  0.58300065888E+03  0.10707988031E+04  0.12699999809E+01 0.  1.
       -4    1    3    3    0  502  0.87061797317E+03  0.22077826081E+03  0.45919113097E+03  0.10087501194E+04  0.12699999809E+01 0. -1.
</event>
<event>
 5   0  0.2038338E-05  0.1790664E+04  0.7818609E-02  0.8711280E-01
        1   -1    0    0  501    0  0.00000000000E+00  0.00000000000E+00  0.17488460451E+04  0.17488460451E+04  0.50400001928E-02 0. -1.
       -1   -1    0    0    0  501  0.00000000000E+00  0.00000000000E+00 -0.45837046125E+03  0.45837046128E+03  0.50400001928E-02 0.  1.
    10030    2    1    2    0    0  0.00000000000E+00  0.00000000000E+00  0.12904755839E+04  0.22072165064E+04  0.17906639756E+04 0.  0.
        1    1    3    3  502    0 -0.72639753946E+03  0.51205697035E+03  0.77892865937E+03  0.11817722211E+04  0.50400001928E-02 0. -1.
       -1    1    3    3    0  502  0.72639753946E+03 -0.51205697035E+03  0.51154692450E+03  0.10254442853E+04  0.50400001928E-02 0.  1.
</event>
<event>
 5   0  0.3993393E-05  0.1802208E+04  0.7818609E-02  0.8705126E-01
       -2   -1    0    0    0  501  0.00000000000E+00  0.00000000000E+00  0.14645995034E+04  0.14645995034E+04  0.25500000920E-02 0. -1.
        2   -1    0    0  501    0  0.00000000000E+00  0.00000000000E+00 -0.55440958084E+03  0.55440958085E+03  0.25500000920E-02 0.  1.
    10030    2    1    2    0    0  0.00000000000E+00  0.00000000000E+00  0.91018992256E+03  0.20190090843E+04  0.18022075317E+04 0.  0.
        5    1    3    3  502    0  0.57794899030E+03  0.18634282426E+03  0.12009282906E+04  0.13457338269E+04  0.46999998093E+01 0. -1.
       -5    1    3    3    0  502 -0.57794899030E+03 -0.18634282426E+03 -0.29073836807E+03  0.67327525739E+03  0.46999998093E+01 0.  1.
</event>
<event>
 5   0  0.2054876E-05  0.1749592E+04  0.7818609E-02  0.8733575E-01
        1   -1    0    0  501    0  0.00000000000E+00  0.00000000000E+00  0.91621126009E+03  0.91621126010E+03  0.50400001928E-02 0. -1.
       -1   -1    0    0    0  501  0.00000000000E+00  0.00000000000E+00 -0.83525252216E+03  0.83525252218E+03  0.50400001928E-02 0.  1.
    10030    2    1    2    0    0  0.00000000000E+00  0.00000000000E+00  0.80958737928E+02  0.17514637823E+04  0.17495916848E+04 0.  0.
        5    1    3    3  502    0  0.80877240911E+02 -0.53556607543E+03 -0.64718617095E+03  0.84394560198E+03  0.46999998093E+01 0.  1.
       -5    1    3    3    0  502 -0.80877240911E+02  0.53556607543E+03  0.72814490887E+03  0.90751818029E+03  0.46999998093E+01 0. -1.
</event>
<event>
 5   0  0.3983176E-05  0.1800784E+04  0.7818609E-02  0.8705883E-01
        2   -1    0    0  501    0  0.00000000000E+00  0.00000000000E+00  0.10610057776E+04  0.10610057776E+04  0.25500000920E-02 0. -1.
       -2   -1    0    0    0  501  0.00000000000E+00  0.00000000000E+00 -0.76409195998E+03  0.76409195998E+03  0.25500000920E-02 0.  1.
    10030    2    1    2    0    0  0.00000000000E+00  0.00000000000E+00  0.29691381761E+03  0.18250977376E+04  0.18007842560E+04 0.  0.
        3    1    3    3  502    0 -0.81887660475E+03  0.18804580000E+03 -0.17962008518E+03  0.85917605990E+03  0.10100000352E+00 0.  1.
       -3    1    3    3    0  502  0.81887660475E+03 -0.18804580000E+03  0.47653390279E+03  0.96592167768E+03  0.10100000352E+00 0. -1.
</event>
<event>
 5   0  0.2001811E-05  0.1804503E+04  0.7818609E-02  0.8703909E-01
        1   -1    0    0  501    0  0.00000000000E+00  0.00000000000E+00  0.13536391750E+04  0.13536391750E+04  0.50400001928E-02 0.  1.
       -1   -1    0    0    0  501  0.00000000000E+00  0.00000000000E+00 -0.60138451755E+03  0.60138451757E+03  0.50400001928E-02 0. -1.
    10030    2    1    2    0    0  0.00000000000E+00  0.00000000000E+00  0.75225465741E+03  0.19550236925E+04  0.18045028592E+04 0.  0.
        2    1    3    3  502    0  0.31925306543E+03  0.12676049212E+03 -0.52777174539E+03  0.62970926417E+03  0.25500000920E-02 0. -1.
       -2    1    3    3    0  502 -0.31925306543E+03 -0.12676049212E+03  0.12800264028E+04  0.13253144284E+04  0.25500000920E-02 0.  1.
</event>
<event>
 5   0  0.1906857E-05  0.1800994E+04  0.7818609E-02  0.8705771E-01
       -1   -1    0    0    0  501  0.00000000000E+00  0.00000000000E+00  0.10614960095E+04  0.10614960095E+04  0.50400001928E-02 0.  1.
        1   -1    0    0  501    0  0.00000000000E+00  0.00000000000E+00 -0.76391732200E+03  0.76391732201E+03  0.50400001928E-02 0. -1.
    10030    2    1    2    0    0  0.00000000000E+00  0.00000000000E+00  0.29757868748E+03  0.18254133315E+04  0.18009943797E+04 0.  0.
        4    1    3    3  502    0 -0.53826737933E+03 -0.21985205730E+03 -0.54815795344E+03  0.79909039137E+03  0.12699999809E+01 0. -1.
       -4    1    3    3    0  502  0.53826737933E+03  0.21985205730E+03  0.84573664092E+03  0.10263229401E+04  0.12699999809E+01 0.  1.
</event>
<event>
 5   0  0.2038338E-05  0.1800674E+04  0.7818609E-02  0.8705941E-01
        1   -1    0    0  501    0  0.00000000000E+00  0.00000000000E+00  0.12959115386E+04  0.12959115387E+04  0.50400001928E-02 0. -1.
       -1   -1    0    0    0  501  0.00000000000E+00  0.00000000000E+00 -0.62551091612E+03  0.62551091614E+03  0.50400001928E-02 0.  1.
    10030    2    1    2    0    0  0.00000000000E+00  0.00000000000E+00  0.67040062253E+03  0.19214224548E+04  0.18006741113E+04 0.  0.
        1    1    3    3  502    0 -0.16650246461E+03 -0.33711259603E+03 -0.53772745979E+03  0.65613931003E+03  0.50400001928E-02 0.  1.
       -1    1    3    3    0  502  0.16650246461E+03  0.33711259603E+03  0.12081280823E+04  0.12652831448E+04  0.50400001928E-02 0. -1.
</event>
<event>
 5   0  0.1906857E-05  0.1800198E+04  0.7818609E-02  0.8706194E-01
        1   -1    0    0  501    0  0.00000000000E+00  0.00000000000E+00  0.94566552414E+03  0.94566552415E+03  0.50400001928E-02 0. -1.
       -1   -1    0    0    0  501  0.00000000000E+00  0.00000000000E+00 -0.85672849953E+03  0.85672849955E+03  0.50400001928E-02 0.  1.
    10030    2    1    2    0    0  0.00000000000E+00  0.00000000000E+00  0.88937024603E+02  0.18023940237E+04  0.18001984397E+04 0.  0.
        4    1    3    3  502    0 -0.46198040518E+03  0.43516816445E+03  0.68351004563E+03  0.93272976874E+03  0.12699999809E+01 0. -1.
       -4    1    3    3    0  502  0.46198040518E+03 -0.43516816445E+03 -0.59457302103E+03  0.86966425496E+03  0.12699999809E+01 0.  1.
</event>
<event>
 5   0  0.4015729E-05  0.1802046E+04  0.7818609E-02  0.8705212E-01
        2   -1    0    0  501    0  0.00000000000E+00  0.00000000000E+00  0.16122626779E+04  0.16122626779E+04  0.25500000920E-02 0. -1.
       -2   -1    0    0    0  501  0.00000000000E+00  0.00000000000E+00 -0.50354242297E+03  0.50354242297E+03  0.25500000920E-02 0.  1.
    10030    2    1    2    0    0  0.00000000000E+00  0.00000000000E+00  0.11087202550E+04  0.21158051009E+04  0.18020462317E+04 0.  0.
        2    1    3    3  502    0  0.40207993042E+03  0.11507961644E+03 -0.38267516263E+03  0.56687906000E+03  0.25500000920E-02 0.  1.
       -2    1    3    3    0  502 -0.40207993042E+03 -0.11507961644E+03  0.14913954176E+04  0.15489260409E+04  0.25500000920E-02 0. -1.
</event>
<event>
 5   0  0.3984648E-05  0.1800120E+04  0.7818609E-02  0.8706235E-01
        2   -1    0    0  501    0  0.00000000000E+00  0.00000000000E+00  0.70342001696E+03  0.70342001697E+03  0.25500000920E-02 0. -1.
       -2   -1    0    0    0  501  0.00000000000E+00  0.00000000000E+00 -0.11516708546E+04  0.11516708546E+04  0.25500000920E-02 0.  1.
    10030    2    1    2    0    0  0.00000000000E+00  0.00000000000E+00 -0.44825083765E+03  0.18550908716E+04  0.18001203650E+04 0.  0.
        1    1    3    3  502    0  0.46435492438E+03 -0.63172149941E+03 -0.67967736484E+03  0.10376217369E+04  0.50400001928E-02 0.  1.
       -1    1    3    3    0  502 -0.46435492438E+03  0.63172149941E+03  0.23142652719E+03  0.81746913467E+03  0.50400001928E-02 0. -1.
</event>
<event>
 5   0  0.3983176E-05  0.1802320E+04  0.7818609E-02  0.8705067E-01
        2   -1    0    0  501    0  0.00000000000E+00  0.00000000000E+00  0.19415252769E+04  0.19415252769E+04  0.25500000920E-02 0.  1.
       -2   -1    0    0    0  501  0.00000000000E+00  0.00000000000E+00 -0.41827372422E+03  0.41827372423E+03  0.25500000920E-02 0. -1.
    10030    2    1    2    0    0  0.00000000000E+00  0.00000000000E+00  0.15232515527E+04  0.23597990011E+04  0.18023196257E+04 0.  0.
        3    1    3    3  502    0  0.62502345128E+03  0.22138960090E+03 -0.37399417902E+02  0.66412829837E+03  0.10100000352E+00 0. -1.
       -3    1    3    3    0  502 -0.62502345128E+03 -0.22138960090E+03  0.15606509706E+04  0.16956707028E+04  0.10100000352E+00 0.  1.
</event>
<event>
 5   0  0.3984648E-05  0.1806669E+04  0.7818609E-02  0.8702761E-01
        2   -1    0    0  501    0  0.00000000000E+00  0.00000000000E+00  0.23345419368E+04  0.23345419368E+04  0.25500000920E-02 0. -1.
       -2   -1    0    0    0  501  0.00000000000E+00  0.00000000000E+00 -0.34953877350E+03  0.34953877351E+03  0.25500000920E-02 0.  1.
    10030    2    1    2    0    0  0.00000000000E+00  0.00000000000E+00  0.19850031633E+04  0.26840807103E+04  0.18066686750E+04 0.  0.
        1    1    3    3  502    0  0.45023659324E+03 -0.67578091616E+03  0.40455104764E+03  0.90722344916E+03  0.50400001928E-02 0.  1.
       -1    1    3    3    0  502 -0.45023659324E+03  0.67578091616E+03  0.15804521157E+04  0.17768572611E+04  0.50400001928E-02 0. -1.
</event>
<event>
 5   0  0.3909859E-05  0.1796054E+04  0.7818609E-02  0.8708401E-01
        2   -1    0    0  501    0  0.00000000000E+00  0.00000000000E+00  0.82715230356E+03  0.82715230357E+03  0.25500000920E-02 0. -1.
       -2   -1    0    0    0  501  0.00000000000E+00  0.00000000000E+00 -0.97497477962E+03  0.97497477963E+03  0.25500000920E-02 0.  1.
    10030    2    1    2    0    0  0.00000000000E+00  0.00000000000E+00 -0.14782247606E+03  0.18021270832E+04  0.17960541583E+04 0.  0.
        4    1    3    3  502    0 -0.51403788539E+03 -0.17724878635E+03 -0.79102982614E+03  0.95988638839E+03  0.12699999809E+01 0.  1.
       -4    1    3    3    0  502  0.51403788539E+03  0.17724878635E+03  0.64320735008E+03  0.84224069480E+03  0.12699999809E+01 0. -1.
</event>
<event>
 5   0  0.1960300E-05  0.1797084E+04  0.7818609E-02  0.8707852E-01
       -1   -1    0    0    0  501  0.00000000000E+00  0.00000000000E+00  0.10146540929E+04  0.10146540929E+04  0.50400001928E-02 0. -1.
        1   -1    0    0  501    0  0.00000000000E+00  0.00000000000E+00 -0.79571718046E+03  0.79571718048E+03  0.50400001928E-02 0.  1.
    10030    2    1    2    0    0  0.00000000000E+00  0.00000000000E+00  0.21893691245E+03  0.18103712734E+04  0.17970839646E+04 0.  0.
        3    1    3    3  502    0  0.86165057069E+03 -0.24804146057E+03  0.16830760010E+03  0.91230133760E+03  0.10100000352E+00 0. -1.
       -3    1    3    3    0  502 -0.86165057069E+03  0.24804146057E+03  0.50629312352E+02  0.89806993581E+03  0.10100000352E+00 0.  1.
</event>
<event>
 5   0  0.2038338E-05  0.1794923E+04  0.7818609E-02  0.8709004E-01
        1   -1    0    0  501    0  0.00000000000E+00  0.00000000000E+00  0.94510807633E+03  0.94510807634E+03  0.50400001928E-02 0. -1.
       -1   -1    0    0    0  501  0.00000000000E+00  0.00000000000E+00 -0.85221678552E+03  0.85221678554E+03  0.50400001928E-02 0.  1.
    10030    2    1    2    0    0  0.00000000000E+00  0.00000000000E+00  0.92891290806E+02  0.17973248619E+04  0.17949228026E+04 0.  0.
        1    1    3    3  502    0 -0.61361811640E+03  0.35110076374E+03 -0.50713959335E+03  0.87005143885E+03  0.50400001928E-02 0.  1.
       -1    1    3    3    0  502  0.61361811640E+03 -0.35110076374E+03  0.60003088416E+03  0.92727342303E+03  0.50400001928E-02 0. -1.
</event>
<event>
 5   0  0.2054876E-05  0.1798997E+04  0.7818609E-02  0.8706833E-01
        1   -1    0    0  501    0  0.00000000000E+00  0.00000000000E+00  0.18369158610E+04  0.18369158610E+04  0.50400001928E-02 0.  1.
       -1   -1    0    0    0  501  0.00000000000E+00  0.00000000000E+00 -0.44046518041E+03  0.44046518044E+03  0.50400001928E-02 0. -1.
    10030    2    1    2    0    0  0.00000000000E+00  0.00000000000E+00  0.13964506805E+04  0.22773810414E+04  0.17989969162E+04 0.  0.
        5    1    3    3  502    0  0.50975410875E+03 -0.74102465300E+03  0.71141753248E+03  0.11467797449E+04  0.46999998093E+01 0.  1.
       -5    1    3    3    0  502 -0.50975410875E+03  0.74102465300E+03  0.68503314807E+03  0.11306012965E+04  0.46999998093E+01 0. -1.
</event>
<event>
 5   0  0.2038338E-05  0.1799126E+04  0.7818609E-02  0.8706764E-01
        1   -1    0    0  501    0  0.00000000000E+00  0.00000000000E+00  0.10925137587E+04  0.10925137587E+04  0.50400001928E-02 0.  1.
       -1   -1    0    0    0  501  0.00000000000E+00  0.00000000000E+00 -0.74068980094E+03  0.74068980095E+03  0.50400001928E-02 0. -1.
    10030    2    1    2    0    0  0.00000000000E+00  0.00000000000E+00  0.35182395775E+03  0.18332035597E+04  0.17991262307E+04 0.  0.
        1    1    3    3  502    0 -0.88494739687E+02 -0.62551815356E+03 -0.47661576466E+03  0.79137024617E+03  0.50400001928E-02 0. -1.
       -1    1    3    3    0  502  0.88494739687E+02  0.62551815356E+03  0.82843972241E+03  0.10418333135E+04  0.50400001928E-02 0.  1.
</event>
<event>
 5   0  0.1906857E-05  0.1798652E+04  0.7818609E-02  0.8707016E-01
       -1   -1    0    0    0  501  0.00000000000E+00  0.00000000000E+00  0.44700766253E+03  0.44700766256E+03  0.50400001928E-02 0. -1.
        1   -1    0    0  501    0  0.00000000000E+00  0.00000000000E+00 -0.18093370296E+04  0.18093370296E+04  0.50400001928E-02 0.  1.
    10030    2    1    2    0    0  0.00000000000E+00  0.00000000000E+00 -0.13623293670E+04  0.22563446921E+04  0.17986522914E+04 0.  0.
        4    1    3    3  502    0 -0.29992781174E+03 -0.72190591249E+03 -0.12389162082E+04  0.14649299719E+04  0.12699999809E+01 0.  1.
       -4    1    3    3    0  502  0.29992781174E+03  0.72190591249E+03 -0.12341315887E+03  0.79141472025E+03  0.12699999809E+01 0. -1.
</event>
<event>
 5   0  0.1960300E-05  0.1800230E+04  0.7818609E-02  0.8706177E-01
       -1   -1    0    0    0  501  0.00000000000E+00  0.00000000000E+00  0.11003462287E+04  0.11003462287E+04  0.50400001928E-02 0. -1.
        1   -1    0    0  501    0  0.00000000000E+00  0.00000000000E+00 -0.73632002982E+03  0.73632002984E+03  0.50400001928E-02 0.  1.
    10030    2    1    2    0    0  0.00000000000E+00  0.00000000000E+00  0.36402619888E+03  0.18366662585E+04  0.18002299497E+04 0.  0.
        3    1    3    3  502    0  0.28681569960E+03 -0.85300949048E+03  0.16380470913E+03  0.91472423676E+03  0.10100000352E+00 0.  1.
       -3    1    3    3    0  502 -0.28681569960E+03  0.85300949048E+03  0.20022148974E+03  0.92194202179E+03  0.10100000352E+00 0. -1.
</event>
<event>
 5   0  0.3909859E-05  0.1797120E+04  0.7818609E-02  0.8707833E-01
        2   -1    0    0  501    0  0.00000000000E+00  0.00000000000E+00  0.15921321801E+04  0.15921321801E+04  0.25500000920E-02 0. -1.
       -2   -1    0    0    0  501  0.00000000000E+00  0.00000000000E+00 -0.50712475646E+03  0.50712475647E+03  0.25500000920E-02 0.  1.
    10030    2    1    2    0    0  0.00000000000E+00  0.00000000000E+00  0.10850074237E+04  0.20992569366E+04  0.17971195220E+04 0.  0.
        4    1    3    3  502    0  0.38261271769E+03 -0.31726236079E+03  0.14169280765E+04  0.15015773987E+04  0.12699999809E+01 0. -1.
       -4    1    3    3    0  502 -0.38261271769E+03  0.31726236079E+03 -0.33192065287E+03  0.59767953789E+03  0.12699999809E+01 0.  1.
</event>
<event>
 5   0  0.2001811E-05  0.1798273E+04  0.7818609E-02  0.8707218E-01
        1   -1    0    0  501    0  0.00000000000E+00  0.00000000000E+00  0.97424411084E+03  0.97424411086E+03  0.50400001928E-02 0.  1.
       -1   -1    0    0    0  501  0.00000000000E+00  0.00000000000E+00 -0.82981907029E+03  0.82981907030E+03  0.50400001928E-02 0. -1.
    10030    2    1    2    0    0  0.00000000000E+00  0.00000000000E+00  0.14442504056E+03  0.18040631812E+04  0.17982728851E+04 0.  0.
        2    1    3    3  502    0 -0.20761234932E+03 -0.48351257177E+03  0.80364106412E+03  0.96058641184E+03  0.25500000920E-02 0.  1.
       -2    1    3    3    0  502  0.20761234932E+03  0.48351257177E+03 -0.65921602357E+03  0.84347676932E+03  0.25500000920E-02 0. -1.
</event>
<event>
 5   0  0.1960300E-05  0.1800977E+04  0.7818609E-02  0.8705780E-01
       -1   -1    0    0    0  501  0.00000000000E+00  0.00000000000E+00  0.54647871802E+03  0.54647871804E+03  0.50400001928E-02 0. -1.
        1   -1    0    0  501    0  0.00000000000E+00  0.00000000000E+00 -0.14838270663E+04  0.14838270663E+04  0.50400001928E-02 0.  1.
    10030    2    1    2    0    0  0.00000000000E+00  0.00000000000E+00 -0.93734834832E+03  0.20303057844E+04  0.18009774157E+04 0.  0.
        3    1    3    3  502    0 -0.37810643374E+03 -0.53096720299E+02 -0.13880549263E+04  0.14396111369E+04  0.10100000352E+00 0.  1.
       -3    1    3    3    0  502  0.37810643374E+03  0.53096720299E+02  0.45070657796E+03  0.59069464748E+03  0.10100000352E+00 0. -1.
</event>
<event>
 5   0  0.3993393E-05  0.1799987E+04  0.7818609E-02  0.8706306E-01
        2   -1    0    0  501    0  0.00000000000E+00  0.00000000000E+00  0.11630242177E+04  0.11630242177E+04  0.25500000920E-02 0.  1.
       -2   -1    0    0    0  501  0.00000000000E+00  0.00000000000E+00 -0.69645034201E+03  0.69645034201E+03  0.25500000920E-02 0. -1.
    10030    2    1    2    0    0  0.00000000000E+00  0.00000000000E+00  0.46657387566E+03  0.18594745597E+04  0.17999873490E+04 0.  0.
        5    1    3    3  502    0  0.50706060904E+03  0.50841617279E+03 -0.32720177015E+03  0.78910110529E+03  0.46999998093E+01 0. -1.
       -5    1    3    3    0  502 -0.50706060904E+03 -0.50841617279E+03  0.79377564580E+03  0.10703734544E+04  0.46999998093E+01 0.  1.
</event>
<event>
 5   0  0.2001811E-05  0.1793305E+04  0.7818609E-02  0.8709868E-01
        1   -1    0    0  501    0  0.00000000000E+00  0.00000000000E+00  0.13335872594E+04  0.13335872594E+04  0.50400001928E-02 0. -1.
       -1   -1    0    0    0  501  0.00000000000E+00  0.00000000000E+00 -0.60287456972E+03  0.60287456974E+03  0.50400001928E-02 0.  1.
    10030    2    1    2    0    0  0.00000000000E+00  0.00000000000E+00  0.73071268969E+03  0.19364618292E+04  0.17933051555E+04 0.  0.
        2    1    3    3  502    0  0.44641731793E+03  0.11412731397E+03 -0.46525028208E+03  0.65480630000E+03  0.25500000920E-02 0.  1.
       -2    1    3    3    0  502 -0.44641731793E+03 -0.11412731397E+03  0.11959629718E+04  0.12816555292E+04  0.25500000920E-02 0. -1.
</event>
<event>
 5   0  0.2054876E-05  0.1793855E+04  0.7818609E-02  0.8709574E-01
        1   -1    0    0  501    0  0.00000000000E+00  0.00000000000E+00  0.85971126333E+03  0.85971126335E+03  0.50400001928E-02 0. -1.
       -1   -1    0    0    0  501  0.00000000000E+00  0.00000000000E+00 -0.93575519975E+03  0.93575519976E+03  0.50400001928E-02 0.  1.
    10030    2    1    2    0    0  0.00000000000E+00  0.00000000000E+00 -0.76043936416E+02  0.17954664631E+04  0.17938553843E+04 0.  0.
        5    1    3    3  502    0 -0.15964193948E+03 -0.67336762294E+03 -0.60910226739E+03  0.92192036891E+03  0.46999998093E+01 0.  1.
       -5    1    3    3    0  502  0.15964193948E+03  0.67336762294E+03  0.53305833098E+03  0.87354609420E+03  0.46999998093E+01 0. -1.
</event>
<event>
 5   0  0.2054876E-05  0.1801552E+04  0.7818609E-02  0.8705475E-01
       -1   -1    0    0    0  501  0.00000000000E+00  0.00000000000E+00  0.87281251179E+03  0.87281251181E+03  0.50400001928E-02 0. -1.
        1   -1    0    0  501    0  0.00000000000E+00  0.00000000000E+00 -0.92963526776E+03  0.92963526777E+03  0.50400001928E-02 0.  1.
    10030    2    1    2    0    0  0.00000000000E+00  0.00000000000E+00 -0.56822755967E+02  0.18024477796E+04  0.18015518789E+04 0.  0.
        5    1    3    3  502    0  0.49267752567E+03  0.74921292423E+03  0.57211861940E+02  0.89852458914E+03  0.46999998093E+01 0.  1.
       -5    1    3    3    0  502 -0.49267752567E+03 -0.74921292423E+03 -0.11403461791E+03  0.90392319044E+03  0.46999998093E+01 0. -1.
</event>
<event>
 5   0  0.4015729E-05  0.1808704E+04  0.7818609E-02  0.8701684E-01
       -2   -1    0    0    0  501  0.00000000000E+00  0.00000000000E+00  0.11372288849E+04  0.11372288849E+04  0.25500000920E-02 0. -1.
        2   -1    0    0  501    0  0.00000000000E+00  0.00000000000E+00 -0.71916281997E+03  0.71916281997E+03  0.25500000920E-02 0.  1.
    10030    2    1    2    0    0  0.00000000000E+00  0.00000000000E+00  0.41806606495E+03  0.18563917049E+04  0.18087042122E+04 0.  0.
        2    1    3    3  502    0 -0.17831963244E+03  0.33188855002E+03  0.10528433754E+04  0.11182249657E+04  0.25500000920E-02 0. -1.
       -2    1    3    3    0  502  0.17831963244E+03 -0.33188855002E+03 -0.63477731042E+03  0.73816673915E+03  0.25500000920E-02 0.  1.
</event>
<event>
 5   0  0.4015729E-05  0.1802774E+04  0.7818609E-02  0.8704825E-01
       -2   -1    0    0    0  501  0.00000000000E+00  0.00000000000E+00  0.71881716073E+03  0.71881716073E+03  0.25500000920E-02 0.  1.
        2   -1    0    0  501    0  0.00000000000E+00  0.00000000000E+00 -0.11303275855E+04  0.11303275855E+04  0.25500000920E-02 0. -1.
    10030    2    1    2    0    0  0.00000000000E+00  0.00000000000E+00 -0.41151042480E+03  0.18491447463E+04  0.18027743794E+04 0.  0.
        2    1    3    3  502    0 -0.31159910404E+03 -0.78620840303E+03  0.11416672039E+03  0.85337664293E+03  0.25500000920E-02 0.  1.
       -2    1    3    3    0  502  0.31159910404E+03  0.78620840303E+03 -0.52567714520E+03  0.99576810334E+03  0.25500000920E-02 0. -1.
</event>
<event>
 5   0  0.3993393E-05  0.1799664E+04  0.7818609E-02  0.8706478E-01
       -2   -1    0    0    0  501  0.00000000000E+00  0.00000000000E+00  0.11987117478E+04  0.11987117478E+04  0.25500000920E-02 0. -1.
        2   -1    0    0  501    0  0.00000000000E+00  0.00000000000E+00 -0.67547314784E+03  0.67547314785E+03  0.25500000920E-02 0.  1.
    10030    2    1    2    0    0  0.00000000000E+00  0.00000000000E+00  0.52323859994E+03  0.18741848956E+04  0.17996639660E+04 0.  0.
        5    1    3    3  502    0  0.69760408875E+03  0.16257930098E+03  0.82877295982E+03  0.10954315144E+04  0.46999998093E+01 0. -1.
       -5    1    3    3    0  502 -0.69760408875E+03 -0.16257930098E+03 -0.30553435989E+03  0.77875338126E+03  0.46999998093E+01 0.  1.
</event>
<event>
 5   0  0.3909859E-05  0.1803212E+04  0.7818609E-02  0.8704593E-01
       -2   -1    0    0    0  501  0.00000000000E+00  0.00000000000E+00  0.66713268025E+03  0.66713268025E+03  0.25500000920E-02 0. -1.
        2   -1    0    0  501    0  0.00000000000E+00  0.00000000000E+00 -0.12184881225E+04  0.12184881225E+04  0.25500000920E-02 0.  1.
    10030    2    1    2    0    0  0.00000000000E+00  0.00000000000E+00 -0.55135544229E+03  0.18856208028E+04  0.18032118534E+04 0.  0.
        4    1    3    3  502    0 -0.27417933719E+03  0.11983647600E+03  0.61369502068E+03  0.68275784963E+03  0.12699999809E+01 0. -1.
       -4    1    3    3    0  502  0.27417933719E+03 -0.11983647600E+03 -0.11650504630E+04  0.12028629532E+04  0.12699999809E+01 0.  1.
</event>
<event>
 5   0  0.2038338E-05  0.1799353E+04  0.7818609E-02  0.8706644E-01
       -1   -1    0    0    0  501  0.00000000000E+00  0.00000000000E+00  0.53338823170E+03  0.53338823172E+03  0.50400001928E-02 0.  1.
        1   -1    0    0  501    0  0.00000000000E+00  0.00000000000E+00 -0.15175016018E+04  0.15175016018E+04  0.50400001928E-02 0. -1.
    10030    2    1    2    0    0  0.00000000000E+00  0.00000000000E+00 -0.98411337008E+03  0.20508898335E+04  0.17993526569E+04 0.  0.
        1    1    3    3  502    0  0.64144452885E+03 -0.21411392271E+03  0.18429472692E+03  0.70089970886E+03  0.50400001928E-02 0.  1.
       -1    1    3    3    0  502 -0.64144452885E+03  0.21411392271E+03 -0.11684080970E+04  0.13499901246E+04  0.50400001928E-02 0. -1.
</event>
<event>
 5   0  0.3909859E-05  0.1793044E+04  0.7818609E-02  0.8710007E-01
       -2   -1    0    0    0  501  0.00000000000E+00  0.00000000000E+00  0.47405629883E+03  0.47405629883E+03  0.25500000920E-02 0. -1.
        2   -1    0    0  501    0  0.00000000000E+00  0.00000000000E+00 -0.16954780194E+04  0.16954780194E+04  0.25500000920E-02 0.  1.
    10030    2    1    2    0    0  0.00000000000E+00  0.00000000000E+00 -0.12214217205E+04  0.21695343182E+04  0.17930443771E+04 0.  0.
        4    1    3    3  502    0 -0.68284798958E+03  0.15237089188E+03 -0.12889996182E+04  0.14666355696E+04  0.12699999809E+01 0.  1.
       -4    1    3    3    0  502  0.68284798958E+03 -0.15237089188E+03  0.67577897643E+02  0.70289874855E+03  0.12699999809E+01 0. -1.
</event>
<event>
 5   0  0.1906857E-05  0.1806136E+04  0.7818609E-02  0.8703043E-01
       -1   -1    0    0    0  501  0.00000000000E+00  0.00000000000E+00  0.12344757155E+04  0.12344757155E+04  0.50400001928E-02 0.  1.
        1   -1    0    0  501    0  0.00000000000E+00  0.00000000000E+00 -0.66063031486E+03  0.66063031488E+03  0.50400001928E-02 0. -1.
    10030    2    1    2    0    0  0.00000000000E+00  0.00000000000E+00  0.57384540060E+03  0.18951060303E+04  0.18061362968E+04 0.  0.
        4    1    3    3  502    0  0.30837288124E+03 -0.43436389663E+03 -0.47822049526E+03  0.71586471038E+03  0.12699999809E+01 0. -1.
       -4    1    3    3    0  502 -0.30837288124E+03  0.43436389663E+03  0.10520658959E+04  0.11792413200E+04  0.12699999809E+01 0.  1.
</event>
<event>
 5   0  0.3984648E-05  0.1806002E+04  0.7818609E-02  0.8703114E-01
       -2   -1    0    0    0  501  0.00000000000E+00  0.00000000000E+00  0.70080278144E+03  0.70080278145E+03  0.25500000920E-02 0.  1.
        2   -1    0    0  501    0  0.00000000000E+00  0.00000000000E+00 -0.11635379272E+04  0.11635379272E+04  0.25500000920E-02 0. -1.
    10030    2    1    2    0    0  0.00000000000E+00  0.00000000000E+00 -0.46273514580E+03  0.18643407087E+04  0.18060017893E+04 0.  0.
        1    1    3    3  502    0 -0.56738067793E+03  0.70215026109E+03 -0.20887396083E+03  0.92658737007E+03  0.50400001928E-02 0.  1.
       -1    1    3    3    0  502  0.56738067793E+03 -0.70215026109E+03 -0.25386118497E+03  0.93775333862E+03  0.50400001928E-02 0. -1.
</event>
<event>
 5   0  0.1960300E-05  0.1816109E+04  0.7818609E-02  0.8697779E-01
       -1   -1    0    0    0  501  0.00000000000E+00  0.00000000000E+00  0.59638574395E+03  0.59638574397E+03  0.50400001928E-02 0. -1.
        1   -1    0    0  501    0  0.00000000000E+00  0.00000000000E+00 -0.13826004223E+04  0.13826004224E+04  0.50400001928E-02 0.  1.
    10030    2    1    2    0    0  0.00000000000E+00  0.00000000000E+00 -0.78621467840E+03  0.19789861663E+04  0.18161092274E+04 0.  0.
        3    1    3    3  502    0  0.17803315592E+03 -0.67465597938E+03 -0.10263506583E+04  0.12410689663E+04  0.10100000352E+00 0.  1.
       -3    1    3    3    0  502 -0.17803315592E+03  0.67465597938E+03  0.24013597986E+03  0.73791720006E+03  0.10100000352E+00 0. -1.
</event>
<event>
 5   0  0.3983176E-05  0.1797920E+04  0.7818609E-02  0.8707406E-01
       -2   -1    0    0    0  501  0.00000000000E+00  0.00000000000E+00  0.87405271947E+03  0.87405271947E+03  0.25500000920E-02 0.  1.
        2   -1    0    0  501    0  0.00000000000E+00  0.00000000000E+00 -0.92457692605E+03  0.92457692605E+03  0.25500000920E-02 0. -1.
    10030    2    1    2    0    0  0.00000000000E+00  0.00000000000E+00 -0.50524206582E+02  0.17986296455E+04  0.17979198832E+04 0.  0.
        3    1    3    3  502    0  0.41516025055E+03 -0.22501341722E+03  0.73998424641E+03  0.87781875504E+03  0.10100000352E+00 0.  1.
       -3    1    3    3    0  502 -0.41516025055E+03  0.22501341722E+03 -0.79050845299E+03  0.92081089048E+03  0.10100000352E+00 0. -1.
</event>
<event>
 5   0  0.2054876E-05  0.1800708E+04  0.7818609E-02  0.8705923E-01
        1   -1    0    0  501    0  0.00000000000E+00  0.00000000000E+00  0.23791334558E+04  0.23791334558E+04  0.50400001928E-02 0. -1.
       -1   -1    0    0    0  501  0.00000000000E+00  0.00000000000E+00 -0.34072807881E+03  0.34072807885E+03  0.50400001928E-02 0.  1.
    10030    2    1    2    0    0  0.00000000000E+00  0.00000000000E+00  0.20384053770E+04  0.27198615346E+04  0.18007082736E+04 0.  0.
        5    1    3    3  502    0  0.62933505848E+03 -0.61715126265E+02  0.19872333353E+04  0.20854231684E+04  0.46999998093E+01 0. -1.
       -5    1    3    3    0  502 -0.62933505848E+03  0.61715126265E+02  0.51172041686E+02  0.63443836619E+03  0.46999998093E+01 0.  1.
</event>
<event>
 5   0  0.3984648E-05  0.1802866E+04  0.7818609E-02  0.8704777E-01
        2   -1    0    0  501    0  0.00000000000E+00  0.00000000000E+00  0.16739377127E+04  0.16739377127E+04  0.25500000920E-02 0. -1.
       -2   -1    0    0    0  501  0.00000000000E+00  0.00000000000E+00 -0.48543112603E+03  0.48543112603E+03  0.25500000920E-02 0.  1.
    10030    2    1    2    0    0  0.00000000000E+00  0.00000000000E+00  0.11885065867E+04  0.21593688387E+04  0.18028660170E+04 0.  0.
        1    1    3    3  502    0  0.40440791115E+03  0.84229571965E+02 -0.36539250190E+03  0.55149982762E+03  0.50400001928E-02 0.  1.
       -1    1    3    3    0  502 -0.40440791115E+03 -0.84229571965E+02  0.15538990886E+04  0.16078690111E+04  0.50400001928E-02 0. -1.
</event>
<event>
 5   0  0.3983176E-05  0.1795664E+04  0.7818609E-02  0.8708609E-01
       -2   -1    0    0    0  501  0.00000000000E+00  0.00000000000E+00  0.47611343199E+03  0.47611343199E+03  0.25500000920E-02 0.  1.
        2   -1    0    0  501    0  0.00000000000E+00  0.00000000000E+00 -0.16930891571E+04  0.16930891571E+04  0.25500000920E-02 0. -1.
    10030    2    1    2    0    0  0.00000000000E+00  0.00000000000E+00 -0.12169757251E+04  0.21692025891E+04  0.17956642105E+04 0.  0.
        3    1    3    3  502    0  0.29182229432E+03 -0.84526077390E+03 -0.51127056325E+03  0.10300600111E+04  0.10100000352E+00 0.  1.
       -3    1    3    3    0  502 -0.29182229432E+03  0.84526077390E+03 -0.70570516183E+03  0.11391425780E+04  0.10100000352E+00 0. -1.
</event>
<event>
 5   0  0.2054876E-05  0.1791778E+04  0.7818609E-02  0.8710684E-01
       -1   -1    0    0    0  501  0.00000000000E+00  0.00000000000E+00  0.69528483904E+03  0.69528483906E+03  0.50400001928E-02 0.  1.
        1   -1    0    0  501    0  0.00000000000E+00  0.00000000000E+00 -0.11543717141E+04  0.11543717141E+04  0.50400001928E-02 0. -1.
    10030    2    1    2    0    0  0.00000000000E+00  0.00000000000E+00 -0.45908687508E+03  0.18496565532E+04  0.17917780571E+04 0.  0.
        5    1    3    3  502    0  0.67373342378E+03 -0.51903418786E+03  0.61122246015E+02  0.85268472101E+03  0.46999998093E+01 0.  1.
       -5    1    3    3    0  502 -0.67373342378E+03  0.51903418786E+03 -0.52020912109E+03  0.99697183218E+03  0.46999998093E+01 0. -1.
</event>
<event>
 5   0  0.1906857E-05  0.1801956E+04  0.7818609E-02  0.8705260E-01
        1   -1    0    0  501    0  0.00000000000E+00  0.00000000000E+00  0.10834508311E+04  0.10834508311E+04  0.50400001928E-02 0. -1.
       -1   -1    0    0    0  501  0.00000000000E+00  0.00000000000E+00 -0.74923675182E+03  0.74923675183E+03  0.50400001928E-02 0.  1.
    10030    2    1    2    0    0  0.00000000000E+00  0.00000000000E+00  0.33421407926E+03  0.18326875829E+04  0.18019558057E+04 0.  0.
        4    1    3    3  502    0  0.36434029115E+03 -0.71406733400E+03  0.58536706759E+03  0.99261887044E+03  0.12699999809E+01 0. -1.
       -4    1    3    3    0  502 -0.36434029115E+03  0.71406733400E+03 -0.25115298832E+03  0.84006871248E+03  0.12699999809E+01 0.  1.
</event>
<event>
 5   0  0.2001811E-05  0.1801521E+04  0.7818609E-02  0.8705491E-01
       -1   -1    0    0    0  501  0.00000000000E+00  0.00000000000E+00  0.46311235361E+03  0.46311235364E+03  0.50400001928E-02 0. -1.
        1   -1    0    0  501    0  0.00000000000E+00  0.00000000000E+00 -0.17519928135E+04  0.17519928135E+04  0.50400001928E-02 0.  1.
    10030    2    1    2    0    0  0.00000000000E+00  0.00000000000E+00 -0.12888804599E+04  0.22151051671E+04  0.18015210411E+04 0.  0.
        2    1    3    3  502    0  0.35150552928E+02 -0.13241011910E+03  0.45022786446E+03  0.47060931881E+03  0.25500000920E-02 0. -1.
       -2    1    3    3    0  502 -0.35150552928E+02  0.13241011910E+03 -0.17391083243E+04  0.17444958483E+04  0.25500000920E-02 0.  1.
</event>
<event>
 5   0  0.3909859E-05  0.1800749E+04  0.7818609E-02  0.8705901E-01
        2   -1    0    0  501    0  0.00000000000E+00  0.00000000000E+00  0.16518934618E+04  0.16518934618E+04  0.25500000920E-02 0.  1.
       -2   -1    0    0    0  501  0.00000000000E+00  0.00000000000E+00 -0.49075469563E+03  0.49075469564E+03  0.25500000920E-02 0. -1.
    10030    2    1    2    0    0  0.00000000000E+00  0.00000000000E+00  0.11611387662E+04  0.21426481575E+04  0.18007492586E+04 0.  0.
        4    1    3    3  502    0  0.64772456591E+03 -0.61663981171E+03  0.70468710866E+03  0.11385856598E+04  0.12699999809E+01 0. -1.
       -4    1    3    3    0  502 -0.64772456591E+03  0.61663981171E+03  0.45645165752E+03  0.10040624977E+04  0.12699999809E+01 0.  1.
</event>
<event>
 5   0  0.3984648E-05  0.1805844E+04  0.7818609E-02  0.8703198E-01
       -2   -1    0    0    0  501  0.00000000000E+00  0.00000000000E+00  0.84555918211E+03  0.84555918211E+03  0.25500000920E-02 0.  1.
        2   -1    0    0  501    0  0.00000000000E+00  0.00000000000E+00 -0.96417624949E+03  0.96417624950E+03  0.25500000920E-02 0. -1.
    10030    2    1    2    0    0  0.00000000000E+00  0.00000000000E+00 -0.11861706738E+03  0.18097354316E+04  0.18058439367E+04 0.  0.
        1    1    3    3  502    0  0.21613478430E+03 -0.39465621228E+02  0.81836198113E+03  0.84734179197E+03  0.50400001928E-02 0.  1.
       -1    1    3    3    0  502 -0.21613478430E+03  0.39465621228E+02 -0.93697904851E+03  0.96239363964E+03  0.50400001928E-02 0. -1.
</event>
<event>
 5   0  0.2038338E-05  0.1789789E+04  0.7818609E-02  0.8711748E-01
        1   -1    0    0  501    0  0.00000000000E+00  0.00000000000E+00  0.98226348716E+03  0.98226348717E+03  0.50400001928E-02 0. -1.
       -1   -1    0    0    0  501  0.00000000000E+00  0.00000000000E+00 -0.81529680342E+03  0.81529680344E+03  0.50400001928E-02 0.  1.
    10030    2    1    2    0    0  0.00000000000E+00  0.00000000000E+00  0.16696668374E+03  0.17975602906E+04  0.17897891286E+04 0.  0.
        1    1    3    3  502    0  0.76644737639E+03 -0.25207240213E+03 -0.30530753559E+03  0.86266724060E+03  0.50400001928E-02 0.  1.
       -1    1    3    3    0  502 -0.76644737639E+03  0.25207240213E+03  0.47227421933E+03  0.93489305001E+03  0.50400001928E-02 0. -1.
</event>
<event>
 5   0  0.3993393E-05  0.1797337E+04  0.7818609E-02  0.8707717E-01
        2   -1    0    0  501    0  0.00000000000E+00  0.00000000000E+00  0.92436324096E+03  0.92436324097E+03  0.25500000920E-02 0. -1.
       -2   -1    0    0    0  501  0.00000000000E+00  0.00000000000E+00 -0.87368783139E+03  0.87368783140E+03  0.25500000920E-02 0.  1.
    10030    2    1    2    0    0  0.00000000000E+00  0.00000000000E+00  0.50675409573E+02  0.17980510724E+04  0.17973368248E+04 0.  0.
        5    1    3    3  502    0 -0.16020806308E+03 -0.49111049252E+03 -0.71029571790E+03  0.87829279640E+03  0.46999998093E+01 0.  1.
       -5    1    3    3    0  502  0.16020806308E+03  0.49111049252E+03  0.76097112748E+03  0.91975827596E+03  0.46999998093E+01 0. -1.
</event>
<event>
 5   0  0.1906857E-05  0.1799128E+04  0.7818609E-02  0.8706763E-01
       -1   -1    0    0    0  501  0.00000000000E+00  0.00000000000E+00  0.15368010580E+04  0.15368010580E+04  0.50400001928E-02 0. -1.
        1   -1    0    0  501    0  0.00000000000E+00  0.00000000000E+00 -0.52655833264E+03  0.52655833267E+03  0.50400001928E-02 0.  1.
    10030    2    1    2    0    0  0.00000000000E+00  0.00000000000E+00  0.10102427253E+04  0.20633593906E+04  0.17991280140E+04 0.  0.
        4    1    3    3  502    0 -0.33831086160E+03  0.27926703404E+03 -0.39556637163E+03  0.59069339140E+03  0.12699999809E+01 0.  1.
       -4    1    3    3    0  502  0.33831086160E+03 -0.27926703404E+03  0.14058090969E+04  0.14726659992E+04  0.12699999809E+01 0. -1.
</event>
<event>
 5   0  0.1960300E-05  0.1806741E+04  0.7818609E-02  0.8702723E-01
       -1   -1    0    0    0  501  0.00000000000E+00  0.00000000000E+00  0.80426473802E+03  0.80426473804E+03  0.50400001928E-02 0.  1.
        1   -1    0    0  501    0  0.00000000000E+00  0.00000000000E+00 -0.10146888996E+04  0.10146888996E+04  0.50400001928E-02 0. -1.
    10030    2    1    2    0    0  0.00000000000E+00  0.00000000000E+00 -0.21042416158E+03  0.18189536376E+04  0.18067412676E+04 0.  0.
        3    1    3    3  502    0 -0.44323097472E+03 -0.78645109481E+03 -0.13889672490E+03  0.91337359928E+03  0.10100000352E+00 0.  1.
       -3    1    3    3    0  502  0.44323097472E+03  0.78645109481E+03 -0.71527436682E+02  0.90558003836E+03  0.10100000352E+00 0. -1.
</event>
<event>
 5   0  0.2001811E-05  0.1800339E+04  0.7818609E-02  0.8706119E-01
        1   -1    0    0  501    0  0.00000000000E+00  0.00000000000E+00  0.76228627973E+03  0.76228627975E+03  0.50400001928E-02 0. -1.
       -1   -1    0    0    0  501  0.00000000000E+00  0.00000000000E+00 -0.10629931042E+04  0.10629931042E+04  0.50400001928E-02 0.  1.
    10030    2    1    2    0    0  0.00000000000E+00  0.00000000000E+00 -0.30070682445E+03  0.18252793839E+04  0.18003389223E+04 0.  0.
        2    1    3    3  502    0 -0.14574840410E+03  0.32935814037E+03 -0.98675814249E+03  0.10504337265E+04  0.25500000920E-02 0.  1.
       -2    1    3    3    0  502  0.14574840410E+03 -0.32935814037E+03  0.68605131804E+03  0.77484565748E+03  0.25500000920E-02 0. -1.
</event>
<event>
 5   0  0.3909859E-05  0.1799988E+04  0.7818609E-02  0.8706306E-01
       -2   -1    0    0    0  501  0.00000000000E+00  0.00000000000E+00  0.56969498445E+03  0.56969498445E+03  0.25500000920E-02 0.  1.
        2   -1    0    0  501    0  0.00000000000E+00  0.00000000000E+00 -0.14217947606E+04  0.14217947606E+04  0.25500000920E-02 0. -1.
    10030    2    1    2    0    0  0.00000000000E+00  0.00000000000E+00 -0.85209977613E+03  0.19914897450E+04  0.17999881600E+04 0.  0.
        4    1    3    3  502    0 -0.50702141824E+03 -0.37296815133E+03  0.28567121946E+03  0.69122038380E+03  0.12699999809E+01 0.  1.
       -4    1    3    3    0  502  0.50702141824E+03  0.37296815133E+03 -0.11377709956E+04  0.13002693612E+04  0.12699999809E+01 0. -1.
</event>
<event>
 5   0  0.2038338E-05  0.1800785E+04  0.7818609E-02  0.8705882E-01
        1   -1    0    0  501    0  0.00000000000E+00  0.00000000000E+00  0.85859451975E+03  0.85859451976E+03  0.50400001928E-02 0.  1.
       -1   -1    0    0    0  501  0.00000000000E+00  0.00000000000E+00 -0.94422549580E+03  0.94422549582E+03  0.50400001928E-02 0. -1.
    10030    2    1    2    0    0  0.00000000000E+00  0.00000000000E+00 -0.85630976059E+02  0.18028200156E+04  0.18007852022E+04 0.  0.
        1    1    3    3  502    0 -0.17281484693E+03 -0.49495070164E+02 -0.92607773613E+03  0.94336350718E+03  0.50400001928E-02 0. -1.
       -1    1    3    3    0  502  0.17281484693E+03  0.49495070164E+02  0.84044676007E+03  0.85945650840E+03  0.50400001928E-02 0.  1.
</event>
<event>
 5   0  0.1960300E-05  0.1793931E+04  0.7818609E-02  0.8709534E-01
       -1   -1    0    0    0  501  0.00000000000E+00  0.00000000000E+00  0.39328975105E+03  0.39328975108E+03  0.50400001928E-02 0. -1.
        1   -1    0    0  501    0  0.00000000000E+00  0.00000000000E+00 -0.20456855136E+04  0.20456855136E+04  0.50400001928E-02 0.  1.
    10030    2    1    2    0    0  0.00000000000E+00  0.00000000000E+00 -0.16523957626E+04  0.24389752647E+04  0.17939310426E+04 0.  0.
        3    1    3    3  502    0  0.47191793715E+03  0.55431057148E+03 -0.11377738218E+03  0.73682565914E+03  0.10100000352E+00 0.  1.
       -3    1    3    3    0  502 -0.47191793715E+03 -0.55431057148E+03 -0.15386183804E+04  0.17021496056E+04  0.10100000352E+00 0. -1.
</event>
<event>
 5   0  0.4015729E-05  0.1791229E+04  0.7818609E-02  0.8710978E-01
       -2   -1    0    0    0  501  0.00000000000E+00  0.00000000000E+00  0.50548428814E+03  0.50548428814E+03  0.25500000920E-02 0.  1.
        2   -1    0    0  501    0  0.00000000000E+00  0.00000000000E+00 -0.15868456647E+04  0.15868456647E+04  0.25500000920E-02 0. -1.
    10030    2    1    2    0    0  0.00000000000E+00  0.00000000000E+00 -0.10813613766E+04  0.20923299529E+04  0.17912292441E+04 0.  0.
        2    1    3    3  502    0  0.49901839307E+03  0.10335611906E+02  0.32796230204E+03  0.59723149035E+03  0.25500000920E-02 0.  1.
       -2    1    3    3    0  502 -0.49901839307E+03 -0.10335611906E+02 -0.14093236786E+04  0.14950984625E+04  0.25500000920E-02 0. -1.
</event>
<event>
 5   0  0.3909859E-05  0.1800475E+04  0.7818609E-02  0.8706047E-01
       -2   -1    0    0    0  501  0.00000000000E+00  0.00000000000E+00  0.43318147180E+03  0.43318147181E+03  0.25500000920E-02 0.  1.
        2   -1    0    0  501    0  0.00000000000E+00  0.00000000000E+00 -0.18708722358E+04  0.18708722358E+04  0.25500000920E-02 0. -1.
    10030    2    1    2    0    0  0.00000000000E+00  0.00000000000E+00 -0.14376907640E+04  0.23040537076E+04  0.18004745915E+04 0.  0.
        4    1    3    3  502    0  0.65658810677E+03 -0.64851981233E+02  0.64919853054E+02  0.66297052849E+03  0.12699999809E+01 0. -1.
       -4    1    3    3    0  502 -0.65658810677E+03  0.64851981233E+02 -0.15026106171E+04  0.16410831791E+04  0.12699999809E+01 0.  1.
</event>
<event>
 5   0  0.2054876E-05  0.1802853E+04  0.7818609E-02  0.8704784E-01
       -1   -1    0    0    0  501  0.00000000000E+00  0.00000000000E+00  0.36350326077E+03  0.36350326081E+03  0.50400001928E-02 0.  1.
        1   -1    0    0  501    0  0.00000000000E+00  0.00000000000E+00 -0.22353852336E+04  0.22353852336E+04  0.50400001928E-02 0. -1.
    10030    2    1    2    0    0  0.00000000000E+00  0.00000000000E+00 -0.18718819728E+04  0.25988884944E+04  0.18028530961E+04 0.  0.
        5    1    3    3  502    0 -0.50766284169E+03  0.74481814875E+03 -0.92370094508E+03  0.12906282042E+04  0.46999998093E+01 0. -1.
       -5    1    3    3    0  502  0.50766284169E+03 -0.74481814875E+03 -0.94818102775E+03  0.13082602902E+04  0.46999998093E+01 0.  1.
</event>
<event>
 5   0  0.3909859E-05  0.1798167E+04  0.7818609E-02  0.8707275E-01
       -2   -1    0    0    0  501  0.00000000000E+00  0.00000000000E+00  0.69041319536E+03  0.69041319537E+03  0.25500000920E-02 0.  1.
        2   -1    0    0  501    0  0.00000000000E+00  0.00000000000E+00 -0.11708220729E+04  0.11708220729E+04  0.25500000920E-02 0. -1.
    10030    2    1    2    0    0  0.00000000000E+00  0.00000000000E+00 -0.48040887753E+03  0.18612352683E+04  0.17981668538E+04 0.  0.
        4    1    3    3  502    0  0.30790056894E+02  0.55435437309E+03 -0.97217985997E+03  0.11195499505E+04  0.12699999809E+01 0. -1.
       -4    1    3    3    0  502 -0.30790056894E+02 -0.55435437309E+03  0.49177098244E+03  0.74168531779E+03  0.12699999809E+01 0.  1.
</event>
<event>
 5   0  0.2001811E-05  0.1799114E+04  0.7818609E-02  0.8706771E-01
        1   -1    0    0  501    0  0.00000000000E+00  0.00000000000E+00  0.64093832287E+03  0.64093832289E+03  0.50400001928E-02 0.  1.
       -1   -1    0    0    0  501  0.00000000000E+00  0.00000000000E+00 -0.12625287800E+04  0.12625287800E+04  0.50400001928E-02 0. -1.
    10030    2    1    2    0    0  0.00000000000E+00  0.00000000000E+00 -0.62159045712E+03  0.19034671029E+04  0.17991143142E+04 0.  0.
        2    1    3    3  502    0 -0.78062359337E+03  0.41502861835E+03 -0.13508677910E+03  0.89435473190E+03  0.25500000920E-02 0.  1.
       -2    1    3    3    0  502  0.78062359337E+03 -0.41502861835E+03 -0.48650367802E+03  0.10091123710E+04  0.25500000920E-02 0. -1.
</event>
<event>
 5   0  0.3993393E-05  0.1812610E+04  0.7818609E-02  0.8699622E-01
       -2   -1    0    0    0  501  0.00000000000E+00  0.00000000000E+00  0.65875646143E+03  0.65875646144E+03  0.25500000920E-02 0. -1.
        2   -1    0    0  501    0  0.00000000000E+00  0.00000000000E+00 -0.12468781404E+04  0.12468781404E+04  0.25500000920E-02 0.  1.
    10030    2    1    2    0    0  0.00000000000E+00  0.00000000000E+00 -0.58812167893E+03  0.19056346018E+04  0.18126103074E+04 0.  0.
        5    1    3    3  502    0  0.45841346927E+03 -0.24056072683E+03  0.48799350868E+03  0.71145774760E+03  0.46999998093E+01 0. -1.
       -5    1    3    3    0  502 -0.45841346927E+03  0.24056072683E+03 -0.10761151876E+04  0.11941768542E+04  0.46999998093E+01 0.  1.
</event>
<event>
 5   0  0.1906857E-05  0.1800336E+04  0.7818609E-02  0.8706121E-01
        1   -1    0    0  501    0  0.00000000000E+00  0.00000000000E+00  0.15442425950E+04  0.15442425951E+04  0.50400001928E-02 0. -1.
       -1   -1    0    0    0  501  0.00000000000E+00  0.00000000000E+00 -0.52472489699E+03  0.52472489701E+03  0.50400001928E-02 0.  1.
    10030    2    1    2    0    0  0.00000000000E+00  0.00000000000E+00  0.10195176981E+04  0.20689674921E+04  0.18003361204E+04 0.  0.
        4    1    3    3  502    0 -0.71348989846E+03  0.54416644774E+03  0.59195734743E+03  0.10749884056E+04  0.12699999809E+01 0. -1.
       -4    1    3    3    0  502  0.71348989846E+03 -0.54416644774E+03  0.42756035063E+03  0.99397908649E+03  0.12699999809E+01 0.  1.
</event>
<event>
 5   0  0.3983176E-05  0.1798937E+04  0.7818609E-02  0.8706865E-01
       -2   -1    0    0    0  501  0.00000000000E+00  0.00000000000E+00  0.15825277524E+04  0.15825277525E+04  0.25500000920E-02 0. -1.
        2   -1    0    0  501    0  0.00000000000E+00  0.00000000000E+00 -0.51123498467E+03  0.51123498468E+03  0.25500000920E-02 0.  1.
    10030    2    1    2    0    0  0.00000000000E+00  0.00000000000E+00  0.10712927678E+04  0.20937627371E+04  0.17989369653E+04 0.  0.
        3    1    3    3  502    0  0.31327170685E+03 -0.59219476783E+03 -0.16289034119E+03  0.68946869313E+03  0.10100000352E+00 0.  1.
       -3    1    3    3    0  502 -0.31327170685E+03  0.59219476783E+03  0.12341831090E+04  0.14042940440E+04  0.10100000352E+00 0. -1.
</event>
<event>
 5   0  0.1446750E-05  0.1801651E+04  0.7818609E-02  0.8705422E-01
       -4   -1    0    0    0  501  0.00000000000E+00  0.00000000000E+00  0.13708693321E+04  0.13708699204E+04  0.12699999809E+01 0.  1.
        4   -1    0    0  501    0  0.00000000000E+00  0.00000000000E+00 -0.59194921559E+03  0.59195057795E+03  0.12699999809E+01 0. -1.
    10030    2    1    2    0    0  0.00000000000E+00  0.00000000000E+00  0.77892011650E+03  0.19628204983E+04  0.18016513982E+04 0.  0.
        3    1    3    3  502    0  0.37247442940E+03  0.53730104530E+02 -0.50220706428E+03  0.62756359861E+03  0.10100000352E+00 0. -1.
       -3    1    3    3    0  502 -0.37247442940E+03 -0.53730104530E+02  0.12811271808E+04  0.13352568997E+04  0.10100000352E+00 0.  1.
</event>
<event>
 5   0  0.4015729E-05  0.1801102E+04  0.7818609E-02  0.8705714E-01
       -2   -1    0    0    0  501  0.00000000000E+00  0.00000000000E+00  0.63474015342E+03  0.63474015343E+03  0.25500000920E-02 0.  1.
        2   -1    0    0  501    0  0.00000000000E+00  0.00000000000E+00 -0.12776751905E+04  0.12776751905E+04  0.25500000920E-02 0. -1.
    10030    2    1    2    0    0  0.00000000000E+00  0.00000000000E+00 -0.64293503704E+03  0.19124153439E+04  0.18011016034E+04 0.  0.
        2    1    3    3  502    0  0.75954258670E+03 -0.48308638091E+03 -0.29308827975E+03  0.94666685384E+03  0.25500000920E-02 0. -1.
       -2    1    3    3    0  502 -0.75954258670E+03  0.48308638091E+03 -0.34984675730E+03  0.96574849005E+03  0.25500000920E-02 0.  1.
</event>
<event>
 5   0  0.1446750E-05  0.1802560E+04  0.7818609E-02  0.8704939E-01
        3   -1    0    0  501    0  0.00000000000E+00  0.00000000000E+00  0.14485627322E+04  0.14485627357E+04  0.10100000352E+00 0. -1.
       -3   -1    0    0    0  501  0.00000000000E+00  0.00000000000E+00 -0.56076651370E+03  0.56076652280E+03  0.10100000352E+00 0.  1.
    10030    2    1    2    0    0  0.00000000000E+00  0.00000000000E+00  0.88779621849E+03  0.20093292585E+04  0.18025598308E+04 0.  0.
        4    1    3    3  502    0 -0.19242274183E+03 -0.77006196732E+03 -0.32021090904E+02  0.79438586861E+03  0.12699999809E+01 0.  1.
       -4    1    3    3    0  502  0.19242274183E+03  0.77006196732E+03  0.91981730939E+03  0.12149433899E+04  0.12699999809E+01 0. -1.
</event>
<event>
 5   0  0.3909859E-05  0.1798560E+04  0.7818609E-02  0.8707065E-01
       -2   -1    0    0    0  501  0.00000000000E+00  0.00000000000E+00  0.50115097686E+03  0.50115097686E+03  0.25500000920E-02 0.  1.
        2   -1    0    0  501    0  0.00000000000E+00  0.00000000000E+00 -0.16136951203E+04  0.16136951203E+04  0.25500000920E-02 0. -1.
    10030    2    1    2    0    0  0.00000000000E+00  0.00000000000E+00 -0.11125441434E+04  0.21148460972E+04  0.17985604087E+04 0.  0.
        4    1    3    3  502    0 -0.32663870861E+03 -0.43390296801E+03 -0.13990727092E+04  0.15007900220E+04  0.12699999809E+01 0. -1.
       -4    1    3    3    0  502  0.32663870861E+03  0.43390296801E+03  0.28652856572E+03  0.61405607520E+03  0.12699999809E+01 0.  1.
</event>
<event>
 5   0  0.3993393E-05  0.1800436E+04  0.7818609E-02  0.8706068E-01
        2   -1    0    0  501    0  0.00000000000E+00  0.00000000000E+00  0.96961446408E+03  0.96961446408E+03  0.25500000920E-02 0. -1.
       -2   -1    0    0    0  501  0.00000000000E+00  0.00000000000E+00 -0.83578799313E+03  0.83578799313E+03  0.25500000920E-02 0.  1.
    10030    2    1    2    0    0  0.00000000000E+00  0.00000000000E+00  0.13382647095E+03  0.18054024572E+04  0.18004356440E+04 0.  0.
        5    1    3    3  502    0  0.35655108129E+03  0.50214273724E+03  0.72530203445E+03  0.95150466804E+03  0.46999998093E+01 0. -1.
       -5    1    3    3    0  502 -0.35655108129E+03 -0.50214273724E+03 -0.59147556350E+03  0.85389778917E+03  0.46999998093E+01 0.  1.
</event>
<event>
 5   0  0.1906857E-05  0.1785739E+04  0.7818609E-02  0.8713920E-01
        1   -1    0    0  501    0  0.00000000000E+00  0.00000000000E+00  0.12071171443E+04  0.12071171443E+04  0.50400001928E-02 0. -1.
       -1   -1    0    0    0  501  0.00000000000E+00  0.00000000000E+00 -0.66042985589E+03  0.66042985591E+03  0.50400001928E-02 0.  1.
    10030    2    1    2    0    0  0.00000000000E+00  0.00000000000E+00  0.54668728844E+03  0.18675470002E+04  0.17857392886E+04 0.  0.
        4    1    3    3  502    0  0.56097050965E+03 -0.62785912935E+03 -0.37457070115E+02  0.84279276457E+03  0.12699999809E+01 0.  1.
       -4    1    3    3    0  502 -0.56097050965E+03  0.62785912935E+03  0.58414435856E+03  0.10247542357E+04  0.12699999809E+01 0. -1.
</event>
<event>
 5   0  0.2001811E-05  0.1801809E+04  0.7818609E-02  0.8705338E-01
        1   -1    0    0  501    0  0.00000000000E+00  0.00000000000E+00  0.13077147786E+04  0.13077147786E+04  0.50400001928E-02 0. -1.
       -1   -1    0    0    0  501  0.00000000000E+00  0.00000000000E+00 -0.62064695141E+03  0.62064695143E+03  0.50400001928E-02 0.  1.
    10030    2    1    2    0    0  0.00000000000E+00  0.00000000000E+00  0.68706782716E+03  0.19283617300E+04  0.18018093025E+04 0.  0.
        2    1    3    3  502    0  0.71514273038E+03 -0.29453181121E+02  0.92907405152E+03  0.11728065518E+04  0.25500000920E-02 0. -1.
       -2    1    3    3    0  502 -0.71514273038E+03  0.29453181121E+02 -0.24200622436E+03  0.75555517822E+03  0.25500000920E-02 0.  1.
</event>
<event>
 5   0  0.3993393E-05  0.1800913E+04  0.7818609E-02  0.8705814E-01
       -2   -1    0    0    0  501  0.00000000000E+00  0.00000000000E+00  0.95899072861E+03  0.95899072862E+03  0.25500000920E-02 0. -1.
        2   -1    0    0  501    0  0.00000000000E+00  0.00000000000E+00 -0.84549473501E+03  0.84549473502E+03  0.25500000920E-02 0.  1.
    10030    2    1    2    0    0  0.00000000000E+00  0.00000000000E+00  0.11349599360E+03  0.18044854636E+04  0.18009126708E+04 0.  0.
        5    1    3    3  502    0 -0.53708819658E+03  0.71890920899E+03 -0.17597183407E+02  0.89756667304E+03  0.46999998093E+01 0.  1.
       -5    1    3    3    0  502  0.53708819658E+03 -0.71890920899E+03  0.13109317701E+03  0.90691879060E+03  0.46999998093E+01 0. -1.
</event>
<event>
 5   0  0.1960300E-05  0.1799751E+04  0.7818609E-02  0.8706432E-01
        1   -1    0    0  501    0  0.00000000000E+00  0.00000000000E+00  0.18739452108E+04  0.18739452108E+04  0.50400001928E-02 0.  1.
       -1   -1    0    0    0  501  0.00000000000E+00  0.00000000000E+00 -0.43212351305E+03  0.43212351308E+03  0.50400001928E-02 0. -1.
    10030    2    1    2    0    0  0.00000000000E+00  0.00000000000E+00  0.14418216977E+04  0.23060687239E+04  0.17997508581E+04 0.  0.
        3    1    3    3  502    0  0.22791228200E+03  0.83678170256E+03  0.10285043825E+04  0.13453508468E+04  0.10100000352E+00 0.  1.
       -3    1    3    3    0  502 -0.22791228200E+03 -0.83678170256E+03  0.41331731522E+03  0.96071787705E+03  0.10100000352E+00 0. -1.
</event>
<event>
 5   0  0.3984648E-05  0.1817919E+04  0.7818609E-02  0.8696828E-01
       -2   -1    0    0    0  501  0.00000000000E+00  0.00000000000E+00  0.60635443591E+03  0.60635443591E+03  0.25500000920E-02 0.  1.
        2   -1    0    0  501    0  0.00000000000E+00  0.00000000000E+00 -0.13625818655E+04  0.13625818655E+04  0.25500000920E-02 0. -1.
    10030    2    1    2    0    0  0.00000000000E+00  0.00000000000E+00 -0.75622742960E+03  0.19689363014E+04  0.18179192044E+04 0.  0.
        1    1    3    3  502    0  0.85461531840E+03 -0.11550572847E+03 -0.68919973165E+03  0.11039498113E+04  0.50400001928E-02 0. -1.
       -1    1    3    3    0  502 -0.85461531840E+03  0.11550572847E+03 -0.67027697950E+02  0.86498649011E+03  0.50400001928E-02 0.  1.
</event>
<event>
 5   0  0.2038338E-05  0.1809456E+04  0.7818609E-02  0.8701287E-01
        1   -1    0    0  501    0  0.00000000000E+00  0.00000000000E+00  0.43233951120E+03  0.43233951122E+03  0.50400001928E-02 0.  1.
       -1   -1    0    0    0  501  0.00000000000E+00  0.00000000000E+00 -0.18932638401E+04  0.18932638401E+04  0.50400001928E-02 0. -1.
    10030    2    1    2    0    0  0.00000000000E+00  0.00000000000E+00 -0.14609243289E+04  0.23256033514E+04  0.18094560102E+04 0.  0.
        1    1    3    3  502    0  0.81699411846E+03  0.13935862301E+03 -0.26415803778E+03  0.86987337260E+03  0.50400001928E-02 0.  1.
       -1    1    3    3    0  502 -0.81699411846E+03 -0.13935862301E+03 -0.11967662912E+04  0.14557299788E+04  0.50400001928E-02 0. -1.
</event>
<event>
 5   0  0.3984648E-05  0.1801994E+04  0.7818609E-02  0.8705240E-01
        2   -1    0    0  501    0  0.00000000000E+00  0.00000000000E+00  0.18880430680E+04  0.18880430680E+04  0.25500000920E-02 0.  1.
       -2   -1    0    0    0  501  0.00000000000E+00  0.00000000000E+00 -0.42996661846E+03  0.42996661847E+03  0.25500000920E-02 0. -1.
    10030    2    1    2    0    0  0.00000000000E+00  0.00000000000E+00  0.14580764495E+04  0.23180096864E+04  0.18019938884E+04 0.  0.
        1    1    3    3  502    0  0.84996644324E+03 -0.29706778941E+03  0.68631123422E+03  0.11321286748E+04  0.50400001928E-02 0.  1.
       -1    1    3    3    0  502 -0.84996644324E+03  0.29706778941E+03  0.77176521531E+03  0.11858810116E+04  0.50400001928E-02 0. -1.
</event>
<event>
 5   0  0.3984648E-05  0.1797172E+04  0.7818609E-02  0.8707805E-01
       -2   -1    0    0    0  501  0.00000000000E+00  0.00000000000E+00  0.75018424851E+03  0.75018424852E+03  0.25500000920E-02 0.  1.
        2   -1    0    0  501    0  0.00000000000E+00  0.00000000000E+00 -0.10763446153E+04  0.10763446153E+04  0.25500000920E-02 0. -1.
    10030    2    1    2    0    0  0.00000000000E+00  0.00000000000E+00 -0.32616036681E+03  0.18265288638E+04  0.17971719744E+04 0.  0.
        1    1    3    3  502    0 -0.38415416739E+03 -0.71812540079E+03 -0.54899085944E+03  0.98217589023E+03  0.50400001928E-02 0. -1.
       -1    1    3    3    0  502  0.38415416739E+03  0.71812540079E+03  0.22283049263E+03  0.84435297361E+03  0.50400001928E-02 0.  1.
</event>
<event>
 5   0  0.3993393E-05  0.1800318E+04  0.7818609E-02  0.8706131E-01
       -2   -1    0    0    0  501  0.00000000000E+00  0.00000000000E+00  0.14770003529E+04  0.14770003529E+04  0.25500000920E-02 0. -1.
        2   -1    0    0  501    0  0.00000000000E+00  0.00000000000E+00 -0.54860245099E+03  0.54860245099E+03  0.25500000920E-02 0.  1.
    10030    2    1    2    0    0  0.00000000000E+00  0.00000000000E+00  0.92839790194E+03  0.20256028039E+04  0.18003177650E+04 0.  0.
        5    1    3    3  502    0  0.33174183616E+03  0.80729220229E+03  0.21643746165E+03  0.89924446650E+03  0.46999998093E+01 0.  1.
       -5    1    3    3    0  502 -0.33174183616E+03 -0.80729220229E+03  0.71196044029E+03  0.11263583374E+04  0.46999998093E+01 0. -1.
</event>
<event>
 5   0  0.3983176E-05  0.1803669E+04  0.7818609E-02  0.8704351E-01
        2   -1    0    0  501    0  0.00000000000E+00  0.00000000000E+00  0.14463206426E+04  0.14463206426E+04  0.25500000920E-02 0.  1.
       -2   -1    0    0    0  501  0.00000000000E+00  0.00000000000E+00 -0.56232703139E+03  0.56232703139E+03  0.25500000920E-02 0. -1.
    10030    2    1    2    0    0  0.00000000000E+00  0.00000000000E+00  0.88399361121E+03  0.20086476740E+04  0.18036686984E+04 0.  0.
        3    1    3    3  502    0 -0.53558771873E+03  0.56680900622E+01 -0.36600571286E+03  0.64872684833E+03  0.10100000352E+00 0. -1.
       -3    1    3    3    0  502  0.53558771873E+03 -0.56680900622E+01  0.12499993241E+04  0.13599208257E+04  0.10100000352E+00 0.  1.
</event>
<event>
 5   0  0.2001811E-05  0.1797901E+04  0.7818609E-02  0.8707416E-01
       -1   -1    0    0    0  501  0.00000000000E+00  0.00000000000E+00  0.81142544406E+03  0.81142544408E+03  0.50400001928E-02 0. -1.
        1   -1    0    0  501    0  0.00000000000E+00  0.00000000000E+00 -0.99591703412E+03  0.99591703414E+03  0.50400001928E-02 0.  1.
    10030    2    1    2    0    0  0.00000000000E+00  0.00000000000E+00 -0.18449159006E+03  0.18073424782E+04  0.17979014675E+04 0.  0.
        2    1    3    3  502    0 -0.37422900060E+02  0.64047014739E+03  0.54075114092E+03  0.83905558788E+03  0.25500000920E-02 0. -1.
       -2    1    3    3    0  502  0.37422900060E+02 -0.64047014739E+03 -0.72524273098E+03  0.96828689033E+03  0.25500000920E-02 0.  1.
</event>
<event>
 5   0  0.1960300E-05  0.1797071E+04  0.7818609E-02  0.8707858E-01
       -1   -1    0    0    0  501  0.00000000000E+00  0.00000000000E+00  0.68035739312E+03  0.68035739314E+03  0.50400001928E-02 0.  1.
        1   -1    0    0  501    0  0.00000000000E+00  0.00000000000E+00 -0.11866798763E+04  0.11866798763E+04  0.50400001928E-02 0. -1.
    10030    2    1    2    0    0  0.00000000000E+00  0.00000000000E+00 -0.50632248320E+03  0.18670372695E+04  0.17970714256E+04 0.  0.
        3    1    3    3  502    0  0.61240101531E+03 -0.75433744516E+02 -0.93176932133E+03  0.11175505947E+04  0.10100000352E+00 0. -1.
       -3    1    3    3    0  502 -0.61240101531E+03  0.75433744516E+02  0.42544683813E+03  0.74948667476E+03  0.10100000352E+00 0.  1.
</event>
<event>
 5   0  0.1446750E-05  0.1785275E+04  0.7818609E-02  0.8714170E-01
        3   -1    0    0  501    0  0.00000000000E+00  0.00000000000E+00  0.67664498831E+03  0.67664499585E+03  0.10100000352E+00 0. -1.
       -3   -1    0    0    0  501  0.00000000000E+00  0.00000000000E+00 -0.11775769343E+04  0.11775769386E+04  0.10100000352E+00 0.  1.
    10030    2    1    2    0    0  0.00000000000E+00  0.00000000000E+00 -0.50093194597E+03  0.18542219344E+04  0.17852748157E+04 0.  0.
        3    1    3    3  502    0 -0.28057964366E+02  0.32044357588E+03 -0.11152879023E+04  0.11607490900E+04  0.10100000352E+00 0.  1.
       -3    1    3    3    0  502  0.28057964366E+02 -0.32044357588E+03  0.61435595635E+03  0.69347284445E+03  0.10100000352E+00 0. -1.
</event>
<event>
 5   0  0.2001811E-05  0.1800739E+04  0.7818609E-02  0.8705907E-01
       -1   -1    0    0    0  501  0.00000000000E+00  0.00000000000E+00  0.44608365542E+03  0.44608365545E+03  0.50400001928E-02 0.  1.
        1   -1    0    0  501    0  0.00000000000E+00  0.00000000000E+00 -0.18172939279E+04  0.18172939279E+04  0.50400001928E-02 0. -1.
    10030    2    1    2    0    0  0.00000000000E+00  0.00000000000E+00 -0.13712102725E+04  0.22633775833E+04  0.18007388687E+04 0.  0.
        2    1    3    3  502    0  0.84460846794E+03 -0.26622305490E+03 -0.88993399280E+03  0.12554762804E+04  0.25500000920E-02 0. -1.
       -2    1    3    3    0  502 -0.84460846794E+03  0.26622305490E+03 -0.48127627966E+03  0.10079013029E+04  0.25500000920E-02 0.  1.
</event>
<event>
 5   0  0.2038338E-05  0.1793936E+04  0.7818609E-02  0.8709531E-01
       -1   -1    0    0    0  501  0.00000000000E+00  0.00000000000E+00  0.52978502253E+03  0.52978502255E+03  0.50400001928E-02 0.  1.
        1   -1    0    0  501    0  0.00000000000E+00  0.00000000000E+00 -0.15186374902E+04  0.15186374902E+04  0.50400001928E-02 0. -1.
    10030    2    1    2    0    0  0.00000000000E+00  0.00000000000E+00 -0.98885246769E+03  0.20484225128E+04  0.17939357815E+04 0.  0.
        1    1    3    3  502    0  0.23992565408E+03 -0.80695864355E+03 -0.84785861697E+03  0.11948266846E+04  0.50400001928E-02 0. -1.
       -1    1    3    3    0  502 -0.23992565408E+03  0.80695864355E+03 -0.14099385072E+03  0.85359582816E+03  0.50400001928E-02 0.  1.
</event>
<event>
 5   0  0.3984648E-05  0.1801473E+04  0.7818609E-02  0.8705516E-01
        2   -1    0    0  501    0  0.00000000000E+00  0.00000000000E+00  0.72322092216E+03  0.72322092217E+03  0.25500000920E-02 0.  1.
       -2   -1    0    0    0  501  0.00000000000E+00  0.00000000000E+00 -0.11218240483E+04  0.11218240483E+04  0.25500000920E-02 0. -1.
    10030    2    1    2    0    0  0.00000000000E+00  0.00000000000E+00 -0.39860312612E+03  0.18450449705E+04  0.18014734222E+04 0.  0.
        1    1    3    3  502    0 -0.40928884351E+03 -0.58421481673E+03 -0.76260635633E+03  0.10442187339E+04  0.50400001928E-02 0. -1.
       -1    1    3    3    0  502  0.40928884351E+03  0.58421481673E+03  0.36400323021E+03  0.80082623654E+03  0.50400001928E-02 0.  1.
</event>
<event>
 5   0  0.1960300E-05  0.1800478E+04  0.7818609E-02  0.8706046E-01
       -1   -1    0    0    0  501  0.00000000000E+00  0.00000000000E+00  0.68299089905E+03  0.68299089907E+03  0.50400001928E-02 0.  1.
        1   -1    0    0  501    0  0.00000000000E+00  0.00000000000E+00 -0.11865894822E+04  0.11865894822E+04  0.50400001928E-02 0. -1.
    10030    2    1    2    0    0  0.00000000000E+00  0.00000000000E+00 -0.50359858313E+03  0.18695803813E+04  0.18004775114E+04 0.  0.
        3    1    3    3  502    0 -0.86971181635E+03  0.21597998139E+03 -0.34102638228E+03  0.95882480124E+03  0.10100000352E+00 0.  1.
       -3    1    3    3    0  502  0.86971181635E+03 -0.21597998139E+03 -0.16257220085E+03  0.91075558003E+03  0.10100000352E+00 0. -1.
</event>
<event>
 5   0  0.4015729E-05  0.1801259E+04  0.7818609E-02  0.8705630E-01
       -2   -1    0    0    0  501  0.00000000000E+00  0.00000000000E+00  0.73992822602E+03  0.73992822603E+03  0.25500000920E-02 0.  1.
        2   -1    0    0  501    0  0.00000000000E+00  0.00000000000E+00 -0.10962328324E+04  0.10962328324E+04  0.25500000920E-02 0. -1.
    10030    2    1    2    0    0  0.00000000000E+00  0.00000000000E+00 -0.35630460641E+03  0.18361610585E+04  0.18012591318E+04 0.  0.
        2    1    3    3  502    0 -0.26908159631E+03 -0.19695397822E+03 -0.10309859250E+04  0.10835717570E+04  0.25500000920E-02 0. -1.
       -2    1    3    3    0  502  0.26908159631E+03  0.19695397822E+03  0.67468131859E+03  0.75258930146E+03  0.25500000920E-02 0.  1.
</event>
<event>
 5   0  0.2054876E-05  0.1801932E+04  0.7818609E-02  0.8705273E-01
       -1   -1    0    0    0  501  0.00000000000E+00  0.00000000000E+00  0.60022900988E+03  0.60022900990E+03  0.50400001928E-02 0.  1.
        1   -1    0    0  501    0  0.00000000000E+00  0.00000000000E+00 -0.13523837766E+04  0.13523837766E+04  0.50400001928E-02 0. -1.
    10030    2    1    2    0    0  0.00000000000E+00  0.00000000000E+00 -0.75215476668E+03  0.19526127865E+04  0.18019322687E+04 0.  0.
        5    1    3    3  502    0 -0.17307184477E+03 -0.54948172199E+02  0.58018093027E+03  0.60795161561E+03  0.46999998093E+01 0.  1.
       -5    1    3    3    0  502  0.17307184477E+03  0.54948172199E+02 -0.13323356969E+04  0.13446611709E+04  0.46999998093E+01 0. -1.
</event>
<event>
 5   0  0.3909859E-05  0.1798980E+04  0.7818609E-02  0.8706842E-01
        2   -1    0    0  501    0  0.00000000000E+00  0.00000000000E+00  0.18011970356E+04  0.18011970356E+04  0.25500000920E-02 0.  1.
       -2   -1    0    0    0  501  0.00000000000E+00  0.00000000000E+00 -0.44919152380E+03  0.44919152380E+03  0.25500000920E-02 0. -1.
    10030    2    1    2    0    0  0.00000000000E+00  0.00000000000E+00  0.13520055118E+04  0.22503885594E+04  0.17989802012E+04 0.  0.
        4    1    3    3  502    0 -0.45217406981E+03  0.18866395014E+03  0.16196223185E+04  0.16921091995E+04  0.12699999809E+01 0.  1.
       -4    1    3    3    0  502  0.45217406981E+03 -0.18866395014E+03 -0.26761680676E+03  0.55827935986E+03  0.12699999809E+01 0. -1.
</event>
<event>
 5   0  0.3984648E-05  0.1795278E+04  0.7818609E-02  0.8708815E-01
       -2   -1    0    0    0  501  0.00000000000E+00  0.00000000000E+00  0.81768276928E+03  0.81768276928E+03  0.25500000920E-02 0. -1.
        2   -1    0    0  501    0  0.00000000000E+00  0.00000000000E+00 -0.98541367533E+03  0.98541367533E+03  0.25500000920E-02 0.  1.
    10030    2    1    2    0    0  0.00000000000E+00  0.00000000000E+00 -0.16773090605E+03  0.18030964446E+04  0.17952780096E+04 0.  0.
        1    1    3    3  502    0 -0.46618449830E+03 -0.11929510563E+03 -0.84492301674E+03  0.97234469861E+03  0.50400001928E-02 0.  1.
       -1    1    3    3    0  502  0.46618449830E+03  0.11929510563E+03  0.67719211069E+03  0.83075174600E+03  0.50400001928E-02 0. -1.
</event>
<event>
 5   0  0.3984648E-05  0.1795067E+04  0.7818609E-02  0.8708927E-01
        2   -1    0    0  501    0  0.00000000000E+00  0.00000000000E+00  0.91437896411E+03  0.91437896411E+03  0.25500000920E-02 0. -1.
       -2   -1    0    0    0  501  0.00000000000E+00  0.00000000000E+00 -0.88099824382E+03  0.88099824383E+03  0.25500000920E-02 0.  1.
    10030    2    1    2    0    0  0.00000000000E+00  0.00000000000E+00  0.33380720287E+02  0.17953772079E+04  0.17950668640E+04 0.  0.
        1    1    3    3  502    0  0.75650650807E+03  0.47854420718E+03 -0.48586585005E+02  0.89647493620E+03  0.50400001928E-02 0.  1.
       -1    1    3    3    0  502 -0.75650650807E+03 -0.47854420718E+03  0.81967305293E+02  0.89890227174E+03  0.50400001928E-02 0. -1.
</event>
<event>
 5   0  0.1906857E-05  0.1779983E+04  0.7818609E-02  0.8717018E-01
        1   -1    0    0  501    0  0.00000000000E+00  0.00000000000E+00  0.16407037734E+04  0.16407037734E+04  0.50400001928E-02 0.  1.
       -1   -1    0    0    0  501  0.00000000000E+00  0.00000000000E+00 -0.48277117758E+03  0.48277117761E+03  0.50400001928E-02 0. -1.
    10030    2    1    2    0    0  0.00000000000E+00  0.00000000000E+00  0.11579325959E+04  0.21234749511E+04  0.17799825761E+04 0.  0.
        4    1    3    3  502    0 -0.56928771193E+03 -0.23155363508E+03 -0.18897737530E+03  0.64297717389E+03  0.12699999809E+01 0. -1.
       -4    1    3    3    0  502  0.56928771193E+03  0.23155363508E+03  0.13469099712E+04  0.14804977772E+04  0.12699999809E+01 0.  1.
</event>
<event>
 5   0  0.3909859E-05  0.1802657E+04  0.7818609E-02  0.8704888E-01
       -2   -1    0    0    0  501  0.00000000000E+00  0.00000000000E+00  0.78565722454E+03  0.78565722455E+03  0.25500000920E-02 0. -1.
        2   -1    0    0  501    0  0.00000000000E+00  0.00000000000E+00 -0.10340302728E+04  0.10340302728E+04  0.25500000920E-02 0.  1.
    10030    2    1    2    0    0  0.00000000000E+00  0.00000000000E+00 -0.24837304823E+03  0.18196874973E+04  0.18026573210E+04 0.  0.
        4    1    3    3  502    0  0.61914490323E+03  0.57322050652E+03 -0.44415038605E+03  0.95351630223E+03  0.12699999809E+01 0. -1.
       -4    1    3    3    0  502 -0.61914490323E+03 -0.57322050652E+03  0.19577733783E+03  0.86617119509E+03  0.12699999809E+01 0.  1.
</event>
<event>
 5   0  0.3909859E-05  0.1800160E+04  0.7818609E-02  0.8706214E-01
        2   -1    0    0  501    0  0.00000000000E+00  0.00000000000E+00  0.20040211041E+04  0.20040211041E+04  0.25500000920E-02 0. -1.
       -2   -1    0    0    0  501  0.00000000000E+00  0.00000000000E+00 -0.40425934431E+03  0.40425934432E+03  0.25500000920E-02 0.  1.
    10030    2    1    2    0    0  0.00000000000E+00  0.00000000000E+00  0.15997617598E+04  0.24082804484E+04  0.18001602790E+04 0.  0.
        4    1    3    3  502    0  0.66589982619E+03 -0.30414029161E+03  0.15004394624E+04  0.16695041446E+04  0.12699999809E+01 0. -1.
       -4    1    3    3    0  502 -0.66589982619E+03  0.30414029161E+03  0.99322297422E+02  0.73877630388E+03  0.12699999809E+01 0.  1.
</event>
<event>
 5   0  0.2001811E-05  0.1802141E+04  0.7818609E-02  0.8705162E-01
       -1   -1    0    0    0  501  0.00000000000E+00  0.00000000000E+00  0.42291416743E+03  0.42291416746E+03  0.50400001928E-02 0. -1.
        1   -1    0    0  501    0  0.00000000000E+00  0.00000000000E+00 -0.19198410617E+04  0.19198410617E+04  0.50400001928E-02 0.  1.
    10030    2    1    2    0    0  0.00000000000E+00  0.00000000000E+00 -0.14969268943E+04  0.23427552292E+04  0.18021409315E+04 0.  0.
        2    1    3    3  502    0 -0.50439084211E+03 -0.59863073416E+03 -0.16831618099E+03  0.80068671418E+03  0.25500000920E-02 0. -1.
       -2    1    3    3    0  502  0.50439084211E+03  0.59863073416E+03 -0.13286107133E+04  0.15420685150E+04  0.25500000920E-02 0.  1.
</event>
<event>
 5   0  0.3984648E-05  0.1807196E+04  0.7818609E-02  0.8702482E-01
        2   -1    0    0  501    0  0.00000000000E+00  0.00000000000E+00  0.11949969334E+04  0.11949969334E+04  0.25500000920E-02 0. -1.
       -2   -1    0    0    0  501  0.00000000000E+00  0.00000000000E+00 -0.68325674688E+03  0.68325674689E+03  0.25500000920E-02 0.  1.
    10030    2    1    2    0    0  0.00000000000E+00  0.00000000000E+00  0.51174018648E+03  0.18782536802E+04  0.18071964113E+04 0.  0.
        1    1    3    3  502    0 -0.35021014228E+03 -0.81633092411E+03  0.83686584391E+02  0.89221452905E+03  0.50400001928E-02 0.  1.
       -1    1    3    3    0  502  0.35021014228E+03  0.81633092411E+03  0.42805360209E+03  0.98603915120E+03  0.50400001928E-02 0. -1.
</event>
<event>
 5   0  0.2054876E-05  0.1797521E+04  0.7818609E-02  0.8707619E-01
       -1   -1    0    0    0  501  0.00000000000E+00  0.00000000000E+00  0.42153971405E+03  0.42153971408E+03  0.50400001928E-02 0. -1.
        1   -1    0    0  501    0  0.00000000000E+00  0.00000000000E+00 -0.19162382973E+04  0.19162382973E+04  0.50400001928E-02 0.  1.
    10030    2    1    2    0    0  0.00000000000E+00  0.00000000000E+00 -0.14946985833E+04  0.23377780114E+04  0.17975211197E+04 0.  0.
        5    1    3    3  502    0 -0.17729060042E+03 -0.49873694099E+03  0.19730432163E+03  0.56490846926E+03  0.46999998093E+01 0. -1.
       -5    1    3    3    0  502  0.17729060042E+03  0.49873694099E+03 -0.16920029049E+04  0.17728695422E+04  0.46999998093E+01 0.  1.
</event>
<event>
 5   0  0.2054876E-05  0.1797301E+04  0.7818609E-02  0.8707736E-01
        1   -1    0    0  501    0  0.00000000000E+00  0.00000000000E+00  0.13908105696E+04  0.13908105696E+04  0.50400001928E-02 0. -1.
       -1   -1    0    0    0  501  0.00000000000E+00  0.00000000000E+00 -0.58064892315E+03  0.58064892317E+03  0.50400001928E-02 0.  1.
    10030    2    1    2    0    0  0.00000000000E+00  0.00000000000E+00  0.81016164645E+03  0.19714594928E+04  0.17973009315E+04 0.  0.
        5    1    3    3  502    0  0.15524914473E+03 -0.65205597516E+03 -0.25147711276E+03  0.71592047039E+03  0.46999998093E+01 0.  1.
       -5    1    3    3    0  502 -0.15524914473E+03  0.65205597516E+03  0.10616387592E+04  0.12555390224E+04  0.46999998093E+01 0. -1.
</event>
<event>
 5   0  0.2054876E-05  0.1799374E+04  0.7818609E-02  0.8706633E-01
        1   -1    0    0  501    0  0.00000000000E+00  0.00000000000E+00  0.11397109412E+04  0.11397109412E+04  0.50400001928E-02 0. -1.
       -1   -1    0    0    0  501  0.00000000000E+00  0.00000000000E+00 -0.71021204850E+03  0.71021204852E+03  0.50400001928E-02 0.  1.
    10030    2    1    2    0    0  0.00000000000E+00  0.00000000000E+00  0.42949889266E+03  0.18499229897E+04  0.17993737158E+04 0.  0.
        5    1    3    3  502    0  0.30156492305E+03  0.81090423180E+03  0.46847655272E+03  0.98386962877E+03  0.46999998093E+01 0. -1.
       -5    1    3    3    0  502 -0.30156492305E+03 -0.81090423180E+03 -0.38977660061E+02  0.86605336092E+03  0.46999998093E+01 0.  1.
</event>
<event>
 5   0  0.2001811E-05  0.1795453E+04  0.7818609E-02  0.8708721E-01
        1   -1    0    0  501    0  0.00000000000E+00  0.00000000000E+00  0.10758343231E+04  0.10758343231E+04  0.50400001928E-02 0.  1.
       -1   -1    0    0    0  501  0.00000000000E+00  0.00000000000E+00 -0.74910525545E+03  0.74910525547E+03  0.50400001928E-02 0. -1.
    10030    2    1    2    0    0  0.00000000000E+00  0.00000000000E+00  0.32672906767E+03  0.18249395786E+04  0.17954533082E+04 0.  0.
        2    1    3    3  502    0 -0.59923075521E+03  0.61285186709E+03 -0.10794273794E+03  0.86389614171E+03  0.25500000920E-02 0. -1.
       -2    1    3    3    0  502  0.59923075521E+03 -0.61285186709E+03  0.43467180561E+03  0.96104343688E+03  0.25500000920E-02 0.  1.
</event>
<event>
 5   0  0.3983176E-05  0.1805008E+04  0.7818609E-02  0.8703641E-01
       -2   -1    0    0    0  501  0.00000000000E+00  0.00000000000E+00  0.61962180849E+03  0.61962180849E+03  0.25500000920E-02 0.  1.
        2   -1    0    0  501    0  0.00000000000E+00  0.00000000000E+00 -0.13145333928E+04  0.13145333928E+04  0.25500000920E-02 0. -1.
    10030    2    1    2    0    0  0.00000000000E+00  0.00000000000E+00 -0.69491158433E+03  0.19341552013E+04  0.18050080977E+04 0.  0.
        3    1    3    3  502    0  0.67708778352E+03  0.44731799231E+03 -0.77064627946E+03  0.11191232957E+04  0.10100000352E+00 0. -1.
       -3    1    3    3    0  502 -0.67708778352E+03 -0.44731799231E+03  0.75734695136E+02  0.81503190556E+03  0.10100000352E+00 0.  1.
</event>
<event>
 5   0  0.3993393E-05  0.1783396E+04  0.7818609E-02  0.8715179E-01
       -2   -1    0    0    0  501  0.00000000000E+00  0.00000000000E+00  0.61331549293E+03  0.61331549293E+03  0.25500000920E-02 0.  1.
        2   -1    0    0  501    0  0.00000000000E+00  0.00000000000E+00 -0.12964382102E+04  0.12964382102E+04  0.25500000920E-02 0. -1.
    10030    2    1    2    0    0  0.00000000000E+00  0.00000000000E+00 -0.68312271728E+03  0.19097537031E+04  0.17833963552E+04 0.  0.
        5    1    3    3  502    0 -0.38188056376E+03 -0.75289389769E+03 -0.64899395384E+03  0.10648461054E+04  0.46999998093E+01 0. -1.
       -5    1    3    3    0  502  0.38188056376E+03  0.75289389769E+03 -0.34128763443E+02  0.84490759770E+03  0.46999998093E+01 0.  1.
</event>
<event>
 5   0  0.4015729E-05  0.1800821E+04  0.7818609E-02  0.8705863E-01
       -2   -1    0    0    0  501  0.00000000000E+00  0.00000000000E+00  0.60043510673E+03  0.60043510674E+03  0.25500000920E-02 0. -1.
        2   -1    0    0  501    0  0.00000000000E+00  0.00000000000E+00 -0.13502523217E+04  0.13502523217E+04  0.25500000920E-02 0.  1.
    10030    2    1    2    0    0  0.00000000000E+00  0.00000000000E+00 -0.74981721496E+03  0.19506874284E+04  0.18008208094E+04 0.  0.
        2    1    3    3  502    0  0.80126669429E+03 -0.24933967231E+03 -0.72847759206E+03  0.11112507321E+04  0.25500000920E-02 0. -1.
       -2    1    3    3    0  502 -0.80126669429E+03  0.24933967231E+03 -0.21339622907E+02  0.83943669629E+03  0.25500000920E-02 0.  1.
</event>
<event>
 5   0  0.2001811E-05  0.1805528E+04  0.7818609E-02  0.8703365E-01
        1   -1    0    0  501    0  0.00000000000E+00  0.00000000000E+00  0.14552326442E+04  0.14552326443E+04  0.50400001928E-02 0.  1.
       -1   -1    0    0    0  501  0.00000000000E+00  0.00000000000E+00 -0.56003601716E+03  0.56003601718E+03  0.50400001928E-02 0. -1.
    10030    2    1    2    0    0  0.00000000000E+00  0.00000000000E+00  0.89519662708E+03  0.20152686614E+04  0.18055278388E+04 0.  0.
        2    1    3    3  502    0 -0.78276433606E+03 -0.39118220946E+03  0.19992220671E+03  0.89761484811E+03  0.25500000920E-02 0.  1.
       -2    1    3    3    0  502  0.78276433606E+03  0.39118220946E+03  0.69527442037E+03  0.11176538133E+04  0.25500000920E-02 0. -1.
</event>
<event>
 5   0  0.3984648E-05  0.1799068E+04  0.7818609E-02  0.8706795E-01
        2   -1    0    0  501    0  0.00000000000E+00  0.00000000000E+00  0.80749783367E+03  0.80749783368E+03  0.25500000920E-02 0.  1.
       -2   -1    0    0    0  501  0.00000000000E+00  0.00000000000E+00 -0.10020606739E+04  0.10020606739E+04  0.25500000920E-02 0. -1.
    10030    2    1    2    0    0  0.00000000000E+00  0.00000000000E+00 -0.19456284018E+03  0.18095585075E+04  0.17990684516E+04 0.  0.
        1    1    3    3  502    0  0.19143067556E+03 -0.65047293527E+02 -0.97891091293E+03  0.99957162296E+03  0.50400001928E-02 0. -1.
       -1    1    3    3    0  502 -0.19143067556E+03  0.65047293527E+02  0.78434807275E+03  0.80998688458E+03  0.50400001928E-02 0.  1.
</event>
<event>
 5   0  0.1446750E-05  0.1787933E+04  0.7818609E-02  0.8712743E-01
       -3   -1    0    0    0  501  0.00000000000E+00  0.00000000000E+00  0.64733690388E+03  0.64733691176E+03  0.10100000352E+00 0.  1.
        3   -1    0    0  501    0  0.00000000000E+00  0.00000000000E+00 -0.12345601304E+04  0.12345601346E+04  0.10100000352E+00 0. -1.
    10030    2    1    2    0    0  0.00000000000E+00  0.00000000000E+00 -0.58722322654E+03  0.18818970463E+04  0.17879332692E+04 0.  0.
        5    1    3    3  502    0 -0.82893782081E+03  0.26769610276E+03 -0.82168287129E+02  0.87497018898E+03  0.46999998093E+01 0.  1.
       -5    1    3    3    0  502  0.82893782081E+03 -0.26769610276E+03 -0.50505493941E+03  0.10069268573E+04  0.46999998093E+01 0. -1.
</event>
<event>
 5   0  0.1446750E-05  0.1789533E+04  0.7818609E-02  0.8711885E-01
       -4   -1    0    0    0  501  0.00000000000E+00  0.00000000000E+00  0.65747458122E+03  0.65747580780E+03  0.12699999809E+01 0. -1.
        4   -1    0    0  501    0  0.00000000000E+00  0.00000000000E+00 -0.12176983263E+04  0.12176989886E+04  0.12699999809E+01 0.  1.
    10030    2    1    2    0    0  0.00000000000E+00  0.00000000000E+00 -0.56022374507E+03  0.18751747964E+04  0.17895334231E+04 0.  0.
        5    1    3    3  502    0  0.57778576960E+03 -0.19367541465E+03 -0.96662909594E+03  0.11426900109E+04  0.46999998093E+01 0.  1.
       -5    1    3    3    0  502 -0.57778576960E+03  0.19367541465E+03  0.40640535086E+03  0.73248478551E+03  0.46999998093E+01 0. -1.
</event>
<event>
 5   0  0.2038338E-05  0.1794444E+04  0.7818609E-02  0.8709260E-01
       -1   -1    0    0    0  501  0.00000000000E+00  0.00000000000E+00  0.49787877895E+03  0.49787877897E+03  0.50400001928E-02 0. -1.
        1   -1    0    0  501    0  0.00000000000E+00  0.00000000000E+00 -0.16168742958E+04  0.16168742958E+04  0.50400001928E-02 0.  1.
    10030    2    1    2    0    0  0.00000000000E+00  0.00000000000E+00 -0.11189955169E+04  0.21147530748E+04  0.17944440924E+04 0.  0.
        1    1    3    3  502    0  0.49491278137E+03 -0.57745220524E+03  0.15200364935E+01  0.76052088797E+03  0.50400001928E-02 0. -1.
       -1    1    3    3    0  502 -0.49491278137E+03  0.57745220524E+03 -0.11205155534E+04  0.13542321868E+04  0.50400001928E-02 0.  1.
</event>
<event>
 5   0  0.1960300E-05  0.1799151E+04  0.7818609E-02  0.8706751E-01
       -1   -1    0    0    0  501  0.00000000000E+00  0.00000000000E+00  0.55153089039E+03  0.55153089041E+03  0.50400001928E-02 0. -1.
        1   -1    0    0  501    0  0.00000000000E+00  0.00000000000E+00 -0.14672540608E+04  0.14672540608E+04  0.50400001928E-02 0.  1.
    10030    2    1    2    0    0  0.00000000000E+00  0.00000000000E+00 -0.91572317041E+03  0.20187849512E+04  0.17991508426E+04 0.  0.
        3    1    3    3  502    0 -0.39953831077E+03 -0.65331368606E+03 -0.98748443879E+03  0.12496300097E+04  0.10100000352E+00 0.  1.
       -3    1    3    3    0  502  0.39953831077E+03  0.65331368606E+03  0.71761268380E+02  0.76915494148E+03  0.10100000352E+00 0. -1.
</event>
<event>
 5   0  0.2001811E-05  0.1800713E+04  0.7818609E-02  0.8705921E-01
       -1   -1    0    0    0  501  0.00000000000E+00  0.00000000000E+00  0.63535820939E+03  0.63535820941E+03  0.50400001928E-02 0. -1.
        1   -1    0    0  501    0  0.00000000000E+00  0.00000000000E+00 -0.12758812587E+04  0.12758812587E+04  0.50400001928E-02 0.  1.
    10030    2    1    2    0    0  0.00000000000E+00  0.00000000000E+00 -0.64052304927E+03  0.19112394681E+04  0.18007127832E+04 0.  0.
        2    1    3    3  502    0  0.22482896460E+03  0.81819891585E+03 -0.71033793906E+00  0.84852697884E+03  0.25500000920E-02 0. -1.
       -2    1    3    3    0  502 -0.22482896460E+03 -0.81819891585E+03 -0.63981271133E+03  0.10627124892E+04  0.25500000920E-02 0.  1.
</event>
<event>
 5   0  0.1960300E-05  0.1801441E+04  0.7818609E-02  0.8705533E-01
       -1   -1    0    0    0  501  0.00000000000E+00  0.00000000000E+00  0.11467883462E+04  0.11467883463E+04  0.50400001928E-02 0. -1.
        1   -1    0    0  501    0  0.00000000000E+00  0.00000000000E+00 -0.70745199518E+03  0.70745199520E+03  0.50400001928E-02 0.  1.
    10030    2    1    2    0    0  0.00000000000E+00  0.00000000000E+00  0.43933635107E+03  0.18542403415E+04  0.18014413159E+04 0.  0.
        3    1    3    3  502    0  0.59766051225E+03  0.64204518965E+03  0.43030616209E+03  0.97702789970E+03  0.10100000352E+00 0. -1.
       -3    1    3    3    0  502 -0.59766051225E+03 -0.64204518965E+03  0.90301889728E+01  0.87721244175E+03  0.10100000352E+00 0.  1.
</event>
<event>
 5   0  0.1906857E-05  0.1799964E+04  0.7818609E-02  0.8706319E-01
        1   -1    0    0  501    0  0.00000000000E+00  0.00000000000E+00  0.13224055592E+04  0.13224055592E+04  0.50400001928E-02 0.  1.
       -1   -1    0    0    0  501  0.00000000000E+00  0.00000000000E+00 -0.61249541095E+03  0.61249541097E+03  0.50400001928E-02 0. -1.
    10030    2    1    2    0    0  0.00000000000E+00  0.00000000000E+00  0.70991014829E+03  0.19349009702E+04  0.17999637068E+04 0.  0.
        4    1    3    3  502    0 -0.35810303701E+03  0.76736954929E+03  0.68255001812E+03  0.10876442205E+04  0.12699999809E+01 0.  1.
       -4    1    3    3    0  502  0.35810303701E+03 -0.76736954929E+03  0.27360130168E+02  0.84725674970E+03  0.12699999809E+01 0. -1.
</event>
<event>
 5   0  0.2001811E-05  0.1803618E+04  0.7818609E-02  0.8704378E-01
        1   -1    0    0  501    0  0.00000000000E+00  0.00000000000E+00  0.15387658575E+04  0.15387658575E+04  0.50400001928E-02 0. -1.
       -1   -1    0    0    0  501  0.00000000000E+00  0.00000000000E+00 -0.52851402389E+03  0.52851402392E+03  0.50400001928E-02 0.  1.
    10030    2    1    2    0    0  0.00000000000E+00  0.00000000000E+00  0.10102518336E+04  0.20672798814E+04  0.18036178478E+04 0.  0.
        2    1    3    3  502    0 -0.43010758472E+03 -0.78461379467E+03  0.63402967478E+03  0.10966334710E+04  0.25500000920E-02 0. -1.
       -2    1    3    3    0  502  0.43010758472E+03  0.78461379467E+03  0.37622215879E+03  0.97064641038E+03  0.25500000920E-02 0.  1.
</event>
<event>
 5   0  0.4015729E-05  0.1817518E+04  0.7818609E-02  0.8697039E-01
       -2   -1    0    0    0  501  0.00000000000E+00  0.00000000000E+00  0.66334960222E+03  0.66334960223E+03  0.25500000920E-02 0.  1.
        2   -1    0    0  501    0  0.00000000000E+00  0.00000000000E+00 -0.12449584349E+04  0.12449584349E+04  0.25500000920E-02 0. -1.
    10030    2    1    2    0    0  0.00000000000E+00  0.00000000000E+00 -0.58160883270E+03  0.19083080371E+04  0.18175177387E+04 0.  0.
        2    1    3    3  502    0 -0.17957485188E+03 -0.67409276544E+03 -0.90230126213E+03  0.11405243318E+04  0.25500000920E-02 0. -1.
       -2    1    3    3    0  502  0.17957485188E+03  0.67409276544E+03  0.32069242943E+03  0.76778370532E+03  0.25500000920E-02 0.  1.
</event>
<event>
 5   0  0.2001811E-05  0.1789970E+04  0.7818609E-02  0.8711652E-01
        1   -1    0    0  501    0  0.00000000000E+00  0.00000000000E+00  0.17699853466E+04  0.17699853466E+04  0.50400001928E-02 0. -1.
       -1   -1    0    0    0  501  0.00000000000E+00  0.00000000000E+00 -0.45254492081E+03  0.45254492083E+03  0.50400001928E-02 0.  1.
    10030    2    1    2    0    0  0.00000000000E+00  0.00000000000E+00  0.13174404258E+04  0.22225302675E+04  0.17899696965E+04 0.  0.
        2    1    3    3  502    0 -0.18967089610E+03  0.64760179741E+03  0.13886997738E+04  0.15439722143E+04  0.25500000920E-02 0. -1.
       -2    1    3    3    0  502  0.18967089610E+03 -0.64760179741E+03 -0.71259347963E+02  0.67855805316E+03  0.25500000920E-02 0.  1.
</event>
<event>
 5   0  0.2054876E-05  0.1798436E+04  0.7818609E-02  0.8707132E-01
        1   -1    0    0  501    0  0.00000000000E+00  0.00000000000E+00  0.14771052212E+04  0.14771052212E+04  0.50400001928E-02 0.  1.
       -1   -1    0    0    0  501  0.00000000000E+00  0.00000000000E+00 -0.54741709494E+03  0.54741709497E+03  0.50400001928E-02 0. -1.
    10030    2    1    2    0    0  0.00000000000E+00  0.00000000000E+00  0.92968812628E+03  0.20245223162E+04  0.17984355970E+04 0.  0.
        5    1    3    3  502    0 -0.23314730905E+03  0.20287452948E+03  0.14154250800E+04  0.14487808632E+04  0.46999998093E+01 0.  1.
       -5    1    3    3    0  502  0.23314730905E+03 -0.20287452948E+03 -0.48573695376E+03  0.57574145298E+03  0.46999998093E+01 0. -1.
</event>
<event>
 5   0  0.1446750E-05  0.1799874E+04  0.7818609E-02  0.8706367E-01
       -3   -1    0    0    0  501  0.00000000000E+00  0.00000000000E+00  0.74496876153E+03  0.74496876838E+03  0.10100000352E+00 0.  1.
        3   -1    0    0  501    0  0.00000000000E+00  0.00000000000E+00 -0.10871411723E+04  0.10871411770E+04  0.10100000352E+00 0. -1.
    10030    2    1    2    0    0  0.00000000000E+00  0.00000000000E+00 -0.34217241081E+03  0.18321099454E+04  0.17998735770E+04 0.  0.
        1    1    3    3  502    0  0.46642200963E+03 -0.57781297506E+03 -0.68859016437E+03  0.10127061468E+04  0.50400001928E-02 0. -1.
       -1    1    3    3    0  502 -0.46642200963E+03  0.57781297506E+03  0.34641775355E+03  0.81940379864E+03  0.50400001928E-02 0.  1.
</event>
<event>
 5   0  0.3983176E-05  0.1800838E+04  0.7818609E-02  0.8705854E-01
        2   -1    0    0  501    0  0.00000000000E+00  0.00000000000E+00  0.14327078149E+04  0.14327078150E+04  0.25500000920E-02 0.  1.
       -2   -1    0    0    0  501  0.00000000000E+00  0.00000000000E+00 -0.56588962367E+03  0.56588962367E+03  0.25500000920E-02 0. -1.
    10030    2    1    2    0    0  0.00000000000E+00  0.00000000000E+00  0.86681819128E+03  0.19985974386E+04  0.18008381229E+04 0.  0.
        3    1    3    3  502    0  0.77125445523E+03 -0.45806657807E+03  0.52006037114E+03  0.10368805257E+04  0.10100000352E+00 0. -1.
       -3    1    3    3    0  502 -0.77125445523E+03  0.45806657807E+03  0.34675782014E+03  0.96171691297E+03  0.10100000352E+00 0.  1.
</event>
<event>
 5   0  0.3983176E-05  0.1802373E+04  0.7818609E-02  0.8705038E-01
        2   -1    0    0  501    0  0.00000000000E+00  0.00000000000E+00  0.89728089173E+03  0.89728089173E+03  0.25500000920E-02 0.  1.
       -2   -1    0    0    0  501  0.00000000000E+00  0.00000000000E+00 -0.90510948313E+03  0.90510948314E+03  0.25500000920E-02 0. -1.
    10030    2    1    2    0    0  0.00000000000E+00  0.00000000000E+00 -0.78285914022E+01  0.18023903749E+04  0.18023733732E+04 0.  0.
        3    1    3    3  502    0 -0.18794245256E+03  0.70959339157E+03 -0.52669287504E+03  0.90346584974E+03  0.10100000352E+00 0. -1.
       -3    1    3    3    0  502  0.18794245256E+03 -0.70959339157E+03  0.51886428363E+03  0.89892452512E+03  0.10100000352E+00 0.  1.
</event>
<event>
 5   0  0.3909859E-05  0.1799117E+04  0.7818609E-02  0.8706769E-01
        2   -1    0    0  501    0  0.00000000000E+00  0.00000000000E+00  0.18215832300E+04  0.18215832300E+04  0.25500000920E-02 0. -1.
       -2   -1    0    0    0  501  0.00000000000E+00  0.00000000000E+00 -0.44423176834E+03  0.44423176834E+03  0.25500000920E-02 0.  1.
    10030    2    1    2    0    0  0.00000000000E+00  0.00000000000E+00  0.13773514616E+04  0.22658149983E+04  0.17991166048E+04 0.  0.
        4    1    3    3  502    0  0.14746705941E+03  0.88148536293E+03  0.55999107068E+03  0.10546822227E+04  0.12699999809E+01 0. -1.
       -4    1    3    3    0  502 -0.14746705941E+03 -0.88148536293E+03  0.81736039095E+03  0.12111327757E+04  0.12699999809E+01 0.  1.
</event>
<event>
 5   0  0.3983176E-05  0.1788605E+04  0.7818609E-02  0.8712383E-01
        2   -1    0    0  501    0  0.00000000000E+00  0.00000000000E+00  0.19542223706E+04  0.19542223706E+04  0.25500000920E-02 0. -1.
       -2   -1    0    0    0  501  0.00000000000E+00  0.00000000000E+00 -0.40925574602E+03  0.40925574603E+03  0.25500000920E-02 0.  1.
    10030    2    1    2    0    0  0.00000000000E+00  0.00000000000E+00  0.15449666246E+04  0.23634781166E+04  0.17886047458E+04 0.  0.
        3    1    3    3  502    0 -0.17244077658E+03 -0.40378489629E+03 -0.25702788138E+03  0.50876458791E+03  0.10100000352E+00 0.  1.
       -3    1    3    3    0  502  0.17244077658E+03  0.40378489629E+03  0.18019945059E+04  0.18547135287E+04  0.10100000352E+00 0. -1.
</event>
<event>
 5   0  0.3984648E-05  0.1800547E+04  0.7818609E-02  0.8706008E-01
       -2   -1    0    0    0  501  0.00000000000E+00  0.00000000000E+00  0.42676439561E+03  0.42676439562E+03  0.25500000920E-02 0. -1.
        2   -1    0    0  501    0  0.00000000000E+00  0.00000000000E+00 -0.18991572240E+04  0.18991572240E+04  0.25500000920E-02 0.  1.
    10030    2    1    2    0    0  0.00000000000E+00  0.00000000000E+00 -0.14723928284E+04  0.23259216197E+04  0.18005473444E+04 0.  0.
        1    1    3    3  502    0 -0.15250798215E+03 -0.64467773478E+03 -0.15236822813E+04  0.16614679536E+04  0.50400001928E-02 0.  1.
       -1    1    3    3    0  502  0.15250798215E+03  0.64467773478E+03  0.51289452901E+02  0.66445366606E+03  0.50400001928E-02 0. -1.
</event>
<event>
 5   0  0.3983176E-05  0.1802995E+04  0.7818609E-02  0.8704708E-01
        2   -1    0    0  501    0  0.00000000000E+00  0.00000000000E+00  0.41137002229E+03  0.41137002230E+03  0.25500000920E-02 0. -1.
       -2   -1    0    0    0  501  0.00000000000E+00  0.00000000000E+00 -0.19755886279E+04  0.19755886279E+04  0.25500000920E-02 0.  1.
    10030    2    1    2    0    0  0.00000000000E+00  0.00000000000E+00 -0.15642186056E+04  0.23869586502E+04  0.18029952167E+04 0.  0.
        3    1    3    3  502    0  0.81140641371E+03  0.28282348776E+03 -0.11430433184E+04  0.14300061298E+04  0.10100000352E+00 0.  1.
       -3    1    3    3    0  502 -0.81140641371E+03 -0.28282348776E+03 -0.42117528721E+03  0.95695252035E+03  0.10100000352E+00 0. -1.
</event>
<event>
 5   0  0.3993393E-05  0.1811806E+04  0.7818609E-02  0.8700046E-01
       -2   -1    0    0    0  501  0.00000000000E+00  0.00000000000E+00  0.14292947077E+04  0.14292947077E+04  0.25500000920E-02 0.  1.
        2   -1    0    0  501    0  0.00000000000E+00  0.00000000000E+00 -0.57417147733E+03  0.57417147734E+03  0.25500000920E-02 0. -1.
    10030    2    1    2    0    0  0.00000000000E+00  0.00000000000E+00  0.85512323039E+03  0.20034661851E+04  0.18118060094E+04 0.  0.
        5    1    3    3  502    0  0.82601369486E+03  0.14148147765E+03  0.80792967992E+03  0.11640825101E+04  0.46999998093E+01 0.  1.
       -5    1    3    3    0  502 -0.82601369486E+03 -0.14148147765E+03  0.47193550468E+02  0.83938367497E+03  0.46999998093E+01 0. -1.
</event>
<event>
 5   0  0.1960300E-05  0.1801301E+04  0.7818609E-02  0.8705608E-01
        1   -1    0    0  501    0  0.00000000000E+00  0.00000000000E+00  0.15950990903E+04  0.15950990903E+04  0.50400001928E-02 0.  1.
       -1   -1    0    0    0  501  0.00000000000E+00  0.00000000000E+00 -0.50853992544E+03  0.50853992546E+03  0.50400001928E-02 0. -1.
    10030    2    1    2    0    0  0.00000000000E+00  0.00000000000E+00  0.10865591649E+04  0.21036390158E+04  0.18013012768E+04 0.  0.
        3    1    3    3  502    0 -0.21352583909E+03  0.16116214380E+03 -0.46106974163E+03  0.53305894364E+03  0.10100000352E+00 0. -1.
       -3    1    3    3    0  502  0.21352583909E+03 -0.16116214380E+03  0.15476289065E+04  0.15705800721E+04  0.10100000352E+00 0.  1.
</event>
<event>
 5   0  0.2038338E-05  0.1800032E+04  0.7818609E-02  0.8706282E-01
        1   -1    0    0  501    0  0.00000000000E+00  0.00000000000E+00  0.13690040019E+04  0.13690040019E+04  0.50400001928E-02 0. -1.
       -1   -1    0    0    0  501  0.00000000000E+00  0.00000000000E+00 -0.59169232187E+03  0.59169232190E+03  0.50400001928E-02 0.  1.
    10030    2    1    2    0    0  0.00000000000E+00  0.00000000000E+00  0.77731168003E+03  0.19606963238E+04  0.18000323959E+04 0.  0.
        1    1    3    3  502    0  0.75178055550E+03  0.37994939099E+03  0.43353720658E+02  0.84345425985E+03  0.50400001928E-02 0.  1.
       -1    1    3    3    0  502 -0.75178055550E+03 -0.37994939099E+03  0.73395795937E+03  0.11172420640E+04  0.50400001928E-02 0. -1.
</event>
<event>
 5   0  0.1960300E-05  0.1800402E+04  0.7818609E-02  0.8706086E-01
       -1   -1    0    0    0  501  0.00000000000E+00  0.00000000000E+00  0.40249493041E+03  0.40249493045E+03  0.50400001928E-02 0.  1.
        1   -1    0    0  501    0  0.00000000000E+00  0.00000000000E+00 -0.20133476020E+04  0.20133476020E+04  0.50400001928E-02 0. -1.
    10030    2    1    2    0    0  0.00000000000E+00  0.00000000000E+00 -0.16108526716E+04  0.24158425325E+04  0.18004024028E+04 0.  0.
        3    1    3    3  502    0  0.85745852617E+02 -0.60739445680E+03  0.78639963483E+02  0.61843724940E+03  0.10100000352E+00 0.  1.
       -3    1    3    3    0  502 -0.85745852617E+02  0.60739445680E+03 -0.16894926351E+04  0.17974052831E+04  0.10100000352E+00 0. -1.
</event>
<event>
 5   0  0.2038338E-05  0.1799993E+04  0.7818609E-02  0.8706303E-01
        1   -1    0    0  501    0  0.00000000000E+00  0.00000000000E+00  0.56217565146E+03  0.56217565149E+03  0.50400001928E-02 0. -1.
       -1   -1    0    0    0  501  0.00000000000E+00  0.00000000000E+00 -0.14408195675E+04  0.14408195675E+04  0.50400001928E-02 0.  1.
    10030    2    1    2    0    0  0.00000000000E+00  0.00000000000E+00 -0.87864391608E+03  0.20029952190E+04  0.17999929767E+04 0.  0.
        1    1    3    3  502    0  0.85009738725E+03 -0.29544808563E+03 -0.44623015145E+03  0.10045279922E+04  0.50400001928E-02 0. -1.
       -1    1    3    3    0  502 -0.85009738725E+03  0.29544808563E+03 -0.43241376463E+03  0.99846722679E+03  0.50400001928E-02 0.  1.
</event>
<event>
 5   0  0.1906857E-05  0.1801158E+04  0.7818609E-02  0.8705684E-01
       -1   -1    0    0    0  501  0.00000000000E+00  0.00000000000E+00  0.56451205914E+03  0.56451205916E+03  0.50400001928E-02 0. -1.
        1   -1    0    0  501    0  0.00000000000E+00  0.00000000000E+00 -0.14367142643E+04  0.14367142643E+04  0.50400001928E-02 0.  1.
    10030    2    1    2    0    0  0.00000000000E+00  0.00000000000E+00 -0.87220220517E+03  0.20012263235E+04  0.18011579917E+04 0.  0.
        4    1    3    3  502    0  0.48404893872E+03  0.44169440525E+03  0.25029274940E+03  0.70145947567E+03  0.12699999809E+01 0. -1.
       -4    1    3    3    0  502 -0.48404893872E+03 -0.44169440525E+03 -0.11224949546E+04  0.12997668478E+04  0.12699999809E+01 0.  1.
</event>
<event>
 5   0  0.3909859E-05  0.1825944E+04  0.7818609E-02  0.8692623E-01
       -2   -1    0    0    0  501  0.00000000000E+00  0.00000000000E+00  0.79564678289E+03  0.79564678289E+03  0.25500000920E-02 0.  1.
        2   -1    0    0  501    0  0.00000000000E+00  0.00000000000E+00 -0.10475981995E+04  0.10475981995E+04  0.25500000920E-02 0. -1.
    10030    2    1    2    0    0  0.00000000000E+00  0.00000000000E+00 -0.25195141666E+03  0.18432449824E+04  0.18259442897E+04 0.  0.
        4    1    3    3  502    0  0.38994558304E+03 -0.53002193503E+03 -0.76485110138E+03  0.10089497656E+04  0.12699999809E+01 0. -1.
       -4    1    3    3    0  502 -0.38994558304E+03  0.53002193503E+03  0.51289968472E+03  0.83429521683E+03  0.12699999809E+01 0.  1.
</event>
<event>
 5   0  0.3993393E-05  0.1800358E+04  0.7818609E-02  0.8706109E-01
       -2   -1    0    0    0  501  0.00000000000E+00  0.00000000000E+00  0.56498328694E+03  0.56498328695E+03  0.25500000920E-02 0. -1.
        2   -1    0    0  501    0  0.00000000000E+00  0.00000000000E+00 -0.14342414976E+04  0.14342414976E+04  0.25500000920E-02 0.  1.
    10030    2    1    2    0    0  0.00000000000E+00  0.00000000000E+00 -0.86925821070E+03  0.19992247846E+04  0.18003582706E+04 0.  0.
        5    1    3    3  502    0 -0.16241738646E+03 -0.39149096501E+03 -0.13164875681E+04  0.13830423674E+04  0.46999998093E+01 0.  1.
       -5    1    3    3    0  502  0.16241738646E+03  0.39149096501E+03  0.44722935741E+03  0.61618241717E+03  0.46999998093E+01 0. -1.
</event>
<event>
 5   0  0.2038338E-05  0.1798973E+04  0.7818609E-02  0.8706846E-01
       -1   -1    0    0    0  501  0.00000000000E+00  0.00000000000E+00  0.15327537260E+04  0.15327537260E+04  0.50400001928E-02 0. -1.
        1   -1    0    0  501    0  0.00000000000E+00  0.00000000000E+00 -0.52785758971E+03  0.52785758973E+03  0.50400001928E-02 0.  1.
    10030    2    1    2    0    0  0.00000000000E+00  0.00000000000E+00  0.10048961363E+04  0.20606113157E+04  0.17989726929E+04 0.  0.
        1    1    3    3  502    0  0.57299421546E+03 -0.37184889350E+03  0.11727804590E+04  0.13572059444E+04  0.50400001928E-02 0. -1.
       -1    1    3    3    0  502 -0.57299421546E+03  0.37184889350E+03 -0.16788432271E+03  0.70340537131E+03  0.50400001928E-02 0.  1.
</event>
<event>
 5   0  0.3983176E-05  0.1802286E+04  0.7818609E-02  0.8705085E-01
       -2   -1    0    0    0  501  0.00000000000E+00  0.00000000000E+00  0.88353167065E+03  0.88353167066E+03  0.25500000920E-02 0.  1.
        2   -1    0    0  501    0  0.00000000000E+00  0.00000000000E+00 -0.91910548429E+03  0.91910548429E+03  0.25500000920E-02 0. -1.
    10030    2    1    2    0    0  0.00000000000E+00  0.00000000000E+00 -0.35573813634E+02  0.18026371549E+04  0.18022861083E+04 0.  0.
        3    1    3    3  502    0 -0.53733985142E+03 -0.28138399781E+03  0.64878699113E+03  0.88816419665E+03  0.10100000352E+00 0.  1.
       -3    1    3    3    0  502  0.53733985142E+03  0.28138399781E+03 -0.68436080477E+03  0.91447295829E+03  0.10100000352E+00 0. -1.
</event>
<event>
 5   0  0.3984648E-05  0.1802067E+04  0.7818609E-02  0.8705201E-01
       -2   -1    0    0    0  501  0.00000000000E+00  0.00000000000E+00  0.59929749366E+03  0.59929749367E+03  0.25500000920E-02 0.  1.
        2   -1    0    0  501    0  0.00000000000E+00  0.00000000000E+00 -0.13546881753E+04  0.13546881753E+04  0.25500000920E-02 0. -1.
    10030    2    1    2    0    0  0.00000000000E+00  0.00000000000E+00 -0.75539068168E+03  0.19539856690E+04  0.18020668447E+04 0.  0.
        1    1    3    3  502    0 -0.24394211197E+03 -0.52193605153E+03  0.37348159814E+03  0.68659558697E+03  0.50400001928E-02 0.  1.
       -1    1    3    3    0  502  0.24394211197E+03  0.52193605153E+03 -0.11288722798E+04  0.12673900820E+04  0.50400001928E-02 0. -1.
</event>
<event>
 5   0  0.4015729E-05  0.1796916E+04  0.7818609E-02  0.8707941E-01
        2   -1    0    0  501    0  0.00000000000E+00  0.00000000000E+00  0.20416865030E+04  0.20416865030E+04  0.25500000920E-02 0. -1.
       -2   -1    0    0    0  501  0.00000000000E+00  0.00000000000E+00 -0.39537257815E+03  0.39537257816E+03  0.25500000920E-02 0.  1.
    10030    2    1    2    0    0  0.00000000000E+00  0.00000000000E+00  0.16463139249E+04  0.24370590812E+04  0.17969160876E+04 0.  0.
        2    1    3    3  502    0 -0.41638209827E+03 -0.58186136134E+03  0.15601489209E+04  0.17163919573E+04  0.25500000920E-02 0. -1.
       -2    1    3    3    0  502  0.41638209827E+03  0.58186136134E+03  0.86165003970E+02  0.72066712392E+03  0.25500000920E-02 0.  1.
</event>
<event>
 5   0  0.2001811E-05  0.1804892E+04  0.7818609E-02  0.8703702E-01
        1   -1    0    0  501    0  0.00000000000E+00  0.00000000000E+00  0.21828230998E+04  0.21828230998E+04  0.50400001928E-02 0. -1.
       -1   -1    0    0    0  501  0.00000000000E+00  0.00000000000E+00 -0.37309878979E+03  0.37309878983E+03  0.50400001928E-02 0.  1.
    10030    2    1    2    0    0  0.00000000000E+00  0.00000000000E+00  0.18097243100E+04  0.25559218896E+04  0.18048918604E+04 0.  0.
        2    1    3    3  502    0 -0.18914617883E+03  0.60299025177E+03 -0.74402578868E+01  0.63200385928E+03  0.25500000920E-02 0.  1.
       -2    1    3    3    0  502  0.18914617883E+03 -0.60299025177E+03  0.18171645679E+04  0.19239180303E+04  0.25500000920E-02 0. -1.
</event>
<event>
 5   0  0.1906857E-05  0.1792749E+04  0.7818609E-02  0.8710165E-01
       -1   -1    0    0    0  501  0.00000000000E+00  0.00000000000E+00  0.47130089242E+03  0.47130089244E+03  0.50400001928E-02 0. -1.
        1   -1    0    0  501    0  0.00000000000E+00  0.00000000000E+00 -0.17048283081E+04  0.17048283081E+04  0.50400001928E-02 0.  1.
    10030    2    1    2    0    0  0.00000000000E+00  0.00000000000E+00 -0.12335274157E+04  0.21761292006E+04  0.17927488425E+04 0.  0.
        4    1    3    3  502    0  0.38844484642E+03 -0.39375894425E+02  0.36266073912E+03  0.53288299313E+03  0.12699999809E+01 0. -1.
       -4    1    3    3    0  502 -0.38844484642E+03  0.39375894425E+02 -0.15961881548E+04  0.16432462074E+04  0.12699999809E+01 0.  1.
</event>
<event>
 5   0  0.3993393E-05  0.1783531E+04  0.7818609E-02  0.8715107E-01
       -2   -1    0    0    0  501  0.00000000000E+00  0.00000000000E+00  0.63170212246E+03  0.63170212247E+03  0.25500000920E-02 0. -1.
        2   -1    0    0  501    0  0.00000000000E+00  0.00000000000E+00 -0.12588939062E+04  0.12588939062E+04  0.25500000920E-02 0.  1.
    10030    2    1    2    0    0  0.00000000000E+00  0.00000000000E+00 -0.62719178377E+03  0.18905960287E+04  0.17835312753E+04 0.  0.
        5    1    3    3  502    0  0.35076662196E+02  0.64845901359E+03 -0.96142440381E+03  0.11602105149E+04  0.46999998093E+01 0.  1.
       -5    1    3    3    0  502 -0.35076662196E+02 -0.64845901359E+03  0.33423262004E+03  0.73038551385E+03  0.46999998093E+01 0. -1.
</event>
<event>
 5   0  0.1446750E-05  0.1816606E+04  0.7818609E-02  0.8697518E-01
        4   -1    0    0  501    0  0.00000000000E+00  0.00000000000E+00  0.10420991911E+04  0.10420999649E+04  0.12699999809E+01 0. -1.
       -4   -1    0    0    0  501  0.00000000000E+00  0.00000000000E+00 -0.79168366011E+03  0.79168467876E+03  0.12699999809E+01 0.  1.
    10030    2    1    2    0    0  0.00000000000E+00  0.00000000000E+00  0.25041553095E+03  0.18337846437E+04  0.18166062263E+04 0.  0.
        3    1    3    3  502    0 -0.14369037777E+03  0.71971808546E+03  0.66540696681E+03  0.99066012783E+03  0.10100000352E+00 0. -1.
       -3    1    3    3    0  502  0.14369037777E+03 -0.71971808546E+03 -0.41499143586E+03  0.84312451586E+03  0.10100000352E+00 0.  1.
</event>
<event>
 5   0  0.2054876E-05  0.1801770E+04  0.7818609E-02  0.8705359E-01
       -1   -1    0    0    0  501  0.00000000000E+00  0.00000000000E+00  0.73369710313E+03  0.73369710314E+03  0.50400001928E-02 0.  1.
        1   -1    0    0  501    0  0.00000000000E+00  0.00000000000E+00 -0.11061694699E+04  0.11061694699E+04  0.50400001928E-02 0. -1.
    10030    2    1    2    0    0  0.00000000000E+00  0.00000000000E+00 -0.37247236677E+03  0.18398665731E+04  0.18017695032E+04 0.  0.
        5    1    3    3  502    0 -0.24527705892E+03  0.18462157016E+03  0.67862253432E+03  0.74484669154E+03  0.46999998093E+01 0.  1.
       -5    1    3    3    0  502  0.24527705892E+03 -0.18462157016E+03 -0.10510949011E+04  0.10950198815E+04  0.46999998093E+01 0. -1.
</event>
<event>
 5   0  0.1906857E-05  0.1792673E+04  0.7818609E-02  0.8710206E-01
        1   -1    0    0  501    0  0.00000000000E+00  0.00000000000E+00  0.79092587657E+03  0.79092587659E+03  0.50400001928E-02 0. -1.
       -1   -1    0    0    0  501  0.00000000000E+00  0.00000000000E+00 -0.10157956606E+04  0.10157956606E+04  0.50400001928E-02 0.  1.
    10030    2    1    2    0    0  0.00000000000E+00  0.00000000000E+00 -0.22486978403E+03  0.18067215372E+04  0.17926729465E+04 0.  0.
        4    1    3    3  502    0 -0.67437063188E+03  0.26312938737E+03  0.42029487175E+03  0.83705568259E+03  0.12699999809E+01 0. -1.
       -4    1    3    3    0  502  0.67437063188E+03 -0.26312938737E+03 -0.64516465577E+03  0.96966585461E+03  0.12699999809E+01 0.  1.
</event>
<event>
 5   0  0.1960300E-05  0.1800767E+04  0.7818609E-02  0.8705892E-01
       -1   -1    0    0    0  501  0.00000000000E+00  0.00000000000E+00  0.17333632247E+04  0.17333632247E+04  0.50400001928E-02 0. -1.
        1   -1    0    0  501    0  0.00000000000E+00  0.00000000000E+00 -0.46769794070E+03  0.46769794073E+03  0.50400001928E-02 0.  1.
    10030    2    1    2    0    0  0.00000000000E+00  0.00000000000E+00  0.12656652840E+04  0.22010611654E+04  0.18007669596E+04 0.  0.
        3    1    3    3  502    0  0.72616249000E+03  0.35960599365E+03  0.15307453935E+03  0.82465766070E+03  0.10100000352E+00 0. -1.
       -3    1    3    3    0  502 -0.72616249000E+03 -0.35960599365E+03  0.11125907447E+04  0.13764035047E+04  0.10100000352E+00 0.  1.
</event>
<event>
 5   0  0.2054876E-05  0.1794565E+04  0.7818609E-02  0.8709195E-01
       -1   -1    0    0    0  501  0.00000000000E+00  0.00000000000E+00  0.10151522919E+04  0.10151522919E+04  0.50400001928E-02 0.  1.
        1   -1    0    0  501    0  0.00000000000E+00  0.00000000000E+00 -0.79309887536E+03  0.79309887537E+03  0.50400001928E-02 0. -1.
    10030    2    1    2    0    0  0.00000000000E+00  0.00000000000E+00  0.22205341651E+03  0.18082511673E+04  0.17945652855E+04 0.  0.
        5    1    3    3  502    0 -0.16128175103E+03  0.20673212261E+00 -0.77836102271E+03  0.79490868509E+03  0.46999998093E+01 0. -1.
       -5    1    3    3    0  502  0.16128175103E+03 -0.20673212261E+00  0.10004144392E+04  0.10133424822E+04  0.46999998093E+01 0.  1.
</event>
<event>
 5   0  0.2038338E-05  0.1804211E+04  0.7818609E-02  0.8704063E-01
        1   -1    0    0  501    0  0.00000000000E+00  0.00000000000E+00  0.10533097646E+04  0.10533097646E+04  0.50400001928E-02 0.  1.
       -1   -1    0    0    0  501  0.00000000000E+00  0.00000000000E+00 -0.77260677843E+03  0.77260677845E+03  0.50400001928E-02 0. -1.
    10030    2    1    2    0    0  0.00000000000E+00  0.00000000000E+00  0.28070298614E+03  0.18259165430E+04  0.18042109233E+04 0.  0.
        1    1    3    3  502    0  0.77310946900E+02  0.62502512986E+03  0.79400169094E+03  0.10134456476E+04  0.50400001928E-02 0.  1.
       -1    1    3    3    0  502 -0.77310946900E+02 -0.62502512986E+03 -0.51329870481E+03  0.81247089539E+03  0.50400001928E-02 0. -1.
</event>
<event>
 5   0  0.1446750E-05  0.1800565E+04  0.7818609E-02  0.8705999E-01
        3   -1    0    0  501    0  0.00000000000E+00  0.00000000000E+00  0.75153917111E+03  0.75153917789E+03  0.10100000352E+00 0.  1.
       -3   -1    0    0    0  501  0.00000000000E+00  0.00000000000E+00 -0.10784642406E+04  0.10784642453E+04  0.10100000352E+00 0. -1.
    10030    2    1    2    0    0  0.00000000000E+00  0.00000000000E+00 -0.32692506949E+03  0.18300034232E+04  0.18005645026E+04 0.  0.
        1    1    3    3  502    0 -0.87691184584E+03  0.12100229565E+03  0.32070341334E+01  0.88522665234E+03  0.50400001928E-02 0.  1.
       -1    1    3    3    0  502  0.87691184584E+03 -0.12100229565E+03 -0.33013210363E+03  0.94477677088E+03  0.50400001928E-02 0. -1.
</event>
<event>
 5   0  0.3984648E-05  0.1814063E+04  0.7818609E-02  0.8698856E-01
       -2   -1    0    0    0  501  0.00000000000E+00  0.00000000000E+00  0.42536531621E+03  0.42536531622E+03  0.25500000920E-02 0.  1.
        2   -1    0    0  501    0  0.00000000000E+00  0.00000000000E+00 -0.19341171030E+04  0.19341171030E+04  0.25500000920E-02 0. -1.
    10030    2    1    2    0    0  0.00000000000E+00  0.00000000000E+00 -0.15087517868E+04  0.23594824193E+04  0.18140632107E+04 0.  0.
        1    1    3    3  502    0 -0.41472482064E+02  0.36004675366E+03 -0.18358451098E+04  0.18712778786E+04  0.50400001928E-02 0. -1.
       -1    1    3    3    0  502  0.41472482064E+02 -0.36004675366E+03  0.32709332298E+03  0.48820454069E+03  0.50400001928E-02 0.  1.
</event>
<event>
 5   0  0.2038338E-05  0.1800035E+04  0.7818609E-02  0.8706281E-01
        1   -1    0    0  501    0  0.00000000000E+00  0.00000000000E+00  0.68159864865E+03  0.68159864867E+03  0.50400001928E-02 0.  1.
       -1   -1    0    0    0  501  0.00000000000E+00  0.00000000000E+00 -0.11884286976E+04  0.11884286976E+04  0.50400001928E-02 0. -1.
    10030    2    1    2    0    0  0.00000000000E+00  0.00000000000E+00 -0.50683004896E+03  0.18700273463E+04  0.18000348823E+04 0.  0.
        1    1    3    3  502    0  0.42117057640E+03  0.77072511397E+03 -0.49228631774E+02  0.87967341322E+03  0.50400001928E-02 0.  1.
       -1    1    3    3    0  502 -0.42117057640E+03 -0.77072511397E+03 -0.45760141719E+03  0.99035393308E+03  0.50400001928E-02 0. -1.
</event>
<event>
 5   0  0.3909859E-05  0.1787427E+04  0.7818609E-02  0.8713015E-01
       -2   -1    0    0    0  501  0.00000000000E+00  0.00000000000E+00  0.40989166240E+03  0.40989166241E+03  0.25500000920E-02 0. -1.
        2   -1    0    0  501    0  0.00000000000E+00  0.00000000000E+00 -0.19486208662E+04  0.19486208662E+04  0.25500000920E-02 0.  1.
    10030    2    1    2    0    0  0.00000000000E+00  0.00000000000E+00 -0.15387292038E+04  0.23585125286E+04  0.17874265817E+04 0.  0.
        4    1    3    3  502    0 -0.81038651981E+03  0.22807685760E+03 -0.11651633790E+04  0.14374813658E+04  0.12699999809E+01 0.  1.
       -4    1    3    3    0  502  0.81038651981E+03 -0.22807685760E+03 -0.37356582483E+03  0.92103116280E+03  0.12699999809E+01 0. -1.
</event>
<event>
 5   0  0.3993393E-05  0.1803475E+04  0.7818609E-02  0.8704453E-01
        2   -1    0    0  501    0  0.00000000000E+00  0.00000000000E+00  0.95470700353E+03  0.95470700353E+03  0.25500000920E-02 0.  1.
       -2   -1    0    0    0  501  0.00000000000E+00  0.00000000000E+00 -0.85170732454E+03  0.85170732454E+03  0.25500000920E-02 0. -1.
    10030    2    1    2    0    0  0.00000000000E+00  0.00000000000E+00  0.10299967899E+03  0.18064143281E+04  0.18034754755E+04 0.  0.
        5    1    3    3  502    0  0.26000159717E+03  0.84726127498E+03 -0.11507316956E+03  0.89370936157E+03  0.46999998093E+01 0. -1.
       -5    1    3    3    0  502 -0.26000159717E+03 -0.84726127498E+03  0.21807284855E+03  0.91270496650E+03  0.46999998093E+01 0.  1.
</event>
<event>
 5   0  0.2001811E-05  0.1798057E+04  0.7818609E-02  0.8707333E-01
       -1   -1    0    0    0  501  0.00000000000E+00  0.00000000000E+00  0.75393363639E+03  0.75393363641E+03  0.50400001928E-02 0.  1.
        1   -1    0    0  501    0  0.00000000000E+00  0.00000000000E+00 -0.10720468871E+04  0.10720468871E+04  0.50400001928E-02 0. -1.
    10030    2    1    2    0    0  0.00000000000E+00  0.00000000000E+00 -0.31811325069E+03  0.18259805235E+04  0.17980569602E+04 0.  0.
        2    1    3    3  502    0 -0.43212210470E+03 -0.78786508860E+03 -0.13048977281E+03  0.90801348670E+03  0.25500000920E-02 0.  1.
       -2    1    3    3    0  502  0.43212210470E+03  0.78786508860E+03 -0.18762347788E+03  0.91796703681E+03  0.25500000920E-02 0. -1.
</event>
<event>
 5   0  0.2038338E-05  0.1801024E+04  0.7818609E-02  0.8705755E-01
       -1   -1    0    0    0  501  0.00000000000E+00  0.00000000000E+00  0.43174194640E+03  0.43174194643E+03  0.50400001928E-02 0.  1.
        1   -1    0    0  501    0  0.00000000000E+00  0.00000000000E+00 -0.18782548797E+04  0.18782548797E+04  0.50400001928E-02 0. -1.
    10030    2    1    2    0    0  0.00000000000E+00  0.00000000000E+00 -0.14465129333E+04  0.23099968261E+04  0.18010235064E+04 0.  0.
        1    1    3    3  502    0  0.38408964436E+02 -0.66664020900E+03  0.51669914181E+02  0.66974188824E+03  0.50400001928E-02 0.  1.
       -1    1    3    3    0  502 -0.38408964436E+02  0.66664020900E+03 -0.14981828474E+04  0.16402549379E+04  0.50400001928E-02 0. -1.
</event>
<event>
 5   0  0.4015729E-05  0.1810295E+04  0.7818609E-02  0.8700844E-01
       -2   -1    0    0    0  501  0.00000000000E+00  0.00000000000E+00  0.11074932736E+04  0.11074932737E+04  0.25500000920E-02 0.  1.
        2   -1    0    0  501    0  0.00000000000E+00  0.00000000000E+00 -0.73977126367E+03  0.73977126368E+03  0.25500000920E-02 0. -1.
    10030    2    1    2    0    0  0.00000000000E+00  0.00000000000E+00  0.36772200998E+03  0.18472645373E+04  0.18102946706E+04 0.  0.
        2    1    3    3  502    0 -0.40530038868E+03  0.10804936055E+03  0.10023314659E+04  0.10865594493E+04  0.25500000920E-02 0.  1.
       -2    1    3    3    0  502  0.40530038868E+03 -0.10804936055E+03 -0.63460945591E+03  0.76070508801E+03  0.25500000920E-02 0. -1.
</event>
<event>
 5   0  0.1960300E-05  0.1793343E+04  0.7818609E-02  0.8709847E-01
        1   -1    0    0  501    0  0.00000000000E+00  0.00000000000E+00  0.10594696895E+04  0.10594696895E+04  0.50400001928E-02 0.  1.
       -1   -1    0    0    0  501  0.00000000000E+00  0.00000000000E+00 -0.75888920965E+03  0.75888920967E+03  0.50400001928E-02 0. -1.
    10030    2    1    2    0    0  0.00000000000E+00  0.00000000000E+00  0.30058047982E+03  0.18183588992E+04  0.17933433752E+04 0.  0.
        3    1    3    3  502    0  0.18025777656E+03  0.85208827133E+03 -0.65927878190E+02  0.87343791048E+03  0.10100000352E+00 0. -1.
       -3    1    3    3    0  502 -0.18025777656E+03 -0.85208827133E+03  0.36650835801E+03  0.94492098867E+03  0.10100000352E+00 0.  1.
</event>
<event>
 5   0  0.1960300E-05  0.1791769E+04  0.7818609E-02  0.8710689E-01
        1   -1    0    0  501    0  0.00000000000E+00  0.00000000000E+00  0.20368106286E+04  0.20368106286E+04  0.50400001928E-02 0. -1.
       -1   -1    0    0    0  501  0.00000000000E+00  0.00000000000E+00 -0.39405201275E+03  0.39405201278E+03  0.50400001928E-02 0.  1.
    10030    2    1    2    0    0  0.00000000000E+00  0.00000000000E+00  0.16427586158E+04  0.24308626414E+04  0.17917693243E+04 0.  0.
        3    1    3    3  502    0  0.43614899517E+03 -0.20728063300E+03  0.18451294152E+04  0.19072739121E+04  0.10100000352E+00 0. -1.
       -3    1    3    3    0  502 -0.43614899517E+03  0.20728063300E+03 -0.20237079934E+03  0.52358872928E+03  0.10100000352E+00 0.  1.
</event>
<event>
 5   0  0.4015729E-05  0.1798485E+04  0.7818609E-02  0.8707105E-01
       -2   -1    0    0    0  501  0.00000000000E+00  0.00000000000E+00  0.79691907937E+03  0.79691907938E+03  0.25500000920E-02 0. -1.
        2   -1    0    0  501    0  0.00000000000E+00  0.00000000000E+00 -0.10147043173E+04  0.10147043173E+04  0.25500000920E-02 0.  1.
    10030    2    1    2    0    0  0.00000000000E+00  0.00000000000E+00 -0.21778523788E+03  0.18116233966E+04  0.17984851741E+04 0.  0.
        2    1    3    3  502    0 -0.36274679946E+02  0.88589520550E+03 -0.26002553381E+03  0.92398021937E+03  0.25500000920E-02 0.  1.
       -2    1    3    3    0  502  0.36274679946E+02 -0.88589520550E+03  0.42240295929E+02  0.88764317727E+03  0.25500000920E-02 0. -1.
</event>
<event>
 5   0  0.2054876E-05  0.1798607E+04  0.7818609E-02  0.8707041E-01
        1   -1    0    0  501    0  0.00000000000E+00  0.00000000000E+00  0.54426105207E+03  0.54426105209E+03  0.50400001928E-02 0.  1.
       -1   -1    0    0    0  501  0.00000000000E+00  0.00000000000E+00 -0.14859539341E+04  0.14859539341E+04  0.50400001928E-02 0. -1.
    10030    2    1    2    0    0  0.00000000000E+00  0.00000000000E+00 -0.94169288199E+03  0.20302149862E+04  0.17986070738E+04 0.  0.
        5    1    3    3  502    0  0.74586663987E+03 -0.28326066529E+03 -0.24798865669E+01  0.79786082045E+03  0.46999998093E+01 0. -1.
       -5    1    3    3    0  502 -0.74586663987E+03  0.28326066529E+03 -0.93921299542E+03  0.12323541657E+04  0.46999998093E+01 0.  1.
</event>
<event>
 5   0  0.3983176E-05  0.1793533E+04  0.7818609E-02  0.8709746E-01
        2   -1    0    0  501    0  0.00000000000E+00  0.00000000000E+00  0.15029195239E+04  0.15029195239E+04  0.25500000920E-02 0. -1.
       -2   -1    0    0    0  501  0.00000000000E+00  0.00000000000E+00 -0.53508502849E+03  0.53508502849E+03  0.25500000920E-02 0.  1.
    10030    2    1    2    0    0  0.00000000000E+00  0.00000000000E+00  0.96783449540E+03  0.20380045524E+04  0.17935325325E+04 0.  0.
        3    1    3    3  502    0  0.75334341256E+03 -0.34770650553E+03  0.87053512398E+03  0.12026044751E+04  0.10100000352E+00 0. -1.
       -3    1    3    3    0  502 -0.75334341256E+03  0.34770650553E+03  0.97299371415E+02  0.83540007728E+03  0.10100000352E+00 0.  1.
</event>
<event>
 5   0  0.3983176E-05  0.1807962E+04  0.7818609E-02  0.8702077E-01
        2   -1    0    0  501    0  0.00000000000E+00  0.00000000000E+00  0.15267322992E+04  0.15267322992E+04  0.25500000920E-02 0.  1.
       -2   -1    0    0    0  501  0.00000000000E+00  0.00000000000E+00 -0.53524898162E+03  0.53524898163E+03  0.25500000920E-02 0. -1.
    10030    2    1    2    0    0  0.00000000000E+00  0.00000000000E+00  0.99148331760E+03  0.20619812808E+04  0.18079622876E+04 0.  0.
        3    1    3    3  502    0  0.49148029744E+03 -0.44131825373E+02 -0.36809321863E+03  0.61562417804E+03  0.10100000352E+00 0. -1.
       -3    1    3    3    0  502 -0.49148029744E+03  0.44131825373E+02  0.13595765362E+04  0.14463571028E+04  0.10100000352E+00 0.  1.
</event>
<event>
 5   0  0.4015729E-05  0.1802538E+04  0.7818609E-02  0.8704951E-01
        2   -1    0    0  501    0  0.00000000000E+00  0.00000000000E+00  0.12204595782E+04  0.12204595782E+04  0.25500000920E-02 0.  1.
       -2   -1    0    0    0  501  0.00000000000E+00  0.00000000000E+00 -0.66555739356E+03  0.66555739357E+03  0.25500000920E-02 0. -1.
    10030    2    1    2    0    0  0.00000000000E+00  0.00000000000E+00  0.55490218461E+03  0.18860169717E+04  0.18025380948E+04 0.  0.
        2    1    3    3  502    0  0.57764763644E+02  0.85900730806E+03  0.55635860740E+03  0.10250683993E+04  0.25500000920E-02 0.  1.
       -2    1    3    3    0  502 -0.57764763644E+02 -0.85900730806E+03 -0.14564227888E+01  0.86094857244E+03  0.25500000920E-02 0. -1.
</event>
<event>
 5   0  0.1906857E-05  0.1801856E+04  0.7818609E-02  0.8705313E-01
       -1   -1    0    0    0  501  0.00000000000E+00  0.00000000000E+00  0.49876551453E+03  0.49876551456E+03  0.50400001928E-02 0. -1.
        1   -1    0    0  501    0  0.00000000000E+00  0.00000000000E+00 -0.16273595433E+04  0.16273595433E+04  0.50400001928E-02 0.  1.
    10030    2    1    2    0    0  0.00000000000E+00  0.00000000000E+00 -0.11285940288E+04  0.21261250579E+04  0.18018555103E+04 0.  0.
        4    1    3    3  502    0 -0.15414279924E+03 -0.28956129764E+03 -0.15543871791E+04  0.15886242045E+04  0.12699999809E+01 0.  1.
       -4    1    3    3    0  502  0.15414279924E+03  0.28956129764E+03  0.42579315031E+03  0.53750085339E+03  0.12699999809E+01 0. -1.
</event>
<event>
 5   0  0.3984648E-05  0.1798337E+04  0.7818609E-02  0.8707184E-01
        2   -1    0    0  501    0  0.00000000000E+00  0.00000000000E+00  0.10784183380E+04  0.10784183380E+04  0.25500000920E-02 0. -1.
       -2   -1    0    0    0  501  0.00000000000E+00  0.00000000000E+00 -0.74971298349E+03  0.74971298350E+03  0.25500000920E-02 0.  1.
    10030    2    1    2    0    0  0.00000000000E+00  0.00000000000E+00  0.32870535447E+03  0.18281313215E+04  0.17983372649E+04 0.  0.
        1    1    3    3  502    0 -0.35209707407E+02  0.88049797430E+03 -0.17461853855E+02  0.88137467777E+03  0.50400001928E-02 0.  1.
       -1    1    3    3    0  502  0.35209707407E+02 -0.88049797430E+03  0.34616720832E+03  0.94675664370E+03  0.50400001928E-02 0. -1.
</event>
<event>
 5   0  0.4015729E-05  0.1804760E+04  0.7818609E-02  0.8703772E-01
        2   -1    0    0  501    0  0.00000000000E+00  0.00000000000E+00  0.17223662013E+04  0.17223662013E+04  0.25500000920E-02 0.  1.
       -2   -1    0    0    0  501  0.00000000000E+00  0.00000000000E+00 -0.47277394842E+03  0.47277394843E+03  0.25500000920E-02 0. -1.
    10030    2    1    2    0    0  0.00000000000E+00  0.00000000000E+00  0.12495922529E+04  0.21951401498E+04  0.18047602274E+04 0.  0.
        2    1    3    3  502    0 -0.21583349447E+03  0.58198043443E+03  0.14214573681E+04  0.15510726523E+04  0.25500000920E-02 0.  1.
       -2    1    3    3    0  502  0.21583349447E+03 -0.58198043443E+03 -0.17186511523E+03  0.64406749742E+03  0.25500000920E-02 0. -1.
</event>
<event>
 5   0  0.3984648E-05  0.1794778E+04  0.7818609E-02  0.8709082E-01
       -2   -1    0    0    0  501  0.00000000000E+00  0.00000000000E+00  0.50259162837E+03  0.50259162837E+03  0.25500000920E-02 0.  1.
        2   -1    0    0  501    0  0.00000000000E+00  0.00000000000E+00 -0.16023085034E+04  0.16023085034E+04  0.25500000920E-02 0. -1.
    10030    2    1    2    0    0  0.00000000000E+00  0.00000000000E+00 -0.10997168750E+04  0.21049001318E+04  0.17947778023E+04 0.  0.
        1    1    3    3  502    0 -0.51664921997E+03  0.10667718119E+02 -0.14102963366E+04  0.15019906704E+04  0.50400001928E-02 0. -1.
       -1    1    3    3    0  502  0.51664921997E+03 -0.10667718119E+02  0.31057946158E+03  0.60290946143E+03  0.50400001928E-02 0.  1.
</event>
<event>
 5   0  0.3983176E-05  0.1798762E+04  0.7818609E-02  0.8706958E-01
       -2   -1    0    0    0  501  0.00000000000E+00  0.00000000000E+00  0.94924165759E+03  0.94924165759E+03  0.25500000920E-02 0.  1.
        2   -1    0    0  501    0  0.00000000000E+00  0.00000000000E+00 -0.85213912563E+03  0.85213912564E+03  0.25500000920E-02 0. -1.
    10030    2    1    2    0    0  0.00000000000E+00  0.00000000000E+00  0.97102531952E+02  0.18013807832E+04  0.17987617476E+04 0.  0.
        3    1    3    3  502    0  0.53207958602E+03  0.57617802707E+03 -0.39231253919E+03  0.87692584826E+03  0.10100000352E+00 0. -1.
       -3    1    3    3    0  502 -0.53207958602E+03 -0.57617802707E+03  0.48941507114E+03  0.92445493497E+03  0.10100000352E+00 0.  1.
</event>
<event>
 5   0  0.2001811E-05  0.1799825E+04  0.7818609E-02  0.8706392E-01
        1   -1    0    0  501    0  0.00000000000E+00  0.00000000000E+00  0.86024422742E+03  0.86024422744E+03  0.50400001928E-02 0.  1.
       -1   -1    0    0    0  501  0.00000000000E+00  0.00000000000E+00 -0.94141019223E+03  0.94141019225E+03  0.50400001928E-02 0. -1.
    10030    2    1    2    0    0  0.00000000000E+00  0.00000000000E+00 -0.81165964811E+02  0.18016544197E+04  0.17998251954E+04 0.  0.
        2    1    3    3  502    0  0.49468633302E+03  0.44130778270E+03 -0.64978638833E+03  0.92827230790E+03  0.25500000920E-02 0. -1.
       -2    1    3    3    0  502 -0.49468633302E+03 -0.44130778270E+03  0.56862042352E+03  0.87338211179E+03  0.25500000920E-02 0.  1.
</event>
<event>
 5   0  0.3984648E-05  0.1798647E+04  0.7818609E-02  0.8707019E-01
        2   -1    0    0  501    0  0.00000000000E+00  0.00000000000E+00  0.88559913012E+03  0.88559913012E+03  0.25500000920E-02 0. -1.
       -2   -1    0    0    0  501  0.00000000000E+00  0.00000000000E+00 -0.91326055354E+03  0.91326055354E+03  0.25500000920E-02 0.  1.
    10030    2    1    2    0    0  0.00000000000E+00  0.00000000000E+00 -0.27661423417E+02  0.17988596837E+04  0.17986469935E+04 0.  0.
        1    1    3    3  502    0  0.37929967584E+03 -0.57229984531E+03 -0.59474997601E+03  0.90836275299E+03  0.50400001928E-02 0.  1.
       -1    1    3    3    0  502 -0.37929967584E+03  0.57229984531E+03  0.56708855259E+03  0.89049693067E+03  0.50400001928E-02 0. -1.
</event>
<event>
 5   0  0.3909859E-05  0.1799522E+04  0.7818609E-02  0.8706554E-01
       -2   -1    0    0    0  501  0.00000000000E+00  0.00000000000E+00  0.15274500241E+04  0.15274500241E+04  0.25500000920E-02 0. -1.
        2   -1    0    0  501    0  0.00000000000E+00  0.00000000000E+00 -0.53001384449E+03  0.53001384449E+03  0.25500000920E-02 0.  1.
    10030    2    1    2    0    0  0.00000000000E+00  0.00000000000E+00  0.99743617961E+03  0.20574638686E+04  0.17995217804E+04 0.  0.
        4    1    3    3  502    0  0.74493481403E+03 -0.43973294512E+03  0.21569807653E+03  0.89152689993E+03  0.12699999809E+01 0.  1.
       -4    1    3    3    0  502 -0.74493481403E+03  0.43973294512E+03  0.78173810308E+03  0.11659369687E+04  0.12699999809E+01 0. -1.
</event>
<event>
 5   0  0.2038338E-05  0.1815845E+04  0.7818609E-02  0.8697918E-01
       -1   -1    0    0    0  501  0.00000000000E+00  0.00000000000E+00  0.51484408742E+03  0.51484408745E+03  0.50400001928E-02 0. -1.
        1   -1    0    0  501    0  0.00000000000E+00  0.00000000000E+00 -0.16011121717E+04  0.16011121717E+04  0.50400001928E-02 0.  1.
    10030    2    1    2    0    0  0.00000000000E+00  0.00000000000E+00 -0.10862680843E+04  0.21159562592E+04  0.18158448556E+04 0.  0.
        1    1    3    3  502    0 -0.57350859093E+03  0.63917120985E+03 -0.19968220405E+03  0.88166032122E+03  0.50400001928E-02 0. -1.
       -1    1    3    3    0  502  0.57350859093E+03 -0.63917120985E+03 -0.88658588025E+03  0.12342959380E+04  0.50400001928E-02 0.  1.
</event>
<event>
 5   0  0.2001811E-05  0.1794240E+04  0.7818609E-02  0.8709369E-01
        1   -1    0    0  501    0  0.00000000000E+00  0.00000000000E+00  0.13767978478E+04  0.13767978478E+04  0.50400001928E-02 0.  1.
       -1   -1    0    0    0  501  0.00000000000E+00  0.00000000000E+00 -0.58456216594E+03  0.58456216596E+03  0.50400001928E-02 0. -1.
    10030    2    1    2    0    0  0.00000000000E+00  0.00000000000E+00  0.79223568186E+03  0.19613600138E+04  0.17942395960E+04 0.  0.
        2    1    3    3  502    0  0.74718908495E+03  0.17904465701E+03  0.90236854239E+03  0.11851656020E+04  0.25500000920E-02 0.  1.
       -2    1    3    3    0  502 -0.74718908495E+03 -0.17904465701E+03 -0.11013286053E+03  0.77619441176E+03  0.25500000920E-02 0. -1.
</event>
<event>
 5   0  0.2054876E-05  0.1798207E+04  0.7818609E-02  0.8707253E-01
       -1   -1    0    0    0  501  0.00000000000E+00  0.00000000000E+00  0.61572162378E+03  0.61572162380E+03  0.50400001928E-02 0.  1.
        1   -1    0    0  501    0  0.00000000000E+00  0.00000000000E+00 -0.13129102730E+04  0.13129102730E+04  0.50400001928E-02 0. -1.
    10030    2    1    2    0    0  0.00000000000E+00  0.00000000000E+00 -0.69718864926E+03  0.19286318968E+04  0.17982071574E+04 0.  0.
        5    1    3    3  502    0 -0.62609664229E+02 -0.76415013202E+03  0.15506094195E+03  0.78224764624E+03  0.46999998093E+01 0.  1.
       -5    1    3    3    0  502  0.62609664229E+02  0.76415013202E+03 -0.85224959121E+03  0.11463842506E+04  0.46999998093E+01 0. -1.
</event>
<event>
 5   0  0.1446750E-05  0.1803028E+04  0.7818609E-02  0.8704691E-01
        3   -1    0    0  501    0  0.00000000000E+00  0.00000000000E+00  0.82347878798E+03  0.82347879417E+03  0.10100000352E+00 0.  1.
       -3   -1    0    0    0  501  0.00000000000E+00  0.00000000000E+00 -0.98694425946E+03  0.98694426462E+03  0.10100000352E+00 0. -1.
    10030    2    1    2    0    0  0.00000000000E+00  0.00000000000E+00 -0.16346547148E+03  0.18104230588E+04  0.18030282004E+04 0.  0.
        1    1    3    3  502    0  0.69796272848E+03 -0.10594774247E+02 -0.65456657736E+03  0.95693344795E+03  0.50400001928E-02 0. -1.
       -1    1    3    3    0  502 -0.69796272848E+03  0.10594774247E+02  0.49110110588E+03  0.85348961084E+03  0.50400001928E-02 0.  1.
</event>
<event>
 5   0  0.1960300E-05  0.1803457E+04  0.7818609E-02  0.8704463E-01
       -1   -1    0    0    0  501  0.00000000000E+00  0.00000000000E+00  0.72187792149E+03  0.72187792151E+03  0.50400001928E-02 0.  1.
        1   -1    0    0  501    0  0.00000000000E+00  0.00000000000E+00 -0.11263869686E+04  0.11263869687E+04  0.50400001928E-02 0. -1.
    10030    2    1    2    0    0  0.00000000000E+00  0.00000000000E+00 -0.40450904715E+03  0.18482648902E+04  0.18034565520E+04 0.  0.
        3    1    3    3  502    0 -0.26335229902E+03  0.47735695942E+03 -0.93835481413E+03  0.10852344758E+04  0.10100000352E+00 0. -1.
       -3    1    3    3    0  502  0.26335229902E+03 -0.47735695942E+03  0.53384576698E+03  0.76303041435E+03  0.10100000352E+00 0.  1.
</event>
<event>
 5   0  0.3909859E-05  0.1791638E+04  0.7818609E-02  0.8710759E-01
       -2   -1    0    0    0  501  0.00000000000E+00  0.00000000000E+00  0.75464022801E+03  0.75464022802E+03  0.25500000920E-02 0. -1.
        2   -1    0    0  501    0  0.00000000000E+00  0.00000000000E+00 -0.10634092364E+04  0.10634092364E+04  0.25500000920E-02 0.  1.
    10030    2    1    2    0    0  0.00000000000E+00  0.00000000000E+00 -0.30876900834E+03  0.18180494644E+04  0.17916376739E+04 0.  0.
        4    1    3    3  502    0 -0.60552612044E+03  0.97114853313E+02  0.50823219200E+03  0.79648901509E+03  0.12699999809E+01 0. -1.
       -4    1    3    3    0  502  0.60552612044E+03 -0.97114853313E+02 -0.81700120035E+03  0.10215604493E+04  0.12699999809E+01 0.  1.
</event>
<event>
 5   0  0.2038338E-05  0.1795145E+04  0.7818609E-02  0.8708886E-01
       -1   -1    0    0    0  501  0.00000000000E+00  0.00000000000E+00  0.12221475958E+04  0.12221475958E+04  0.50400001928E-02 0.  1.
        1   -1    0    0  501    0  0.00000000000E+00  0.00000000000E+00 -0.65919712954E+03  0.65919712955E+03  0.50400001928E-02 0. -1.
    10030    2    1    2    0    0  0.00000000000E+00  0.00000000000E+00  0.56295046625E+03  0.18813447253E+04  0.17951447708E+04 0.  0.
        1    1    3    3  502    0  0.15184136514E+03 -0.85166629950E+03  0.53222313435E+03  0.10157030819E+04  0.50400001928E-02 0. -1.
       -1    1    3    3    0  502 -0.15184136514E+03  0.85166629950E+03  0.30727331902E+02  0.86564164342E+03  0.50400001928E-02 0.  1.
</event>
<event>
 5   0  0.3993393E-05  0.1752364E+04  0.7818609E-02  0.8732050E-01
       -2   -1    0    0    0  501  0.00000000000E+00  0.00000000000E+00  0.10648513791E+04  0.10648513791E+04  0.25500000920E-02 0.  1.
        2   -1    0    0  501    0  0.00000000000E+00  0.00000000000E+00 -0.72094099236E+03  0.72094099236E+03  0.25500000920E-02 0. -1.
    10030    2    1    2    0    0  0.00000000000E+00  0.00000000000E+00  0.34391038676E+03  0.17857923715E+04  0.17523641288E+04 0.  0.
        5    1    3    3  502    0 -0.71354278752E+03  0.13478593088E+03  0.67157522387E+03  0.98911370838E+03  0.46999998093E+01 0.  1.
       -5    1    3    3    0  502  0.71354278752E+03 -0.13478593088E+03 -0.32766483711E+03  0.79667866311E+03  0.46999998093E+01 0. -1.
</event>
<event>
 5   0  0.3993393E-05  0.1796381E+04  0.7818609E-02  0.8708226E-01
       -2   -1    0    0    0  501  0.00000000000E+00  0.00000000000E+00  0.97399443743E+03  0.97399443744E+03  0.25500000920E-02 0.  1.
        2   -1    0    0  501    0  0.00000000000E+00  0.00000000000E+00 -0.82828664688E+03  0.82828664688E+03  0.25500000920E-02 0. -1.
    10030    2    1    2    0    0  0.00000000000E+00  0.00000000000E+00  0.14570779056E+03  0.18022810843E+04  0.17963814591E+04 0.  0.
        5    1    3    3  502    0 -0.59145624019E+03 -0.16395145008E+03 -0.58506184224E+03  0.84795047690E+03  0.46999998093E+01 0. -1.
       -5    1    3    3    0  502  0.59145624019E+03  0.16395145008E+03  0.73076963280E+03  0.95433060742E+03  0.46999998093E+01 0.  1.
</event>
<event>
 5   0  0.3993393E-05  0.1807119E+04  0.7818609E-02  0.8702523E-01
       -2   -1    0    0    0  501  0.00000000000E+00  0.00000000000E+00  0.71610938583E+03  0.71610938584E+03  0.25500000920E-02 0. -1.
        2   -1    0    0  501    0  0.00000000000E+00  0.00000000000E+00 -0.11400773514E+04  0.11400773514E+04  0.25500000920E-02 0.  1.
    10030    2    1    2    0    0  0.00000000000E+00  0.00000000000E+00 -0.42396796561E+03  0.18561867373E+04  0.18071193563E+04 0.  0.
        5    1    3    3  502    0 -0.55568968503E+03 -0.15321612302E+03 -0.92667221392E+03  0.10913339033E+04  0.46999998093E+01 0.  1.
       -5    1    3    3    0  502  0.55568968503E+03  0.15321612302E+03  0.50270424831E+03  0.76485283400E+03  0.46999998093E+01 0. -1.
</event>
<event>
 5   0  0.4015729E-05  0.1799074E+04  0.7818609E-02  0.8706792E-01
       -2   -1    0    0    0  501  0.00000000000E+00  0.00000000000E+00  0.43599305747E+03  0.43599305748E+03  0.25500000920E-02 0. -1.
        2   -1    0    0  501    0  0.00000000000E+00  0.00000000000E+00 -0.18559159868E+04  0.18559159868E+04  0.25500000920E-02 0.  1.
    10030    2    1    2    0    0  0.00000000000E+00  0.00000000000E+00 -0.14199229293E+04  0.22919090443E+04  0.17990736344E+04 0.  0.
        2    1    3    3  502    0  0.24618135007E+03 -0.89838249655E+02  0.38628481231E+03  0.46678916488E+03  0.25500000920E-02 0. -1.
       -2    1    3    3    0  502 -0.24618135007E+03  0.89838249655E+02 -0.18062077416E+04  0.18251198794E+04  0.25500000920E-02 0.  1.
</event>
<event>
 5   0  0.1906857E-05  0.1789084E+04  0.7818609E-02  0.8712126E-01
       -1   -1    0    0    0  501  0.00000000000E+00  0.00000000000E+00  0.73274393084E+03  0.73274393086E+03  0.50400001928E-02 0.  1.
        1   -1    0    0  501    0  0.00000000000E+00  0.00000000000E+00 -0.10920664685E+04  0.10920664685E+04  0.50400001928E-02 0. -1.
    10030    2    1    2    0    0  0.00000000000E+00  0.00000000000E+00 -0.35932253764E+03  0.18248103993E+04  0.17890836502E+04 0.  0.
        4    1    3    3  502    0  0.81683374096E+03 -0.32282793500E+03 -0.35266029412E+03  0.94647035450E+03  0.12699999809E+01 0. -1.
       -4    1    3    3    0  502 -0.81683374096E+03  0.32282793500E+03 -0.66622435161E+01  0.87834004485E+03  0.12699999809E+01 0.  1.
</event>
<event>
 5   0  0.3984648E-05  0.1798779E+04  0.7818609E-02  0.8706949E-01
        2   -1    0    0  501    0  0.00000000000E+00  0.00000000000E+00  0.12816593590E+04  0.12816593590E+04  0.25500000920E-02 0.  1.
       -2   -1    0    0    0  501  0.00000000000E+00  0.00000000000E+00 -0.63113622633E+03  0.63113622634E+03  0.25500000920E-02 0. -1.
    10030    2    1    2    0    0  0.00000000000E+00  0.00000000000E+00  0.65052313269E+03  0.19127955854E+04  0.17987791986E+04 0.  0.
        1    1    3    3  502    0  0.43189180070E+03 -0.14537247767E+03 -0.49928256081E+03  0.67597837267E+03  0.50400001928E-02 0. -1.
       -1    1    3    3    0  502 -0.43189180070E+03  0.14537247767E+03  0.11498056935E+04  0.12368172127E+04  0.50400001928E-02 0.  1.
</event>
<event>
 5   0  0.3993393E-05  0.1805977E+04  0.7818609E-02  0.8703127E-01
        2   -1    0    0  501    0  0.00000000000E+00  0.00000000000E+00  0.10912973268E+04  0.10912973268E+04  0.25500000920E-02 0.  1.
       -2   -1    0    0    0  501  0.00000000000E+00  0.00000000000E+00 -0.74717349540E+03  0.74717349540E+03  0.25500000920E-02 0. -1.
    10030    2    1    2    0    0  0.00000000000E+00  0.00000000000E+00  0.34412383136E+03  0.18384708222E+04  0.18059772293E+04 0.  0.
        5    1    3    3  502    0  0.59830215441E+03 -0.42680501219E+03 -0.36200903162E+03  0.81926834150E+03  0.46999998093E+01 0. -1.
       -5    1    3    3    0  502 -0.59830215441E+03  0.42680501219E+03  0.70613286298E+03  0.10192024807E+04  0.46999998093E+01 0.  1.
</event>
<event>
 5   0  0.3909859E-05  0.1800068E+04  0.7818609E-02  0.8706263E-01
        2   -1    0    0  501    0  0.00000000000E+00  0.00000000000E+00  0.20257092631E+04  0.20257092631E+04  0.25500000920E-02 0. -1.
       -2   -1    0    0    0  501  0.00000000000E+00  0.00000000000E+00 -0.39989029779E+03  0.39989029780E+03  0.25500000920E-02 0.  1.
    10030    2    1    2    0    0  0.00000000000E+00  0.00000000000E+00  0.16258189653E+04  0.24255995609E+04  0.18000683103E+04 0.  0.
        4    1    3    3  502    0  0.76995005684E+03  0.17290687433E+03  0.22967208201E+03  0.82187027892E+03  0.12699999809E+01 0.  1.
       -4    1    3    3    0  502 -0.76995005684E+03 -0.17290687433E+03  0.13961468833E+04  0.16037292820E+04  0.12699999809E+01 0. -1.
</event>
<event>
 5   0  0.3983176E-05  0.1801178E+04  0.7818609E-02  0.8705673E-01
        2   -1    0    0  501    0  0.00000000000E+00  0.00000000000E+00  0.14512909929E+04  0.14512909929E+04  0.25500000920E-02 0.  1.
       -2   -1    0    0    0  501  0.00000000000E+00  0.00000000000E+00 -0.55885470093E+03  0.55885470093E+03  0.25500000920E-02 0. -1.
    10030    2    1    2    0    0  0.00000000000E+00  0.00000000000E+00  0.89243629196E+03  0.20101456938E+04  0.18011782741E+04 0.  0.
        3    1    3    3  502    0  0.51524637997E+03 -0.27269972960E+03 -0.31987437589E+03  0.66495383384E+03  0.10100000352E+00 0. -1.
       -3    1    3    3    0  502 -0.51524637997E+03  0.27269972960E+03  0.12123106678E+04  0.13451918600E+04  0.10100000352E+00 0.  1.
</event>
<event>
 5   0  0.3993393E-05  0.1798123E+04  0.7818609E-02  0.8707298E-01
        2   -1    0    0  501    0  0.00000000000E+00  0.00000000000E+00  0.87135622677E+03  0.87135622678E+03  0.25500000920E-02 0.  1.
       -2   -1    0    0    0  501  0.00000000000E+00  0.00000000000E+00 -0.92764818301E+03  0.92764818301E+03  0.25500000920E-02 0. -1.
    10030    2    1    2    0    0  0.00000000000E+00  0.00000000000E+00 -0.56291956238E+02  0.17990044098E+04  0.17981234891E+04 0.  0.
        5    1    3    3  502    0 -0.51573578067E+03 -0.66256500003E+02  0.70564132283E+03  0.87654154821E+03  0.46999998093E+01 0.  1.
       -5    1    3    3    0  502  0.51573578067E+03  0.66256500003E+02 -0.76193327907E+03  0.92246286158E+03  0.46999998093E+01 0. -1.
</event>
<event>
 5   0  0.1906857E-05  0.1800260E+04  0.7818609E-02  0.8706161E-01
       -1   -1    0    0    0  501  0.00000000000E+00  0.00000000000E+00  0.62227704670E+03  0.62227704672E+03  0.50400001928E-02 0.  1.
        1   -1    0    0  501    0  0.00000000000E+00  0.00000000000E+00 -0.13020469632E+04  0.13020469632E+04  0.50400001928E-02 0. -1.
    10030    2    1    2    0    0  0.00000000000E+00  0.00000000000E+00 -0.67976991651E+03  0.19243240099E+04  0.18002599134E+04 0.  0.
        4    1    3    3  502    0  0.90860151190E+02 -0.15414915752E+03 -0.12828437834E+04  0.12952634154E+04  0.12699999809E+01 0. -1.
       -4    1    3    3    0  502 -0.90860151190E+02  0.15414915752E+03  0.60307386685E+03  0.62906059455E+03  0.12699999809E+01 0.  1.
</event>
<event>
 5   0  0.1960300E-05  0.1798983E+04  0.7818609E-02  0.8706840E-01
       -1   -1    0    0    0  501  0.00000000000E+00  0.00000000000E+00  0.78343267282E+03  0.78343267283E+03  0.50400001928E-02 0.  1.
        1   -1    0    0  501    0  0.00000000000E+00  0.00000000000E+00 -0.10327437134E+04  0.10327437134E+04  0.50400001928E-02 0. -1.
    10030    2    1    2    0    0  0.00000000000E+00  0.00000000000E+00 -0.24931104054E+03  0.18161763862E+04  0.17989832325E+04 0.  0.
        3    1    3    3  502    0 -0.53436565474E+03 -0.70695864489E+03 -0.28023210624E+03  0.92944457722E+03  0.10100000352E+00 0. -1.
       -3    1    3    3    0  502  0.53436565474E+03  0.70695864489E+03  0.30921065696E+02  0.88673180898E+03  0.10100000352E+00 0.  1.
</event>
<event>
 5   0  0.2054876E-05  0.1796001E+04  0.7818609E-02  0.8708429E-01
       -1   -1    0    0    0  501  0.00000000000E+00  0.00000000000E+00  0.61964331478E+03  0.61964331480E+03  0.50400001928E-02 0. -1.
        1   -1    0    0  501    0  0.00000000000E+00  0.00000000000E+00 -0.13014015544E+04  0.13014015544E+04  0.50400001928E-02 0.  1.
    10030    2    1    2    0    0  0.00000000000E+00  0.00000000000E+00 -0.68175823964E+03  0.19210448692E+04  0.17960008609E+04 0.  0.
        5    1    3    3  502    0  0.39842408762E+02 -0.22165054335E+03 -0.12706929381E+04  0.12905033956E+04  0.46999998093E+01 0.  1.
       -5    1    3    3    0  502 -0.39842408762E+02  0.22165054335E+03  0.58893469851E+03  0.63054147366E+03  0.46999998093E+01 0. -1.
</event>
<event>
 5   0  0.3984648E-05  0.1802861E+04  0.7818609E-02  0.8704779E-01
        2   -1    0    0  501    0  0.00000000000E+00  0.00000000000E+00  0.17100781084E+04  0.17100781084E+04  0.25500000920E-02 0.  1.
       -2   -1    0    0    0  501  0.00000000000E+00  0.00000000000E+00 -0.47516949867E+03  0.47516949868E+03  0.25500000920E-02 0. -1.
    10030    2    1    2    0    0  0.00000000000E+00  0.00000000000E+00  0.12349086097E+04  0.21852476071E+04  0.18028610124E+04 0.  0.
        1    1    3    3  502    0  0.25090930497E+03 -0.71389817143E+03  0.23685089393E+02  0.75707797615E+03  0.50400001928E-02 0. -1.
       -1    1    3    3    0  502 -0.25090930497E+03  0.71389817143E+03  0.12112235203E+04  0.14281696309E+04  0.50400001928E-02 0.  1.
</event>
<event>
 5   0  0.3993393E-05  0.1800961E+04  0.7818609E-02  0.8705789E-01
        2   -1    0    0  501    0  0.00000000000E+00  0.00000000000E+00  0.21643277318E+04  0.21643277318E+04  0.25500000920E-02 0. -1.
       -2   -1    0    0    0  501  0.00000000000E+00  0.00000000000E+00 -0.37464975324E+03  0.37464975325E+03  0.25500000920E-02 0.  1.
    10030    2    1    2    0    0  0.00000000000E+00  0.00000000000E+00  0.17896779786E+04  0.25389774851E+04  0.18009606888E+04 0.  0.
        5    1    3    3  502    0  0.44618669445E+03 -0.21802781215E+03  0.19538010969E+04  0.20159314248E+04  0.46999998093E+01 0. -1.
       -5    1    3    3    0  502 -0.44618669445E+03  0.21802781215E+03 -0.16412311836E+03  0.52304606026E+03  0.46999998093E+01 0.  1.
</event>
<event>
 5   0  0.2054876E-05  0.1795861E+04  0.7818609E-02  0.8708504E-01
       -1   -1    0    0    0  501  0.00000000000E+00  0.00000000000E+00  0.72657898232E+03  0.72657898233E+03  0.50400001928E-02 0.  1.
        1   -1    0    0  501    0  0.00000000000E+00  0.00000000000E+00 -0.11096923461E+04  0.11096923461E+04  0.50400001928E-02 0. -1.
    10030    2    1    2    0    0  0.00000000000E+00  0.00000000000E+00 -0.38311336379E+03  0.18362713285E+04  0.17958609473E+04 0.  0.
        5    1    3    3  502    0 -0.62276827818E+03  0.37461576869E+03 -0.73075536587E+03  0.10306322318E+04  0.46999998093E+01 0. -1.
       -5    1    3    3    0  502  0.62276827818E+03 -0.37461576869E+03  0.34764200207E+03  0.80563909666E+03  0.46999998093E+01 0.  1.
</event>
<event>
 5   0  0.2038338E-05  0.1785039E+04  0.7818609E-02  0.8714296E-01
        1   -1    0    0  501    0  0.00000000000E+00  0.00000000000E+00  0.12187049004E+04  0.12187049004E+04  0.50400001928E-02 0. -1.
       -1   -1    0    0    0  501  0.00000000000E+00  0.00000000000E+00 -0.65363716248E+03  0.65363716250E+03  0.50400001928E-02 0.  1.
    10030    2    1    2    0    0  0.00000000000E+00  0.00000000000E+00  0.56506773787E+03  0.18723420629E+04  0.17850387256E+04 0.  0.
        1    1    3    3  502    0  0.75138466354E+03 -0.33835235343E+03  0.64212680644E+03  0.10446952011E+04  0.50400001928E-02 0. -1.
       -1    1    3    3    0  502 -0.75138466354E+03  0.33835235343E+03 -0.77059068564E+02  0.82764686174E+03  0.50400001928E-02 0.  1.
</event>
<event>
 5   0  0.3909859E-05  0.1799486E+04  0.7818609E-02  0.8706573E-01
        2   -1    0    0  501    0  0.00000000000E+00  0.00000000000E+00  0.90002604477E+03  0.90002604477E+03  0.25500000920E-02 0.  1.
       -2   -1    0    0    0  501  0.00000000000E+00  0.00000000000E+00 -0.89945983279E+03  0.89945983279E+03  0.25500000920E-02 0. -1.
    10030    2    1    2    0    0  0.00000000000E+00  0.00000000000E+00  0.56621197957E+00  0.17994858776E+04  0.17994857885E+04 0.  0.
        4    1    3    3  502    0 -0.12675665488E+03 -0.85760856630E+03 -0.24049888263E+03  0.89966717623E+03  0.12699999809E+01 0.  1.
       -4    1    3    3    0  502  0.12675665488E+03  0.85760856630E+03  0.24106509461E+03  0.89981870134E+03  0.12699999809E+01 0. -1.
</event>
<event>
 5   0  0.2038338E-05  0.1801884E+04  0.7818609E-02  0.8705298E-01
        1   -1    0    0  501    0  0.00000000000E+00  0.00000000000E+00  0.20440074212E+04  0.20440074212E+04  0.50400001928E-02 0.  1.
       -1   -1    0    0    0  501  0.00000000000E+00  0.00000000000E+00 -0.39711043367E+03  0.39711043370E+03  0.50400001928E-02 0. -1.
    10030    2    1    2    0    0  0.00000000000E+00  0.00000000000E+00  0.16468969875E+04  0.24411178549E+04  0.18018842066E+04 0.  0.
        1    1    3    3  502    0 -0.38087015486E+03 -0.76553465819E+03  0.43885147741E+03  0.96109105032E+03  0.50400001928E-02 0. -1.
       -1    1    3    3    0  502  0.38087015486E+03  0.76553465819E+03  0.12080455101E+04  0.14800268046E+04  0.50400001928E-02 0.  1.
</event>
<event>
 5   0  0.3909859E-05  0.1799036E+04  0.7818609E-02  0.8706812E-01
        2   -1    0    0  501    0  0.00000000000E+00  0.00000000000E+00  0.13521594224E+04  0.13521594224E+04  0.25500000920E-02 0.  1.
       -2   -1    0    0    0  501  0.00000000000E+00  0.00000000000E+00 -0.59840063278E+03  0.59840063279E+03  0.25500000920E-02 0. -1.
    10030    2    1    2    0    0  0.00000000000E+00  0.00000000000E+00  0.75375878962E+03  0.19505600552E+04  0.17990364688E+04 0.  0.
        4    1    3    3  502    0 -0.25068961644E+03  0.86073152949E+03  0.45675514169E+03  0.10061465708E+04  0.12699999809E+01 0.  1.
       -4    1    3    3    0  502  0.25068961644E+03 -0.86073152949E+03  0.29700364793E+03  0.94441348435E+03  0.12699999809E+01 0. -1.
</event>
<event>
 5   0  0.3984648E-05  0.1802397E+04  0.7818609E-02  0.8705026E-01
        2   -1    0    0  501    0  0.00000000000E+00  0.00000000000E+00  0.58176431060E+03  0.58176431061E+03  0.25500000920E-02 0.  1.
       -2   -1    0    0    0  501  0.00000000000E+00  0.00000000000E+00 -0.13960271663E+04  0.13960271663E+04  0.25500000920E-02 0. -1.
    10030    2    1    2    0    0  0.00000000000E+00  0.00000000000E+00 -0.81426285570E+03  0.19777914769E+04  0.18023970506E+04 0.  0.
        1    1    3    3  502    0  0.49821463807E+03  0.59770860287E+03  0.91735730673E+02  0.78351058949E+03  0.50400001928E-02 0.  1.
       -1    1    3    3    0  502 -0.49821463807E+03 -0.59770860287E+03 -0.90599858637E+03  0.11942808874E+04  0.50400001928E-02 0. -1.
</event>
<event>
 5   0  0.1446750E-05  0.1802480E+04  0.7818609E-02  0.8704982E-01
       -4   -1    0    0    0  501  0.00000000000E+00  0.00000000000E+00  0.94692689842E+03  0.94692775007E+03  0.12699999809E+01 0. -1.
        4   -1    0    0  501    0  0.00000000000E+00  0.00000000000E+00 -0.85775587005E+03  0.85775681024E+03  0.12699999809E+01 0.  1.
    10030    2    1    2    0    0  0.00000000000E+00  0.00000000000E+00  0.89171028362E+02  0.18046845603E+04  0.18024802051E+04 0.  0.
        4    1    3    3  502    0 -0.11768481813E+03 -0.48801077175E+03 -0.70481356945E+03  0.86531382188E+03  0.12699999809E+01 0.  1.
       -4    1    3    3    0  502  0.11768481813E+03  0.48801077175E+03  0.79398459781E+03  0.93937073843E+03  0.12699999809E+01 0. -1.
</event>
<event>
 5   0  0.2038338E-05  0.1799872E+04  0.7818609E-02  0.8706368E-01
        1   -1    0    0  501    0  0.00000000000E+00  0.00000000000E+00  0.18877545064E+04  0.18877545064E+04  0.50400001928E-02 0. -1.
       -1   -1    0    0    0  501  0.00000000000E+00  0.00000000000E+00 -0.42902016595E+03  0.42902016598E+03  0.50400001928E-02 0.  1.
    10030    2    1    2    0    0  0.00000000000E+00  0.00000000000E+00  0.14587343405E+04  0.23167746724E+04  0.17998719417E+04 0.  0.
        1    1    3    3  502    0  0.35409506952E+03  0.82665781588E+03  0.68593931042E+03  0.11310434123E+04  0.50400001928E-02 0. -1.
       -1    1    3    3    0  502 -0.35409506952E+03 -0.82665781588E+03  0.77279503005E+03  0.11857312601E+04  0.50400001928E-02 0.  1.
</event>
<event>
 5   0  0.1446750E-05  0.1806396E+04  0.7818609E-02  0.8702906E-01
       -3   -1    0    0    0  501  0.00000000000E+00  0.00000000000E+00  0.23820075709E+04  0.23820075730E+04  0.10100000352E+00 0.  1.
        3   -1    0    0  501    0  0.00000000000E+00  0.00000000000E+00 -0.34247020100E+03  0.34247021590E+03  0.10100000352E+00 0. -1.
    10030    2    1    2    0    0  0.00000000000E+00  0.00000000000E+00  0.20395373699E+04  0.27244777889E+04  0.18063960084E+04 0.  0.
        2    1    3    3  502    0 -0.81428783669E+03 -0.37162279558E+03  0.12020002917E+04  0.14986570269E+04  0.25500000920E-02 0.  1.
       -2    1    3    3    0  502  0.81428783669E+03  0.37162279558E+03  0.83753707821E+03  0.12258207620E+04  0.25500000920E-02 0. -1.
</event>
<event>
 5   0  0.3909859E-05  0.1799578E+04  0.7818609E-02  0.8706524E-01
       -2   -1    0    0    0  501  0.00000000000E+00  0.00000000000E+00  0.96761461237E+03  0.96761461237E+03  0.25500000920E-02 0. -1.
        2   -1    0    0  501    0  0.00000000000E+00  0.00000000000E+00 -0.83671763758E+03  0.83671763758E+03  0.25500000920E-02 0.  1.
    10030    2    1    2    0    0  0.00000000000E+00  0.00000000000E+00  0.13089697479E+03  0.18043322500E+04  0.17995779645E+04 0.  0.
        4    1    3    3  502    0  0.31936588190E+03 -0.14937695507E+03  0.89547039714E+03  0.96238084264E+03  0.12699999809E+01 0. -1.
       -4    1    3    3    0  502 -0.31936588190E+03  0.14937695507E+03 -0.76457342235E+03  0.84195140732E+03  0.12699999809E+01 0.  1.
</event>
<event>
 5   0  0.1906857E-05  0.1853611E+04  0.7818609E-02  0.8678298E-01
        1   -1    0    0  501    0  0.00000000000E+00  0.00000000000E+00  0.19284649755E+04  0.19284649755E+04  0.50400001928E-02 0.  1.
       -1   -1    0    0    0  501  0.00000000000E+00  0.00000000000E+00 -0.44541559247E+03  0.44541559249E+03  0.50400001928E-02 0. -1.
    10030    2    1    2    0    0  0.00000000000E+00  0.00000000000E+00  0.14830493830E+04  0.23738805680E+04  0.18536109297E+04 0.  0.
        4    1    3    3  502    0  0.55553839392E+03 -0.61683277489E+03  0.21370286044E+03  0.85719082167E+03  0.12699999809E+01 0. -1.
       -4    1    3    3    0  502 -0.55553839392E+03  0.61683277489E+03  0.12693465226E+04  0.15166897463E+04  0.12699999809E+01 0.  1.
</event>
<event>
 5   0  0.3909859E-05  0.1826147E+04  0.7818609E-02  0.8692517E-01
       -2   -1    0    0    0  501  0.00000000000E+00  0.00000000000E+00  0.11322475150E+04  0.11322475150E+04  0.25500000920E-02 0. -1.
        2   -1    0    0  501    0  0.00000000000E+00  0.00000000000E+00 -0.73632633714E+03  0.73632633715E+03  0.25500000920E-02 0.  1.
    10030    2    1    2    0    0  0.00000000000E+00  0.00000000000E+00  0.39592117789E+03  0.18685738522E+04  0.18261474918E+04 0.  0.
        4    1    3    3  502    0  0.35008687989E+03  0.21610896496E+03  0.10320290406E+04  0.11110128090E+04  0.12699999809E+01 0. -1.
       -4    1    3    3    0  502 -0.35008687989E+03 -0.21610896496E+03 -0.63610786273E+03  0.75756104317E+03  0.12699999809E+01 0.  1.
</event>
<event>
 5   0  0.2001811E-05  0.1799751E+04  0.7818609E-02  0.8706432E-01
        1   -1    0    0  501    0  0.00000000000E+00  0.00000000000E+00  0.10796877101E+04  0.10796877102E+04  0.50400001928E-02 0.  1.
       -1   -1    0    0    0  501  0.00000000000E+00  0.00000000000E+00 -0.75000960270E+03  0.75000960272E+03  0.50400001928E-02 0. -1.
    10030    2    1    2    0    0  0.00000000000E+00  0.00000000000E+00  0.32967810744E+03  0.18296973129E+04  0.17997512612E+04 0.  0.
        2    1    3    3  502    0 -0.77302207438E+03 -0.45968984987E+03  0.19530881129E+03  0.92033875141E+03  0.25500000920E-02 0. -1.
       -2    1    3    3    0  502  0.77302207438E+03  0.45968984987E+03  0.13436929615E+03  0.90935856147E+03  0.25500000920E-02 0.  1.
</event>
<event>
 5   0  0.3984648E-05  0.1799758E+04  0.7818609E-02  0.8706428E-01
        2   -1    0    0  501    0  0.00000000000E+00  0.00000000000E+00  0.15634350170E+04  0.15634350170E+04  0.25500000920E-02 0.  1.
       -2   -1    0    0    0  501  0.00000000000E+00  0.00000000000E+00 -0.51795090834E+03  0.51795090834E+03  0.25500000920E-02 0. -1.
    10030    2    1    2    0    0  0.00000000000E+00  0.00000000000E+00  0.10454841087E+04  0.20813859254E+04  0.17997584140E+04 0.  0.
        1    1    3    3  502    0 -0.61144926101E+02 -0.72569220394E+03 -0.88570104943E+02  0.73362970248E+03  0.50400001928E-02 0. -1.
       -1    1    3    3    0  502  0.61144926101E+02  0.72569220394E+03  0.11340542136E+04  0.13477562229E+04  0.50400001928E-02 0.  1.
</event>
<event>
 5   0  0.1960300E-05  0.1801947E+04  0.7818609E-02  0.8705265E-01
        1   -1    0    0  501    0  0.00000000000E+00  0.00000000000E+00  0.22084764897E+04  0.22084764897E+04  0.50400001928E-02 0. -1.
       -1   -1    0    0    0  501  0.00000000000E+00  0.00000000000E+00 -0.36756270626E+03  0.36756270629E+03  0.50400001928E-02 0.  1.
    10030    2    1    2    0    0  0.00000000000E+00  0.00000000000E+00  0.18409137835E+04  0.25760391960E+04  0.18019473858E+04 0.  0.
        3    1    3    3  502    0  0.25360465800E+03  0.58069629295E+03  0.48182541990E+01  0.63367715201E+03  0.10100000352E+00 0.  1.
       -3    1    3    3    0  502 -0.25360465800E+03 -0.58069629295E+03  0.18360955293E+04  0.19423620440E+04  0.10100000352E+00 0. -1.
</event>
<event>
 5   0  0.2038338E-05  0.1801763E+04  0.7818609E-02  0.8705363E-01
        1   -1    0    0  501    0  0.00000000000E+00  0.00000000000E+00  0.76868222041E+03  0.76868222043E+03  0.50400001928E-02 0. -1.
       -1   -1    0    0    0  501  0.00000000000E+00  0.00000000000E+00 -0.10558163058E+04  0.10558163058E+04  0.50400001928E-02 0.  1.
    10030    2    1    2    0    0  0.00000000000E+00  0.00000000000E+00 -0.28713408535E+03  0.18244985262E+04  0.18017627172E+04 0.  0.
        1    1    3    3  502    0 -0.37410995510E+03 -0.61682390009E+03 -0.68996581862E+03  0.99823985751E+03  0.50400001928E-02 0.  1.
       -1    1    3    3    0  502  0.37410995510E+03  0.61682390009E+03  0.40283173327E+03  0.82625866869E+03  0.50400001928E-02 0. -1.
</event>
<event>
 5   0  0.1960300E-05  0.1799985E+04  0.7818609E-02  0.8706307E-01
       -1   -1    0    0    0  501  0.00000000000E+00  0.00000000000E+00  0.36971359537E+03  0.36971359541E+03  0.50400001928E-02 0.  1.
        1   -1    0    0  501    0  0.00000000000E+00  0.00000000000E+00 -0.21908496530E+04  0.21908496530E+04  0.50400001928E-02 0. -1.
    10030    2    1    2    0    0  0.00000000000E+00  0.00000000000E+00 -0.18211360576E+04  0.25605632484E+04  0.17999854468E+04 0.  0.
        3    1    3    3  502    0 -0.34569425131E+01  0.39642480523E+03 -0.20599490184E+04  0.20977498767E+04  0.10100000352E+00 0. -1.
       -3    1    3    3    0  502  0.34569425131E+01 -0.39642480523E+03  0.23881296073E+03  0.46281337174E+03  0.10100000352E+00 0.  1.
</event>
<event>
 5   0  0.3983176E-05  0.1798995E+04  0.7818609E-02  0.8706834E-01
        2   -1    0    0  501    0  0.00000000000E+00  0.00000000000E+00  0.82463112096E+03  0.82463112096E+03  0.25500000920E-02 0. -1.
       -2   -1    0    0    0  501  0.00000000000E+00  0.00000000000E+00 -0.98116127689E+03  0.98116127689E+03  0.25500000920E-02 0.  1.
    10030    2    1    2    0    0  0.00000000000E+00  0.00000000000E+00 -0.15653015593E+03  0.18057923979E+04  0.17989954126E+04 0.  0.
        3    1    3    3  502    0 -0.81191919592E+03 -0.19721502636E+03 -0.41267475870E+03  0.93188358393E+03  0.10100000352E+00 0.  1.
       -3    1    3    3    0  502  0.81191919592E+03  0.19721502636E+03  0.25614460276E+03  0.87390881392E+03  0.10100000352E+00 0. -1.
</event>
<event>
 5   0  0.4015729E-05  0.1799327E+04  0.7818609E-02  0.8706657E-01
        2   -1    0    0  501    0  0.00000000000E+00  0.00000000000E+00  0.13509179569E+04  0.13509179569E+04  0.25500000920E-02 0. -1.
       -2   -1    0    0    0  501  0.00000000000E+00  0.00000000000E+00 -0.59914411518E+03  0.59914411518E+03  0.25500000920E-02 0.  1.
    10030    2    1    2    0    0  0.00000000000E+00  0.00000000000E+00  0.75177384170E+03  0.19500620721E+04  0.17993271453E+04 0.  0.
        2    1    3    3  502    0 -0.71088045089E+03 -0.28020907507E+03  0.89056657443E+03  0.11734466177E+04  0.25500000920E-02 0. -1.
       -2    1    3    3    0  502  0.71088045089E+03  0.28020907507E+03 -0.13879273273E+03  0.77661545431E+03  0.25500000920E-02 0.  1.
</event>
<event>
 5   0  0.1906857E-05  0.1797765E+04  0.7818609E-02  0.8707489E-01
       -1   -1    0    0    0  501  0.00000000000E+00  0.00000000000E+00  0.20070171643E+04  0.20070171644E+04  0.50400001928E-02 0. -1.
        1   -1    0    0  501    0  0.00000000000E+00  0.00000000000E+00 -0.40258223759E+03  0.40258223762E+03  0.50400001928E-02 0.  1.
    10030    2    1    2    0    0  0.00000000000E+00  0.00000000000E+00  0.16044349268E+04  0.24095994020E+04  0.17977646798E+04 0.  0.
        4    1    3    3  502    0 -0.50782883397E+03  0.20437132320E+03 -0.15340183196E+03  0.56849933800E+03  0.12699999809E+01 0.  1.
       -4    1    3    3    0  502  0.50782883397E+03 -0.20437132320E+03  0.17578367587E+04  0.18411000640E+04  0.12699999809E+01 0. -1.
</event>
<event>
 5   0  0.3984648E-05  0.1803202E+04  0.7818609E-02  0.8704598E-01
       -2   -1    0    0    0  501  0.00000000000E+00  0.00000000000E+00  0.67811096395E+03  0.67811096395E+03  0.25500000920E-02 0.  1.
        2   -1    0    0  501    0  0.00000000000E+00  0.00000000000E+00 -0.11987486325E+04  0.11987486325E+04  0.25500000920E-02 0. -1.
    10030    2    1    2    0    0  0.00000000000E+00  0.00000000000E+00 -0.52063766860E+03  0.18768595965E+04  0.18032022524E+04 0.  0.
        1    1    3    3  502    0  0.48079143464E+03  0.73738360995E+03 -0.46318970732E+03  0.99470583432E+03  0.50400001928E-02 0.  1.
       -1    1    3    3    0  502 -0.48079143464E+03 -0.73738360995E+03 -0.57447961280E+02  0.88215376218E+03  0.50400001928E-02 0. -1.
</event>
<event>
 5   0  0.3993393E-05  0.1804846E+04  0.7818609E-02  0.8703727E-01
       -2   -1    0    0    0  501  0.00000000000E+00  0.00000000000E+00  0.27163972232E+03  0.27163972233E+03  0.25500000920E-02 0.  1.
        2   -1    0    0  501    0  0.00000000000E+00  0.00000000000E+00 -0.29979684866E+04  0.29979684866E+04  0.25500000920E-02 0. -1.
    10030    2    1    2    0    0  0.00000000000E+00  0.00000000000E+00 -0.27263287643E+04  0.32696082090E+04  0.18048460624E+04 0.  0.
        5    1    3    3  502    0  0.75485847044E+03  0.42608558982E+03 -0.90851761711E+03  0.12557016329E+04  0.46999998093E+01 0.  1.
       -5    1    3    3    0  502 -0.75485847044E+03 -0.42608558982E+03 -0.18178111472E+04  0.20139065761E+04  0.46999998093E+01 0. -1.
</event>
<event>
 5   0  0.1906857E-05  0.1800672E+04  0.7818609E-02  0.8705942E-01
        1   -1    0    0  501    0  0.00000000000E+00  0.00000000000E+00  0.64341352214E+03  0.64341352216E+03  0.50400001928E-02 0.  1.
       -1   -1    0    0    0  501  0.00000000000E+00  0.00000000000E+00 -0.12598512715E+04  0.12598512716E+04  0.50400001928E-02 0. -1.
    10030    2    1    2    0    0  0.00000000000E+00  0.00000000000E+00 -0.61643774940E+03  0.19032647937E+04  0.18006724789E+04 0.  0.
        4    1    3    3  502    0 -0.45349593876E+02  0.33173504944E+03  0.57516075888E+03  0.66551952649E+03  0.12699999809E+01 0.  1.
       -4    1    3    3    0  502  0.45349593876E+02 -0.33173504944E+03 -0.11915985083E+04  0.12377452672E+04  0.12699999809E+01 0. -1.
</event>
<event>
 5   0  0.3984648E-05  0.1793546E+04  0.7818609E-02  0.8709739E-01
        2   -1    0    0  501    0  0.00000000000E+00  0.00000000000E+00  0.13035017172E+04  0.13035017172E+04  0.25500000920E-02 0.  1.
       -2   -1    0    0    0  501  0.00000000000E+00  0.00000000000E+00 -0.61695519358E+03  0.61695519359E+03  0.25500000920E-02 0. -1.
    10030    2    1    2    0    0  0.00000000000E+00  0.00000000000E+00  0.68654652365E+03  0.19204569108E+04  0.17935463800E+04 0.  0.
        1    1    3    3  502    0  0.67355704989E+03 -0.73622657112E+02 -0.28574922525E+03  0.73535842612E+03  0.50400001928E-02 0. -1.
       -1    1    3    3    0  502 -0.67355704989E+03  0.73622657112E+02  0.97229574890E+03  0.11850984847E+04  0.50400001928E-02 0.  1.
</event>
<event>
 5   0  0.2038338E-05  0.1800456E+04  0.7818609E-02  0.8706057E-01
       -1   -1    0    0    0  501  0.00000000000E+00  0.00000000000E+00  0.93042385958E+03  0.93042385959E+03  0.50400001928E-02 0.  1.
        1   -1    0    0  501    0  0.00000000000E+00  0.00000000000E+00 -0.87101195064E+03  0.87101195066E+03  0.50400001928E-02 0. -1.
    10030    2    1    2    0    0  0.00000000000E+00  0.00000000000E+00  0.59411908938E+02  0.18014358102E+04  0.18004558322E+04 0.  0.
        1    1    3    3  502    0 -0.72074557452E+03  0.51240433972E+03  0.19825508850E+03  0.90627670758E+03  0.50400001928E-02 0.  1.
       -1    1    3    3    0  502  0.72074557452E+03 -0.51240433972E+03 -0.13884317956E+03  0.89515910267E+03  0.50400001928E-02 0. -1.
</event>
<event>
 5   0  0.3984648E-05  0.1808979E+04  0.7818609E-02  0.8701539E-01
       -2   -1    0    0    0  501  0.00000000000E+00  0.00000000000E+00  0.36810988761E+03  0.36810988762E+03  0.25500000920E-02 0.  1.
        2   -1    0    0  501    0  0.00000000000E+00  0.00000000000E+00 -0.22224376234E+04  0.22224376234E+04  0.25500000920E-02 0. -1.
    10030    2    1    2    0    0  0.00000000000E+00  0.00000000000E+00 -0.18543277358E+04  0.25905475110E+04  0.18089790090E+04 0.  0.
        1    1    3    3  502    0  0.42638295199E+03 -0.31481923470E+02  0.21426829093E+03  0.47823052368E+03  0.50400001928E-02 0.  1.
       -1    1    3    3    0  502 -0.42638295199E+03  0.31481923470E+02 -0.20685960267E+04  0.21123169873E+04  0.50400001928E-02 0. -1.
</event>
<event>
 5   0  0.1906857E-05  0.1798976E+04  0.7818609E-02  0.8706844E-01
        1   -1    0    0  501    0  0.00000000000E+00  0.00000000000E+00  0.15034746653E+04  0.15034746653E+04  0.50400001928E-02 0.  1.
       -1   -1    0    0    0  501  0.00000000000E+00  0.00000000000E+00 -0.53813940260E+03  0.53813940262E+03  0.50400001928E-02 0. -1.
    10030    2    1    2    0    0  0.00000000000E+00  0.00000000000E+00  0.96533526269E+03  0.20416140679E+04  0.17989763292E+04 0.  0.
        4    1    3    3  502    0  0.57488465737E+03  0.19901306708E+03 -0.26924946907E+03  0.66527848278E+03  0.12699999809E+01 0. -1.
       -4    1    3    3    0  502 -0.57488465737E+03 -0.19901306708E+03  0.12345847318E+04  0.13763355851E+04  0.12699999809E+01 0.  1.
</event>
<event>
 5   0  0.4015729E-05  0.1801870E+04  0.7818609E-02  0.8705306E-01
       -2   -1    0    0    0  501  0.00000000000E+00  0.00000000000E+00  0.92920828817E+03  0.92920828818E+03  0.25500000920E-02 0. -1.
        2   -1    0    0  501    0  0.00000000000E+00  0.00000000000E+00 -0.87352151527E+03  0.87352151528E+03  0.25500000920E-02 0.  1.
    10030    2    1    2    0    0  0.00000000000E+00  0.00000000000E+00  0.55686772904E+02  0.18027298035E+04  0.18018695090E+04 0.  0.
        2    1    3    3  502    0 -0.62352181052E+03 -0.58067971478E+03 -0.26506772737E+03  0.89231680442E+03  0.25500000920E-02 0.  1.
       -2    1    3    3    0  502  0.62352181052E+03  0.58067971478E+03  0.32075450028E+03  0.91041299903E+03  0.25500000920E-02 0. -1.
</event>
<event>
 5   0  0.4015729E-05  0.1799870E+04  0.7818609E-02  0.8706368E-01
        2   -1    0    0  501    0  0.00000000000E+00  0.00000000000E+00  0.13448053090E+04  0.13448053090E+04  0.25500000920E-02 0. -1.
       -2   -1    0    0    0  501  0.00000000000E+00  0.00000000000E+00 -0.60223098159E+03  0.60223098159E+03  0.25500000920E-02 0.  1.
    10030    2    1    2    0    0  0.00000000000E+00  0.00000000000E+00  0.74257432741E+03  0.19470362906E+04  0.17998704634E+04 0.  0.
        2    1    3    3  502    0  0.45086663915E+03  0.46859605538E+03 -0.30168909417E+03  0.71685375005E+03  0.25500000920E-02 0.  1.
       -2    1    3    3    0  502 -0.45086663915E+03 -0.46859605538E+03  0.10442634216E+04  0.12301825405E+04  0.25500000920E-02 0. -1.
</event>
<event>
 5   0  0.1906857E-05  0.1804961E+04  0.7818609E-02  0.8703666E-01
        1   -1    0    0  501    0  0.00000000000E+00  0.00000000000E+00  0.85202744677E+03  0.85202744678E+03  0.50400001928E-02 0.  1.
       -1   -1    0    0    0  501  0.00000000000E+00  0.00000000000E+00 -0.95592139959E+03  0.95592139960E+03  0.50400001928E-02 0. -1.
    10030    2    1    2    0    0  0.00000000000E+00  0.00000000000E+00 -0.10389395282E+03  0.18079488464E+04  0.18049612399E+04 0.  0.
        4    1    3    3  502    0 -0.83904821369E+02  0.89715803431E+03 -0.10239997240E+03  0.90687370942E+03  0.12699999809E+01 0.  1.
       -4    1    3    3    0  502  0.83904821369E+02 -0.89715803431E+03 -0.14939804181E+01  0.90107513697E+03  0.12699999809E+01 0. -1.
</event>
<event>
 5   0  0.2054876E-05  0.1763659E+04  0.7818609E-02  0.8725867E-01
       -1   -1    0    0    0  501  0.00000000000E+00  0.00000000000E+00  0.75689222490E+03  0.75689222492E+03  0.50400001928E-02 0. -1.
        1   -1    0    0  501    0  0.00000000000E+00  0.00000000000E+00 -0.10273901643E+04  0.10273901643E+04  0.50400001928E-02 0.  1.
    10030    2    1    2    0    0  0.00000000000E+00  0.00000000000E+00 -0.27049793941E+03  0.17842823892E+04  0.17636594085E+04 0.  0.
        5    1    3    3  502    0  0.31593978635E+03 -0.79947587199E+03 -0.33407158996E+03  0.92228278511E+03  0.46999998093E+01 0. -1.
       -5    1    3    3    0  502 -0.31593978635E+03  0.79947587199E+03  0.63573650552E+02  0.86199960414E+03  0.46999998093E+01 0.  1.
</event>
<event>
 5   0  0.2001811E-05  0.1800796E+04  0.7818609E-02  0.8705876E-01
       -1   -1    0    0    0  501  0.00000000000E+00  0.00000000000E+00  0.12406828020E+04  0.12406828020E+04  0.50400001928E-02 0.  1.
        1   -1    0    0  501    0  0.00000000000E+00  0.00000000000E+00 -0.65344374179E+03  0.65344374181E+03  0.50400001928E-02 0. -1.
    10030    2    1    2    0    0  0.00000000000E+00  0.00000000000E+00  0.58723906023E+03  0.18941265438E+04  0.18007958380E+04 0.  0.
        2    1    3    3  502    0  0.36703940811E+03  0.52357167994E+03  0.96040778869E+03  0.11537886946E+04  0.25500000920E-02 0.  1.
       -2    1    3    3    0  502 -0.36703940811E+03 -0.52357167994E+03 -0.37316872846E+03  0.74033784926E+03  0.25500000920E-02 0. -1.
</event>
<event>
 5   0  0.3983176E-05  0.1824371E+04  0.7818609E-02  0.8693445E-01
       -2   -1    0    0    0  501  0.00000000000E+00  0.00000000000E+00  0.47445585621E+03  0.47445585622E+03  0.25500000920E-02 0.  1.
        2   -1    0    0  501    0  0.00000000000E+00  0.00000000000E+00 -0.17537617980E+04  0.17537617980E+04  0.25500000920E-02 0. -1.
    10030    2    1    2    0    0  0.00000000000E+00  0.00000000000E+00 -0.12793059418E+04  0.22282176542E+04  0.18243711853E+04 0.  0.
        3    1    3    3  502    0  0.78319672217E+03 -0.31088186057E+03 -0.21298328859E+03  0.86914125910E+03  0.10100000352E+00 0.  1.
       -3    1    3    3    0  502 -0.78319672217E+03  0.31088186057E+03 -0.10663226532E+04  0.13590763951E+04  0.10100000352E+00 0. -1.
</event>
<event>
 5   0  0.2001811E-05  0.1798820E+04  0.7818609E-02  0.8706927E-01
       -1   -1    0    0    0  501  0.00000000000E+00  0.00000000000E+00  0.15558131417E+04  0.15558131417E+04  0.50400001928E-02 0. -1.
        1   -1    0    0  501    0  0.00000000000E+00  0.00000000000E+00 -0.51994544024E+03  0.51994544027E+03  0.50400001928E-02 0.  1.
    10030    2    1    2    0    0  0.00000000000E+00  0.00000000000E+00  0.10358677014E+04  0.20757585819E+04  0.17988195562E+04 0.  0.
        2    1    3    3  502    0 -0.82015642714E+02 -0.16858872372E+03  0.15330145748E+04  0.15444359520E+04  0.25500000920E-02 0. -1.
       -2    1    3    3    0  502  0.82015642714E+02  0.16858872372E+03 -0.49714687333E+03  0.53132262994E+03  0.25500000920E-02 0.  1.
</event>
<event>
 5   0  0.2038338E-05  0.1803296E+04  0.7818609E-02  0.8704549E-01
       -1   -1    0    0    0  501  0.00000000000E+00  0.00000000000E+00  0.12484016509E+04  0.12484016510E+04  0.50400001928E-02 0. -1.
        1   -1    0    0  501    0  0.00000000000E+00  0.00000000000E+00 -0.65120765783E+03  0.65120765785E+03  0.50400001928E-02 0.  1.
    10030    2    1    2    0    0  0.00000000000E+00  0.00000000000E+00  0.59719399311E+03  0.18996093088E+04  0.18032955556E+04 0.  0.
        1    1    3    3  502    0 -0.67031461628E+03 -0.10045203662E+03 -0.32776693275E+03  0.75289007079E+03  0.50400001928E-02 0.  1.
       -1    1    3    3    0  502  0.67031461628E+03  0.10045203662E+03  0.92496092586E+03  0.11467192380E+04  0.50400001928E-02 0. -1.
</event>
<event>
 5   0  0.3984648E-05  0.1801879E+04  0.7818609E-02  0.8705301E-01
       -2   -1    0    0    0  501  0.00000000000E+00  0.00000000000E+00  0.66127158503E+03  0.66127158503E+03  0.25500000920E-02 0.  1.
        2   -1    0    0  501    0  0.00000000000E+00  0.00000000000E+00 -0.12274711923E+04  0.12274711923E+04  0.25500000920E-02 0. -1.
    10030    2    1    2    0    0  0.00000000000E+00  0.00000000000E+00 -0.56619960731E+03  0.18887427774E+04  0.18018788205E+04 0.  0.
        1    1    3    3  502    0  0.40335791409E+03  0.41021437169E+03 -0.10098624561E+04  0.11622373328E+04  0.50400001928E-02 0. -1.
       -1    1    3    3    0  502 -0.40335791409E+03 -0.41021437169E+03  0.44366284874E+03  0.72650544456E+03  0.50400001928E-02 0.  1.
</event>
<event>
 5   0  0.2054876E-05  0.1814538E+04  0.7818609E-02  0.8698606E-01
       -1   -1    0    0    0  501  0.00000000000E+00  0.00000000000E+00  0.87896229920E+03  0.87896229922E+03  0.50400001928E-02 0. -1.
        1   -1    0    0  501    0  0.00000000000E+00  0.00000000000E+00 -0.93648734521E+03  0.93648734522E+03  0.50400001928E-02 0.  1.
    10030    2    1    2    0    0  0.00000000000E+00  0.00000000000E+00 -0.57525046008E+02  0.18154496444E+04  0.18145380350E+04 0.  0.
        5    1    3    3  502    0 -0.49682694597E+03  0.52342314706E+03 -0.57886251731E+03  0.92515550534E+03  0.46999998093E+01 0. -1.
       -5    1    3    3    0  502  0.49682694597E+03 -0.52342314706E+03  0.52133747131E+03  0.89029413909E+03  0.46999998093E+01 0.  1.
</event>
<event>
 5   0  0.2054876E-05  0.1798748E+04  0.7818609E-02  0.8706965E-01
        1   -1    0    0  501    0  0.00000000000E+00  0.00000000000E+00  0.75425583048E+03  0.75425583050E+03  0.50400001928E-02 0. -1.
       -1   -1    0    0    0  501  0.00000000000E+00  0.00000000000E+00 -0.10724132214E+04  0.10724132214E+04  0.50400001928E-02 0.  1.
    10030    2    1    2    0    0  0.00000000000E+00  0.00000000000E+00 -0.31815739095E+03  0.18266690519E+04  0.17987483704E+04 0.  0.
        5    1    3    3  502    0 -0.10753342982E+03  0.82547058975E+03  0.18662678062E+03  0.85312178399E+03  0.46999998093E+01 0.  1.
       -5    1    3    3    0  502  0.10753342982E+03 -0.82547058975E+03 -0.50478417156E+03  0.97354726795E+03  0.46999998093E+01 0. -1.
</event>
<event>
 5   0  0.4015729E-05  0.1798081E+04  0.7818609E-02  0.8707321E-01
        2   -1    0    0  501    0  0.00000000000E+00  0.00000000000E+00  0.14467102439E+04  0.14467102439E+04  0.25500000920E-02 0.  1.
       -2   -1    0    0    0  501  0.00000000000E+00  0.00000000000E+00 -0.55869765042E+03  0.55869765042E+03  0.25500000920E-02 0. -1.
    10030    2    1    2    0    0  0.00000000000E+00  0.00000000000E+00  0.88801259344E+03  0.20054078943E+04  0.17980807702E+04 0.  0.
        2    1    3    3  502    0 -0.41217525103E+03  0.79896007673E+03  0.45173112526E+03  0.10061245705E+04  0.25500000920E-02 0. -1.
       -2    1    3    3    0  502  0.41217525103E+03 -0.79896007673E+03  0.43628146818E+03  0.99928332381E+03  0.25500000920E-02 0.  1.
</event>
<event>
 5   0  0.4015729E-05  0.1794236E+04  0.7818609E-02  0.8709371E-01
       -2   -1    0    0    0  501  0.00000000000E+00  0.00000000000E+00  0.15953741708E+04  0.15953741708E+04  0.25500000920E-02 0.  1.
        2   -1    0    0  501    0  0.00000000000E+00  0.00000000000E+00 -0.50447156016E+03  0.50447156016E+03  0.25500000920E-02 0. -1.
    10030    2    1    2    0    0  0.00000000000E+00  0.00000000000E+00  0.10909026107E+04  0.20998457310E+04  0.17942362130E+04 0.  0.
        2    1    3    3  502    0 -0.61647582939E+03 -0.25616266796E+03  0.12468278386E+04  0.14142989146E+04  0.25500000920E-02 0.  1.
       -2    1    3    3    0  502  0.61647582939E+03  0.25616266796E+03 -0.15592522799E+03  0.68554681635E+03  0.25500000920E-02 0. -1.
</event>
<event>
 5   0  0.1960300E-05  0.1796747E+04  0.7818609E-02  0.8708032E-01
       -1   -1    0    0    0  501  0.00000000000E+00  0.00000000000E+00  0.77067076529E+03  0.77067076530E+03  0.50400001928E-02 0.  1.
        1   -1    0    0  501    0  0.00000000000E+00  0.00000000000E+00 -0.10472364550E+04  0.10472364550E+04  0.50400001928E-02 0. -1.
    10030    2    1    2    0    0  0.00000000000E+00  0.00000000000E+00 -0.27656568970E+03  0.18179072203E+04  0.17967465266E+04 0.  0.
        3    1    3    3  502    0 -0.60063285812E+03  0.45145898211E+03 -0.63652479988E+03  0.98475320454E+03  0.10100000352E+00 0. -1.
       -3    1    3    3    0  502  0.60063285812E+03 -0.45145898211E+03  0.35995911018E+03  0.83315401577E+03  0.10100000352E+00 0.  1.
</event>
<event>
 5   0  0.3993393E-05  0.1803194E+04  0.7818609E-02  0.8704603E-01
       -2   -1    0    0    0  501  0.00000000000E+00  0.00000000000E+00  0.12557457690E+04  0.12557457690E+04  0.25500000920E-02 0.  1.
        2   -1    0    0  501    0  0.00000000000E+00  0.00000000000E+00 -0.64732635054E+03  0.64732635055E+03  0.25500000920E-02 0. -1.
    10030    2    1    2    0    0  0.00000000000E+00  0.00000000000E+00  0.60841941850E+03  0.19030721196E+04  0.18031941946E+04 0.  0.
        5    1    3    3  502    0 -0.72463847044E+03  0.22000153764E+03  0.82054614250E+03  0.11166107878E+04  0.46999998093E+01 0.  1.
       -5    1    3    3    0  502  0.72463847044E+03 -0.22000153764E+03 -0.21212672400E+03  0.78646133182E+03  0.46999998093E+01 0. -1.
</event>
<event>
 5   0  0.1906857E-05  0.1800866E+04  0.7818609E-02  0.8705839E-01
       -1   -1    0    0    0  501  0.00000000000E+00  0.00000000000E+00  0.11392417307E+04  0.11392417307E+04  0.50400001928E-02 0.  1.
        1   -1    0    0  501    0  0.00000000000E+00  0.00000000000E+00 -0.71168352167E+03  0.71168352169E+03  0.50400001928E-02 0. -1.
    10030    2    1    2    0    0  0.00000000000E+00  0.00000000000E+00  0.42755820899E+03  0.18509252524E+04  0.18008659772E+04 0.  0.
        4    1    3    3  502    0 -0.63301363057E+03 -0.13591975064E+03  0.85695158379E+03  0.10740335493E+04  0.12699999809E+01 0.  1.
       -4    1    3    3    0  502  0.63301363057E+03  0.13591975064E+03 -0.42939337480E+03  0.77689170309E+03  0.12699999809E+01 0. -1.
</event>
<event>
 5   0  0.4015729E-05  0.1804964E+04  0.7818609E-02  0.8703664E-01
        2   -1    0    0  501    0  0.00000000000E+00  0.00000000000E+00  0.89842990038E+03  0.89842990038E+03  0.25500000920E-02 0. -1.
       -2   -1    0    0    0  501  0.00000000000E+00  0.00000000000E+00 -0.90655267572E+03  0.90655267573E+03  0.25500000920E-02 0.  1.
    10030    2    1    2    0    0  0.00000000000E+00  0.00000000000E+00 -0.81227753419E+01  0.18049825761E+04  0.18049642990E+04 0.  0.
        2    1    3    3  502    0  0.82077905167E+03 -0.32002282136E+03  0.19185172978E+03  0.90160964063E+03  0.25500000920E-02 0.  1.
       -2    1    3    3    0  502 -0.82077905167E+03  0.32002282136E+03 -0.19997450512E+03  0.90337293548E+03  0.25500000920E-02 0. -1.
</event>
<event>
 5   0  0.1960300E-05  0.1806070E+04  0.7818609E-02  0.8703078E-01
       -1   -1    0    0    0  501  0.00000000000E+00  0.00000000000E+00  0.15409334833E+04  0.15409334833E+04  0.50400001928E-02 0. -1.
        1   -1    0    0  501    0  0.00000000000E+00  0.00000000000E+00 -0.52920669829E+03  0.52920669832E+03  0.50400001928E-02 0.  1.
    10030    2    1    2    0    0  0.00000000000E+00  0.00000000000E+00  0.10117267850E+04  0.20701401816E+04  0.18060701216E+04 0.  0.
        3    1    3    3  502    0 -0.78347444273E+03 -0.35062427534E+03  0.18430486255E+03  0.87791678274E+03  0.10100000352E+00 0. -1.
       -3    1    3    3    0  502  0.78347444273E+03  0.35062427534E+03  0.82742192243E+03  0.11922233989E+04  0.10100000352E+00 0.  1.
</event>
<event>
 5   0  0.2054876E-05  0.1801390E+04  0.7818609E-02  0.8705561E-01
        1   -1    0    0  501    0  0.00000000000E+00  0.00000000000E+00  0.57022049543E+03  0.57022049545E+03  0.50400001928E-02 0. -1.
       -1   -1    0    0    0  501  0.00000000000E+00  0.00000000000E+00 -0.14226982400E+04  0.14226982400E+04  0.50400001928E-02 0.  1.
    10030    2    1    2    0    0  0.00000000000E+00  0.00000000000E+00 -0.85247774459E+03  0.19929187355E+04  0.18013902357E+04 0.  0.
        5    1    3    3  502    0  0.34819464395E+03 -0.81144100400E+03 -0.62275861653E+03  0.10805213545E+04  0.46999998093E+01 0. -1.
       -5    1    3    3    0  502 -0.34819464395E+03  0.81144100400E+03 -0.22971912806E+03  0.91239738100E+03  0.46999998093E+01 0.  1.
</event>
<event>
 5   0  0.2001811E-05  0.1822696E+04  0.7818609E-02  0.8694322E-01
       -1   -1    0    0    0  501  0.00000000000E+00  0.00000000000E+00  0.63945239259E+03  0.63945239261E+03  0.50400001928E-02 0.  1.
        1   -1    0    0  501    0  0.00000000000E+00  0.00000000000E+00 -0.12988541076E+04  0.12988541076E+04  0.50400001928E-02 0. -1.
    10030    2    1    2    0    0  0.00000000000E+00  0.00000000000E+00 -0.65940171498E+03  0.19383065002E+04  0.18226962081E+04 0.  0.
        2    1    3    3  502    0  0.47850933909E+03  0.24878983199E+03  0.45153013120E+03  0.70338256126E+03  0.25500000920E-02 0.  1.
       -2    1    3    3    0  502 -0.47850933909E+03 -0.24878983199E+03 -0.11109318462E+04  0.12349239389E+04  0.25500000920E-02 0. -1.
</event>
<event>
 5   0  0.2054876E-05  0.1798757E+04  0.7818609E-02  0.8706961E-01
        1   -1    0    0  501    0  0.00000000000E+00  0.00000000000E+00  0.13429679977E+04  0.13429679977E+04  0.50400001928E-02 0.  1.
       -1   -1    0    0    0  501  0.00000000000E+00  0.00000000000E+00 -0.60230912724E+03  0.60230912726E+03  0.50400001928E-02 0. -1.
    10030    2    1    2    0    0  0.00000000000E+00  0.00000000000E+00  0.74065887047E+03  0.19452771250E+04  0.17987572183E+04 0.  0.
        5    1    3    3  502    0  0.43447985421E+03 -0.42948771230E+03 -0.34345405931E+03  0.70086747648E+03  0.46999998093E+01 0. -1.
       -5    1    3    3    0  502 -0.43447985421E+03  0.42948771230E+03  0.10841129298E+04  0.12444096485E+04  0.46999998093E+01 0.  1.
</event>
<event>
 5   0  0.4015729E-05  0.1798727E+04  0.7818609E-02  0.8706977E-01
        2   -1    0    0  501    0  0.00000000000E+00  0.00000000000E+00  0.10156692754E+04  0.10156692754E+04  0.25500000920E-02 0.  1.
       -2   -1    0    0    0  501  0.00000000000E+00  0.00000000000E+00 -0.79637631595E+03  0.79637631595E+03  0.25500000920E-02 0. -1.
    10030    2    1    2    0    0  0.00000000000E+00  0.00000000000E+00  0.21929295940E+03  0.18120455913E+04  0.17987272786E+04 0.  0.
        2    1    3    3  502    0 -0.16372546072E+03 -0.69830517625E+03 -0.43697485206E+03  0.83987092283E+03  0.25500000920E-02 0. -1.
       -2    1    3    3    0  502  0.16372546072E+03  0.69830517625E+03  0.65626781146E+03  0.97217466848E+03  0.25500000920E-02 0.  1.
</event>
<event>
 5   0  0.4015729E-05  0.1797918E+04  0.7818609E-02  0.8707407E-01
        2   -1    0    0  501    0  0.00000000000E+00  0.00000000000E+00  0.13593027765E+04  0.13593027765E+04  0.25500000920E-02 0.  1.
       -2   -1    0    0    0  501  0.00000000000E+00  0.00000000000E+00 -0.59451631439E+03  0.59451631440E+03  0.25500000920E-02 0. -1.
    10030    2    1    2    0    0  0.00000000000E+00  0.00000000000E+00  0.76478646216E+03  0.19538190909E+04  0.17979184374E+04 0.  0.
        2    1    3    3  502    0  0.22096578671E+03  0.76018528198E+03 -0.80474713976E+02  0.79572842191E+03  0.25500000920E-02 0. -1.
       -2    1    3    3    0  502 -0.22096578671E+03 -0.76018528198E+03  0.84526117613E+03  0.11580906690E+04  0.25500000920E-02 0.  1.
</event>
<event>
 5   0  0.1906857E-05  0.1808026E+04  0.7818609E-02  0.8702043E-01
       -1   -1    0    0    0  501  0.00000000000E+00  0.00000000000E+00  0.14468081578E+04  0.14468081578E+04  0.50400001928E-02 0. -1.
        1   -1    0    0  501    0  0.00000000000E+00  0.00000000000E+00 -0.56485711271E+03  0.56485711273E+03  0.50400001928E-02 0.  1.
    10030    2    1    2    0    0  0.00000000000E+00  0.00000000000E+00  0.88195104505E+03  0.20116652705E+04  0.18080264143E+04 0.  0.
        4    1    3    3  502    0  0.21031443603E+03 -0.84668506729E+03  0.17737248824E+03  0.89026421789E+03  0.12699999809E+01 0.  1.
       -4    1    3    3    0  502 -0.21031443603E+03  0.84668506729E+03  0.70457855681E+03  0.11214010526E+04  0.12699999809E+01 0. -1.
</event>
<event>
 5   0  0.3909859E-05  0.1781771E+04  0.7818609E-02  0.8716054E-01
       -2   -1    0    0    0  501  0.00000000000E+00  0.00000000000E+00  0.63103906540E+03  0.63103906541E+03  0.25500000920E-02 0.  1.
        2   -1    0    0  501    0  0.00000000000E+00  0.00000000000E+00 -0.12577300261E+04  0.12577300261E+04  0.25500000920E-02 0. -1.
    10030    2    1    2    0    0  0.00000000000E+00  0.00000000000E+00 -0.62669096073E+03  0.18887690915E+04  0.17817707824E+04 0.  0.
        4    1    3    3  502    0  0.68873646904E+03 -0.33835260514E+03  0.16641984978E+03  0.78519907571E+03  0.12699999809E+01 0.  1.
       -4    1    3    3    0  502 -0.68873646904E+03  0.33835260514E+03 -0.79311081051E+03  0.11035700158E+04  0.12699999809E+01 0. -1.
</event>
<event>
 5   0  0.1446750E-05  0.1803107E+04  0.7818609E-02  0.8704649E-01
        3   -1    0    0  501    0  0.00000000000E+00  0.00000000000E+00  0.12311828568E+04  0.12311828609E+04  0.10100000352E+00 0.  1.
       -3   -1    0    0    0  501  0.00000000000E+00  0.00000000000E+00 -0.66017688210E+03  0.66017688982E+03  0.10100000352E+00 0. -1.
    10030    2    1    2    0    0  0.00000000000E+00  0.00000000000E+00  0.57100597468E+03  0.18913597507E+04  0.18031067311E+04 0.  0.
        4    1    3    3  502    0 -0.32476036863E+03 -0.10806279260E+03  0.11603822065E+04  0.12098079774E+04  0.12699999809E+01 0.  1.
       -4    1    3    3    0  502  0.32476036863E+03  0.10806279260E+03 -0.58937623182E+03  0.68155177332E+03  0.12699999809E+01 0. -1.
</event>
<event>
 5   0  0.2054876E-05  0.1798698E+04  0.7818609E-02  0.8706992E-01
       -1   -1    0    0    0  501  0.00000000000E+00  0.00000000000E+00  0.11597801325E+04  0.11597801325E+04  0.50400001928E-02 0.  1.
        1   -1    0    0  501    0  0.00000000000E+00  0.00000000000E+00 -0.69739837196E+03  0.69739837198E+03  0.50400001928E-02 0. -1.
    10030    2    1    2    0    0  0.00000000000E+00  0.00000000000E+00  0.46238176056E+03  0.18571785045E+04  0.17986981695E+04 0.  0.
        5    1    3    3  502    0  0.54824024880E+01 -0.88501570795E+03  0.39614692903E+03  0.96965836222E+03  0.46999998093E+01 0. -1.
       -5    1    3    3    0  502 -0.54824024880E+01  0.88501570795E+03  0.66234831528E+02  0.88752014228E+03  0.46999998093E+01 0.  1.
</event>
<event>
 5   0  0.1960300E-05  0.1808079E+04  0.7818609E-02  0.8702015E-01
        1   -1    0    0  501    0  0.00000000000E+00  0.00000000000E+00  0.10693615939E+04  0.10693615940E+04  0.50400001928E-02 0.  1.
       -1   -1    0    0    0  501  0.00000000000E+00  0.00000000000E+00 -0.76427578683E+03  0.76427578685E+03  0.50400001928E-02 0. -1.
    10030    2    1    2    0    0  0.00000000000E+00  0.00000000000E+00  0.30508580712E+03  0.18336373808E+04  0.18080787302E+04 0.  0.
        3    1    3    3  502    0  0.75371288048E+03 -0.23793129153E+03  0.59760037137E+03  0.99086861881E+03  0.10100000352E+00 0.  1.
       -3    1    3    3    0  502 -0.75371288048E+03  0.23793129153E+03 -0.29251456425E+03  0.84276876199E+03  0.10100000352E+00 0. -1.
</event>
<event>
 5   0  0.4015729E-05  0.1802618E+04  0.7818609E-02  0.8704909E-01
        2   -1    0    0  501    0  0.00000000000E+00  0.00000000000E+00  0.28640632398E+03  0.28640632399E+03  0.25500000920E-02 0.  1.
       -2   -1    0    0    0  501  0.00000000000E+00  0.00000000000E+00 -0.28363811441E+04  0.28363811441E+04  0.25500000920E-02 0. -1.
    10030    2    1    2    0    0  0.00000000000E+00  0.00000000000E+00 -0.25499748201E+04  0.31227874681E+04  0.18026175378E+04 0.  0.
        2    1    3    3  502    0  0.79156855603E+03 -0.94084135792E+02 -0.20036614662E+04  0.21564071681E+04  0.25500000920E-02 0. -1.
       -2    1    3    3    0  502 -0.79156855603E+03  0.94084135792E+02 -0.54631335391E+03  0.96638029997E+03  0.25500000920E-02 0.  1.
</event>
<event>
 5   0  0.2038338E-05  0.1794575E+04  0.7818609E-02  0.8709190E-01
        1   -1    0    0  501    0  0.00000000000E+00  0.00000000000E+00  0.12700144045E+04  0.12700144045E+04  0.50400001928E-02 0. -1.
       -1   -1    0    0    0  501  0.00000000000E+00  0.00000000000E+00 -0.63394941189E+03  0.63394941191E+03  0.50400001928E-02 0.  1.
    10030    2    1    2    0    0  0.00000000000E+00  0.00000000000E+00  0.63606499257E+03  0.19039638164E+04  0.17945750303E+04 0.  0.
        1    1    3    3  502    0  0.32309850628E+03 -0.75395742400E+03 -0.67840946657E+02  0.82307158621E+03  0.50400001928E-02 0.  1.
       -1    1    3    3    0  502 -0.32309850628E+03  0.75395742400E+03  0.70390593923E+03  0.10808922302E+04  0.50400001928E-02 0. -1.
</event>
<event>
 5   0  0.4015729E-05  0.1800115E+04  0.7818609E-02  0.8706238E-01
       -2   -1    0    0    0  501  0.00000000000E+00  0.00000000000E+00  0.41084094533E+03  0.41084094534E+03  0.25500000920E-02 0.  1.
        2   -1    0    0  501    0  0.00000000000E+00  0.00000000000E+00 -0.19718172806E+04  0.19718172806E+04  0.25500000920E-02 0. -1.
    10030    2    1    2    0    0  0.00000000000E+00  0.00000000000E+00 -0.15609763353E+04  0.23826582259E+04  0.18001147470E+04 0.  0.
        2    1    3    3  502    0 -0.58570623565E+03  0.66391764726E+03 -0.99499885292E+03  0.13318637896E+04  0.25500000920E-02 0. -1.
       -2    1    3    3    0  502  0.58570623565E+03 -0.66391764726E+03 -0.56597748233E+03  0.10507944363E+04  0.25500000920E-02 0.  1.
</event>
<event>
 5   0  0.4015729E-05  0.1799515E+04  0.7818609E-02  0.8706557E-01
        2   -1    0    0  501    0  0.00000000000E+00  0.00000000000E+00  0.19715078369E+04  0.19715078369E+04  0.25500000920E-02 0. -1.
       -2   -1    0    0    0  501  0.00000000000E+00  0.00000000000E+00 -0.41063174341E+03  0.41063174342E+03  0.25500000920E-02 0.  1.
    10030    2    1    2    0    0  0.00000000000E+00  0.00000000000E+00  0.15608760935E+04  0.23821395803E+04  0.17995151572E+04 0.  0.
        2    1    3    3  502    0  0.19171511318E+03  0.10218866890E+03  0.19362670708E+04  0.19484166336E+04  0.25500000920E-02 0. -1.
       -2    1    3    3    0  502 -0.19171511318E+03 -0.10218866890E+03 -0.37539097729E+03  0.43372294672E+03  0.25500000920E-02 0.  1.
</event>
<event>
 5   0  0.1960300E-05  0.1800590E+04  0.7818609E-02  0.8705986E-01
        1   -1    0    0  501    0  0.00000000000E+00  0.00000000000E+00  0.22558180386E+04  0.22558180386E+04  0.50400001928E-02 0. -1.
       -1   -1    0    0    0  501  0.00000000000E+00  0.00000000000E+00 -0.35930674525E+03  0.35930674529E+03  0.50400001928E-02 0.  1.
    10030    2    1    2    0    0  0.00000000000E+00  0.00000000000E+00  0.18965112934E+04  0.26151247839E+04  0.18005895006E+04 0.  0.
        3    1    3    3  502    0 -0.26827509809E+02 -0.31578537512E+02 -0.35792112054E+03  0.36031161242E+03  0.10100000352E+00 0.  1.
       -3    1    3    3    0  502  0.26827509809E+02  0.31578537512E+02  0.22544324139E+04  0.22548131715E+04  0.10100000352E+00 0. -1.
</event>
<event>
 5   0  0.2038338E-05  0.1801604E+04  0.7818609E-02  0.8705447E-01
       -1   -1    0    0    0  501  0.00000000000E+00  0.00000000000E+00  0.10702060211E+04  0.10702060211E+04  0.50400001928E-02 0. -1.
        1   -1    0    0  501    0  0.00000000000E+00  0.00000000000E+00 -0.75821278566E+03  0.75821278568E+03  0.50400001928E-02 0.  1.
    10030    2    1    2    0    0  0.00000000000E+00  0.00000000000E+00  0.31199323539E+03  0.18284188067E+04  0.18016036062E+04 0.  0.
        1    1    3    3  502    0  0.18676233929E+03  0.88087191417E+03  0.13055584222E+03  0.90986830284E+03  0.50400001928E-02 0.  1.
       -1    1    3    3    0  502 -0.18676233929E+03 -0.88087191417E+03  0.18143739317E+03  0.91855050390E+03  0.50400001928E-02 0. -1.
</event>
<event>
 5   0  0.1960300E-05  0.1800616E+04  0.7818609E-02  0.8705972E-01
       -1   -1    0    0    0  501  0.00000000000E+00  0.00000000000E+00  0.79917298749E+03  0.79917298751E+03  0.50400001928E-02 0.  1.
        1   -1    0    0  501    0  0.00000000000E+00  0.00000000000E+00 -0.10142421590E+04  0.10142421590E+04  0.50400001928E-02 0. -1.
    10030    2    1    2    0    0  0.00000000000E+00  0.00000000000E+00 -0.21506917155E+03  0.18134151466E+04  0.18006164903E+04 0.  0.
        3    1    3    3  502    0  0.39248714014E+03 -0.22816488634E+03  0.67545511046E+03  0.81384580050E+03  0.10100000352E+00 0.  1.
       -3    1    3    3    0  502 -0.39248714014E+03  0.22816488634E+03 -0.89052428201E+03  0.99956934606E+03  0.10100000352E+00 0. -1.
</event>
<event>
 5   0  0.1446750E-05  0.1799588E+04  0.7818609E-02  0.8706518E-01
       -3   -1    0    0    0  501  0.00000000000E+00  0.00000000000E+00  0.71262747816E+03  0.71262748532E+03  0.10100000352E+00 0. -1.
        3   -1    0    0  501    0  0.00000000000E+00  0.00000000000E+00 -0.11361189527E+04  0.11361189571E+04  0.10100000352E+00 0.  1.
    10030    2    1    2    0    0  0.00000000000E+00  0.00000000000E+00 -0.42349147449E+03  0.18487464425E+04  0.17995883917E+04 0.  0.
        2    1    3    3  502    0 -0.13717116751E+03 -0.74454848117E+03 -0.71130168683E+03  0.10388062667E+04  0.25500000920E-02 0.  1.
       -2    1    3    3    0  502  0.13717116751E+03  0.74454848117E+03  0.28781021234E+03  0.80994017578E+03  0.25500000920E-02 0. -1.
</event>
<event>
 5   0  0.1906857E-05  0.1798524E+04  0.7818609E-02  0.8707085E-01
       -1   -1    0    0    0  501  0.00000000000E+00  0.00000000000E+00  0.37723005891E+03  0.37723005895E+03  0.50400001928E-02 0.  1.
        1   -1    0    0  501    0  0.00000000000E+00  0.00000000000E+00 -0.21437106440E+04  0.21437106440E+04  0.50400001928E-02 0. -1.
    10030    2    1    2    0    0  0.00000000000E+00  0.00000000000E+00 -0.17664805851E+04  0.25209407030E+04  0.17985239421E+04 0.  0.
        4    1    3    3  502    0  0.21104033849E+03  0.40029025067E+01  0.34201384119E+03  0.40190686504E+03  0.12699999809E+01 0.  1.
       -4    1    3    3    0  502 -0.21104033849E+03 -0.40029025067E+01 -0.21084944263E+04  0.21190338379E+04  0.12699999809E+01 0. -1.
</event>
<event>
 5   0  0.1906857E-05  0.1799954E+04  0.7818609E-02  0.8706324E-01
       -1   -1    0    0    0  501  0.00000000000E+00  0.00000000000E+00  0.18527274093E+04  0.18527274093E+04  0.50400001928E-02 0.  1.
        1   -1    0    0  501    0  0.00000000000E+00  0.00000000000E+00 -0.43717100304E+03  0.43717100307E+03  0.50400001928E-02 0. -1.
    10030    2    1    2    0    0  0.00000000000E+00  0.00000000000E+00  0.14155564062E+04  0.22898984124E+04  0.17999541104E+04 0.  0.
        4    1    3    3  502    0 -0.89597679100E+03  0.80948128682E+02  0.67584431808E+03  0.11252084983E+04  0.12699999809E+01 0.  1.
       -4    1    3    3    0  502  0.89597679100E+03 -0.80948128682E+02  0.73971208816E+03  0.11646899140E+04  0.12699999809E+01 0. -1.
</event>
<event>
 5   0  0.3984648E-05  0.1799560E+04  0.7818609E-02  0.8706534E-01
        2   -1    0    0  501    0  0.00000000000E+00  0.00000000000E+00  0.94851841809E+03  0.94851841810E+03  0.25500000920E-02 0. -1.
       -2   -1    0    0    0  501  0.00000000000E+00  0.00000000000E+00 -0.85354574123E+03  0.85354574123E+03  0.25500000920E-02 0.  1.
    10030    2    1    2    0    0  0.00000000000E+00  0.00000000000E+00  0.94972676867E+02  0.18020641593E+04  0.17995597864E+04 0.  0.
        1    1    3    3  502    0  0.37532072019E+03 -0.30863796876E+03 -0.71085270657E+03  0.86106597263E+03  0.50400001928E-02 0.  1.
       -1    1    3    3    0  502 -0.37532072019E+03  0.30863796876E+03  0.80582538343E+03  0.94099818670E+03  0.50400001928E-02 0. -1.
</event>
<event>
 5   0  0.3983176E-05  0.1796691E+04  0.7818609E-02  0.8708061E-01
        2   -1    0    0  501    0  0.00000000000E+00  0.00000000000E+00  0.12120446700E+04  0.12120446700E+04  0.25500000920E-02 0. -1.
       -2   -1    0    0    0  501  0.00000000000E+00  0.00000000000E+00 -0.66583726307E+03  0.66583726308E+03  0.25500000920E-02 0.  1.
    10030    2    1    2    0    0  0.00000000000E+00  0.00000000000E+00  0.54620740697E+03  0.18778819331E+04  0.17966908536E+04 0.  0.
        3    1    3    3  502    0 -0.40422452449E+03 -0.23470801856E+03 -0.52872687600E+03  0.70571767711E+03  0.10100000352E+00 0.  1.
       -3    1    3    3    0  502  0.40422452449E+03  0.23470801856E+03  0.10749342830E+04  0.11721642560E+04  0.10100000352E+00 0. -1.
</event>
<event>
 5   0  0.2054876E-05  0.1800658E+04  0.7818609E-02  0.8705950E-01
        1   -1    0    0  501    0  0.00000000000E+00  0.00000000000E+00  0.91184383369E+03  0.91184383370E+03  0.50400001928E-02 0.  1.
       -1   -1    0    0    0  501  0.00000000000E+00  0.00000000000E+00 -0.88895966412E+03  0.88895966413E+03  0.50400001928E-02 0. -1.
    10030    2    1    2    0    0  0.00000000000E+00  0.00000000000E+00  0.22884169573E+02  0.18008034978E+04  0.18006580888E+04 0.  0.
        5    1    3    3  502    0 -0.42091056693E+03 -0.62084138756E+03  0.50943868435E+03  0.90673016767E+03  0.46999998093E+01 0.  1.
       -5    1    3    3    0  502  0.42091056693E+03  0.62084138756E+03 -0.48655451477E+03  0.89407333016E+03  0.46999998093E+01 0. -1.
</event>
<event>
 5   0  0.4015729E-05  0.1797338E+04  0.7818609E-02  0.8707716E-01
        2   -1    0    0  501    0  0.00000000000E+00  0.00000000000E+00  0.79901338633E+03  0.79901338633E+03  0.25500000920E-02 0. -1.
       -2   -1    0    0    0  501  0.00000000000E+00  0.00000000000E+00 -0.10107540617E+04  0.10107540617E+04  0.25500000920E-02 0.  1.
    10030    2    1    2    0    0  0.00000000000E+00  0.00000000000E+00 -0.21174067536E+03  0.18097674480E+04  0.17973380601E+04 0.  0.
        2    1    3    3  502    0  0.72751189266E+03 -0.33649733740E+03  0.30326706737E+03  0.85701512600E+03  0.25500000920E-02 0. -1.
       -2    1    3    3    0  502 -0.72751189266E+03  0.33649733740E+03 -0.51500774273E+03  0.95275232202E+03  0.25500000920E-02 0.  1.
</event>
<event>
 5   0  0.3909859E-05  0.1800893E+04  0.7818609E-02  0.8705825E-01
        2   -1    0    0  501    0  0.00000000000E+00  0.00000000000E+00  0.14929661291E+04  0.14929661292E+04  0.25500000920E-02 0. -1.
       -2   -1    0    0    0  501  0.00000000000E+00  0.00000000000E+00 -0.54308247623E+03  0.54308247623E+03  0.25500000920E-02 0.  1.
    10030    2    1    2    0    0  0.00000000000E+00  0.00000000000E+00  0.94988365292E+03  0.20360486054E+04  0.18008928256E+04 0.  0.
        4    1    3    3  502    0 -0.83790621606E+03 -0.77252851000E+02  0.11254408560E+03  0.84895383503E+03  0.12699999809E+01 0.  1.
       -4    1    3    3    0  502  0.83790621606E+03  0.77252851000E+02  0.83733956733E+03  0.11870947704E+04  0.12699999809E+01 0. -1.
</event>
<event>
 5   0  0.1906857E-05  0.1768552E+04  0.7818609E-02  0.8723204E-01
       -1   -1    0    0    0  501  0.00000000000E+00  0.00000000000E+00  0.66162449890E+03  0.66162449892E+03  0.50400001928E-02 0. -1.
        1   -1    0    0  501    0  0.00000000000E+00  0.00000000000E+00 -0.11818552511E+04  0.11818552511E+04  0.50400001928E-02 0.  1.
    10030    2    1    2    0    0  0.00000000000E+00  0.00000000000E+00 -0.52023075216E+03  0.18434797500E+04  0.17685523891E+04 0.  0.
        4    1    3    3  502    0 -0.30065863564E+03  0.36227161292E+03  0.52013367412E+03  0.70155326852E+03  0.12699999809E+01 0. -1.
       -4    1    3    3    0  502  0.30065863564E+03 -0.36227161292E+03 -0.10403644263E+04  0.11419264815E+04  0.12699999809E+01 0.  1.
</event>
<event>
 5   0  0.3993393E-05  0.1798347E+04  0.7818609E-02  0.8707179E-01
       -2   -1    0    0    0  501  0.00000000000E+00  0.00000000000E+00  0.93091059297E+03  0.93091059298E+03  0.25500000920E-02 0.  1.
        2   -1    0    0  501    0  0.00000000000E+00  0.00000000000E+00 -0.86851819942E+03  0.86851819943E+03  0.25500000920E-02 0. -1.
    10030    2    1    2    0    0  0.00000000000E+00  0.00000000000E+00  0.62392393550E+02  0.17994287924E+04  0.17983467875E+04 0.  0.
        5    1    3    3  502    0 -0.16426133413E+03  0.45603389791E+02 -0.85218788842E+03  0.86908442755E+03  0.46999998093E+01 0. -1.
       -5    1    3    3    0  502  0.16426133413E+03 -0.45603389791E+02  0.91458028197E+03  0.93034436485E+03  0.46999998093E+01 0.  1.
</event>
<event>
 5   0  0.3984648E-05  0.1800652E+04  0.7818609E-02  0.8705953E-01
        2   -1    0    0  501    0  0.00000000000E+00  0.00000000000E+00  0.92276378047E+03  0.92276378047E+03  0.25500000920E-02 0.  1.
       -2   -1    0    0    0  501  0.00000000000E+00  0.00000000000E+00 -0.87843375504E+03  0.87843375504E+03  0.25500000920E-02 0. -1.
    10030    2    1    2    0    0  0.00000000000E+00  0.00000000000E+00  0.44330025429E+02  0.18011975355E+04  0.18006519405E+04 0.  0.
        1    1    3    3  502    0 -0.62728599075E+03 -0.55030505330E+03  0.36029626036E+03  0.90892065723E+03  0.50400001928E-02 0.  1.
       -1    1    3    3    0  502  0.62728599075E+03  0.55030505330E+03 -0.31596623493E+03  0.89227687829E+03  0.50400001928E-02 0. -1.
</event>
<event>
 5   0  0.1906857E-05  0.1800066E+04  0.7818609E-02  0.8706265E-01
        1   -1    0    0  501    0  0.00000000000E+00  0.00000000000E+00  0.97464022773E+03  0.97464022774E+03  0.50400001928E-02 0. -1.
       -1   -1    0    0    0  501  0.00000000000E+00  0.00000000000E+00 -0.83113657363E+03  0.83113657364E+03  0.50400001928E-02 0.  1.
    10030    2    1    2    0    0  0.00000000000E+00  0.00000000000E+00  0.14350365410E+03  0.18057768014E+04  0.18000657093E+04 0.  0.
        4    1    3    3  502    0 -0.53894894813E+03  0.24307299500E+03 -0.60900791482E+03  0.84878896246E+03  0.12699999809E+01 0.  1.
       -4    1    3    3    0  502  0.53894894813E+03 -0.24307299500E+03  0.75251156892E+03  0.95698783892E+03  0.12699999809E+01 0. -1.
</event>
<event>
 5   0  0.1960300E-05  0.1779030E+04  0.7818609E-02  0.8717531E-01
        1   -1    0    0  501    0  0.00000000000E+00  0.00000000000E+00  0.80917509384E+03  0.80917509386E+03  0.50400001928E-02 0. -1.
       -1   -1    0    0    0  501  0.00000000000E+00  0.00000000000E+00 -0.97783154887E+03  0.97783154888E+03  0.50400001928E-02 0.  1.
    10030    2    1    2    0    0  0.00000000000E+00  0.00000000000E+00 -0.16865645503E+03  0.17870066427E+04  0.17790300001E+04 0.  0.
        3    1    3    3  502    0 -0.12685587794E+03  0.83007822759E+03  0.21044050169E+03  0.86568325191E+03  0.10100000352E+00 0. -1.
       -3    1    3    3    0  502  0.12685587794E+03 -0.83007822759E+03 -0.37909695672E+03  0.92132339082E+03  0.10100000352E+00 0.  1.
</event>
<event>
 5   0  0.3909859E-05  0.1798390E+04  0.7818609E-02  0.8707156E-01
        2   -1    0    0  501    0  0.00000000000E+00  0.00000000000E+00  0.10159748159E+04  0.10159748159E+04  0.25500000920E-02 0. -1.
       -2   -1    0    0    0  501  0.00000000000E+00  0.00000000000E+00 -0.79583860003E+03  0.79583860003E+03  0.25500000920E-02 0.  1.
    10030    2    1    2    0    0  0.00000000000E+00  0.00000000000E+00  0.22013621583E+03  0.18118134159E+04  0.17983903638E+04 0.  0.
        4    1    3    3  502    0 -0.62950837335E+03  0.55031974974E+03 -0.22318436493E+03  0.86541636957E+03  0.12699999809E+01 0.  1.
       -4    1    3    3    0  502  0.62950837335E+03 -0.55031974974E+03  0.44332058076E+03  0.94639704633E+03  0.12699999809E+01 0. -1.
</event>
<event>
 5   0  0.3983176E-05  0.1807613E+04  0.7818609E-02  0.8702261E-01
        2   -1    0    0  501    0  0.00000000000E+00  0.00000000000E+00  0.98174544085E+03  0.98174544085E+03  0.25500000920E-02 0.  1.
       -2   -1    0    0    0  501  0.00000000000E+00  0.00000000000E+00 -0.83205494710E+03  0.83205494711E+03  0.25500000920E-02 0. -1.
    10030    2    1    2    0    0  0.00000000000E+00  0.00000000000E+00  0.14969049375E+03  0.18138003880E+04  0.18076129573E+04 0.  0.
        3    1    3    3  502    0  0.43016946643E+03  0.18708403518E+03 -0.70034036824E+03  0.84292517322E+03  0.10100000352E+00 0. -1.
       -3    1    3    3    0  502 -0.43016946643E+03 -0.18708403518E+03  0.85003086198E+03  0.97087521474E+03  0.10100000352E+00 0.  1.
</event>
<event>
 5   0  0.4015729E-05  0.1805848E+04  0.7818609E-02  0.8703196E-01
        2   -1    0    0  501    0  0.00000000000E+00  0.00000000000E+00  0.14585559067E+04  0.14585559067E+04  0.25500000920E-02 0. -1.
       -2   -1    0    0    0  501  0.00000000000E+00  0.00000000000E+00 -0.55895796805E+03  0.55895796806E+03  0.25500000920E-02 0.  1.
    10030    2    1    2    0    0  0.00000000000E+00  0.00000000000E+00  0.89959793861E+03  0.20175138747E+04  0.18058476634E+04 0.  0.
        2    1    3    3  502    0 -0.55456685650E+03 -0.59384515487E+03  0.98459678703E+01  0.81258440139E+03  0.25500000920E-02 0.  1.
       -2    1    3    3    0  502  0.55456685650E+03  0.59384515487E+03  0.88975197074E+03  0.12049294733E+04  0.25500000920E-02 0. -1.
</event>
<event>
 5   0  0.4015729E-05  0.1801656E+04  0.7818609E-02  0.8705419E-01
       -2   -1    0    0    0  501  0.00000000000E+00  0.00000000000E+00  0.63683878993E+03  0.63683878994E+03  0.25500000920E-02 0. -1.
        2   -1    0    0  501    0  0.00000000000E+00  0.00000000000E+00 -0.12742483950E+04  0.12742483950E+04  0.25500000920E-02 0.  1.
    10030    2    1    2    0    0  0.00000000000E+00  0.00000000000E+00 -0.63740960507E+03  0.19110871849E+04  0.18016556896E+04 0.  0.
        2    1    3    3  502    0 -0.58054751246E+03  0.66667075149E+03 -0.50244710020E+03  0.10168276125E+04  0.25500000920E-02 0.  1.
       -2    1    3    3    0  502  0.58054751246E+03 -0.66667075149E+03 -0.13496250488E+03  0.89425957241E+03  0.25500000920E-02 0. -1.
</event>
<event>
 5   0  0.3909859E-05  0.1799124E+04  0.7818609E-02  0.8706765E-01
       -2   -1    0    0    0  501  0.00000000000E+00  0.00000000000E+00  0.39290069137E+03  0.39290069138E+03  0.25500000920E-02 0.  1.
        2   -1    0    0  501    0  0.00000000000E+00  0.00000000000E+00 -0.20595842719E+04  0.20595842719E+04  0.25500000920E-02 0. -1.
    10030    2    1    2    0    0  0.00000000000E+00  0.00000000000E+00 -0.16666835806E+04  0.24524849633E+04  0.17991243252E+04 0.  0.
        4    1    3    3  502    0  0.27855373876E+03  0.75090138016E+02 -0.19948102838E+04  0.20155645352E+04  0.12699999809E+01 0. -1.
       -4    1    3    3    0  502 -0.27855373876E+03 -0.75090138016E+02  0.32812670327E+03  0.43692042811E+03  0.12699999809E+01 0.  1.
</event>
<event>
 5   0  0.3993393E-05  0.1798562E+04  0.7818609E-02  0.8707064E-01
        2   -1    0    0  501    0  0.00000000000E+00  0.00000000000E+00  0.76469087074E+03  0.76469087074E+03  0.25500000920E-02 0.  1.
       -2   -1    0    0    0  501  0.00000000000E+00  0.00000000000E+00 -0.10575600621E+04  0.10575600621E+04  0.25500000920E-02 0. -1.
    10030    2    1    2    0    0  0.00000000000E+00  0.00000000000E+00 -0.29286919136E+03  0.18222509328E+04  0.17985622311E+04 0.  0.
        5    1    3    3  502    0  0.48481914732E+03 -0.55207804150E+03  0.37889688104E+03  0.82669505017E+03  0.46999998093E+01 0.  1.
       -5    1    3    3    0  502 -0.48481914732E+03  0.55207804150E+03 -0.67176607240E+03  0.99555588268E+03  0.46999998093E+01 0. -1.
</event>
<event>
 5   0  0.3993393E-05  0.1802104E+04  0.7818609E-02  0.8705182E-01
        2   -1    0    0  501    0  0.00000000000E+00  0.00000000000E+00  0.13696156989E+04  0.13696156989E+04  0.25500000920E-02 0.  1.
       -2   -1    0    0    0  501  0.00000000000E+00  0.00000000000E+00 -0.59278989884E+03  0.59278989884E+03  0.25500000920E-02 0. -1.
    10030    2    1    2    0    0  0.00000000000E+00  0.00000000000E+00  0.77682580006E+03  0.19624055977E+04  0.18021036059E+04 0.  0.
        5    1    3    3  502    0 -0.59152324980E+03  0.24738631713E+03  0.10777917961E+04  0.12540960851E+04  0.46999998093E+01 0.  1.
       -5    1    3    3    0  502  0.59152324980E+03 -0.24738631713E+03 -0.30096599601E+03  0.70830951265E+03  0.46999998093E+01 0. -1.
</event>
<event>
 5   0  0.3983176E-05  0.1802458E+04  0.7818609E-02  0.8704994E-01
        2   -1    0    0  501    0  0.00000000000E+00  0.00000000000E+00  0.19030615153E+04  0.19030615153E+04  0.25500000920E-02 0. -1.
       -2   -1    0    0    0  501  0.00000000000E+00  0.00000000000E+00 -0.42679298362E+03  0.42679298363E+03  0.25500000920E-02 0.  1.
    10030    2    1    2    0    0  0.00000000000E+00  0.00000000000E+00  0.14762685317E+04  0.23298544989E+04  0.18024575469E+04 0.  0.
        3    1    3    3  502    0  0.32885976287E+03 -0.45277987564E+03 -0.17500692005E+03  0.58633249244E+03  0.10100000352E+00 0.  1.
       -3    1    3    3    0  502 -0.32885976287E+03  0.45277987564E+03  0.16512754517E+04  0.17435220065E+04  0.10100000352E+00 0. -1.
</event>
<event>
 5   0  0.2038338E-05  0.1798873E+04  0.7818609E-02  0.8706899E-01
       -1   -1    0    0    0  501  0.00000000000E+00  0.00000000000E+00  0.11206596179E+04  0.11206596179E+04  0.50400001928E-02 0. -1.
        1   -1    0    0  501    0  0.00000000000E+00  0.00000000000E+00 -0.72188345445E+03  0.72188345446E+03  0.50400001928E-02 0.  1.
    10030    2    1    2    0    0  0.00000000000E+00  0.00000000000E+00  0.39877616346E+03  0.18425430724E+04  0.17988725761E+04 0.  0.
        1    1    3    3  502    0 -0.22110216019E+03  0.22638103407E+03 -0.66298413503E+03  0.73463086047E+03  0.50400001928E-02 0.  1.
       -1    1    3    3    0  502  0.22110216019E+03 -0.22638103407E+03  0.10617602985E+04  0.11079122119E+04  0.50400001928E-02 0. -1.
</event>
<event>
 5   0  0.2038338E-05  0.1795671E+04  0.7818609E-02  0.8708605E-01
        1   -1    0    0  501    0  0.00000000000E+00  0.00000000000E+00  0.12015362258E+04  0.12015362258E+04  0.50400001928E-02 0.  1.
       -1   -1    0    0    0  501  0.00000000000E+00  0.00000000000E+00 -0.67089828258E+03  0.67089828260E+03  0.50400001928E-02 0. -1.
    10030    2    1    2    0    0  0.00000000000E+00  0.00000000000E+00  0.53063794322E+03  0.18724345084E+04  0.17956710059E+04 0.  0.
        1    1    3    3  502    0  0.33121283071E+03  0.20064638578E+02 -0.60461392305E+03  0.68968291622E+03  0.50400001928E-02 0. -1.
       -1    1    3    3    0  502 -0.33121283071E+03 -0.20064638578E+02  0.11352518663E+04  0.11827515922E+04  0.50400001928E-02 0.  1.
</event>
<event>
 5   0  0.4015729E-05  0.1799971E+04  0.7818609E-02  0.8706315E-01
        2   -1    0    0  501    0  0.00000000000E+00  0.00000000000E+00  0.16515742328E+04  0.16515742328E+04  0.25500000920E-02 0. -1.
       -2   -1    0    0    0  501  0.00000000000E+00  0.00000000000E+00 -0.49042509567E+03  0.49042509567E+03  0.25500000920E-02 0.  1.
    10030    2    1    2    0    0  0.00000000000E+00  0.00000000000E+00  0.11611491371E+04  0.21419993285E+04  0.17999705010E+04 0.  0.
        2    1    3    3  502    0 -0.84238214192E+03  0.22314315225E+03  0.31295804673E+03  0.92592833332E+03  0.25500000920E-02 0.  1.
       -2    1    3    3    0  502  0.84238214192E+03 -0.22314315225E+03  0.84819109042E+03  0.12160709952E+04  0.25500000920E-02 0. -1.
</event>
<event>
 5   0  0.3909859E-05  0.1803742E+04  0.7818609E-02  0.8704312E-01
       -2   -1    0    0    0  501  0.00000000000E+00  0.00000000000E+00  0.40470691795E+03  0.40470691796E+03  0.25500000920E-02 0. -1.
        2   -1    0    0  501    0  0.00000000000E+00  0.00000000000E+00 -0.20097782887E+04  0.20097782887E+04  0.25500000920E-02 0.  1.
    10030    2    1    2    0    0  0.00000000000E+00  0.00000000000E+00 -0.16050713707E+04  0.24144852066E+04  0.18037418629E+04 0.  0.
        4    1    3    3  502    0 -0.52874449622E+03  0.72449286645E+03 -0.92888195027E+03  0.12912334980E+04  0.12699999809E+01 0. -1.
       -4    1    3    3    0  502  0.52874449622E+03 -0.72449286645E+03 -0.67618942045E+03  0.11232517087E+04  0.12699999809E+01 0.  1.
</event>
<event>
 5   0  0.2054876E-05  0.1799254E+04  0.7818609E-02  0.8706696E-01
       -1   -1    0    0    0  501  0.00000000000E+00  0.00000000000E+00  0.69795235302E+03  0.69795235303E+03  0.50400001928E-02 0. -1.
        1   -1    0    0  501    0  0.00000000000E+00  0.00000000000E+00 -0.11595754076E+04  0.11595754076E+04  0.50400001928E-02 0.  1.
    10030    2    1    2    0    0  0.00000000000E+00  0.00000000000E+00 -0.46162305462E+03  0.18575277607E+04  0.17992536056E+04 0.  0.
        5    1    3    3  502    0  0.52754146506E+03  0.13755302735E+02 -0.98298043861E+03  0.11156889523E+04  0.46999998093E+01 0.  1.
       -5    1    3    3    0  502 -0.52754146506E+03 -0.13755302735E+02  0.52135738399E+03  0.74183880833E+03  0.46999998093E+01 0. -1.
</event>
<event>
 5   0  0.1446750E-05  0.1799254E+04  0.7818609E-02  0.8706697E-01
       -3   -1    0    0    0  501  0.00000000000E+00  0.00000000000E+00  0.86614957111E+03  0.86614957699E+03  0.10100000352E+00 0.  1.
        3   -1    0    0  501    0  0.00000000000E+00  0.00000000000E+00 -0.93439787798E+03  0.93439788344E+03  0.10100000352E+00 0. -1.
    10030    2    1    2    0    0  0.00000000000E+00  0.00000000000E+00 -0.68248306874E+02  0.18005474604E+04  0.17992535469E+04 0.  0.
        5    1    3    3  502    0 -0.15508563658E+03  0.20515684162E+03 -0.89681449185E+03  0.93297331534E+03  0.46999998093E+01 0. -1.
       -5    1    3    3    0  502  0.15508563658E+03 -0.20515684162E+03  0.82856618498E+03  0.86757414509E+03  0.46999998093E+01 0.  1.
</event>
<event>
 5   0  0.3984648E-05  0.1824791E+04  0.7818609E-02  0.8693226E-01
        2   -1    0    0  501    0  0.00000000000E+00  0.00000000000E+00  0.12320382141E+04  0.12320382141E+04  0.25500000920E-02 0. -1.
       -2   -1    0    0    0  501  0.00000000000E+00  0.00000000000E+00 -0.67568185653E+03  0.67568185654E+03  0.25500000920E-02 0.  1.
    10030    2    1    2    0    0  0.00000000000E+00  0.00000000000E+00  0.55635635755E+03  0.19077200706E+04  0.18247913501E+04 0.  0.
        1    1    3    3  502    0 -0.57824895218E+03  0.63893400513E+03  0.59156320997E+03  0.10452538185E+04  0.50400001928E-02 0. -1.
       -1    1    3    3    0  502  0.57824895218E+03 -0.63893400513E+03 -0.35206852414E+02  0.86246625215E+03  0.50400001928E-02 0.  1.
</event>
<event>
 5   0  0.2054876E-05  0.1801712E+04  0.7818609E-02  0.8705390E-01
       -1   -1    0    0    0  501  0.00000000000E+00  0.00000000000E+00  0.10013380050E+04  0.10013380050E+04  0.50400001928E-02 0. -1.
        1   -1    0    0  501    0  0.00000000000E+00  0.00000000000E+00 -0.81045707433E+03  0.81045707435E+03  0.50400001928E-02 0.  1.
    10030    2    1    2    0    0  0.00000000000E+00  0.00000000000E+00  0.19088093069E+03  0.18117950794E+04  0.18017119304E+04 0.  0.
        5    1    3    3  502    0  0.52359145966E+03  0.49473794649E+03 -0.44851723998E+03  0.84858909779E+03  0.46999998093E+01 0.  1.
       -5    1    3    3    0  502 -0.52359145966E+03 -0.49473794649E+03  0.63939817068E+03  0.96320598160E+03  0.46999998093E+01 0. -1.
</event>
<event>
 5   0  0.1906857E-05  0.1800213E+04  0.7818609E-02  0.8706186E-01
       -1   -1    0    0    0  501  0.00000000000E+00  0.00000000000E+00  0.10223785780E+04  0.10223785780E+04  0.50400001928E-02 0. -1.
        1   -1    0    0  501    0  0.00000000000E+00  0.00000000000E+00 -0.79245766336E+03  0.79245766337E+03  0.50400001928E-02 0.  1.
    10030    2    1    2    0    0  0.00000000000E+00  0.00000000000E+00  0.22992091467E+03  0.18148362414E+04  0.18002130308E+04 0.  0.
        4    1    3    3  502    0  0.82396404782E+03 -0.10171761157E+03 -0.23560974957E+03  0.86300451424E+03  0.12699999809E+01 0. -1.
       -4    1    3    3    0  502 -0.82396404782E+03  0.10171761157E+03  0.46553066424E+03  0.95183172718E+03  0.12699999809E+01 0.  1.
</event>
<event>
 5   0  0.2038338E-05  0.1800957E+04  0.7818609E-02  0.8705791E-01
        1   -1    0    0  501    0  0.00000000000E+00  0.00000000000E+00  0.17339526217E+04  0.17339526217E+04  0.50400001928E-02 0.  1.
       -1   -1    0    0    0  501  0.00000000000E+00  0.00000000000E+00 -0.46763741510E+03  0.46763741513E+03  0.50400001928E-02 0. -1.
    10030    2    1    2    0    0  0.00000000000E+00  0.00000000000E+00  0.12663152066E+04  0.22015900368E+04  0.18009565480E+04 0.  0.
        1    1    3    3  502    0  0.36616236143E+02 -0.56886958121E+03 -0.21898080309E+03  0.61066025032E+03  0.50400001928E-02 0. -1.
       -1    1    3    3    0  502 -0.36616236143E+02  0.56886958121E+03  0.14852960097E+04  0.15909297865E+04  0.50400001928E-02 0.  1.
</event>
<event>
 5   0  0.2038338E-05  0.1801139E+04  0.7818609E-02  0.8705694E-01
       -1   -1    0    0    0  501  0.00000000000E+00  0.00000000000E+00  0.56087213718E+03  0.56087213721E+03  0.50400001928E-02 0. -1.
        1   -1    0    0  501    0  0.00000000000E+00  0.00000000000E+00 -0.14460077272E+04  0.14460077272E+04  0.50400001928E-02 0.  1.
    10030    2    1    2    0    0  0.00000000000E+00  0.00000000000E+00 -0.88513558998E+03  0.20068798644E+04  0.18011390222E+04 0.  0.
        1    1    3    3  502    0  0.54754853375E+03  0.52892824090E+02 -0.12370510871E+04  0.13538472735E+04  0.50400001928E-02 0.  1.
       -1    1    3    3    0  502 -0.54754853375E+03 -0.52892824090E+02  0.35191549715E+03  0.65303259092E+03  0.50400001928E-02 0. -1.
</event>
<event>
 5   0  0.2038338E-05  0.1798782E+04  0.7818609E-02  0.8706947E-01
       -1   -1    0    0    0  501  0.00000000000E+00  0.00000000000E+00  0.71828794673E+03  0.71828794675E+03  0.50400001928E-02 0. -1.
        1   -1    0    0  501    0  0.00000000000E+00  0.00000000000E+00 -0.11261558924E+04  0.11261558925E+04  0.50400001928E-02 0.  1.
    10030    2    1    2    0    0  0.00000000000E+00  0.00000000000E+00 -0.40786794571E+03  0.18444438392E+04  0.17987820365E+04 0.  0.
        1    1    3    3  502    0  0.71181291429E+03 -0.49925085042E+03  0.32072036699E+02  0.87003313280E+03  0.50400001928E-02 0. -1.
       -1    1    3    3    0  502 -0.71181291429E+03  0.49925085042E+03 -0.43993998241E+03  0.97441070640E+03  0.50400001928E-02 0.  1.
</event>
<event>
 5   0  0.2001811E-05  0.1797506E+04  0.7818609E-02  0.8707627E-01
        1   -1    0    0  501    0  0.00000000000E+00  0.00000000000E+00  0.94488924428E+03  0.94488924430E+03  0.50400001928E-02 0.  1.
       -1   -1    0    0    0  501  0.00000000000E+00  0.00000000000E+00 -0.85486929957E+03  0.85486929958E+03  0.50400001928E-02 0. -1.
    10030    2    1    2    0    0  0.00000000000E+00  0.00000000000E+00  0.90019944716E+02  0.17997585439E+04  0.17975058347E+04 0.  0.
        2    1    3    3  502    0  0.55880717624E+03  0.14072940775E+03 -0.64555474409E+03  0.86533875104E+03  0.25500000920E-02 0. -1.
       -2    1    3    3    0  502 -0.55880717624E+03 -0.14072940775E+03  0.73557468881E+03  0.93441979284E+03  0.25500000920E-02 0.  1.
</event>
<event>
 5   0  0.2054876E-05  0.1802281E+04  0.7818609E-02  0.8705088E-01
       -1   -1    0    0    0  501  0.00000000000E+00  0.00000000000E+00  0.16117361076E+04  0.16117361076E+04  0.50400001928E-02 0. -1.
        1   -1    0    0  501    0  0.00000000000E+00  0.00000000000E+00 -0.50383802297E+03  0.50383802300E+03  0.50400001928E-02 0.  1.
    10030    2    1    2    0    0  0.00000000000E+00  0.00000000000E+00  0.11078980846E+04  0.21155741306E+04  0.18022807040E+04 0.  0.
        5    1    3    3  502    0  0.58468633684E+03 -0.17818614210E+02 -0.25066629924E+03  0.63642069346E+03  0.46999998093E+01 0.  1.
       -5    1    3    3    0  502 -0.58468633684E+03  0.17818614210E+02  0.13585643839E+04  0.14791534371E+04  0.46999998093E+01 0. -1.
</event>
<event>
 5   0  0.3983176E-05  0.1785590E+04  0.7818609E-02  0.8714000E-01
        2   -1    0    0  501    0  0.00000000000E+00  0.00000000000E+00  0.79957156402E+03  0.79957156402E+03  0.25500000920E-02 0. -1.
       -2   -1    0    0    0  501  0.00000000000E+00  0.00000000000E+00 -0.99688723075E+03  0.99688723075E+03  0.25500000920E-02 0.  1.
    10030    2    1    2    0    0  0.00000000000E+00  0.00000000000E+00 -0.19731566673E+03  0.17964587948E+04  0.17855897426E+04 0.  0.
        3    1    3    3  502    0  0.16092025671E+03  0.49094225333E+03 -0.83121294748E+03  0.97869024691E+03  0.10100000352E+00 0.  1.
       -3    1    3    3    0  502 -0.16092025671E+03 -0.49094225333E+03  0.63389728075E+03  0.81776854787E+03  0.10100000352E+00 0. -1.
</event>
<event>
 5   0  0.1960300E-05  0.1813633E+04  0.7818609E-02  0.8699083E-01
        1   -1    0    0  501    0  0.00000000000E+00  0.00000000000E+00  0.17923465906E+04  0.17923465906E+04  0.50400001928E-02 0. -1.
       -1   -1    0    0    0  501  0.00000000000E+00  0.00000000000E+00 -0.45879288246E+03  0.45879288249E+03  0.50400001928E-02 0.  1.
    10030    2    1    2    0    0  0.00000000000E+00  0.00000000000E+00  0.13335537081E+04  0.22511394731E+04  0.18136326626E+04 0.  0.
        3    1    3    3  502    0 -0.16850201354E+03  0.65542839514E+02  0.17697478317E+04  0.17789592998E+04  0.10100000352E+00 0. -1.
       -3    1    3    3    0  502  0.16850201354E+03 -0.65542839514E+02 -0.43619412358E+03  0.47218017327E+03  0.10100000352E+00 0.  1.
</event>
<event>
 5   0  0.2001811E-05  0.1799978E+04  0.7818609E-02  0.8706311E-01
       -1   -1    0    0    0  501  0.00000000000E+00  0.00000000000E+00  0.48593657817E+03  0.48593657819E+03  0.50400001928E-02 0.  1.
        1   -1    0    0  501    0  0.00000000000E+00  0.00000000000E+00 -0.16668434854E+04  0.16668434854E+04  0.50400001928E-02 0. -1.
    10030    2    1    2    0    0  0.00000000000E+00  0.00000000000E+00 -0.11809069072E+04  0.21527800636E+04  0.17999780217E+04 0.  0.
        2    1    3    3  502    0 -0.25709907469E+03  0.85332576119E+03 -0.74038589231E+03  0.11586354295E+04  0.25500000920E-02 0. -1.
       -2    1    3    3    0  502  0.25709907469E+03 -0.85332576119E+03 -0.44052101489E+03  0.99414463409E+03  0.25500000920E-02 0.  1.
</event>
<event>
 5   0  0.3993393E-05  0.1798523E+04  0.7818609E-02  0.8707085E-01
        2   -1    0    0  501    0  0.00000000000E+00  0.00000000000E+00  0.78005431900E+03  0.78005431900E+03  0.25500000920E-02 0. -1.
       -2   -1    0    0    0  501  0.00000000000E+00  0.00000000000E+00 -0.10366861659E+04  0.10366861659E+04  0.25500000920E-02 0.  1.
    10030    2    1    2    0    0  0.00000000000E+00  0.00000000000E+00 -0.25663184687E+03  0.18167404849E+04  0.17985233066E+04 0.  0.
        5    1    3    3  502    0 -0.73647923310E+03 -0.51574160074E+03 -0.14455267821E+03  0.91066383825E+03  0.46999998093E+01 0.  1.
       -5    1    3    3    0  502  0.73647923310E+03  0.51574160074E+03 -0.11207916866E+03  0.90607664663E+03  0.46999998093E+01 0. -1.
</event>
<event>
 5   0  0.3983176E-05  0.1800458E+04  0.7818609E-02  0.8706056E-01
        2   -1    0    0  501    0  0.00000000000E+00  0.00000000000E+00  0.62446775617E+03  0.62446775617E+03  0.25500000920E-02 0.  1.
       -2   -1    0    0    0  501  0.00000000000E+00  0.00000000000E+00 -0.12977649764E+04  0.12977649764E+04  0.25500000920E-02 0. -1.
    10030    2    1    2    0    0  0.00000000000E+00  0.00000000000E+00 -0.67329722022E+03  0.19222327326E+04  0.18004581449E+04 0.  0.
        3    1    3    3  502    0 -0.13216251827E+03 -0.32320108307E+03  0.54922273381E+03  0.65082370336E+03  0.10100000352E+00 0.  1.
       -3    1    3    3    0  502  0.13216251827E+03  0.32320108307E+03 -0.12225199540E+04  0.12714090292E+04  0.10100000352E+00 0. -1.
</event>
<event>
 5   0  0.2038338E-05  0.1801490E+04  0.7818609E-02  0.8705508E-01
        1   -1    0    0  501    0  0.00000000000E+00  0.00000000000E+00  0.16335628822E+04  0.16335628822E+04  0.50400001928E-02 0. -1.
       -1   -1    0    0    0  501  0.00000000000E+00  0.00000000000E+00 -0.49666973425E+03  0.49666973428E+03  0.50400001928E-02 0.  1.
    10030    2    1    2    0    0  0.00000000000E+00  0.00000000000E+00  0.11368931479E+04  0.21302326165E+04  0.18014896532E+04 0.  0.
        1    1    3    3  502    0  0.31595189741E+03 -0.70121048566E+03  0.11228531356E+04  0.13609999673E+04  0.50400001928E-02 0. -1.
       -1    1    3    3    0  502 -0.31595189741E+03  0.70121048566E+03  0.14040012334E+02  0.76923264924E+03  0.50400001928E-02 0.  1.
</event>
<event>
 5   0  0.3909859E-05  0.1798094E+04  0.7818609E-02  0.8707314E-01
        2   -1    0    0  501    0  0.00000000000E+00  0.00000000000E+00  0.15788718246E+04  0.15788718246E+04  0.25500000920E-02 0.  1.
       -2   -1    0    0    0  501  0.00000000000E+00  0.00000000000E+00 -0.51193840214E+03  0.51193840214E+03  0.25500000920E-02 0. -1.
    10030    2    1    2    0    0  0.00000000000E+00  0.00000000000E+00  0.10669334225E+04  0.20908102267E+04  0.17980935672E+04 0.  0.
        4    1    3    3  502    0  0.19364466910E+03 -0.86899516883E+03  0.67885136253E+03  0.11195944117E+04  0.12699999809E+01 0.  1.
       -4    1    3    3    0  502 -0.19364466910E+03  0.86899516883E+03  0.38808205992E+03  0.97121581507E+03  0.12699999809E+01 0. -1.
</event>
<event>
 5   0  0.3984648E-05  0.1798789E+04  0.7818609E-02  0.8706944E-01
       -2   -1    0    0    0  501  0.00000000000E+00  0.00000000000E+00  0.62652741797E+03  0.62652741798E+03  0.25500000920E-02 0.  1.
        2   -1    0    0  501    0  0.00000000000E+00  0.00000000000E+00 -0.12911009751E+04  0.12911009751E+04  0.25500000920E-02 0. -1.
    10030    2    1    2    0    0  0.00000000000E+00  0.00000000000E+00 -0.66457355709E+03  0.19176283930E+04  0.17987886593E+04 0.  0.
        1    1    3    3  502    0 -0.35875052788E+03 -0.82364142744E+03 -0.37780442364E+03  0.97458879780E+03  0.50400001928E-02 0. -1.
       -1    1    3    3    0  502  0.35875052788E+03  0.82364142744E+03 -0.28676913344E+03  0.94303959523E+03  0.50400001928E-02 0.  1.
</event>
<event>
 5   0  0.3983176E-05  0.1797748E+04  0.7818609E-02  0.8707498E-01
       -2   -1    0    0    0  501  0.00000000000E+00  0.00000000000E+00  0.96467678050E+03  0.96467678050E+03  0.25500000920E-02 0. -1.
        2   -1    0    0  501    0  0.00000000000E+00  0.00000000000E+00 -0.83755970564E+03  0.83755970564E+03  0.25500000920E-02 0.  1.
    10030    2    1    2    0    0  0.00000000000E+00  0.00000000000E+00  0.12711707486E+03  0.18022364861E+04  0.17977479248E+04 0.  0.
        3    1    3    3  502    0 -0.26556284614E+03  0.22245859610E+03  0.89506475848E+03  0.95976683851E+03  0.10100000352E+00 0. -1.
       -3    1    3    3    0  502  0.26556284614E+03 -0.22245859610E+03 -0.76794768361E+03  0.84246964764E+03  0.10100000352E+00 0.  1.
</event>
<event>
 5   0  0.2054876E-05  0.1797737E+04  0.7818609E-02  0.8707504E-01
        1   -1    0    0  501    0  0.00000000000E+00  0.00000000000E+00  0.89310007135E+03  0.89310007136E+03  0.50400001928E-02 0. -1.
       -1   -1    0    0    0  501  0.00000000000E+00  0.00000000000E+00 -0.90467434464E+03  0.90467434466E+03  0.50400001928E-02 0.  1.
    10030    2    1    2    0    0  0.00000000000E+00  0.00000000000E+00 -0.11574273294E+02  0.17977744160E+04  0.17977371574E+04 0.  0.
        5    1    3    3  502    0  0.28957516402E+03  0.62784644983E+03 -0.58016625029E+03  0.90258512516E+03  0.46999998093E+01 0.  1.
       -5    1    3    3    0  502 -0.28957516402E+03 -0.62784644983E+03  0.56859197699E+03  0.89518929087E+03  0.46999998093E+01 0. -1.
</event>
<event>
 5   0  0.2001811E-05  0.1800545E+04  0.7818609E-02  0.8706010E-01
        1   -1    0    0  501    0  0.00000000000E+00  0.00000000000E+00  0.22328309874E+04  0.22328309874E+04  0.50400001928E-02 0.  1.
       -1   -1    0    0    0  501  0.00000000000E+00  0.00000000000E+00 -0.36298788245E+03  0.36298788248E+03  0.50400001928E-02 0. -1.
    10030    2    1    2    0    0  0.00000000000E+00  0.00000000000E+00  0.18698431050E+04  0.25958188699E+04  0.18005450198E+04 0.  0.
        2    1    3    3  502    0 -0.41872149014E+03  0.79673705608E+03  0.96276396674E+03  0.13179651279E+04  0.25500000920E-02 0.  1.
       -2    1    3    3    0  502  0.41872149014E+03 -0.79673705608E+03  0.90707913825E+03  0.12778537420E+04  0.25500000920E-02 0. -1.
</event>
<event>
 5   0  0.2038338E-05  0.1801701E+04  0.7818609E-02  0.8705396E-01
       -1   -1    0    0    0  501  0.00000000000E+00  0.00000000000E+00  0.88319683856E+03  0.88319683857E+03  0.50400001928E-02 0. -1.
        1   -1    0    0  501    0  0.00000000000E+00  0.00000000000E+00 -0.91885666522E+03  0.91885666523E+03  0.50400001928E-02 0.  1.
    10030    2    1    2    0    0  0.00000000000E+00  0.00000000000E+00 -0.35659826662E+02  0.18020535038E+04  0.18017006431E+04 0.  0.
        1    1    3    3  502    0  0.73353940997E+03  0.41498611897E+03  0.30041121432E+03  0.89472925661E+03  0.50400001928E-02 0. -1.
       -1    1    3    3    0  502 -0.73353940997E+03 -0.41498611897E+03 -0.33607104099E+03  0.90732424719E+03  0.50400001928E-02 0.  1.
</event>
<event>
 5   0  0.4015729E-05  0.1807689E+04  0.7818609E-02  0.8702221E-01
       -2   -1    0    0    0  501  0.00000000000E+00  0.00000000000E+00  0.10257040853E+04  0.10257040853E+04  0.25500000920E-02 0. -1.
        2   -1    0    0  501    0  0.00000000000E+00  0.00000000000E+00 -0.79646250884E+03  0.79646250884E+03  0.25500000920E-02 0.  1.
    10030    2    1    2    0    0  0.00000000000E+00  0.00000000000E+00  0.22924157642E+03  0.18221665941E+04  0.18076889656E+04 0.  0.
        2    1    3    3  502    0 -0.56212490061E+03  0.59408537323E+03  0.50242661072E+03  0.95987204029E+03  0.25500000920E-02 0. -1.
       -2    1    3    3    0  502  0.56212490061E+03 -0.59408537323E+03 -0.27318503430E+03  0.86229455381E+03  0.25500000920E-02 0.  1.
</event>
<event>
 5   0  0.3909859E-05  0.1805961E+04  0.7818609E-02  0.8703136E-01
        2   -1    0    0  501    0  0.00000000000E+00  0.00000000000E+00  0.16709943800E+04  0.16709943800E+04  0.25500000920E-02 0. -1.
       -2   -1    0    0    0  501  0.00000000000E+00  0.00000000000E+00 -0.48795743205E+03  0.48795743206E+03  0.25500000920E-02 0.  1.
    10030    2    1    2    0    0  0.00000000000E+00  0.00000000000E+00  0.11830369480E+04  0.21589518121E+04  0.18059613802E+04 0.  0.
        4    1    3    3  502    0  0.16470700619E+03  0.10529090412E+03  0.16453935527E+04  0.16569659406E+04  0.12699999809E+01 0. -1.
       -4    1    3    3    0  502 -0.16470700619E+03 -0.10529090412E+03 -0.46235660467E+03  0.50198587148E+03  0.12699999809E+01 0.  1.
</event>
<event>
 5   0  0.2001811E-05  0.1795870E+04  0.7818609E-02  0.8708499E-01
        1   -1    0    0  501    0  0.00000000000E+00  0.00000000000E+00  0.11198363189E+04  0.11198363189E+04  0.50400001928E-02 0. -1.
       -1   -1    0    0    0  501  0.00000000000E+00  0.00000000000E+00 -0.72000476299E+03  0.72000476301E+03  0.50400001928E-02 0.  1.
    10030    2    1    2    0    0  0.00000000000E+00  0.00000000000E+00  0.39983155586E+03  0.18398410819E+04  0.17958702441E+04 0.  0.
        2    1    3    3  502    0 -0.39071914734E+03 -0.77872448942E+03 -0.22692689102E+02  0.87154359654E+03  0.25500000920E-02 0.  1.
       -2    1    3    3    0  502  0.39071914734E+03  0.77872448942E+03  0.42252424496E+03  0.96829748534E+03  0.25500000920E-02 0. -1.
</event>
<event>
 5   0  0.2054876E-05  0.1799078E+04  0.7818609E-02  0.8706790E-01
       -1   -1    0    0    0  501  0.00000000000E+00  0.00000000000E+00  0.10821912655E+04  0.10821912656E+04  0.50400001928E-02 0.  1.
        1   -1    0    0  501    0  0.00000000000E+00  0.00000000000E+00 -0.74771495215E+03  0.74771495217E+03  0.50400001928E-02 0. -1.
    10030    2    1    2    0    0  0.00000000000E+00  0.00000000000E+00  0.33447631339E+03  0.18299062177E+04  0.17990781977E+04 0.  0.
        5    1    3    3  502    0 -0.30285077953E+03  0.82503125601E+03  0.36223480781E+03  0.95059524197E+03  0.46999998093E+01 0.  1.
       -5    1    3    3    0  502  0.30285077953E+03 -0.82503125601E+03 -0.27758494426E+02  0.87931097575E+03  0.46999998093E+01 0. -1.
</event>
<event>
 5   0  0.2001811E-05  0.1799604E+04  0.7818609E-02  0.8706510E-01
        1   -1    0    0  501    0  0.00000000000E+00  0.00000000000E+00  0.59760723549E+03  0.59760723551E+03  0.50400001928E-02 0. -1.
       -1   -1    0    0    0  501  0.00000000000E+00  0.00000000000E+00 -0.13548091978E+04  0.13548091978E+04  0.50400001928E-02 0.  1.
    10030    2    1    2    0    0  0.00000000000E+00  0.00000000000E+00 -0.75720196233E+03  0.19524164333E+04  0.17996041558E+04 0.  0.
        2    1    3    3  502    0  0.87728302970E+02  0.70176282312E+03 -0.98214545843E+03  0.12102797266E+04  0.25500000920E-02 0.  1.
       -2    1    3    3    0  502 -0.87728302970E+02 -0.70176282312E+03  0.22494349610E+03  0.74213670675E+03  0.25500000920E-02 0. -1.
</event>
<event>
 5   0  0.1446750E-05  0.1799933E+04  0.7818609E-02  0.8706335E-01
       -3   -1    0    0    0  501  0.00000000000E+00  0.00000000000E+00  0.12205496122E+04  0.12205496164E+04  0.10100000352E+00 0.  1.
        3   -1    0    0  501    0  0.00000000000E+00  0.00000000000E+00 -0.66358577761E+03  0.66358578530E+03  0.10100000352E+00 0. -1.
    10030    2    1    2    0    0  0.00000000000E+00  0.00000000000E+00  0.55696383458E+03  0.18841354017E+04  0.17999326373E+04 0.  0.
        3    1    3    3  502    0 -0.35327778559E+03 -0.68723553179E+03 -0.20444788569E+03  0.79931021394E+03  0.10100000352E+00 0. -1.
       -3    1    3    3    0  502  0.35327778559E+03  0.68723553179E+03  0.76141172027E+03  0.10848251877E+04  0.10100000352E+00 0.  1.
</event>
<event>
 5   0  0.4015729E-05  0.1797685E+04  0.7818609E-02  0.8707532E-01
        2   -1    0    0  501    0  0.00000000000E+00  0.00000000000E+00  0.14557227566E+04  0.14557227566E+04  0.25500000920E-02 0.  1.
       -2   -1    0    0    0  501  0.00000000000E+00  0.00000000000E+00 -0.55499426475E+03  0.55499426476E+03  0.25500000920E-02 0. -1.
    10030    2    1    2    0    0  0.00000000000E+00  0.00000000000E+00  0.90072849182E+03  0.20107170213E+04  0.17976849345E+04 0.  0.
        2    1    3    3  502    0 -0.40151602849E+03 -0.61822886925E+03 -0.12487261027E+03  0.74767320716E+03  0.25500000920E-02 0. -1.
       -2    1    3    3    0  502  0.40151602849E+03  0.61822886925E+03  0.10256011021E+04  0.12630438142E+04  0.25500000920E-02 0.  1.
</event>
<event>
 5   0  0.3983176E-05  0.1799531E+04  0.7818609E-02  0.8706549E-01
        2   -1    0    0  501    0  0.00000000000E+00  0.00000000000E+00  0.15042564101E+04  0.15042564101E+04  0.25500000920E-02 0.  1.
       -2   -1    0    0    0  501  0.00000000000E+00  0.00000000000E+00 -0.53819117477E+03  0.53819117478E+03  0.25500000920E-02 0. -1.
    10030    2    1    2    0    0  0.00000000000E+00  0.00000000000E+00  0.96606523531E+03  0.20424475849E+04  0.17995305216E+04 0.  0.
        3    1    3    3  502    0 -0.57210672518E+03 -0.69050358350E+03  0.56702342761E+03  0.10609509326E+04  0.10100000352E+00 0.  1.
       -3    1    3    3    0  502  0.57210672518E+03  0.69050358350E+03  0.39904180770E+03  0.98149665222E+03  0.10100000352E+00 0. -1.
</event>
<event>
 5   0  0.4015729E-05  0.1801594E+04  0.7818609E-02  0.8705452E-01
       -2   -1    0    0    0  501  0.00000000000E+00  0.00000000000E+00  0.54476814503E+03  0.54476814504E+03  0.25500000920E-02 0. -1.
        2   -1    0    0  501    0  0.00000000000E+00  0.00000000000E+00 -0.14895060357E+04  0.14895060357E+04  0.25500000920E-02 0.  1.
    10030    2    1    2    0    0  0.00000000000E+00  0.00000000000E+00 -0.94473789068E+03  0.20342741808E+04  0.18015942275E+04 0.  0.
        2    1    3    3  502    0  0.33851742782E+03 -0.55936318286E+03 -0.11720372949E+04  0.13420702813E+04  0.25500000920E-02 0.  1.
       -2    1    3    3    0  502 -0.33851742782E+03  0.55936318286E+03  0.22729940421E+03  0.69220389947E+03  0.25500000920E-02 0. -1.
</event>
<event>
 5   0  0.1960300E-05  0.1791745E+04  0.7818609E-02  0.8710702E-01
       -1   -1    0    0    0  501  0.00000000000E+00  0.00000000000E+00  0.43994570849E+03  0.43994570851E+03  0.50400001928E-02 0.  1.
        1   -1    0    0  501    0  0.00000000000E+00  0.00000000000E+00 -0.18242880678E+04  0.18242880678E+04  0.50400001928E-02 0. -1.
    10030    2    1    2    0    0  0.00000000000E+00  0.00000000000E+00 -0.13843423593E+04  0.22642337763E+04  0.17917451900E+04 0.  0.
        3    1    3    3  502    0  0.17741005075E+03  0.68490616924E+03 -0.13866526248E+04  0.15567197239E+04  0.10100000352E+00 0. -1.
       -3    1    3    3    0  502 -0.17741005075E+03 -0.68490616924E+03  0.23102655198E+01  0.70751405237E+03  0.10100000352E+00 0.  1.
</event>
<event>
 5   0  0.2054876E-05  0.1802165E+04  0.7818609E-02  0.8705149E-01
       -1   -1    0    0    0  501  0.00000000000E+00  0.00000000000E+00  0.76905524355E+03  0.76905524356E+03  0.50400001928E-02 0.  1.
        1   -1    0    0  501    0  0.00000000000E+00  0.00000000000E+00 -0.10557754629E+04  0.10557754630E+04  0.50400001928E-02 0. -1.
    10030    2    1    2    0    0  0.00000000000E+00  0.00000000000E+00 -0.28672021940E+03  0.18248307065E+04  0.18021649823E+04 0.  0.
        5    1    3    3  502    0 -0.36400603296E+03 -0.15079837477E+03 -0.96391426845E+03  0.10413420902E+04  0.46999998093E+01 0. -1.
       -5    1    3    3    0  502  0.36400603296E+03  0.15079837477E+03  0.67719404905E+03  0.78348861634E+03  0.46999998093E+01 0.  1.
</event>
<event>
 5   0  0.3993393E-05  0.1803430E+04  0.7818609E-02  0.8704477E-01
        2   -1    0    0  501    0  0.00000000000E+00  0.00000000000E+00  0.91372832213E+03  0.91372832214E+03  0.25500000920E-02 0.  1.
       -2   -1    0    0    0  501  0.00000000000E+00  0.00000000000E+00 -0.88986004881E+03  0.88986004882E+03  0.25500000920E-02 0. -1.
    10030    2    1    2    0    0  0.00000000000E+00  0.00000000000E+00  0.23868273318E+02  0.18035883710E+04  0.18034304304E+04 0.  0.
        5    1    3    3  502    0 -0.28234193181E+03 -0.85094940231E+03 -0.84180406840E+02  0.90052222773E+03  0.46999998093E+01 0.  1.
       -5    1    3    3    0  502  0.28234193181E+03  0.85094940231E+03  0.10804868016E+03  0.90306614322E+03  0.46999998093E+01 0. -1.
</event>
<event>
 5   0  0.2054876E-05  0.1763046E+04  0.7818609E-02  0.8726202E-01
        1   -1    0    0  501    0  0.00000000000E+00  0.00000000000E+00  0.11720253990E+04  0.11720253990E+04  0.50400001928E-02 0. -1.
       -1   -1    0    0    0  501  0.00000000000E+00  0.00000000000E+00 -0.66302538166E+03  0.66302538168E+03  0.50400001928E-02 0.  1.
    10030    2    1    2    0    0  0.00000000000E+00  0.00000000000E+00  0.50900001731E+03  0.18350507807E+04  0.17630457595E+04 0.  0.
        5    1    3    3  502    0  0.74480186178E+03  0.46837770314E+03  0.19793901085E+03  0.90183669704E+03  0.46999998093E+01 0.  1.
       -5    1    3    3    0  502 -0.74480186178E+03 -0.46837770314E+03  0.31106100646E+03  0.93321408361E+03  0.46999998093E+01 0. -1.
</event>
<event>
 5   0  0.2001811E-05  0.1810423E+04  0.7818609E-02  0.8700776E-01
       -1   -1    0    0    0  501  0.00000000000E+00  0.00000000000E+00  0.55857241450E+03  0.55857241452E+03  0.50400001928E-02 0. -1.
        1   -1    0    0  501    0  0.00000000000E+00  0.00000000000E+00 -0.14669680620E+04  0.14669680620E+04  0.50400001928E-02 0.  1.
    10030    2    1    2    0    0  0.00000000000E+00  0.00000000000E+00 -0.90839564749E+03  0.20255404765E+04  0.18104230361E+04 0.  0.
        2    1    3    3  502    0  0.75390895739E+03 -0.47414492217E+03 -0.27304622918E+03  0.93152904760E+03  0.25500000920E-02 0.  1.
       -2    1    3    3    0  502 -0.75390895739E+03  0.47414492217E+03 -0.63534941831E+03  0.10940114289E+04  0.25500000920E-02 0. -1.
</event>
<event>
 5   0  0.3993393E-05  0.1799888E+04  0.7818609E-02  0.8706359E-01
       -2   -1    0    0    0  501  0.00000000000E+00  0.00000000000E+00  0.69718067144E+03  0.69718067144E+03  0.25500000920E-02 0. -1.
        2   -1    0    0  501    0  0.00000000000E+00  0.00000000000E+00 -0.11616774561E+04  0.11616774561E+04  0.25500000920E-02 0.  1.
    10030    2    1    2    0    0  0.00000000000E+00  0.00000000000E+00 -0.46449678465E+03  0.18588581275E+04  0.17998878508E+04 0.  0.
        5    1    3    3  502    0  0.63042998485E+02 -0.60310307950E+03  0.45449590238E+03  0.75782343553E+03  0.46999998093E+01 0. -1.
       -5    1    3    3    0  502 -0.63042998485E+02  0.60310307950E+03 -0.91899268703E+03  0.11010346920E+04  0.46999998093E+01 0.  1.
</event>
<event>
 5   0  0.2038338E-05  0.1799883E+04  0.7818609E-02  0.8706362E-01
       -1   -1    0    0    0  501  0.00000000000E+00  0.00000000000E+00  0.88365365226E+03  0.88365365227E+03  0.50400001928E-02 0. -1.
        1   -1    0    0  501    0  0.00000000000E+00  0.00000000000E+00 -0.91652920484E+03  0.91652920486E+03  0.50400001928E-02 0.  1.
    10030    2    1    2    0    0  0.00000000000E+00  0.00000000000E+00 -0.32875552589E+02  0.18001828571E+04  0.17998826398E+04 0.  0.
        1    1    3    3  502    0 -0.84352316954E+03  0.69190605328E+02 -0.32239025787E+03  0.90567883701E+03  0.50400001928E-02 0. -1.
       -1    1    3    3    0  502  0.84352316954E+03 -0.69190605328E+02  0.28951470528E+03  0.89450402012E+03  0.50400001928E-02 0.  1.
</event>
<event>
 5   0  0.3983176E-05  0.1798297E+04  0.7818609E-02  0.8707206E-01
        2   -1    0    0  501    0  0.00000000000E+00  0.00000000000E+00  0.11378324010E+04  0.11378324010E+04  0.25500000920E-02 0. -1.
       -2   -1    0    0    0  501  0.00000000000E+00  0.00000000000E+00 -0.71053365501E+03  0.71053365501E+03  0.25500000920E-02 0.  1.
    10030    2    1    2    0    0  0.00000000000E+00  0.00000000000E+00  0.42729874600E+03  0.18483660560E+04  0.17982972109E+04 0.  0.
        3    1    3    3  502    0  0.42645384399E+03 -0.38154882896E+03  0.92651997545E+03  0.10889819397E+04  0.10100000352E+00 0. -1.
       -3    1    3    3    0  502 -0.42645384399E+03  0.38154882896E+03 -0.49922122946E+03  0.75938411629E+03  0.10100000352E+00 0.  1.
</event>
<event>
 5   0  0.3984648E-05  0.1790077E+04  0.7818609E-02  0.8711594E-01
       -2   -1    0    0    0  501  0.00000000000E+00  0.00000000000E+00  0.85739004847E+03  0.85739004847E+03  0.25500000920E-02 0.  1.
        2   -1    0    0  501    0  0.00000000000E+00  0.00000000000E+00 -0.93434041918E+03  0.93434041918E+03  0.25500000920E-02 0. -1.
    10030    2    1    2    0    0  0.00000000000E+00  0.00000000000E+00 -0.76950370713E+02  0.17917304677E+04  0.17900772914E+04 0.  0.
        1    1    3    3  502    0  0.89192281694E+02 -0.14729183525E+03  0.84065482714E+03  0.85810878463E+03  0.50400001928E-02 0.  1.
       -1    1    3    3    0  502 -0.89192281694E+02  0.14729183525E+03 -0.91760519785E+03  0.93362168302E+03  0.50400001928E-02 0. -1.
</event>
<event>
 5   0  0.3983176E-05  0.1801261E+04  0.7818609E-02  0.8705629E-01
       -2   -1    0    0    0  501  0.00000000000E+00  0.00000000000E+00  0.10617938224E+04  0.10617938224E+04  0.25500000920E-02 0. -1.
        2   -1    0    0  501    0  0.00000000000E+00  0.00000000000E+00 -0.76392897278E+03  0.76392897279E+03  0.25500000920E-02 0.  1.
    10030    2    1    2    0    0  0.00000000000E+00  0.00000000000E+00  0.29786484957E+03  0.18257227951E+04  0.18012607407E+04 0.  0.
        3    1    3    3  502    0  0.20076362882E+03 -0.80421043567E+03  0.50595829508E+03  0.97110981153E+03  0.10100000352E+00 0. -1.
       -3    1    3    3    0  502 -0.20076362882E+03  0.80421043567E+03 -0.20809344551E+03  0.85461298361E+03  0.10100000352E+00 0.  1.
</event>
<event>
 5   0  0.2001811E-05  0.1799738E+04  0.7818609E-02  0.8706439E-01
        1   -1    0    0  501    0  0.00000000000E+00  0.00000000000E+00  0.10842281338E+04  0.10842281338E+04  0.50400001928E-02 0.  1.
       -1   -1    0    0    0  501  0.00000000000E+00  0.00000000000E+00 -0.74685815076E+03  0.74685815078E+03  0.50400001928E-02 0. -1.
    10030    2    1    2    0    0  0.00000000000E+00  0.00000000000E+00  0.33736998301E+03  0.18310862846E+04  0.17997384466E+04 0.  0.
        2    1    3    3  502    0 -0.43320622932E+03 -0.46994625614E+03  0.81315926282E+03  0.10342848290E+04  0.25500000920E-02 0.  1.
       -2    1    3    3    0  502  0.43320622932E+03  0.46994625614E+03 -0.47578927981E+03  0.79680145555E+03  0.25500000920E-02 0. -1.
</event>
<event>
 5   0  0.3909859E-05  0.1800624E+04  0.7818609E-02  0.8705968E-01
       -2   -1    0    0    0  501  0.00000000000E+00  0.00000000000E+00  0.95812141212E+03  0.95812141212E+03  0.25500000920E-02 0.  1.
        2   -1    0    0  501    0  0.00000000000E+00  0.00000000000E+00 -0.84599072684E+03  0.84599072684E+03  0.25500000920E-02 0. -1.
    10030    2    1    2    0    0  0.00000000000E+00  0.00000000000E+00  0.11213068528E+03  0.18041121390E+04  0.18006241472E+04 0.  0.
        4    1    3    3  502    0 -0.43873246744E+03 -0.76619497890E+03  0.23252945997E+03  0.91302381477E+03  0.12699999809E+01 0.  1.
       -4    1    3    3    0  502  0.43873246744E+03  0.76619497890E+03 -0.12039877469E+03  0.89108832420E+03  0.12699999809E+01 0. -1.
</event>
<event>
 5   0  0.2054876E-05  0.1769941E+04  0.7818609E-02  0.8722450E-01
       -1   -1    0    0    0  501  0.00000000000E+00  0.00000000000E+00  0.81924033246E+03  0.81924033247E+03  0.50400001928E-02 0.  1.
        1   -1    0    0  501    0  0.00000000000E+00  0.00000000000E+00 -0.95597474381E+03  0.95597474382E+03  0.50400001928E-02 0. -1.
    10030    2    1    2    0    0  0.00000000000E+00  0.00000000000E+00 -0.13673441135E+03  0.17752150763E+04  0.17699413176E+04 0.  0.
        5    1    3    3  502    0  0.15885992125E+03  0.24912275797E+02 -0.94118649138E+03  0.95483569142E+03  0.46999998093E+01 0. -1.
       -5    1    3    3    0  502 -0.15885992125E+03 -0.24912275797E+02  0.80445208003E+03  0.82037938487E+03  0.46999998093E+01 0.  1.
</event>
<event>
 5   0  0.1446750E-05  0.1799931E+04  0.7818609E-02  0.8706336E-01
        4   -1    0    0  501    0  0.00000000000E+00  0.00000000000E+00  0.58224801846E+03  0.58224940352E+03  0.12699999809E+01 0.  1.
       -4   -1    0    0    0  501  0.00000000000E+00  0.00000000000E+00 -0.13910503438E+04  0.13910509236E+04  0.12699999809E+01 0. -1.
    10030    2    1    2    0    0  0.00000000000E+00  0.00000000000E+00 -0.80880232536E+03  0.19733003271E+04  0.17999313818E+04 0.  0.
        5    1    3    3  502    0  0.36527849563E+03  0.19826499115E+03  0.47071939704E+03  0.62796196289E+03  0.46999998093E+01 0.  1.
       -5    1    3    3    0  502 -0.36527849563E+03 -0.19826499115E+03 -0.12795217224E+04  0.13453383642E+04  0.46999998093E+01 0. -1.
</event>
<event>
 5   0  0.1446750E-05  0.1783780E+04  0.7818609E-02  0.8714973E-01
       -3   -1    0    0    0  501  0.00000000000E+00  0.00000000000E+00  0.69312275269E+03  0.69312276005E+03  0.10100000352E+00 0. -1.
        3   -1    0    0  501    0  0.00000000000E+00  0.00000000000E+00 -0.11476582410E+04  0.11476582454E+04  0.10100000352E+00 0.  1.
    10030    2    1    2    0    0  0.00000000000E+00  0.00000000000E+00 -0.45453548829E+03  0.18407810055E+04  0.17837803116E+04 0.  0.
        1    1    3    3  502    0  0.52566182348E+03  0.13075677647E+03 -0.95846474402E+03  0.11009415756E+04  0.50400001928E-02 0.  1.
       -1    1    3    3    0  502 -0.52566182348E+03 -0.13075677647E+03  0.50392925573E+03  0.73983942992E+03  0.50400001928E-02 0. -1.
</event>
<event>
 5   0  0.2001811E-05  0.1856729E+04  0.7818609E-02  0.8676700E-01
       -1   -1    0    0    0  501  0.00000000000E+00  0.00000000000E+00  0.11783378530E+04  0.11783378530E+04  0.50400001928E-02 0.  1.
        1   -1    0    0  501    0  0.00000000000E+00  0.00000000000E+00 -0.73142073551E+03  0.73142073552E+03  0.50400001928E-02 0. -1.
    10030    2    1    2    0    0  0.00000000000E+00  0.00000000000E+00  0.44691711746E+03  0.19097585885E+04  0.18567291015E+04 0.  0.
        2    1    3    3  502    0 -0.57474415796E+03 -0.14438090039E+03 -0.51157314780E+03  0.78286893990E+03  0.25500000920E-02 0. -1.
       -2    1    3    3    0  502  0.57474415796E+03  0.14438090039E+03  0.95849026525E+03  0.11268896486E+04  0.25500000920E-02 0.  1.
</event>
<event>
 5   0  0.1960300E-05  0.1801234E+04  0.7818609E-02  0.8705643E-01
       -1   -1    0    0    0  501  0.00000000000E+00  0.00000000000E+00  0.70945076396E+03  0.70945076398E+03  0.50400001928E-02 0. -1.
        1   -1    0    0  501    0  0.00000000000E+00  0.00000000000E+00 -0.11432948343E+04  0.11432948344E+04  0.50400001928E-02 0.  1.
    10030    2    1    2    0    0  0.00000000000E+00  0.00000000000E+00 -0.43384407039E+03  0.18527455983E+04  0.18012344586E+04 0.  0.
        3    1    3    3  502    0 -0.22069674153E+02  0.39123929328E+03  0.61716612864E+03  0.73106039126E+03  0.10100000352E+00 0. -1.
       -3    1    3    3    0  502  0.22069674153E+02 -0.39123929328E+03 -0.10510101990E+04  0.11216852071E+04  0.10100000352E+00 0.  1.
</event>
<event>
 5   0  0.2054876E-05  0.1800184E+04  0.7818609E-02  0.8706202E-01
        1   -1    0    0  501    0  0.00000000000E+00  0.00000000000E+00  0.64984337742E+03  0.64984337744E+03  0.50400001928E-02 0. -1.
       -1   -1    0    0    0  501  0.00000000000E+00  0.00000000000E+00 -0.12467089389E+04  0.12467089389E+04  0.50400001928E-02 0.  1.
    10030    2    1    2    0    0  0.00000000000E+00  0.00000000000E+00 -0.59686556145E+03  0.18965523163E+04  0.18001839323E+04 0.  0.
        5    1    3    3  502    0 -0.66703006476E+03  0.22791646305E+03 -0.88809902304E+03  0.11338505131E+04  0.46999998093E+01 0.  1.
       -5    1    3    3    0  502  0.66703006476E+03 -0.22791646305E+03  0.29123346159E+03  0.76270180318E+03  0.46999998093E+01 0. -1.
</event>
<event>
 5   0  0.3993393E-05  0.1797571E+04  0.7818609E-02  0.8707592E-01
        2   -1    0    0  501    0  0.00000000000E+00  0.00000000000E+00  0.16009816668E+04  0.16009816668E+04  0.25500000920E-02 0. -1.
       -2   -1    0    0    0  501  0.00000000000E+00  0.00000000000E+00 -0.50457486640E+03  0.50457486640E+03  0.25500000920E-02 0.  1.
    10030    2    1    2    0    0  0.00000000000E+00  0.00000000000E+00  0.10964068004E+04  0.21055565332E+04  0.17975707059E+04 0.  0.
        5    1    3    3  502    0  0.55125460973E+02  0.88868149057E+03  0.40474762086E+03  0.97807787764E+03  0.46999998093E+01 0.  1.
       -5    1    3    3    0  502 -0.55125460973E+02 -0.88868149057E+03  0.69165917957E+03  0.11274786556E+04  0.46999998093E+01 0. -1.
</event>
<event>
 5   0  0.2038338E-05  0.1800948E+04  0.7818609E-02  0.8705795E-01
       -1   -1    0    0    0  501  0.00000000000E+00  0.00000000000E+00  0.55005910571E+03  0.55005910574E+03  0.50400001928E-02 0. -1.
        1   -1    0    0  501    0  0.00000000000E+00  0.00000000000E+00 -0.14741205661E+04  0.14741205661E+04  0.50400001928E-02 0.  1.
    10030    2    1    2    0    0  0.00000000000E+00  0.00000000000E+00 -0.92406146038E+03  0.20241796718E+04  0.18009480174E+04 0.  0.
        1    1    3    3  502    0  0.10502357939E+03  0.43950534535E+03  0.41339647569E+03  0.61244717891E+03  0.50400001928E-02 0. -1.
       -1    1    3    3    0  502 -0.10502357939E+03 -0.43950534535E+03 -0.13374579361E+04  0.14117324929E+04  0.50400001928E-02 0.  1.
</event>
<event>
 5   0  0.2054876E-05  0.1798153E+04  0.7818609E-02  0.8707282E-01
        1   -1    0    0  501    0  0.00000000000E+00  0.00000000000E+00  0.11974956884E+04  0.11974956884E+04  0.50400001928E-02 0. -1.
       -1   -1    0    0    0  501  0.00000000000E+00  0.00000000000E+00 -0.67502437952E+03  0.67502437954E+03  0.50400001928E-02 0.  1.
    10030    2    1    2    0    0  0.00000000000E+00  0.00000000000E+00  0.52247130884E+03  0.18725200679E+04  0.17981532571E+04 0.  0.
        5    1    3    3  502    0 -0.38110237085E+03 -0.17305753301E+03 -0.56736600775E+03  0.70506326209E+03  0.46999998093E+01 0.  1.
       -5    1    3    3    0  502  0.38110237085E+03  0.17305753301E+03  0.10898373166E+04  0.11674568058E+04  0.46999998093E+01 0. -1.
</event>
<event>
 5   0  0.1906857E-05  0.1801379E+04  0.7818609E-02  0.8705567E-01
        1   -1    0    0  501    0  0.00000000000E+00  0.00000000000E+00  0.17813859563E+04  0.17813859563E+04  0.50400001928E-02 0.  1.
       -1   -1    0    0    0  501  0.00000000000E+00  0.00000000000E+00 -0.45539905167E+03  0.45539905170E+03  0.50400001928E-02 0. -1.
    10030    2    1    2    0    0  0.00000000000E+00  0.00000000000E+00  0.13259869046E+04  0.22367850080E+04  0.18013788887E+04 0.  0.
        4    1    3    3  502    0  0.47466574633E+03  0.13452724029E+03  0.15986794788E+04  0.16730758613E+04  0.12699999809E+01 0.  1.
       -4    1    3    3    0  502 -0.47466574633E+03 -0.13452724029E+03 -0.27269257414E+03  0.56370914664E+03  0.12699999809E+01 0. -1.
</event>
<event>
 5   0  0.2001811E-05  0.1803434E+04  0.7818609E-02  0.8704476E-01
       -1   -1    0    0    0  501  0.00000000000E+00  0.00000000000E+00  0.65329964279E+03  0.65329964281E+03  0.50400001928E-02 0.  1.
        1   -1    0    0  501    0  0.00000000000E+00  0.00000000000E+00 -0.12445946118E+04  0.12445946119E+04  0.50400001928E-02 0. -1.
    10030    2    1    2    0    0  0.00000000000E+00  0.00000000000E+00 -0.59129496906E+03  0.18978942547E+04  0.18034336310E+04 0.  0.
        2    1    3    3  502    0  0.13575659253E+03  0.57119269737E+03  0.42459932016E+03  0.72455195303E+03  0.25500000920E-02 0.  1.
       -2    1    3    3    0  502 -0.13575659253E+03 -0.57119269737E+03 -0.10158942892E+04  0.11733423016E+04  0.25500000920E-02 0. -1.
</event>
<event>
 5   0  0.4015729E-05  0.1800748E+04  0.7818609E-02  0.8705902E-01
        2   -1    0    0  501    0  0.00000000000E+00  0.00000000000E+00  0.10179102620E+04  0.10179102620E+04  0.25500000920E-02 0. -1.
       -2   -1    0    0    0  501  0.00000000000E+00  0.00000000000E+00 -0.79640939490E+03  0.79640939490E+03  0.25500000920E-02 0.  1.
    10030    2    1    2    0    0  0.00000000000E+00  0.00000000000E+00  0.22150086707E+03  0.18143196569E+04  0.18007479510E+04 0.  0.
        2    1    3    3  502    0  0.55582934926E+03  0.26305323934E+02  0.82392350280E+03  0.99422742571E+03  0.25500000920E-02 0. -1.
       -2    1    3    3    0  502 -0.55582934926E+03 -0.26305323934E+02 -0.60242263573E+03  0.82009223116E+03  0.25500000920E-02 0.  1.
</event>
<event>
 5   0  0.3983176E-05  0.1804390E+04  0.7818609E-02  0.8703969E-01
       -2   -1    0    0    0  501  0.00000000000E+00  0.00000000000E+00  0.73582963116E+03  0.73582963116E+03  0.25500000920E-02 0.  1.
        2   -1    0    0  501    0  0.00000000000E+00  0.00000000000E+00 -0.11061740202E+04  0.11061740202E+04  0.25500000920E-02 0. -1.
    10030    2    1    2    0    0  0.00000000000E+00  0.00000000000E+00 -0.37034438905E+03  0.18420036514E+04  0.18043897819E+04 0.  0.
        3    1    3    3  502    0 -0.19618091267E+03 -0.74303362712E+03 -0.66764434298E+03  0.10180053538E+04  0.10100000352E+00 0. -1.
       -3    1    3    3    0  502  0.19618091267E+03  0.74303362712E+03  0.29729995394E+03  0.82399829753E+03  0.10100000352E+00 0.  1.
</event>
<event>
 5   0  0.3909859E-05  0.1794738E+04  0.7818609E-02  0.8709103E-01
        2   -1    0    0  501    0  0.00000000000E+00  0.00000000000E+00  0.17549111690E+04  0.17549111690E+04  0.25500000920E-02 0.  1.
       -2   -1    0    0    0  501  0.00000000000E+00  0.00000000000E+00 -0.45886719953E+03  0.45886719954E+03  0.25500000920E-02 0. -1.
    10030    2    1    2    0    0  0.00000000000E+00  0.00000000000E+00  0.12960439694E+04  0.22137783685E+04  0.17947380573E+04 0.  0.
        4    1    3    3  502    0 -0.81796573509E+03  0.16725843547E+03  0.24223385583E+03  0.86932282947E+03  0.12699999809E+01 0. -1.
       -4    1    3    3    0  502  0.81796573509E+03 -0.16725843547E+03  0.10538101136E+04  0.13444555390E+04  0.12699999809E+01 0.  1.
</event>
<event>
 5   0  0.2054876E-05  0.1800160E+04  0.7818609E-02  0.8706215E-01
       -1   -1    0    0    0  501  0.00000000000E+00  0.00000000000E+00  0.34784197294E+03  0.34784197298E+03  0.50400001928E-02 0.  1.
        1   -1    0    0  501    0  0.00000000000E+00  0.00000000000E+00 -0.23290565123E+04  0.23290565123E+04  0.50400001928E-02 0. -1.
    10030    2    1    2    0    0  0.00000000000E+00  0.00000000000E+00 -0.19812145394E+04  0.26768984853E+04  0.18001595623E+04 0.  0.
        5    1    3    3  502    0  0.80738414038E+03  0.14871369574E+03 -0.15392736689E+04  0.17445258471E+04  0.46999998093E+01 0. -1.
       -5    1    3    3    0  502 -0.80738414038E+03 -0.14871369574E+03 -0.44194087044E+03  0.93237263817E+03  0.46999998093E+01 0.  1.
</event>
<event>
 5   0  0.3984648E-05  0.1800670E+04  0.7818609E-02  0.8705943E-01
        2   -1    0    0  501    0  0.00000000000E+00  0.00000000000E+00  0.97358514817E+03  0.97358514818E+03  0.25500000920E-02 0.  1.
       -2   -1    0    0    0  501  0.00000000000E+00  0.00000000000E+00 -0.83259614249E+03  0.83259614250E+03  0.25500000920E-02 0. -1.
    10030    2    1    2    0    0  0.00000000000E+00  0.00000000000E+00  0.14098900568E+03  0.18061812907E+04  0.18006701405E+04 0.  0.
        1    1    3    3  502    0  0.14070643224E+02 -0.69788281183E+03  0.64088669550E+03  0.94761498434E+03  0.50400001928E-02 0.  1.
       -1    1    3    3    0  502 -0.14070643224E+02  0.69788281183E+03 -0.49989768982E+03  0.85856630633E+03  0.50400001928E-02 0. -1.
</event>
<event>
 5   0  0.3993393E-05  0.1800757E+04  0.7818609E-02  0.8705897E-01
       -2   -1    0    0    0  501  0.00000000000E+00  0.00000000000E+00  0.54831647951E+03  0.54831647952E+03  0.25500000920E-02 0. -1.
        2   -1    0    0  501    0  0.00000000000E+00  0.00000000000E+00 -0.14784912412E+04  0.14784912412E+04  0.25500000920E-02 0.  1.
    10030    2    1    2    0    0  0.00000000000E+00  0.00000000000E+00 -0.93017476172E+03  0.20268077208E+04  0.18007566325E+04 0.  0.
        5    1    3    3  502    0  0.86743929329E+03  0.88061807902E+02 -0.21227290326E+03  0.89737822852E+03  0.46999998093E+01 0. -1.
       -5    1    3    3    0  502 -0.86743929329E+03 -0.88061807902E+02 -0.71790185846E+03  0.11294294922E+04  0.46999998093E+01 0.  1.
</event>
<event>
 5   0  0.1906857E-05  0.1799384E+04  0.7818609E-02  0.8706627E-01
       -1   -1    0    0    0  501  0.00000000000E+00  0.00000000000E+00  0.13849139518E+04  0.13849139518E+04  0.50400001928E-02 0. -1.
        1   -1    0    0  501    0  0.00000000000E+00  0.00000000000E+00 -0.58447348845E+03  0.58447348847E+03  0.50400001928E-02 0.  1.
    10030    2    1    2    0    0  0.00000000000E+00  0.00000000000E+00  0.80044046337E+03  0.19693874403E+04  0.17993837708E+04 0.  0.
        4    1    3    3  502    0 -0.41713012940E+03  0.31007555783E+02 -0.47158204197E+03  0.63035723886E+03  0.12699999809E+01 0.  1.
       -4    1    3    3    0  502  0.41713012940E+03 -0.31007555783E+02  0.12720225053E+04  0.13390302014E+04  0.12699999809E+01 0. -1.
</event>
<event>
 5   0  0.2001811E-05  0.1799180E+04  0.7818609E-02  0.8706736E-01
       -1   -1    0    0    0  501  0.00000000000E+00  0.00000000000E+00  0.48408554759E+03  0.48408554761E+03  0.50400001928E-02 0.  1.
        1   -1    0    0  501    0  0.00000000000E+00  0.00000000000E+00 -0.16717340927E+04  0.16717340927E+04  0.50400001928E-02 0. -1.
    10030    2    1    2    0    0  0.00000000000E+00  0.00000000000E+00 -0.11876485452E+04  0.21558196404E+04  0.17991801619E+04 0.  0.
        2    1    3    3  502    0 -0.78153611378E+03 -0.38470768425E+03 -0.86299445347E+03  0.12261966099E+04  0.25500000920E-02 0. -1.
       -2    1    3    3    0  502  0.78153611378E+03  0.38470768425E+03 -0.32465409168E+03  0.92962303044E+03  0.25500000920E-02 0.  1.
</event>
<event>
 5   0  0.2001811E-05  0.1798614E+04  0.7818609E-02  0.8707037E-01
       -1   -1    0    0    0  501  0.00000000000E+00  0.00000000000E+00  0.74772472336E+03  0.74772472338E+03  0.50400001928E-02 0. -1.
        1   -1    0    0  501    0  0.00000000000E+00  0.00000000000E+00 -0.10816185142E+04  0.10816185142E+04  0.50400001928E-02 0.  1.
    10030    2    1    2    0    0  0.00000000000E+00  0.00000000000E+00 -0.33389379084E+03  0.18293432376E+04  0.17986138044E+04 0.  0.
        2    1    3    3  502    0 -0.13869749561E+03 -0.50121811774E+03 -0.91316877284E+03  0.10508728774E+04  0.25500000920E-02 0.  1.
       -2    1    3    3    0  502  0.13869749561E+03  0.50121811774E+03  0.57927498200E+03  0.77847036014E+03  0.25500000920E-02 0. -1.
</event>
<event>
 5   0  0.1960300E-05  0.1800065E+04  0.7818609E-02  0.8706265E-01
       -1   -1    0    0    0  501  0.00000000000E+00  0.00000000000E+00  0.58577517786E+03  0.58577517788E+03  0.50400001928E-02 0. -1.
        1   -1    0    0  501    0  0.00000000000E+00  0.00000000000E+00 -0.13828834103E+04  0.13828834103E+04  0.50400001928E-02 0.  1.
    10030    2    1    2    0    0  0.00000000000E+00  0.00000000000E+00 -0.79710823241E+03  0.19686585882E+04  0.18000653051E+04 0.  0.
        3    1    3    3  502    0  0.83114534363E+03  0.23817019211E+03 -0.12507112119E+03  0.87359625583E+03  0.10100000352E+00 0. -1.
       -3    1    3    3    0  502 -0.83114534363E+03 -0.23817019211E+03 -0.67203711122E+03  0.10950623323E+04  0.10100000352E+00 0.  1.
</event>
<event>
 5   0  0.2001811E-05  0.1790365E+04  0.7818609E-02  0.8711440E-01
       -1   -1    0    0    0  501  0.00000000000E+00  0.00000000000E+00  0.23107436712E+04  0.23107436712E+04  0.50400001928E-02 0.  1.
        1   -1    0    0  501    0  0.00000000000E+00  0.00000000000E+00 -0.34679399654E+03  0.34679399658E+03  0.50400001928E-02 0. -1.
    10030    2    1    2    0    0  0.00000000000E+00  0.00000000000E+00  0.19639496746E+04  0.26575376677E+04  0.17903653624E+04 0.  0.
        2    1    3    3  502    0 -0.89448837187E+03  0.48192434880E+01  0.10338075306E+04  0.13670737664E+04  0.25500000920E-02 0. -1.
       -2    1    3    3    0  502  0.89448837187E+03 -0.48192434880E+01  0.93014214402E+03  0.12904639013E+04  0.25500000920E-02 0.  1.
</event>
<event>
 5   0  0.4015729E-05  0.1799467E+04  0.7818609E-02  0.8706583E-01
        2   -1    0    0  501    0  0.00000000000E+00  0.00000000000E+00  0.88918034646E+03  0.88918034646E+03  0.25500000920E-02 0. -1.
       -2   -1    0    0    0  501  0.00000000000E+00  0.00000000000E+00 -0.91041171965E+03  0.91041171966E+03  0.25500000920E-02 0.  1.
    10030    2    1    2    0    0  0.00000000000E+00  0.00000000000E+00 -0.21231373193E+02  0.17995920661E+04  0.17994668192E+04 0.  0.
        2    1    3    3  502    0 -0.61346420102E+03 -0.32898156715E+03  0.55947048877E+03  0.89307022415E+03  0.25500000920E-02 0.  1.
       -2    1    3    3    0  502  0.61346420102E+03  0.32898156715E+03 -0.58070186196E+03  0.90652184196E+03  0.25500000920E-02 0. -1.
</event>
<event>
 5   0  0.4015729E-05  0.1803475E+04  0.7818609E-02  0.8704454E-01
        2   -1    0    0  501    0  0.00000000000E+00  0.00000000000E+00  0.17885273803E+04  0.17885273803E+04  0.25500000920E-02 0.  1.
       -2   -1    0    0    0  501  0.00000000000E+00  0.00000000000E+00 -0.45463674895E+03  0.45463674896E+03  0.25500000920E-02 0. -1.
    10030    2    1    2    0    0  0.00000000000E+00  0.00000000000E+00  0.13338906314E+04  0.22431641293E+04  0.18034747280E+04 0.  0.
        2    1    3    3  502    0  0.27322841516E+03  0.84422195816E+03  0.46729374105E+03  0.10028598715E+04  0.25500000920E-02 0. -1.
       -2    1    3    3    0  502 -0.27322841516E+03 -0.84422195816E+03  0.86659689031E+03  0.12403042577E+04  0.25500000920E-02 0.  1.
</event>
<event>
 5   0  0.3983176E-05  0.1805955E+04  0.7818609E-02  0.8703139E-01
        2   -1    0    0  501    0  0.00000000000E+00  0.00000000000E+00  0.11873983488E+04  0.11873983488E+04  0.25500000920E-02 0. -1.
       -2   -1    0    0    0  501  0.00000000000E+00  0.00000000000E+00 -0.68668446784E+03  0.68668446785E+03  0.25500000920E-02 0.  1.
    10030    2    1    2    0    0  0.00000000000E+00  0.00000000000E+00  0.50071388094E+03  0.18740828166E+04  0.18059545988E+04 0.  0.
        3    1    3    3  502    0 -0.17325537421E+03  0.75276077597E+03 -0.23494062423E+03  0.80738052840E+03  0.10100000352E+00 0.  1.
       -3    1    3    3    0  502  0.17325537421E+03 -0.75276077597E+03  0.73565450517E+03  0.10667022882E+04  0.10100000352E+00 0. -1.
</event>
<event>
 5   0  0.2038338E-05  0.1801689E+04  0.7818609E-02  0.8705402E-01
       -1   -1    0    0    0  501  0.00000000000E+00  0.00000000000E+00  0.94600586410E+03  0.94600586411E+03  0.50400001928E-02 0. -1.
        1   -1    0    0  501    0  0.00000000000E+00  0.00000000000E+00 -0.85783873023E+03  0.85783873025E+03  0.50400001928E-02 0.  1.
    10030    2    1    2    0    0  0.00000000000E+00  0.00000000000E+00  0.88167133865E+02  0.18038445944E+04  0.18016886182E+04 0.  0.
        1    1    3    3  502    0 -0.83848792731E+03  0.31853690012E+03 -0.39638914054E+02  0.89783016463E+03  0.50400001928E-02 0. -1.
       -1    1    3    3    0  502  0.83848792731E+03 -0.31853690012E+03  0.12780604792E+03  0.90601442973E+03  0.50400001928E-02 0.  1.
</event>
<event>
 5   0  0.2001811E-05  0.1796899E+04  0.7818609E-02  0.8707950E-01
        1   -1    0    0  501    0  0.00000000000E+00  0.00000000000E+00  0.67682229390E+03  0.67682229392E+03  0.50400001928E-02 0. -1.
       -1   -1    0    0    0  501  0.00000000000E+00  0.00000000000E+00 -0.11926490806E+04  0.11926490806E+04  0.50400001928E-02 0.  1.
    10030    2    1    2    0    0  0.00000000000E+00  0.00000000000E+00 -0.51582678672E+03  0.18694713745E+04  0.17968989806E+04 0.  0.
        2    1    3    3  502    0  0.35273165483E+03  0.74917928618E+03  0.10476616839E+03  0.83466470705E+03  0.25500000920E-02 0. -1.
       -2    1    3    3    0  502 -0.35273165483E+03 -0.74917928618E+03 -0.62059295510E+03  0.10348066675E+04  0.25500000920E-02 0.  1.
</event>
<event>
 5   0  0.2001811E-05  0.1802569E+04  0.7818609E-02  0.8704934E-01
       -1   -1    0    0    0  501  0.00000000000E+00  0.00000000000E+00  0.62842784105E+03  0.62842784107E+03  0.50400001928E-02 0.  1.
        1   -1    0    0  501    0  0.00000000000E+00  0.00000000000E+00 -0.12926128687E+04  0.12926128687E+04  0.50400001928E-02 0. -1.
    10030    2    1    2    0    0  0.00000000000E+00  0.00000000000E+00 -0.66418502765E+03  0.19210407098E+04  0.18025691825E+04 0.  0.
        2    1    3    3  502    0  0.15070208410E+03 -0.19777713003E+03 -0.12553359191E+04  0.12797246505E+04  0.25500000920E-02 0. -1.
       -2    1    3    3    0  502 -0.15070208410E+03  0.19777713003E+03  0.59115089149E+03  0.64131605923E+03  0.25500000920E-02 0.  1.
</event>
<event>
 5   0  0.3983176E-05  0.1784334E+04  0.7818609E-02  0.8714675E-01
        2   -1    0    0  501    0  0.00000000000E+00  0.00000000000E+00  0.15626056523E+04  0.15626056523E+04  0.25500000920E-02 0. -1.
       -2   -1    0    0    0  501  0.00000000000E+00  0.00000000000E+00 -0.50938110796E+03  0.50938110797E+03  0.25500000920E-02 0.  1.
    10030    2    1    2    0    0  0.00000000000E+00  0.00000000000E+00  0.10532245443E+04  0.20719867602E+04  0.17843338236E+04 0.  0.
        3    1    3    3  502    0 -0.62148007121E+03 -0.36638241472E+03 -0.82871850790E+02  0.72618269504E+03  0.10100000352E+00 0.  1.
       -3    1    3    3    0  502  0.62148007121E+03  0.36638241472E+03  0.11360963951E+04  0.13458040652E+04  0.10100000352E+00 0. -1.
</event>
<event>
 5   0  0.4015729E-05  0.1800071E+04  0.7818609E-02  0.8706262E-01
       -2   -1    0    0    0  501  0.00000000000E+00  0.00000000000E+00  0.10598757778E+04  0.10598757778E+04  0.25500000920E-02 0. -1.
        2   -1    0    0  501    0  0.00000000000E+00  0.00000000000E+00 -0.76430104994E+03  0.76430104995E+03  0.25500000920E-02 0.  1.
    10030    2    1    2    0    0  0.00000000000E+00  0.00000000000E+00  0.29557472786E+03  0.18241768278E+04  0.18000712984E+04 0.  0.
        2    1    3    3  502    0  0.51069903236E+03 -0.59728599497E+03 -0.29683644678E+03  0.84004519973E+03  0.25500000920E-02 0. -1.
       -2    1    3    3    0  502 -0.51069903236E+03  0.59728599497E+03  0.59241117464E+03  0.98413162803E+03  0.25500000920E-02 0.  1.
</event>
<event>
 5   0  0.4015729E-05  0.1797934E+04  0.7818609E-02  0.8707399E-01
       -2   -1    0    0    0  501  0.00000000000E+00  0.00000000000E+00  0.52443660055E+03  0.52443660055E+03  0.25500000920E-02 0.  1.
        2   -1    0    0  501    0  0.00000000000E+00  0.00000000000E+00 -0.15409711424E+04  0.15409711424E+04  0.25500000920E-02 0. -1.
    10030    2    1    2    0    0  0.00000000000E+00  0.00000000000E+00 -0.10165345418E+04  0.20654077429E+04  0.17979340004E+04 0.  0.
        2    1    3    3  502    0  0.11094140322E+03  0.77292898932E+03 -0.10199711440E+04  0.12845498636E+04  0.25500000920E-02 0. -1.
       -2    1    3    3    0  502 -0.11094140322E+03 -0.77292898932E+03  0.34366021645E+01  0.78085787933E+03  0.25500000920E-02 0.  1.
</event>
<event>
 5   0  0.1906857E-05  0.1798292E+04  0.7818609E-02  0.8707208E-01
        1   -1    0    0  501    0  0.00000000000E+00  0.00000000000E+00  0.56003051867E+03  0.56003051870E+03  0.50400001928E-02 0. -1.
       -1   -1    0    0    0  501  0.00000000000E+00  0.00000000000E+00 -0.14436061219E+04  0.14436061219E+04  0.50400001928E-02 0.  1.
    10030    2    1    2    0    0  0.00000000000E+00  0.00000000000E+00 -0.88357560322E+03  0.20036366406E+04  0.17982919510E+04 0.  0.
        4    1    3    3  502    0 -0.53600625667E+03  0.71375459641E+03 -0.56237546230E+03  0.10549957842E+04  0.12699999809E+01 0. -1.
       -4    1    3    3    0  502  0.53600625667E+03 -0.71375459641E+03 -0.32120014092E+03  0.94864085644E+03  0.12699999809E+01 0.  1.
</event>
<event>
 5   0  0.1446750E-05  0.1800103E+04  0.7818609E-02  0.8706245E-01
        3   -1    0    0  501    0  0.00000000000E+00  0.00000000000E+00  0.72953967224E+03  0.72953967923E+03  0.10100000352E+00 0. -1.
       -3   -1    0    0    0  501  0.00000000000E+00  0.00000000000E+00 -0.11104159418E+04  0.11104159464E+04  0.10100000352E+00 0.  1.
    10030    2    1    2    0    0  0.00000000000E+00  0.00000000000E+00 -0.38087626956E+03  0.18399556256E+04  0.18001027669E+04 0.  0.
        2    1    3    3  502    0  0.33114346082E+03 -0.71783524559E+03  0.24937764519E+03  0.82893464240E+03  0.25500000920E-02 0. -1.
       -2    1    3    3    0  502 -0.33114346082E+03  0.71783524559E+03 -0.63025391475E+03  0.10110209832E+04  0.25500000920E-02 0.  1.
</event>
<event>
 5   0  0.3984648E-05  0.1800375E+04  0.7818609E-02  0.8706100E-01
        2   -1    0    0  501    0  0.00000000000E+00  0.00000000000E+00  0.12530460244E+04  0.12530460244E+04  0.25500000920E-02 0.  1.
       -2   -1    0    0    0  501  0.00000000000E+00  0.00000000000E+00 -0.64669429320E+03  0.64669429320E+03  0.25500000920E-02 0. -1.
    10030    2    1    2    0    0  0.00000000000E+00  0.00000000000E+00  0.60635173116E+03  0.18997403176E+04  0.18003751976E+04 0.  0.
        1    1    3    3  502    0  0.65055843183E+03 -0.30868384473E+03 -0.26684795417E+03  0.76793217141E+03  0.50400001928E-02 0. -1.
       -1    1    3    3    0  502 -0.65055843183E+03  0.30868384473E+03  0.87319968533E+03  0.11318081462E+04  0.50400001928E-02 0.  1.
</event>
<event>
 5   0  0.3983176E-05  0.1796632E+04  0.7818609E-02  0.8708093E-01
        2   -1    0    0  501    0  0.00000000000E+00  0.00000000000E+00  0.88538019041E+03  0.88538019042E+03  0.25500000920E-02 0.  1.
       -2   -1    0    0    0  501  0.00000000000E+00  0.00000000000E+00 -0.91144092075E+03  0.91144092075E+03  0.25500000920E-02 0. -1.
    10030    2    1    2    0    0  0.00000000000E+00  0.00000000000E+00 -0.26060730337E+02  0.17968211112E+04  0.17966321114E+04 0.  0.
        3    1    3    3  502    0  0.47220704740E+03  0.32379606005E+03  0.67924787122E+03  0.88836989192E+03  0.10100000352E+00 0.  1.
       -3    1    3    3    0  502 -0.47220704740E+03 -0.32379606005E+03 -0.70530860156E+03  0.90845121925E+03  0.10100000352E+00 0. -1.
</event>
<event>
 5   0  0.2001811E-05  0.1801942E+04  0.7818609E-02  0.8705267E-01
       -1   -1    0    0    0  501  0.00000000000E+00  0.00000000000E+00  0.53308026545E+03  0.53308026547E+03  0.50400001928E-02 0. -1.
        1   -1    0    0  501    0  0.00000000000E+00  0.00000000000E+00 -0.15227520197E+04  0.15227520198E+04  0.50400001928E-02 0.  1.
    10030    2    1    2    0    0  0.00000000000E+00  0.00000000000E+00 -0.98967175430E+03  0.20558322852E+04  0.18019423420E+04 0.  0.
        2    1    3    3  502    0  0.19122775115E+03  0.63843387961E+03  0.19687500250E+03  0.69492851291E+03  0.25500000920E-02 0. -1.
       -2    1    3    3    0  502 -0.19122775115E+03 -0.63843387961E+03 -0.11865467568E+04  0.13609037723E+04  0.25500000920E-02 0.  1.
</event>
<event>
 5   0  0.3983176E-05  0.1800469E+04  0.7818609E-02  0.8706050E-01
        2   -1    0    0  501    0  0.00000000000E+00  0.00000000000E+00  0.16460117849E+04  0.16460117849E+04  0.25500000920E-02 0. -1.
       -2   -1    0    0    0  501  0.00000000000E+00  0.00000000000E+00 -0.49235480997E+03  0.49235480998E+03  0.25500000920E-02 0.  1.
    10030    2    1    2    0    0  0.00000000000E+00  0.00000000000E+00  0.11536569749E+04  0.21383665948E+04  0.18004686274E+04 0.  0.
        3    1    3    3  502    0 -0.52484070908E+03  0.46982866071E+02 -0.29005562295E+03  0.60149599684E+03  0.10100000352E+00 0.  1.
       -3    1    3    3    0  502  0.52484070908E+03 -0.46982866071E+02  0.14437125979E+04  0.15368705980E+04  0.10100000352E+00 0. -1.
</event>
<event>
 5   0  0.4015729E-05  0.1801039E+04  0.7818609E-02  0.8705747E-01
       -2   -1    0    0    0  501  0.00000000000E+00  0.00000000000E+00  0.40178656474E+03  0.40178656474E+03  0.25500000920E-02 0.  1.
        2   -1    0    0  501    0  0.00000000000E+00  0.00000000000E+00 -0.20183232583E+04  0.20183232584E+04  0.25500000920E-02 0. -1.
    10030    2    1    2    0    0  0.00000000000E+00  0.00000000000E+00 -0.16165366936E+04  0.24201098231E+04  0.18010387764E+04 0.  0.
        2    1    3    3  502    0  0.24848722003E+03  0.18516099435E+03 -0.19444194122E+04  0.19689584411E+04  0.25500000920E-02 0. -1.
       -2    1    3    3    0  502 -0.24848722003E+03 -0.18516099435E+03  0.32788271855E+03  0.45115138200E+03  0.25500000920E-02 0.  1.
</event>
<event>
 5   0  0.3993393E-05  0.1815952E+04  0.7818609E-02  0.8697862E-01
        2   -1    0    0  501    0  0.00000000000E+00  0.00000000000E+00  0.13792769212E+04  0.13792769212E+04  0.25500000920E-02 0.  1.
       -2   -1    0    0    0  501  0.00000000000E+00  0.00000000000E+00 -0.59771909415E+03  0.59771909415E+03  0.25500000920E-02 0. -1.
    10030    2    1    2    0    0  0.00000000000E+00  0.00000000000E+00  0.78155782702E+03  0.19769960153E+04  0.18159517085E+04 0.  0.
        5    1    3    3  502    0  0.13651093184E+02  0.73232871240E+03 -0.19337478824E+03  0.75756689083E+03  0.46999998093E+01 0.  1.
       -5    1    3    3    0  502 -0.13651093184E+02 -0.73232871240E+03  0.97493261526E+03  0.12194291245E+04  0.46999998093E+01 0. -1.
</event>
<event>
 5   0  0.1960300E-05  0.1796097E+04  0.7818609E-02  0.8708378E-01
       -1   -1    0    0    0  501  0.00000000000E+00  0.00000000000E+00  0.55069469210E+03  0.55069469212E+03  0.50400001928E-02 0. -1.
        1   -1    0    0  501    0  0.00000000000E+00  0.00000000000E+00 -0.14644981235E+04  0.14644981235E+04  0.50400001928E-02 0.  1.
    10030    2    1    2    0    0  0.00000000000E+00  0.00000000000E+00 -0.91380343139E+03  0.20151928156E+04  0.17960972615E+04 0.  0.
        3    1    3    3  502    0  0.68286963911E+03 -0.48794248594E+03 -0.98406209439E+02  0.84503408562E+03  0.10100000352E+00 0. -1.
       -3    1    3    3    0  502 -0.68286963911E+03  0.48794248594E+03 -0.81539722195E+03  0.11701587300E+04  0.10100000352E+00 0.  1.
</event>
<event>
 5   0  0.2054876E-05  0.1801005E+04  0.7818609E-02  0.8705765E-01
       -1   -1    0    0    0  501  0.00000000000E+00  0.00000000000E+00  0.60988902063E+03  0.60988902065E+03  0.50400001928E-02 0.  1.
        1   -1    0    0  501    0  0.00000000000E+00  0.00000000000E+00 -0.13295939729E+04  0.13295939729E+04  0.50400001928E-02 0. -1.
    10030    2    1    2    0    0  0.00000000000E+00  0.00000000000E+00 -0.71970495222E+03  0.19394829935E+04  0.18010050150E+04 0.  0.
        5    1    3    3  502    0 -0.27651760202E+03 -0.50283602031E+03  0.38746261883E+03  0.69242719367E+03  0.46999998093E+01 0.  1.
       -5    1    3    3    0  502  0.27651760202E+03  0.50283602031E+03 -0.11071675710E+04  0.12470557998E+04  0.46999998093E+01 0. -1.
</event>
<event>
 5   0  0.3984648E-05  0.1801122E+04  0.7818609E-02  0.8705703E-01
        2   -1    0    0  501    0  0.00000000000E+00  0.00000000000E+00  0.31798507567E+04  0.31798507567E+04  0.25500000920E-02 0. -1.
       -2   -1    0    0    0  501  0.00000000000E+00  0.00000000000E+00 -0.25504656750E+03  0.25504656751E+03  0.25500000920E-02 0.  1.
    10030    2    1    2    0    0  0.00000000000E+00  0.00000000000E+00  0.29248041892E+04  0.34348973242E+04  0.18011218956E+04 0.  0.
        1    1    3    3  502    0 -0.57719421185E+03  0.44715181748E+03  0.24677685559E+04  0.25735150188E+04  0.50400001928E-02 0. -1.
       -1    1    3    3    0  502  0.57719421185E+03 -0.44715181748E+03  0.45703563329E+03  0.86138230548E+03  0.50400001928E-02 0.  1.
</event>
<event>
 5   0  0.2001811E-05  0.1801076E+04  0.7818609E-02  0.8705727E-01
        1   -1    0    0  501    0  0.00000000000E+00  0.00000000000E+00  0.67751056758E+03  0.67751056760E+03  0.50400001928E-02 0.  1.
       -1   -1    0    0    0  501  0.00000000000E+00  0.00000000000E+00 -0.11969835219E+04  0.11969835219E+04  0.50400001928E-02 0. -1.
    10030    2    1    2    0    0  0.00000000000E+00  0.00000000000E+00 -0.51947295431E+03  0.18744940895E+04  0.18010763286E+04 0.  0.
        2    1    3    3  502    0  0.87576193682E+03 -0.16695667141E+03 -0.12753297141E+03  0.90060988164E+03  0.25500000920E-02 0. -1.
       -2    1    3    3    0  502 -0.87576193682E+03  0.16695667141E+03 -0.39193998289E+03  0.97388420785E+03  0.25500000920E-02 0.  1.
</event>
<event>
 5   0  0.4015729E-05  0.1804775E+04  0.7818609E-02  0.8703764E-01
        2   -1    0    0  501    0  0.00000000000E+00  0.00000000000E+00  0.81953011948E+03  0.81953011949E+03  0.25500000920E-02 0. -1.
       -2   -1    0    0    0  501  0.00000000000E+00  0.00000000000E+00 -0.99362183270E+03  0.99362183270E+03  0.25500000920E-02 0.  1.
    10030    2    1    2    0    0  0.00000000000E+00  0.00000000000E+00 -0.17409171322E+03  0.18131519522E+04  0.18047747996E+04 0.  0.
        2    1    3    3  502    0  0.25189056233E+03  0.86352547860E+03 -0.14754145741E+02  0.89963481058E+03  0.25500000920E-02 0. -1.
       -2    1    3    3    0  502 -0.25189056233E+03 -0.86352547860E+03 -0.15933756748E+03  0.91351714160E+03  0.25500000920E-02 0.  1.
</event>
<event>
 5   0  0.2038338E-05  0.1774404E+04  0.7818609E-02  0.8720031E-01
       -1   -1    0    0    0  501  0.00000000000E+00  0.00000000000E+00  0.10117055181E+04  0.10117055181E+04  0.50400001928E-02 0. -1.
        1   -1    0    0  501    0  0.00000000000E+00  0.00000000000E+00 -0.77802053946E+03  0.77802053947E+03  0.50400001928E-02 0.  1.
    10030    2    1    2    0    0  0.00000000000E+00  0.00000000000E+00  0.23368497864E+03  0.17897260576E+04  0.17744043203E+04 0.  0.
        1    1    3    3  502    0  0.73381532959E+01 -0.27217855951E+02 -0.77756871213E+03  0.77807953468E+03  0.50400001928E-02 0.  1.
       -1    1    3    3    0  502 -0.73381532959E+01  0.27217855951E+02  0.10112536908E+04  0.10116465229E+04  0.50400001928E-02 0. -1.
</event>
<event>
 5   0  0.3909859E-05  0.1797231E+04  0.7818609E-02  0.8707773E-01
        2   -1    0    0  501    0  0.00000000000E+00  0.00000000000E+00  0.10220752352E+04  0.10220752352E+04  0.25500000920E-02 0. -1.
       -2   -1    0    0    0  501  0.00000000000E+00  0.00000000000E+00 -0.79006899340E+03  0.79006899340E+03  0.25500000920E-02 0.  1.
    10030    2    1    2    0    0  0.00000000000E+00  0.00000000000E+00  0.23200624176E+03  0.18121442286E+04  0.17972311507E+04 0.  0.
        4    1    3    3  502    0 -0.68295694839E+02 -0.84990125119E+03 -0.17009754085E+03  0.86944305450E+03  0.12699999809E+01 0.  1.
       -4    1    3    3    0  502  0.68295694839E+02  0.84990125119E+03  0.40210378262E+03  0.94270117408E+03  0.12699999809E+01 0. -1.
</event>
<event>
 5   0  0.1906857E-05  0.1809831E+04  0.7818609E-02  0.8701089E-01
        1   -1    0    0  501    0  0.00000000000E+00  0.00000000000E+00  0.11530945685E+04  0.11530945685E+04  0.50400001928E-02 0.  1.
       -1   -1    0    0    0  501  0.00000000000E+00  0.00000000000E+00 -0.71015147767E+03  0.71015147769E+03  0.50400001928E-02 0. -1.
    10030    2    1    2    0    0  0.00000000000E+00  0.00000000000E+00  0.44294309086E+03  0.18632460462E+04  0.18098307233E+04 0.  0.
        4    1    3    3  502    0  0.29985122628E+03  0.85358910081E+03  0.24059635579E+03  0.93616949867E+03  0.12699999809E+01 0. -1.
       -4    1    3    3    0  502 -0.29985122628E+03 -0.85358910081E+03  0.20234673507E+03  0.92707654755E+03  0.12699999809E+01 0.  1.
</event>
<event>
 5   0  0.3993393E-05  0.1803937E+04  0.7818609E-02  0.8704209E-01
        2   -1    0    0  501    0  0.00000000000E+00  0.00000000000E+00  0.25633591970E+04  0.25633591970E+04  0.25500000920E-02 0. -1.
       -2   -1    0    0    0  501  0.00000000000E+00  0.00000000000E+00 -0.31737545478E+03  0.31737545479E+03  0.25500000920E-02 0.  1.
    10030    2    1    2    0    0  0.00000000000E+00  0.00000000000E+00  0.22459837422E+04  0.28807346518E+04  0.18039371285E+04 0.  0.
        5    1    3    3  502    0  0.51558153688E+03  0.44230389463E+03  0.17545694905E+03  0.70161548397E+03  0.46999998093E+01 0. -1.
       -5    1    3    3    0  502 -0.51558153688E+03 -0.44230389463E+03  0.20705267931E+04  0.21791191678E+04  0.46999998093E+01 0.  1.
</event>
<event>
 5   0  0.1906857E-05  0.1789769E+04  0.7818609E-02  0.8711759E-01
       -1   -1    0    0    0  501  0.00000000000E+00  0.00000000000E+00  0.50273881485E+03  0.50273881488E+03  0.50400001928E-02 0.  1.
        1   -1    0    0  501    0  0.00000000000E+00  0.00000000000E+00 -0.15929105103E+04  0.15929105103E+04  0.50400001928E-02 0. -1.
    10030    2    1    2    0    0  0.00000000000E+00  0.00000000000E+00 -0.10901716954E+04  0.20956493252E+04  0.17897686355E+04 0.  0.
        4    1    3    3  502    0 -0.17897589665E+03  0.87664862750E+03 -0.52580528274E+03  0.10377947754E+04  0.12699999809E+01 0. -1.
       -4    1    3    3    0  502  0.17897589665E+03 -0.87664862750E+03 -0.56436641270E+03  0.10578545497E+04  0.12699999809E+01 0.  1.
</event>
<event>
 5   0  0.2054876E-05  0.1802095E+04  0.7818609E-02  0.8705186E-01
        1   -1    0    0  501    0  0.00000000000E+00  0.00000000000E+00  0.16874726007E+04  0.16874726007E+04  0.50400001928E-02 0.  1.
       -1   -1    0    0    0  501  0.00000000000E+00  0.00000000000E+00 -0.48112602200E+03  0.48112602202E+03  0.50400001928E-02 0. -1.
    10030    2    1    2    0    0  0.00000000000E+00  0.00000000000E+00  0.12063465787E+04  0.21685986228E+04  0.18020954244E+04 0.  0.
        5    1    3    3  502    0 -0.30672735579E+03  0.77687659011E+03  0.19642862717E+03  0.85803566512E+03  0.46999998093E+01 0. -1.
       -5    1    3    3    0  502  0.30672735579E+03 -0.77687659011E+03  0.10099179516E+04  0.13105629576E+04  0.46999998093E+01 0.  1.
</event>
<event>
 5   0  0.3984648E-05  0.1804814E+04  0.7818609E-02  0.8703744E-01
       -2   -1    0    0    0  501  0.00000000000E+00  0.00000000000E+00  0.80969457288E+03  0.80969457289E+03  0.25500000920E-02 0. -1.
        2   -1    0    0  501    0  0.00000000000E+00  0.00000000000E+00 -0.10057349862E+04  0.10057349862E+04  0.25500000920E-02 0.  1.
    10030    2    1    2    0    0  0.00000000000E+00  0.00000000000E+00 -0.19604041336E+03  0.18154295591E+04  0.18048137412E+04 0.  0.
        1    1    3    3  502    0  0.76606147649E+02 -0.21697147592E+03 -0.97573105045E+03  0.10024949905E+04  0.50400001928E-02 0.  1.
       -1    1    3    3    0  502 -0.76606147649E+02  0.21697147592E+03  0.77969063709E+03  0.81293456859E+03  0.50400001928E-02 0. -1.
</event>
<event>
 5   0  0.1960300E-05  0.1801184E+04  0.7818609E-02  0.8705670E-01
       -1   -1    0    0    0  501  0.00000000000E+00  0.00000000000E+00  0.43275325731E+03  0.43275325734E+03  0.50400001928E-02 0. -1.
        1   -1    0    0  501    0  0.00000000000E+00  0.00000000000E+00 -0.18741988081E+04  0.18741988081E+04  0.50400001928E-02 0.  1.
    10030    2    1    2    0    0  0.00000000000E+00  0.00000000000E+00 -0.14414455508E+04  0.23069520654E+04  0.18011836542E+04 0.  0.
        3    1    3    3  502    0 -0.32434975825E+03 -0.83454657910E+03 -0.84486684356E+03  0.12310445775E+04  0.10100000352E+00 0.  1.
       -3    1    3    3    0  502  0.32434975825E+03  0.83454657910E+03 -0.59657870721E+03  0.10759074879E+04  0.10100000352E+00 0. -1.
</event>
<event>
 5   0  0.3984648E-05  0.1805420E+04  0.7818609E-02  0.8703423E-01
        2   -1    0    0  501    0  0.00000000000E+00  0.00000000000E+00  0.11792143017E+04  0.11792143017E+04  0.25500000920E-02 0. -1.
       -2   -1    0    0    0  501  0.00000000000E+00  0.00000000000E+00 -0.69104069648E+03  0.69104069649E+03  0.25500000920E-02 0.  1.
    10030    2    1    2    0    0  0.00000000000E+00  0.00000000000E+00  0.48817360525E+03  0.18702549982E+04  0.18054196990E+04 0.  0.
        1    1    3    3  502    0  0.22676910042E+03 -0.74994654095E+03 -0.22039103971E+03  0.81388958072E+03  0.50400001928E-02 0.  1.
       -1    1    3    3    0  502 -0.22676910042E+03  0.74994654095E+03  0.70856464496E+03  0.10563654175E+04  0.50400001928E-02 0. -1.
</event>
<event>
 5   0  0.1960300E-05  0.1797455E+04  0.7818609E-02  0.8707654E-01
       -1   -1    0    0    0  501  0.00000000000E+00  0.00000000000E+00  0.33868943982E+03  0.33868943986E+03  0.50400001928E-02 0. -1.
        1   -1    0    0  501    0  0.00000000000E+00  0.00000000000E+00 -0.23848130088E+04  0.23848130088E+04  0.50400001928E-02 0.  1.
    10030    2    1    2    0    0  0.00000000000E+00  0.00000000000E+00 -0.20461235690E+04  0.27235024487E+04  0.17974548474E+04 0.  0.
        3    1    3    3  502    0  0.32814694173E+03 -0.25760187036E+03 -0.22292136197E+04  0.22679136913E+04  0.10100000352E+00 0.  1.
       -3    1    3    3    0  502 -0.32814694173E+03  0.25760187036E+03  0.18309005067E+03  0.45558875736E+03  0.10100000352E+00 0. -1.
</event>
<event>
 5   0  0.2054876E-05  0.1749517E+04  0.7818609E-02  0.8733616E-01
       -1   -1    0    0    0  501  0.00000000000E+00  0.00000000000E+00  0.40692474433E+03  0.40692474436E+03  0.50400001928E-02 0.  1.
        1   -1    0    0  501    0  0.00000000000E+00  0.00000000000E+00 -0.18804518035E+04  0.18804518035E+04  0.50400001928E-02 0. -1.
    10030    2    1    2    0    0  0.00000000000E+00  0.00000000000E+00 -0.14735270591E+04  0.22873765478E+04  0.17495169269E+04 0.  0.
        5    1    3    3  502    0  0.40808234177E+03  0.77223206353E+03 -0.79955738120E+03  0.11841400481E+04  0.46999998093E+01 0. -1.
       -5    1    3    3    0  502 -0.40808234177E+03 -0.77223206353E+03 -0.67396967793E+03  0.11032364998E+04  0.46999998093E+01 0.  1.
</event>
<event>
 5   0  0.3909859E-05  0.1804204E+04  0.7818609E-02  0.8704067E-01
       -2   -1    0    0    0  501  0.00000000000E+00  0.00000000000E+00  0.10133209269E+04  0.10133209269E+04  0.25500000920E-02 0.  1.
        2   -1    0    0  501    0  0.00000000000E+00  0.00000000000E+00 -0.80308985299E+03  0.80308985299E+03  0.25500000920E-02 0. -1.
    10030    2    1    2    0    0  0.00000000000E+00  0.00000000000E+00  0.21023107395E+03  0.18164107799E+04  0.18042037072E+04 0.  0.
        4    1    3    3  502    0  0.77570496984E+03  0.24294994263E+03  0.49896985668E+03  0.95379002177E+03  0.12699999809E+01 0.  1.
       -4    1    3    3    0  502 -0.77570496984E+03 -0.24294994263E+03 -0.28873878273E+03  0.86262075816E+03  0.12699999809E+01 0. -1.
</event>
<event>
 5   0  0.4015729E-05  0.1800644E+04  0.7818609E-02  0.8705957E-01
       -2   -1    0    0    0  501  0.00000000000E+00  0.00000000000E+00  0.61415895279E+03  0.61415895280E+03  0.25500000920E-02 0.  1.
        2   -1    0    0  501    0  0.00000000000E+00  0.00000000000E+00 -0.13198207658E+04  0.13198207658E+04  0.25500000920E-02 0. -1.
    10030    2    1    2    0    0  0.00000000000E+00  0.00000000000E+00 -0.70566181299E+03  0.19339797186E+04  0.18006440397E+04 0.  0.
        2    1    3    3  502    0  0.10522460670E+03 -0.31457395920E+03  0.54613629603E+03  0.63897875356E+03  0.25500000920E-02 0.  1.
       -2    1    3    3    0  502 -0.10522460670E+03  0.31457395920E+03 -0.12517981090E+04  0.12950009650E+04  0.25500000920E-02 0. -1.
</event>
<event>
 5   0  0.1906857E-05  0.1806976E+04  0.7818609E-02  0.8702599E-01
       -1   -1    0    0    0  501  0.00000000000E+00  0.00000000000E+00  0.85506086814E+03  0.85506086816E+03  0.50400001928E-02 0.  1.
        1   -1    0    0  501    0  0.00000000000E+00  0.00000000000E+00 -0.95465770527E+03  0.95465770528E+03  0.50400001928E-02 0. -1.
    10030    2    1    2    0    0  0.00000000000E+00  0.00000000000E+00 -0.99596837122E+02  0.18097185734E+04  0.18069758673E+04 0.  0.
        4    1    3    3  502    0 -0.44005495817E+03 -0.77192424239E+03 -0.21367266486E+03  0.91387801309E+03  0.12699999809E+01 0. -1.
       -4    1    3    3    0  502  0.44005495817E+03  0.77192424239E+03  0.11407582774E+03  0.89584056035E+03  0.12699999809E+01 0.  1.
</event>
<event>
 5   0  0.3993393E-05  0.1803136E+04  0.7818609E-02  0.8704633E-01
       -2   -1    0    0    0  501  0.00000000000E+00  0.00000000000E+00  0.52925906126E+03  0.52925906127E+03  0.25500000920E-02 0. -1.
        2   -1    0    0  501    0  0.00000000000E+00  0.00000000000E+00 -0.15357794738E+04  0.15357794738E+04  0.25500000920E-02 0.  1.
    10030    2    1    2    0    0  0.00000000000E+00  0.00000000000E+00 -0.10065204125E+04  0.20650385351E+04  0.18031363816E+04 0.  0.
        5    1    3    3  502    0 -0.73309231754E+03  0.42323001210E+03 -0.14794686730E+03  0.85933599641E+03  0.46999998093E+01 0. -1.
       -5    1    3    3    0  502  0.73309231754E+03 -0.42323001210E+03 -0.85857354525E+03  0.12057025387E+04  0.46999998093E+01 0.  1.
</event>
<event>
 5   0  0.2038338E-05  0.1801177E+04  0.7818609E-02  0.8705674E-01
       -1   -1    0    0    0  501  0.00000000000E+00  0.00000000000E+00  0.37245428637E+03  0.37245428640E+03  0.50400001928E-02 0.  1.
        1   -1    0    0  501    0  0.00000000000E+00  0.00000000000E+00 -0.21776091302E+04  0.21776091302E+04  0.50400001928E-02 0. -1.
    10030    2    1    2    0    0  0.00000000000E+00  0.00000000000E+00 -0.18051548438E+04  0.25500634166E+04  0.18011772313E+04 0.  0.
        1    1    3    3  502    0 -0.38103374642E+03  0.67245921127E+03 -0.24814006227E+03  0.81176449619E+03  0.50400001928E-02 0.  1.
       -1    1    3    3    0  502  0.38103374642E+03 -0.67245921127E+03 -0.15570147816E+04  0.17382989204E+04  0.50400001928E-02 0. -1.
</event>
<event>
 5   0  0.3909859E-05  0.1800789E+04  0.7818609E-02  0.8705880E-01
       -2   -1    0    0    0  501  0.00000000000E+00  0.00000000000E+00  0.43806099476E+03  0.43806099477E+03  0.25500000920E-02 0. -1.
        2   -1    0    0  501    0  0.00000000000E+00  0.00000000000E+00 -0.18506795471E+04  0.18506795471E+04  0.25500000920E-02 0.  1.
    10030    2    1    2    0    0  0.00000000000E+00  0.00000000000E+00 -0.14126185524E+04  0.22887405419E+04  0.18007892974E+04 0.  0.
        4    1    3    3  502    0  0.23670893777E+03 -0.23325495867E+03  0.35726149978E+03  0.48793072161E+03  0.12699999809E+01 0. -1.
       -4    1    3    3    0  502 -0.23670893777E+03  0.23325495867E+03 -0.17698800521E+04  0.18008098203E+04  0.12699999809E+01 0.  1.
</event>
<event>
 5   0  0.2001811E-05  0.1800642E+04  0.7818609E-02  0.8705958E-01
       -1   -1    0    0    0  501  0.00000000000E+00  0.00000000000E+00  0.66622868968E+03  0.66622868970E+03  0.50400001928E-02 0.  1.
        1   -1    0    0  501    0  0.00000000000E+00  0.00000000000E+00 -0.12166663479E+04  0.12166663479E+04  0.50400001928E-02 0. -1.
    10030    2    1    2    0    0  0.00000000000E+00  0.00000000000E+00 -0.55043765819E+03  0.18828950376E+04  0.18006421374E+04 0.  0.
        2    1    3    3  502    0  0.66047537064E+03  0.79179480123E+01  0.36451811542E+03  0.75442949677E+03  0.25500000920E-02 0.  1.
       -2    1    3    3    0  502 -0.66047537064E+03 -0.79179480123E+01 -0.91495577361E+03  0.11284655408E+04  0.25500000920E-02 0. -1.
</event>
<event>
 5   0  0.2001811E-05  0.1800710E+04  0.7818609E-02  0.8705922E-01
        1   -1    0    0  501    0  0.00000000000E+00  0.00000000000E+00  0.52539211335E+03  0.52539211338E+03  0.50400001928E-02 0. -1.
       -1   -1    0    0    0  501  0.00000000000E+00  0.00000000000E+00 -0.15429219098E+04  0.15429219098E+04  0.50400001928E-02 0.  1.
    10030    2    1    2    0    0  0.00000000000E+00  0.00000000000E+00 -0.10175297965E+04  0.20683140232E+04  0.18007098633E+04 0.  0.
        2    1    3    3  502    0  0.49694096517E+02 -0.10598205172E+03 -0.15341448252E+04  0.15386039267E+04  0.25500000920E-02 0.  1.
       -2    1    3    3    0  502 -0.49694096517E+02  0.10598205172E+03  0.51661502869E+03  0.52971009656E+03  0.25500000920E-02 0. -1.
</event>
<event>
 5   0  0.4015729E-05  0.1801210E+04  0.7818609E-02  0.8705656E-01
       -2   -1    0    0    0  501  0.00000000000E+00  0.00000000000E+00  0.99758012058E+03  0.99758012059E+03  0.25500000920E-02 0. -1.
        2   -1    0    0  501    0  0.00000000000E+00  0.00000000000E+00 -0.81305679690E+03  0.81305679691E+03  0.25500000920E-02 0.  1.
    10030    2    1    2    0    0  0.00000000000E+00  0.00000000000E+00  0.18452332368E+03  0.18106369175E+04  0.18012099239E+04 0.  0.
        2    1    3    3  502    0 -0.18634886423E+03 -0.84882452398E+02  0.97386844799E+03  0.99516364681E+03  0.25500000920E-02 0. -1.
       -2    1    3    3    0  502  0.18634886423E+03  0.84882452398E+02 -0.78934512431E+03  0.81547327069E+03  0.25500000920E-02 0.  1.
</event>
<event>
 5   0  0.2054876E-05  0.1801342E+04  0.7818609E-02  0.8705586E-01
        1   -1    0    0  501    0  0.00000000000E+00  0.00000000000E+00  0.13291556389E+04  0.13291556389E+04  0.50400001928E-02 0.  1.
       -1   -1    0    0    0  501  0.00000000000E+00  0.00000000000E+00 -0.61031875907E+03  0.61031875909E+03  0.50400001928E-02 0. -1.
    10030    2    1    2    0    0  0.00000000000E+00  0.00000000000E+00  0.71883687986E+03  0.19394743980E+04  0.18013424108E+04 0.  0.
        5    1    3    3  502    0 -0.45191580254E+03 -0.71772373482E+03  0.33143971103E+02  0.84880849721E+03  0.46999998093E+01 0.  1.
       -5    1    3    3    0  502  0.45191580254E+03  0.71772373482E+03  0.68569290876E+03  0.10906659008E+04  0.46999998093E+01 0. -1.
</event>
<event>
 5   0  0.1906857E-05  0.1799056E+04  0.7818609E-02  0.8706802E-01
       -1   -1    0    0    0  501  0.00000000000E+00  0.00000000000E+00  0.29593881788E+03  0.29593881793E+03  0.50400001928E-02 0.  1.
        1   -1    0    0  501    0  0.00000000000E+00  0.00000000000E+00 -0.27341821225E+04  0.27341821225E+04  0.50400001928E-02 0. -1.
    10030    2    1    2    0    0  0.00000000000E+00  0.00000000000E+00 -0.24382433046E+04  0.30301209404E+04  0.17990560028E+04 0.  0.
        4    1    3    3  502    0 -0.26801006671E+03  0.26938007130E+03 -0.25923594783E+04  0.26200618879E+04  0.12699999809E+01 0. -1.
       -4    1    3    3    0  502  0.26801006671E+03 -0.26938007130E+03  0.15411617370E+03  0.41005905254E+03  0.12699999809E+01 0.  1.
</event>
<event>
 5   0  0.2054876E-05  0.1804008E+04  0.7818609E-02  0.8704171E-01
        1   -1    0    0  501    0  0.00000000000E+00  0.00000000000E+00  0.19223702710E+04  0.19223702710E+04  0.50400001928E-02 0.  1.
       -1   -1    0    0    0  501  0.00000000000E+00  0.00000000000E+00 -0.42323325231E+03  0.42323325234E+03  0.50400001928E-02 0. -1.
    10030    2    1    2    0    0  0.00000000000E+00  0.00000000000E+00  0.14991370187E+04  0.23456035234E+04  0.18040077849E+04 0.  0.
        5    1    3    3  502    0  0.80552770181E+03 -0.39801600566E+03  0.85274810762E+03  0.12387465617E+04  0.46999998093E+01 0. -1.
       -5    1    3    3    0  502 -0.80552770181E+03  0.39801600566E+03  0.64638891111E+03  0.11068569616E+04  0.46999998093E+01 0.  1.
</event>
<event>
 5   0  0.4015729E-05  0.1799359E+04  0.7818609E-02  0.8706640E-01
       -2   -1    0    0    0  501  0.00000000000E+00  0.00000000000E+00  0.12093768514E+04  0.12093768514E+04  0.25500000920E-02 0.  1.
        2   -1    0    0  501    0  0.00000000000E+00  0.00000000000E+00 -0.66928962205E+03  0.66928962205E+03  0.25500000920E-02 0. -1.
    10030    2    1    2    0    0  0.00000000000E+00  0.00000000000E+00  0.54008722935E+03  0.18786664734E+04  0.17993591924E+04 0.  0.
        2    1    3    3  502    0  0.46077986524E+03 -0.60610666095E+03 -0.23039421650E+03  0.79546518696E+03  0.25500000920E-02 0. -1.
       -2    1    3    3    0  502 -0.46077986524E+03  0.60610666095E+03  0.77048144585E+03  0.10832012865E+04  0.25500000920E-02 0.  1.
</event>
<event>
 5   0  0.4015729E-05  0.1797559E+04  0.7818609E-02  0.8707599E-01
        2   -1    0    0  501    0  0.00000000000E+00  0.00000000000E+00  0.87192690112E+03  0.87192690112E+03  0.25500000920E-02 0. -1.
       -2   -1    0    0    0  501  0.00000000000E+00  0.00000000000E+00 -0.92645903575E+03  0.92645903575E+03  0.25500000920E-02 0.  1.
    10030    2    1    2    0    0  0.00000000000E+00  0.00000000000E+00 -0.54532134635E+02  0.17983859369E+04  0.17975589627E+04 0.  0.
        2    1    3    3  502    0 -0.24030801702E+03 -0.85882767711E+03  0.84461780320E+02  0.89580506493E+03  0.25500000920E-02 0. -1.
       -2    1    3    3    0  502  0.24030801702E+03  0.85882767711E+03 -0.13899391495E+03  0.90258087195E+03  0.25500000920E-02 0.  1.
</event>
<event>
 5   0  0.2038338E-05  0.1800365E+04  0.7818609E-02  0.8706105E-01
       -1   -1    0    0    0  501  0.00000000000E+00  0.00000000000E+00  0.62479341865E+03  0.62479341868E+03  0.50400001928E-02 0.  1.
        1   -1    0    0  501    0  0.00000000000E+00  0.00000000000E+00 -0.12969540827E+04  0.12969540827E+04  0.50400001928E-02 0. -1.
    10030    2    1    2    0    0  0.00000000000E+00  0.00000000000E+00 -0.67216066408E+03  0.19217475014E+04  0.18003648244E+04 0.  0.
        1    1    3    3  502    0  0.45729073409E+03  0.47452773915E+03 -0.99064278049E+03  0.11898170066E+04  0.50400001928E-02 0. -1.
       -1    1    3    3    0  502 -0.45729073409E+03 -0.47452773915E+03  0.31848211641E+03  0.73193049479E+03  0.50400001928E-02 0.  1.
</event>
<event>
 5   0  0.3983176E-05  0.1802146E+04  0.7818609E-02  0.8705159E-01
       -2   -1    0    0    0  501  0.00000000000E+00  0.00000000000E+00  0.41563178474E+03  0.41563178475E+03  0.25500000920E-02 0.  1.
        2   -1    0    0  501    0  0.00000000000E+00  0.00000000000E+00 -0.19534910052E+04  0.19534910052E+04  0.25500000920E-02 0. -1.
    10030    2    1    2    0    0  0.00000000000E+00  0.00000000000E+00 -0.15378592205E+04  0.23691227900E+04  0.18021464458E+04 0.  0.
        3    1    3    3  502    0 -0.40162171905E+03  0.18512968028E+03 -0.18010127718E+04  0.18545134182E+04  0.10100000352E+00 0. -1.
       -3    1    3    3    0  502  0.40162171905E+03 -0.18512968028E+03  0.26315355136E+03  0.51460937178E+03  0.10100000352E+00 0.  1.
</event>
<event>
 5   0  0.3983176E-05  0.1809146E+04  0.7818609E-02  0.8701451E-01
        2   -1    0    0  501    0  0.00000000000E+00  0.00000000000E+00  0.10482952692E+04  0.10482952692E+04  0.25500000920E-02 0. -1.
       -2   -1    0    0    0  501  0.00000000000E+00  0.00000000000E+00 -0.78055525458E+03  0.78055525459E+03  0.25500000920E-02 0.  1.
    10030    2    1    2    0    0  0.00000000000E+00  0.00000000000E+00  0.26774001465E+03  0.18288505238E+04  0.18091460757E+04 0.  0.
        3    1    3    3  502    0  0.51439880065E+03 -0.62503423140E+03 -0.27423288574E+03  0.85467982447E+03  0.10100000352E+00 0.  1.
       -3    1    3    3    0  502 -0.51439880065E+03  0.62503423140E+03  0.54197290039E+03  0.97417069936E+03  0.10100000352E+00 0. -1.
</event>
<event>
 5   0  0.3909859E-05  0.1796918E+04  0.7818609E-02  0.8707940E-01
       -2   -1    0    0    0  501  0.00000000000E+00  0.00000000000E+00  0.67675003353E+03  0.67675003353E+03  0.25500000920E-02 0.  1.
        2   -1    0    0  501    0  0.00000000000E+00  0.00000000000E+00 -0.11928011386E+04  0.11928011386E+04  0.25500000920E-02 0. -1.
    10030    2    1    2    0    0  0.00000000000E+00  0.00000000000E+00 -0.51605110504E+03  0.18695511721E+04  0.17969175947E+04 0.  0.
        4    1    3    3  502    0  0.30933166206E+03 -0.83606890364E+03 -0.14156663398E+03  0.90262949960E+03  0.12699999809E+01 0.  1.
       -4    1    3    3    0  502 -0.30933166206E+03  0.83606890364E+03 -0.37448447107E+03  0.96692167251E+03  0.12699999809E+01 0. -1.
</event>
<event>
 5   0  0.1906857E-05  0.1781052E+04  0.7818609E-02  0.8716441E-01
        1   -1    0    0  501    0  0.00000000000E+00  0.00000000000E+00  0.73143585689E+03  0.73143585690E+03  0.50400001928E-02 0.  1.
       -1   -1    0    0    0  501  0.00000000000E+00  0.00000000000E+00 -0.10842186946E+04  0.10842186947E+04  0.50400001928E-02 0. -1.
    10030    2    1    2    0    0  0.00000000000E+00  0.00000000000E+00 -0.35278283776E+03  0.18156545516E+04  0.17810518577E+04 0.  0.
        4    1    3    3  502    0  0.50960298020E+03  0.73021012417E+03 -0.16464389726E+03  0.90554472484E+03  0.12699999809E+01 0. -1.
       -4    1    3    3    0  502 -0.50960298020E+03 -0.73021012417E+03 -0.18813894050E+03  0.91010982673E+03  0.12699999809E+01 0.  1.
</event>
<event>
 5   0  0.1906857E-05  0.1804145E+04  0.7818609E-02  0.8704098E-01
       -1   -1    0    0    0  501  0.00000000000E+00  0.00000000000E+00  0.51557161368E+03  0.51557161370E+03  0.50400001928E-02 0. -1.
        1   -1    0    0  501    0  0.00000000000E+00  0.00000000000E+00 -0.15783161855E+04  0.15783161855E+04  0.50400001928E-02 0.  1.
    10030    2    1    2    0    0  0.00000000000E+00  0.00000000000E+00 -0.10627445718E+04  0.20938877992E+04  0.18041452521E+04 0.  0.
        4    1    3    3  502    0 -0.56699836863E+03 -0.61200982693E+03 -0.92952723201E+03  0.12490258869E+04  0.12699999809E+01 0.  1.
       -4    1    3    3    0  502  0.56699836863E+03  0.61200982693E+03 -0.13321733983E+03  0.84486191228E+03  0.12699999809E+01 0. -1.
</event>
<event>
 5   0  0.3993393E-05  0.1796724E+04  0.7818609E-02  0.8708044E-01
        2   -1    0    0  501    0  0.00000000000E+00  0.00000000000E+00  0.15277783031E+04  0.15277783031E+04  0.25500000920E-02 0. -1.
       -2   -1    0    0    0  501  0.00000000000E+00  0.00000000000E+00 -0.52825354713E+03  0.52825354714E+03  0.25500000920E-02 0.  1.
    10030    2    1    2    0    0  0.00000000000E+00  0.00000000000E+00  0.99952475596E+03  0.20560318502E+04  0.17967240276E+04 0.  0.
        5    1    3    3  502    0  0.67401884828E+03  0.56841279473E+03  0.30276032750E+03  0.93224482779E+03  0.46999998093E+01 0. -1.
       -5    1    3    3    0  502 -0.67401884828E+03 -0.56841279473E+03  0.69676442846E+03  0.11237870224E+04  0.46999998093E+01 0.  1.
</event>
<event>
 5   0  0.1906857E-05  0.1800655E+04  0.7818609E-02  0.8705951E-01
       -1   -1    0    0    0  501  0.00000000000E+00  0.00000000000E+00  0.51754095191E+03  0.51754095194E+03  0.50400001928E-02 0.  1.
        1   -1    0    0  501    0  0.00000000000E+00  0.00000000000E+00 -0.15662323069E+04  0.15662323069E+04  0.50400001928E-02 0. -1.
    10030    2    1    2    0    0  0.00000000000E+00  0.00000000000E+00 -0.10486913550E+04  0.20837732589E+04  0.18006547243E+04 0.  0.
        4    1    3    3  502    0 -0.18229099408E+02  0.44942890460E+03  0.37819730776E+03  0.58766781165E+03  0.12699999809E+01 0.  1.
       -4    1    3    3    0  502  0.18229099408E+02 -0.44942890460E+03 -0.14268886628E+04  0.14961054472E+04  0.12699999809E+01 0. -1.
</event>
<event>
 5   0  0.3983176E-05  0.1803413E+04  0.7818609E-02  0.8704486E-01
       -2   -1    0    0    0  501  0.00000000000E+00  0.00000000000E+00  0.49689326249E+03  0.49689326250E+03  0.25500000920E-02 0.  1.
        2   -1    0    0  501    0  0.00000000000E+00  0.00000000000E+00 -0.16363170225E+04  0.16363170225E+04  0.25500000920E-02 0. -1.
    10030    2    1    2    0    0  0.00000000000E+00  0.00000000000E+00 -0.11394237600E+04  0.21332102850E+04  0.18034133234E+04 0.  0.
        3    1    3    3  502    0  0.60959816422E+03  0.16793032709E+03 -0.13301298660E+04  0.14727715326E+04  0.10100000352E+00 0. -1.
       -3    1    3    3    0  502 -0.60959816422E+03 -0.16793032709E+03  0.19070610602E+03  0.66043875239E+03  0.10100000352E+00 0.  1.
</event>
<event>
 5   0  0.3983176E-05  0.1798798E+04  0.7818609E-02  0.8706939E-01
        2   -1    0    0  501    0  0.00000000000E+00  0.00000000000E+00  0.20423919083E+04  0.20423919083E+04  0.25500000920E-02 0. -1.
       -2   -1    0    0    0  501  0.00000000000E+00  0.00000000000E+00 -0.39606415957E+03  0.39606415958E+03  0.25500000920E-02 0.  1.
    10030    2    1    2    0    0  0.00000000000E+00  0.00000000000E+00  0.16463277488E+04  0.24384560679E+04  0.17987976370E+04 0.  0.
        3    1    3    3  502    0 -0.70035683956E+02 -0.64212790865E+03  0.16715647033E+04  0.17920272921E+04  0.10100000352E+00 0. -1.
       -3    1    3    3    0  502  0.70035683956E+02  0.64212790865E+03 -0.25236954559E+02  0.64642877579E+03  0.10100000352E+00 0.  1.
</event>
<event>
 5   0  0.1906857E-05  0.1802937E+04  0.7818609E-02  0.8704739E-01
        1   -1    0    0  501    0  0.00000000000E+00  0.00000000000E+00  0.80986772268E+03  0.80986772269E+03  0.50400001928E-02 0. -1.
       -1   -1    0    0    0  501  0.00000000000E+00  0.00000000000E+00 -0.10034303485E+04  0.10034303485E+04  0.50400001928E-02 0.  1.
    10030    2    1    2    0    0  0.00000000000E+00  0.00000000000E+00 -0.19356262584E+03  0.18132980712E+04  0.18029374379E+04 0.  0.
        4    1    3    3  502    0  0.77324403193E+03  0.19468813983E+03 -0.51971469039E+03  0.95179555421E+03  0.12699999809E+01 0.  1.
       -4    1    3    3    0  502 -0.77324403193E+03 -0.19468813983E+03  0.32615206455E+03  0.86150251701E+03  0.12699999809E+01 0. -1.
</event>
<event>
 5   0  0.1960300E-05  0.1801429E+04  0.7818609E-02  0.8705540E-01
        1   -1    0    0  501    0  0.00000000000E+00  0.00000000000E+00  0.11031087455E+04  0.11031087456E+04  0.50400001928E-02 0. -1.
       -1   -1    0    0    0  501  0.00000000000E+00  0.00000000000E+00 -0.73545449838E+03  0.73545449840E+03  0.50400001928E-02 0.  1.
    10030    2    1    2    0    0  0.00000000000E+00  0.00000000000E+00  0.36765424716E+03  0.18385632440E+04  0.18014286432E+04 0.  0.
        3    1    3    3  502    0 -0.40145135429E+02  0.82245979311E+03  0.55636455531E+03  0.99377727474E+03  0.10100000352E+00 0. -1.
       -3    1    3    3    0  502  0.40145135429E+02 -0.82245979311E+03 -0.18871030815E+03  0.84478596922E+03  0.10100000352E+00 0.  1.
</event>
<event>
 5   0  0.1906857E-05  0.1794537E+04  0.7818609E-02  0.8709210E-01
        1   -1    0    0  501    0  0.00000000000E+00  0.00000000000E+00  0.80510205617E+03  0.80510205619E+03  0.50400001928E-02 0. -1.
       -1   -1    0    0    0  501  0.00000000000E+00  0.00000000000E+00 -0.99998625608E+03  0.99998625610E+03  0.50400001928E-02 0.  1.
    10030    2    1    2    0    0  0.00000000000E+00  0.00000000000E+00 -0.19488419991E+03  0.18050883123E+04  0.17945372562E+04 0.  0.
        4    1    3    3  502    0 -0.22139083919E+03 -0.43623707618E+03 -0.85404319289E+03  0.98422968789E+03  0.12699999809E+01 0.  1.
       -4    1    3    3    0  502  0.22139083919E+03  0.43623707618E+03  0.65915899297E+03  0.82085862439E+03  0.12699999809E+01 0. -1.
</event>
<event>
 5   0  0.3993393E-05  0.1801610E+04  0.7818609E-02  0.8705444E-01
        2   -1    0    0  501    0  0.00000000000E+00  0.00000000000E+00  0.65871171122E+03  0.65871171123E+03  0.25500000920E-02 0. -1.
       -2   -1    0    0    0  501  0.00000000000E+00  0.00000000000E+00 -0.12318742002E+04  0.12318742002E+04  0.25500000920E-02 0.  1.
    10030    2    1    2    0    0  0.00000000000E+00  0.00000000000E+00 -0.57316248900E+03  0.18905859115E+04  0.18016103490E+04 0.  0.
        5    1    3    3  502    0 -0.48004905715E+03  0.49203687458E+03 -0.89746535927E+03  0.11304926113E+04  0.46999998093E+01 0.  1.
       -5    1    3    3    0  502  0.48004905715E+03 -0.49203687458E+03  0.32430287027E+03  0.76009330011E+03  0.46999998093E+01 0. -1.
</event>
<event>
 5   0  0.1906857E-05  0.1806314E+04  0.7818609E-02  0.8702949E-01
       -1   -1    0    0    0  501  0.00000000000E+00  0.00000000000E+00  0.63274655877E+03  0.63274655879E+03  0.50400001928E-02 0. -1.
        1   -1    0    0  501    0  0.00000000000E+00  0.00000000000E+00 -0.12891298056E+04  0.12891298056E+04  0.50400001928E-02 0.  1.
    10030    2    1    2    0    0  0.00000000000E+00  0.00000000000E+00 -0.65638324685E+03  0.19218763644E+04  0.18063138690E+04 0.  0.
        4    1    3    3  502    0  0.76914885360E+03 -0.24333326015E+03  0.10385351854E+03  0.81338072310E+03  0.12699999809E+01 0. -1.
       -4    1    3    3    0  502 -0.76914885360E+03  0.24333326015E+03 -0.76023676540E+03  0.11084956413E+04  0.12699999809E+01 0.  1.
</event>
<event>
 5   0  0.1446750E-05  0.1799781E+04  0.7818609E-02  0.8706416E-01
        3   -1    0    0  501    0  0.00000000000E+00  0.00000000000E+00  0.12678124204E+04  0.12678124244E+04  0.10100000352E+00 0. -1.
       -3   -1    0    0    0  501  0.00000000000E+00  0.00000000000E+00 -0.63874055084E+03  0.63874055883E+03  0.10100000352E+00 0.  1.
    10030    2    1    2    0    0  0.00000000000E+00  0.00000000000E+00  0.62907186954E+03  0.19065529832E+04  0.17997813369E+04 0.  0.
        5    1    3    3  502    0  0.20473463097E+02  0.17151155086E+03 -0.62100185062E+03  0.64459348681E+03  0.46999998093E+01 0.  1.
       -5    1    3    3    0  502 -0.20473463097E+02 -0.17151155086E+03  0.12500737202E+04  0.12619594964E+04  0.46999998093E+01 0. -1.
</event>
<event>
 5   0  0.2001811E-05  0.1779452E+04  0.7818609E-02  0.8717304E-01
        1   -1    0    0  501    0  0.00000000000E+00  0.00000000000E+00  0.87437981335E+03  0.87437981336E+03  0.50400001928E-02 0.  1.
       -1   -1    0    0    0  501  0.00000000000E+00  0.00000000000E+00 -0.90534168832E+03  0.90534168833E+03  0.50400001928E-02 0. -1.
    10030    2    1    2    0    0  0.00000000000E+00  0.00000000000E+00 -0.30961874972E+02  0.17797215017E+04  0.17794521589E+04 0.  0.
        2    1    3    3  502    0  0.42510844230E+03 -0.16572466865E+03 -0.77942286961E+03  0.90315107440E+03  0.25500000920E-02 0. -1.
       -2    1    3    3    0  502 -0.42510844230E+03  0.16572466865E+03  0.74846099464E+03  0.87657042730E+03  0.25500000920E-02 0.  1.
</event>
<event>
 5   0  0.2054876E-05  0.1799644E+04  0.7818609E-02  0.8706489E-01
       -1   -1    0    0    0  501  0.00000000000E+00  0.00000000000E+00  0.10116390469E+04  0.10116390469E+04  0.50400001928E-02 0.  1.
        1   -1    0    0  501    0  0.00000000000E+00  0.00000000000E+00 -0.80036414363E+03  0.80036414365E+03  0.50400001928E-02 0. -1.
    10030    2    1    2    0    0  0.00000000000E+00  0.00000000000E+00  0.21127490324E+03  0.18120031905E+04  0.17996439864E+04 0.  0.
        5    1    3    3  502    0 -0.25892070669E+03 -0.70568295103E+03 -0.39235926474E+03  0.84793646127E+03  0.46999998093E+01 0. -1.
       -5    1    3    3    0  502  0.25892070669E+03  0.70568295103E+03  0.60363416798E+03  0.96406672927E+03  0.46999998093E+01 0.  1.
</event>
<event>
 5   0  0.4015729E-05  0.1800215E+04  0.7818609E-02  0.8706185E-01
        2   -1    0    0  501    0  0.00000000000E+00  0.00000000000E+00  0.19397545858E+04  0.19397545858E+04  0.25500000920E-02 0. -1.
       -2   -1    0    0    0  501  0.00000000000E+00  0.00000000000E+00 -0.41767841769E+03  0.41767841770E+03  0.25500000920E-02 0.  1.
    10030    2    1    2    0    0  0.00000000000E+00  0.00000000000E+00  0.15220761681E+04  0.23574330035E+04  0.18002151273E+04 0.  0.
        2    1    3    3  502    0 -0.21451667548E+03  0.76166047451E+03  0.13228388474E+04  0.15414430572E+04  0.25500000920E-02 0. -1.
       -2    1    3    3    0  502  0.21451667548E+03 -0.76166047451E+03  0.19923732076E+03  0.81598994631E+03  0.25500000920E-02 0.  1.
</event>
<event>
 5   0  0.3909859E-05  0.1798029E+04  0.7818609E-02  0.8707348E-01
        2   -1    0    0  501    0  0.00000000000E+00  0.00000000000E+00  0.87272730129E+03  0.87272730129E+03  0.25500000920E-02 0.  1.
       -2   -1    0    0    0  501  0.00000000000E+00  0.00000000000E+00 -0.92609338742E+03  0.92609338743E+03  0.25500000920E-02 0. -1.
    10030    2    1    2    0    0  0.00000000000E+00  0.00000000000E+00 -0.53366086137E+02  0.17988206887E+04  0.17980289016E+04 0.  0.
        4    1    3    3  502    0  0.33146464217E+03  0.55355829486E+03 -0.65300167965E+03  0.91799150396E+03  0.12699999809E+01 0. -1.
       -4    1    3    3    0  502 -0.33146464217E+03 -0.55355829486E+03  0.59963559352E+03  0.88082918476E+03  0.12699999809E+01 0.  1.
</event>
<event>
 5   0  0.3983176E-05  0.1788554E+04  0.7818609E-02  0.8712410E-01
       -2   -1    0    0    0  501  0.00000000000E+00  0.00000000000E+00  0.57432160247E+03  0.57432160247E+03  0.25500000920E-02 0. -1.
        2   -1    0    0  501    0  0.00000000000E+00  0.00000000000E+00 -0.13924805430E+04  0.13924805430E+04  0.25500000920E-02 0.  1.
    10030    2    1    2    0    0  0.00000000000E+00  0.00000000000E+00 -0.81815894056E+03  0.19668021455E+04  0.17885543401E+04 0.  0.
        3    1    3    3  502    0  0.71622240652E+03 -0.20212938507E+03  0.13622433060E+03  0.75656321769E+03  0.10100000352E+00 0. -1.
       -3    1    3    3    0  502 -0.71622240652E+03  0.20212938507E+03 -0.95438327116E+03  0.12102389278E+04  0.10100000352E+00 0.  1.
</event>
<event>
 5   0  0.1906857E-05  0.1800483E+04  0.7818609E-02  0.8706043E-01
        1   -1    0    0  501    0  0.00000000000E+00  0.00000000000E+00  0.11442304102E+04  0.11442304102E+04  0.50400001928E-02 0. -1.
       -1   -1    0    0    0  501  0.00000000000E+00  0.00000000000E+00 -0.70827926920E+03  0.70827926921E+03  0.50400001928E-02 0.  1.
    10030    2    1    2    0    0  0.00000000000E+00  0.00000000000E+00  0.43595114101E+03  0.18525096794E+04  0.18004829116E+04 0.  0.
        4    1    3    3  502    0  0.23008505315E+02  0.58302324716E+03 -0.48739066508E+03  0.76026098897E+03  0.12699999809E+01 0.  1.
       -4    1    3    3    0  502 -0.23008505315E+02 -0.58302324716E+03  0.92334180609E+03  0.10922486905E+04  0.12699999809E+01 0. -1.
</event>
<event>
 5   0  0.1960300E-05  0.1799097E+04  0.7818609E-02  0.8706780E-01
       -1   -1    0    0    0  501  0.00000000000E+00  0.00000000000E+00  0.10505280651E+04  0.10505280651E+04  0.50400001928E-02 0.  1.
        1   -1    0    0  501    0  0.00000000000E+00  0.00000000000E+00 -0.77026732224E+03  0.77026732225E+03  0.50400001928E-02 0. -1.
    10030    2    1    2    0    0  0.00000000000E+00  0.00000000000E+00  0.28026074284E+03  0.18207953873E+04  0.17990969286E+04 0.  0.
        3    1    3    3  502    0 -0.20564945460E+03 -0.49103421163E+02 -0.74476301415E+03  0.77419300022E+03  0.10100000352E+00 0. -1.
       -3    1    3    3    0  502  0.20564945460E+03  0.49103421163E+02  0.10250237570E+04  0.10466023871E+04  0.10100000352E+00 0.  1.
</event>
<event>
 5   0  0.2054876E-05  0.1800774E+04  0.7818609E-02  0.8705888E-01
        1   -1    0    0  501    0  0.00000000000E+00  0.00000000000E+00  0.82460973678E+03  0.82460973679E+03  0.50400001928E-02 0.  1.
       -1   -1    0    0    0  501  0.00000000000E+00  0.00000000000E+00 -0.98312727158E+03  0.98312727159E+03  0.50400001928E-02 0. -1.
    10030    2    1    2    0    0  0.00000000000E+00  0.00000000000E+00 -0.15851753480E+03  0.18077370084E+04  0.18007735234E+04 0.  0.
        5    1    3    3  502    0 -0.20041367815E+03 -0.24551776774E+03  0.76675131898E+03  0.82968324788E+03  0.46999998093E+01 0.  1.
       -5    1    3    3    0  502  0.20041367815E+03  0.24551776774E+03 -0.92526885378E+03  0.97805376050E+03  0.46999998093E+01 0. -1.
</event>
<event>
 5   0  0.2054876E-05  0.1799421E+04  0.7818609E-02  0.8706607E-01
        1   -1    0    0  501    0  0.00000000000E+00  0.00000000000E+00  0.77903147744E+03  0.77903147746E+03  0.50400001928E-02 0.  1.
       -1   -1    0    0    0  501  0.00000000000E+00  0.00000000000E+00 -0.10390842758E+04  0.10390842758E+04  0.50400001928E-02 0. -1.
    10030    2    1    2    0    0  0.00000000000E+00  0.00000000000E+00 -0.26005279833E+03  0.18181157532E+04  0.17994214165E+04 0.  0.
        5    1    3    3  502    0 -0.74016728856E+02  0.15264260044E+01  0.77593628931E+03  0.77947419533E+03  0.46999998093E+01 0.  1.
       -5    1    3    3    0  502  0.74016728856E+02 -0.15264260044E+01 -0.10359890876E+04  0.10386415579E+04  0.46999998093E+01 0. -1.
</event>
<event>
 5   0  0.4015729E-05  0.1802261E+04  0.7818609E-02  0.8705098E-01
       -2   -1    0    0    0  501  0.00000000000E+00  0.00000000000E+00  0.12865057599E+04  0.12865057599E+04  0.25500000920E-02 0. -1.
        2   -1    0    0  501    0  0.00000000000E+00  0.00000000000E+00 -0.63119526491E+03  0.63119526492E+03  0.25500000920E-02 0.  1.
    10030    2    1    2    0    0  0.00000000000E+00  0.00000000000E+00  0.65531049497E+03  0.19177010248E+04  0.18022611841E+04 0.  0.
        2    1    3    3  502    0 -0.88037383227E+03  0.89173292801E+02  0.50893931353E+03  0.10207983080E+04  0.25500000920E-02 0. -1.
       -2    1    3    3    0  502  0.88037383227E+03 -0.89173292801E+02  0.14637118145E+03  0.89690271683E+03  0.25500000920E-02 0.  1.
</event>
<event>
 5   0  0.4015729E-05  0.1802159E+04  0.7818609E-02  0.8705152E-01
        2   -1    0    0  501    0  0.00000000000E+00  0.00000000000E+00  0.93996222509E+03  0.93996222509E+03  0.25500000920E-02 0. -1.
       -2   -1    0    0    0  501  0.00000000000E+00  0.00000000000E+00 -0.86380535710E+03  0.86380535711E+03  0.25500000920E-02 0.  1.
    10030    2    1    2    0    0  0.00000000000E+00  0.00000000000E+00  0.76156867987E+02  0.18037675822E+04  0.18021591556E+04 0.  0.
        2    1    3    3  502    0  0.70287984912E+03  0.32321481978E+03  0.50048264845E+03  0.92140695864E+03  0.25500000920E-02 0. -1.
       -2    1    3    3    0  502 -0.70287984912E+03 -0.32321481978E+03 -0.42432578046E+03  0.88236062356E+03  0.25500000920E-02 0.  1.
</event>
<event>
 5   0  0.1960300E-05  0.1802259E+04  0.7818609E-02  0.8705099E-01
        1   -1    0    0  501    0  0.00000000000E+00  0.00000000000E+00  0.19523515975E+04  0.19523515975E+04  0.50400001928E-02 0. -1.
       -1   -1    0    0    0  501  0.00000000000E+00  0.00000000000E+00 -0.41592617048E+03  0.41592617052E+03  0.50400001928E-02 0.  1.
    10030    2    1    2    0    0  0.00000000000E+00  0.00000000000E+00  0.15364254270E+04  0.23682777680E+04  0.18022587200E+04 0.  0.
        3    1    3    3  502    0  0.40584103570E+03  0.79083917239E+03  0.96267850495E+03  0.13102989952E+04  0.10100000352E+00 0. -1.
       -3    1    3    3    0  502 -0.40584103570E+03 -0.79083917239E+03  0.57374692204E+03  0.10579787728E+04  0.10100000352E+00 0.  1.
</event>
<event>
 5   0  0.2038338E-05  0.1800283E+04  0.7818609E-02  0.8706149E-01
        1   -1    0    0  501    0  0.00000000000E+00  0.00000000000E+00  0.15907573366E+04  0.15907573366E+04  0.50400001928E-02 0.  1.
       -1   -1    0    0    0  501  0.00000000000E+00  0.00000000000E+00 -0.50935159306E+03  0.50935159309E+03  0.50400001928E-02 0. -1.
    10030    2    1    2    0    0  0.00000000000E+00  0.00000000000E+00  0.10814057436E+04  0.21001089297E+04  0.18002830707E+04 0.  0.
        1    1    3    3  502    0  0.43238265344E+02 -0.84391397424E+03  0.17889666775E+03  0.86375017295E+03  0.50400001928E-02 0. -1.
       -1    1    3    3    0  502 -0.43238265344E+02  0.84391397424E+03  0.90250907582E+03  0.12363587568E+04  0.50400001928E-02 0.  1.
</event>
<event>
 5   0  0.3984648E-05  0.1806693E+04  0.7818609E-02  0.8702748E-01
        2   -1    0    0  501    0  0.00000000000E+00  0.00000000000E+00  0.14637417150E+04  0.14637417150E+04  0.25500000920E-02 0. -1.
       -2   -1    0    0    0  501  0.00000000000E+00  0.00000000000E+00 -0.55749954476E+03  0.55749954476E+03  0.25500000920E-02 0.  1.
    10030    2    1    2    0    0  0.00000000000E+00  0.00000000000E+00  0.90624217028E+03  0.20212412598E+04  0.18066934879E+04 0.  0.
        1    1    3    3  502    0 -0.69215204851E+03 -0.30305818999E+02  0.11016520843E+04  0.13013954878E+04  0.50400001928E-02 0. -1.
       -1    1    3    3    0  502  0.69215204851E+03  0.30305818999E+02 -0.19540991399E+03  0.71984577198E+03  0.50400001928E-02 0.  1.
</event>
<event>
 5   0  0.3993393E-05  0.1801474E+04  0.7818609E-02  0.8705516E-01
       -2   -1    0    0    0  501  0.00000000000E+00  0.00000000000E+00  0.70591395486E+03  0.70591395487E+03  0.25500000920E-02 0.  1.
        2   -1    0    0  501    0  0.00000000000E+00  0.00000000000E+00 -0.11493282497E+04  0.11493282497E+04  0.25500000920E-02 0. -1.
    10030    2    1    2    0    0  0.00000000000E+00  0.00000000000E+00 -0.44341429486E+03  0.18552422046E+04  0.18014736748E+04 0.  0.
        5    1    3    3  502    0  0.45885506342E+03  0.11087549131E+03  0.56830256351E+03  0.73880392358E+03  0.46999998093E+01 0.  1.
       -5    1    3    3    0  502 -0.45885506342E+03 -0.11087549131E+03 -0.10117168584E+04  0.11164382810E+04  0.46999998093E+01 0. -1.
</event>
<event>
 5   0  0.2001811E-05  0.1802506E+04  0.7818609E-02  0.8704968E-01
       -1   -1    0    0    0  501  0.00000000000E+00  0.00000000000E+00  0.12316082102E+04  0.12316082102E+04  0.50400001928E-02 0.  1.
        1   -1    0    0  501    0  0.00000000000E+00  0.00000000000E+00 -0.65950950036E+03  0.65950950038E+03  0.50400001928E-02 0. -1.
    10030    2    1    2    0    0  0.00000000000E+00  0.00000000000E+00  0.57209870980E+03  0.18911177105E+04  0.18025063832E+04 0.  0.
        2    1    3    3  502    0 -0.39963135817E+03  0.35454620996E+03 -0.47547686790E+03  0.71518283631E+03  0.25500000920E-02 0. -1.
       -2    1    3    3    0  502  0.39963135817E+03 -0.35454620996E+03  0.10475755777E+04  0.11759348742E+04  0.25500000920E-02 0.  1.
</event>
<event>
 5   0  0.2001811E-05  0.1797061E+04  0.7818609E-02  0.8707864E-01
       -1   -1    0    0    0  501  0.00000000000E+00  0.00000000000E+00  0.81581912216E+03  0.81581912218E+03  0.50400001928E-02 0.  1.
        1   -1    0    0  501    0  0.00000000000E+00  0.00000000000E+00 -0.98962775140E+03  0.98962775141E+03  0.50400001928E-02 0. -1.
    10030    2    1    2    0    0  0.00000000000E+00  0.00000000000E+00 -0.17380862923E+03  0.18054468736E+04  0.17970612048E+04 0.  0.
        2    1    3    3  502    0  0.28808855605E+03 -0.83493366610E+03 -0.25274426696E+03  0.91868868906E+03  0.25500000920E-02 0. -1.
       -2    1    3    3    0  502 -0.28808855605E+03  0.83493366610E+03  0.78935637729E+02  0.88675818453E+03  0.25500000920E-02 0.  1.
</event>
<event>
 5   0  0.1960300E-05  0.1802083E+04  0.7818609E-02  0.8705193E-01
        1   -1    0    0  501    0  0.00000000000E+00  0.00000000000E+00  0.17547078935E+04  0.17547078935E+04  0.50400001928E-02 0.  1.
       -1   -1    0    0    0  501  0.00000000000E+00  0.00000000000E+00 -0.46268404597E+03  0.46268404600E+03  0.50400001928E-02 0. -1.
    10030    2    1    2    0    0  0.00000000000E+00  0.00000000000E+00  0.12920238475E+04  0.22173919395E+04  0.18020825150E+04 0.  0.
        3    1    3    3  502    0  0.82559767805E+03  0.31907337547E+03  0.43844666698E+03  0.98775241580E+03  0.10100000352E+00 0. -1.
       -3    1    3    3    0  502 -0.82559767805E+03 -0.31907337547E+03  0.85357718057E+03  0.12296395237E+04  0.10100000352E+00 0.  1.
</event>
<event>
 5   0  0.3983176E-05  0.1800690E+04  0.7818609E-02  0.8705932E-01
       -2   -1    0    0    0  501  0.00000000000E+00  0.00000000000E+00  0.65146020639E+03  0.65146020639E+03  0.25500000920E-02 0. -1.
        2   -1    0    0  501    0  0.00000000000E+00  0.00000000000E+00 -0.12443145747E+04  0.12443145747E+04  0.25500000920E-02 0.  1.
    10030    2    1    2    0    0  0.00000000000E+00  0.00000000000E+00 -0.59285436828E+03  0.18957747811E+04  0.18006903450E+04 0.  0.
        3    1    3    3  502    0  0.47200766001E+03  0.21825613389E+03 -0.10702165626E+04  0.11898699391E+04  0.10100000352E+00 0.  1.
       -3    1    3    3    0  502 -0.47200766001E+03 -0.21825613389E+03  0.47736219429E+03  0.70590484191E+03  0.10100000352E+00 0. -1.
</event>
<event>
 5   0  0.2054876E-05  0.1805525E+04  0.7818609E-02  0.8703367E-01
       -1   -1    0    0    0  501  0.00000000000E+00  0.00000000000E+00  0.81860572229E+03  0.81860572231E+03  0.50400001928E-02 0.  1.
        1   -1    0    0  501    0  0.00000000000E+00  0.00000000000E+00 -0.99557111927E+03  0.99557111928E+03  0.50400001928E-02 0. -1.
    10030    2    1    2    0    0  0.00000000000E+00  0.00000000000E+00 -0.17696539697E+03  0.18141768416E+04  0.18055250928E+04 0.  0.
        5    1    3    3  502    0 -0.54734599946E+03  0.48632199088E+03  0.44212102642E+03  0.85533023677E+03  0.46999998093E+01 0.  1.
       -5    1    3    3    0  502  0.54734599946E+03 -0.48632199088E+03 -0.61908642340E+03  0.95884660482E+03  0.46999998093E+01 0. -1.
</event>
<event>
 5   0  0.2001811E-05  0.1800018E+04  0.7818609E-02  0.8706290E-01
       -1   -1    0    0    0  501  0.00000000000E+00  0.00000000000E+00  0.94351245306E+03  0.94351245307E+03  0.50400001928E-02 0. -1.
        1   -1    0    0  501    0  0.00000000000E+00  0.00000000000E+00 -0.85851142611E+03  0.85851142612E+03  0.50400001928E-02 0.  1.
    10030    2    1    2    0    0  0.00000000000E+00  0.00000000000E+00  0.85001026950E+02  0.18020238792E+04  0.18000180240E+04 0.  0.
        2    1    3    3  502    0  0.65233732030E+03  0.57665128589E+03  0.27067012686E+03  0.91177464462E+03  0.25500000920E-02 0.  1.
       -2    1    3    3    0  502 -0.65233732030E+03 -0.57665128589E+03 -0.18566909992E+03  0.89024923457E+03  0.25500000920E-02 0. -1.
</event>
<event>
 5   0  0.3983176E-05  0.1799613E+04  0.7818609E-02  0.8706505E-01
        2   -1    0    0  501    0  0.00000000000E+00  0.00000000000E+00  0.10181835972E+04  0.10181835972E+04  0.25500000920E-02 0. -1.
       -2   -1    0    0    0  501  0.00000000000E+00  0.00000000000E+00 -0.79519211298E+03  0.79519211298E+03  0.25500000920E-02 0.  1.
    10030    2    1    2    0    0  0.00000000000E+00  0.00000000000E+00  0.22299148419E+03  0.18133757102E+04  0.17996128095E+04 0.  0.
        3    1    3    3  502    0  0.28908849637E+03  0.65223957829E+03 -0.44102509458E+03  0.83874416270E+03  0.10100000352E+00 0.  1.
       -3    1    3    3    0  502 -0.28908849637E+03 -0.65223957829E+03  0.66401657877E+03  0.97463154746E+03  0.10100000352E+00 0. -1.
</event>
<event>
 5   0  0.3993393E-05  0.1804768E+04  0.7818609E-02  0.8703768E-01
       -2   -1    0    0    0  501  0.00000000000E+00  0.00000000000E+00  0.84895942345E+03  0.84895942345E+03  0.25500000920E-02 0.  1.
        2   -1    0    0  501    0  0.00000000000E+00  0.00000000000E+00 -0.95917068710E+03  0.95917068710E+03  0.25500000920E-02 0. -1.
    10030    2    1    2    0    0  0.00000000000E+00  0.00000000000E+00 -0.11021126365E+03  0.18081301106E+04  0.18047681220E+04 0.  0.
        5    1    3    3  502    0 -0.21348038034E+03  0.28951512396E+03  0.77401199996E+03  0.85352770656E+03  0.46999998093E+01 0.  1.
       -5    1    3    3    0  502  0.21348038034E+03 -0.28951512396E+03 -0.88422326361E+03  0.95460240399E+03  0.46999998093E+01 0. -1.
</event>
<event>
 5   0  0.3993393E-05  0.1799308E+04  0.7818609E-02  0.8706668E-01
       -2   -1    0    0    0  501  0.00000000000E+00  0.00000000000E+00  0.49826665556E+03  0.49826665556E+03  0.25500000920E-02 0. -1.
        2   -1    0    0  501    0  0.00000000000E+00  0.00000000000E+00 -0.16243856527E+04  0.16243856527E+04  0.25500000920E-02 0.  1.
    10030    2    1    2    0    0  0.00000000000E+00  0.00000000000E+00 -0.11261189972E+04  0.21226523083E+04  0.17993078742E+04 0.  0.
        5    1    3    3  502    0 -0.18490313764E+03  0.43709802778E+03 -0.14646745871E+04  0.15396550238E+04  0.46999998093E+01 0.  1.
       -5    1    3    3    0  502  0.18490313764E+03 -0.43709802778E+03  0.33855558996E+03  0.58299728447E+03  0.46999998093E+01 0. -1.
</event>
<event>
 5   0  0.3993393E-05  0.1798433E+04  0.7818609E-02  0.8707133E-01
       -2   -1    0    0    0  501  0.00000000000E+00  0.00000000000E+00  0.34154772664E+03  0.34154772665E+03  0.25500000920E-02 0. -1.
        2   -1    0    0  501    0  0.00000000000E+00  0.00000000000E+00 -0.23674303533E+04  0.23674303533E+04  0.25500000920E-02 0.  1.
    10030    2    1    2    0    0  0.00000000000E+00  0.00000000000E+00 -0.20258826267E+04  0.27089780800E+04  0.17984331571E+04 0.  0.
        5    1    3    3  502    0 -0.23150966468E+03  0.31067574632E+03 -0.22352286812E+04  0.22685646325E+04  0.46999998093E+01 0.  1.
       -5    1    3    3    0  502  0.23150966468E+03 -0.31067574632E+03  0.20934605457E+03  0.44041344751E+03  0.46999998093E+01 0. -1.
</event>
<event>
 5   0  0.4015729E-05  0.1790401E+04  0.7818609E-02  0.8711421E-01
       -2   -1    0    0    0  501  0.00000000000E+00  0.00000000000E+00  0.72131464023E+03  0.72131464024E+03  0.25500000920E-02 0. -1.
        2   -1    0    0  501    0  0.00000000000E+00  0.00000000000E+00 -0.11110044320E+04  0.11110044320E+04  0.25500000920E-02 0.  1.
    10030    2    1    2    0    0  0.00000000000E+00  0.00000000000E+00 -0.38968979180E+03  0.18323190723E+04  0.17904008067E+04 0.  0.
        2    1    3    3  502    0  0.23380001927E+03  0.80112230912E+03  0.13665927702E+03  0.84565664498E+03  0.25500000920E-02 0. -1.
       -2    1    3    3    0  502 -0.23380001927E+03 -0.80112230912E+03 -0.52634906882E+03  0.98666242730E+03  0.25500000920E-02 0.  1.
</event>
<event>
 5   0  0.3909859E-05  0.1798134E+04  0.7818609E-02  0.8707293E-01
       -2   -1    0    0    0  501  0.00000000000E+00  0.00000000000E+00  0.90458498119E+03  0.90458498120E+03  0.25500000920E-02 0. -1.
        2   -1    0    0  501    0  0.00000000000E+00  0.00000000000E+00 -0.89358231170E+03  0.89358231170E+03  0.25500000920E-02 0.  1.
    10030    2    1    2    0    0  0.00000000000E+00  0.00000000000E+00  0.11002669492E+02  0.17981672929E+04  0.17981336309E+04 0.  0.
        4    1    3    3  502    0  0.42789893885E+03  0.36034719408E+03  0.70934113968E+03  0.90339031846E+03  0.12699999809E+01 0. -1.
       -4    1    3    3    0  502 -0.42789893885E+03 -0.36034719408E+03 -0.69833847018E+03  0.89477697444E+03  0.12699999809E+01 0.  1.
</event>
<event>
 5   0  0.3983176E-05  0.1801923E+04  0.7818609E-02  0.8705277E-01
        2   -1    0    0  501    0  0.00000000000E+00  0.00000000000E+00  0.11671054124E+04  0.11671054124E+04  0.25500000920E-02 0.  1.
       -2   -1    0    0    0  501  0.00000000000E+00  0.00000000000E+00 -0.69550848849E+03  0.69550848849E+03  0.25500000920E-02 0. -1.
    10030    2    1    2    0    0  0.00000000000E+00  0.00000000000E+00  0.47159692392E+03  0.18626139009E+04  0.18019231075E+04 0.  0.
        3    1    3    3  502    0 -0.15234028176E+02 -0.26908388258E+03  0.11244597801E+04  0.11563079256E+04  0.10100000352E+00 0.  1.
       -3    1    3    3    0  502  0.15234028176E+02  0.26908388258E+03 -0.65286285623E+03  0.70630597529E+03  0.10100000352E+00 0. -1.
</event>
<event>
 5   0  0.3993393E-05  0.1803788E+04  0.7818609E-02  0.8704288E-01
        2   -1    0    0  501    0  0.00000000000E+00  0.00000000000E+00  0.26469782226E+04  0.26469782226E+04  0.25500000920E-02 0.  1.
       -2   -1    0    0    0  501  0.00000000000E+00  0.00000000000E+00 -0.30729857379E+03  0.30729857380E+03  0.25500000920E-02 0. -1.
    10030    2    1    2    0    0  0.00000000000E+00  0.00000000000E+00  0.23396796488E+04  0.29542767964E+04  0.18037878286E+04 0.  0.
        5    1    3    3  502    0  0.67888354270E+03 -0.18417949436E+03  0.20942799690E+04  0.22092613311E+04  0.46999998093E+01 0.  1.
       -5    1    3    3    0  502 -0.67888354270E+03  0.18417949436E+03  0.24539967988E+03  0.74501546532E+03  0.46999998093E+01 0. -1.
</event>
<event>
 5   0  0.3984648E-05  0.1796433E+04  0.7818609E-02  0.8708199E-01
       -2   -1    0    0    0  501  0.00000000000E+00  0.00000000000E+00  0.79848366211E+03  0.79848366211E+03  0.25500000920E-02 0.  1.
        2   -1    0    0  501    0  0.00000000000E+00  0.00000000000E+00 -0.10104063155E+04  0.10104063155E+04  0.25500000920E-02 0. -1.
    10030    2    1    2    0    0  0.00000000000E+00  0.00000000000E+00 -0.21192265335E+03  0.18088899776E+04  0.17964330603E+04 0.  0.
        1    1    3    3  502    0 -0.67404913936E+03  0.33537578537E+03  0.38730674528E+03  0.84665558207E+03  0.50400001928E-02 0.  1.
       -1    1    3    3    0  502  0.67404913936E+03 -0.33537578537E+03 -0.59922939863E+03  0.96223439551E+03  0.50400001928E-02 0. -1.
</event>
<event>
 5   0  0.1446750E-05  0.1795966E+04  0.7818609E-02  0.8708447E-01
       -3   -1    0    0    0  501  0.00000000000E+00  0.00000000000E+00  0.27630757927E+04  0.27630757945E+04  0.10100000352E+00 0.  1.
        3   -1    0    0  501    0  0.00000000000E+00  0.00000000000E+00 -0.29183921054E+03  0.29183922802E+03  0.10100000352E+00 0. -1.
    10030    2    1    2    0    0  0.00000000000E+00  0.00000000000E+00  0.24712365821E+04  0.30549150225E+04  0.17959664669E+04 0.  0.
        1    1    3    3  502    0 -0.72380949328E+02 -0.59873217602E+03  0.23673238114E+04  0.24429370128E+04  0.50400001928E-02 0.  1.
       -1    1    3    3    0  502  0.72380949328E+02  0.59873217602E+03  0.10391277070E+03  0.61197800971E+03  0.50400001928E-02 0. -1.
</event>
<event>
 5   0  0.3984648E-05  0.1763907E+04  0.7818609E-02  0.8725732E-01
        2   -1    0    0  501    0  0.00000000000E+00  0.00000000000E+00  0.12048708372E+04  0.12048708372E+04  0.25500000920E-02 0. -1.
       -2   -1    0    0    0  501  0.00000000000E+00  0.00000000000E+00 -0.64558119290E+03  0.64558119291E+03  0.25500000920E-02 0.  1.
    10030    2    1    2    0    0  0.00000000000E+00  0.00000000000E+00  0.55928964427E+03  0.18504520301E+04  0.17639069730E+04 0.  0.
        1    1    3    3  502    0 -0.47865531346E+03 -0.88587601354E+02  0.10511768025E+04  0.11584176027E+04  0.50400001928E-02 0. -1.
       -1    1    3    3    0  502  0.47865531346E+03  0.88587601354E+02 -0.49188715820E+03  0.69203442736E+03  0.50400001928E-02 0.  1.
</event>
<event>
 5   0  0.2001811E-05  0.1805925E+04  0.7818609E-02  0.8703155E-01
        1   -1    0    0  501    0  0.00000000000E+00  0.00000000000E+00  0.79371922103E+03  0.79371922105E+03  0.50400001928E-02 0. -1.
       -1   -1    0    0    0  501  0.00000000000E+00  0.00000000000E+00 -0.10272414689E+04  0.10272414689E+04  0.50400001928E-02 0.  1.
    10030    2    1    2    0    0  0.00000000000E+00  0.00000000000E+00 -0.23352224788E+03  0.18209606900E+04  0.18059250245E+04 0.  0.
        2    1    3    3  502    0  0.32916753043E+03  0.80431813909E+03  0.13035556405E+03  0.87878979571E+03  0.25500000920E-02 0. -1.
       -2    1    3    3    0  502 -0.32916753043E+03 -0.80431813909E+03 -0.36387781193E+03  0.94217089426E+03  0.25500000920E-02 0.  1.
</event>
<event>
 5   0  0.3983176E-05  0.1799077E+04  0.7818609E-02  0.8706790E-01
        2   -1    0    0  501    0  0.00000000000E+00  0.00000000000E+00  0.13331135536E+04  0.13331135536E+04  0.25500000920E-02 0.  1.
       -2   -1    0    0    0  501  0.00000000000E+00  0.00000000000E+00 -0.60697726528E+03  0.60697726528E+03  0.25500000920E-02 0. -1.
    10030    2    1    2    0    0  0.00000000000E+00  0.00000000000E+00  0.72613628829E+03  0.19400908188E+04  0.17990771179E+04 0.  0.
        3    1    3    3  502    0 -0.48730149524E+03 -0.57582778831E+03 -0.16537076266E+03  0.77226154145E+03  0.10100000352E+00 0. -1.
       -3    1    3    3    0  502  0.48730149524E+03  0.57582778831E+03  0.89150705095E+03  0.11678292774E+04  0.10100000352E+00 0.  1.
</event>
<event>
 5   0  0.1906857E-05  0.1799018E+04  0.7818609E-02  0.8706822E-01
       -1   -1    0    0    0  501  0.00000000000E+00  0.00000000000E+00  0.87137264543E+03  0.87137264545E+03  0.50400001928E-02 0.  1.
        1   -1    0    0  501    0  0.00000000000E+00  0.00000000000E+00 -0.92855430738E+03  0.92855430740E+03  0.50400001928E-02 0. -1.
    10030    2    1    2    0    0  0.00000000000E+00  0.00000000000E+00 -0.57181661949E+02  0.17999269528E+04  0.17990184249E+04 0.  0.
        4    1    3    3  502    0 -0.89254518760E+03 -0.76744510630E+02 -0.10980188239E+03  0.90254346050E+03  0.12699999809E+01 0.  1.
       -4    1    3    3    0  502  0.89254518760E+03  0.76744510630E+02  0.52620220444E+02  0.89738349234E+03  0.12699999809E+01 0. -1.
</event>
<event>
 5   0  0.2038338E-05  0.1796189E+04  0.7818609E-02  0.8708329E-01
        1   -1    0    0  501    0  0.00000000000E+00  0.00000000000E+00  0.22248846097E+04  0.22248846097E+04  0.50400001928E-02 0. -1.
       -1   -1    0    0    0  501  0.00000000000E+00  0.00000000000E+00 -0.36252375858E+03  0.36252375862E+03  0.50400001928E-02 0.  1.
    10030    2    1    2    0    0  0.00000000000E+00  0.00000000000E+00  0.18623608511E+04  0.25874083683E+04  0.17961887776E+04 0.  0.
        1    1    3    3  502    0  0.10869430767E+03 -0.36233173673E+03 -0.24216318579E+03  0.44915670822E+03  0.50400001928E-02 0.  1.
       -1    1    3    3    0  502 -0.10869430767E+03  0.36233173673E+03  0.21045240369E+04  0.21382516601E+04  0.50400001928E-02 0. -1.
</event>
<event>
 5   0  0.2054876E-05  0.1799707E+04  0.7818609E-02  0.8706455E-01
       -1   -1    0    0    0  501  0.00000000000E+00  0.00000000000E+00  0.10667836071E+04  0.10667836071E+04  0.50400001928E-02 0.  1.
        1   -1    0    0  501    0  0.00000000000E+00  0.00000000000E+00 -0.75904456320E+03  0.75904456322E+03  0.50400001928E-02 0. -1.
    10030    2    1    2    0    0  0.00000000000E+00  0.00000000000E+00  0.30773904390E+03  0.18258281703E+04  0.17997069729E+04 0.  0.
        5    1    3    3  502    0 -0.51017558317E+02  0.78177282627E+03  0.60294837858E+03  0.98860527026E+03  0.46999998093E+01 0.  1.
       -5    1    3    3    0  502  0.51017558317E+02 -0.78177282627E+03 -0.29520933468E+03  0.83722290008E+03  0.46999998093E+01 0. -1.
</event>
<event>
 5   0  0.3909859E-05  0.1798468E+04  0.7818609E-02  0.8707115E-01
        2   -1    0    0  501    0  0.00000000000E+00  0.00000000000E+00  0.94990960168E+03  0.94990960169E+03  0.25500000920E-02 0. -1.
       -2   -1    0    0    0  501  0.00000000000E+00  0.00000000000E+00 -0.85126159232E+03  0.85126159233E+03  0.25500000920E-02 0.  1.
    10030    2    1    2    0    0  0.00000000000E+00  0.00000000000E+00  0.98648009361E+02  0.18011711940E+04  0.17984677479E+04 0.  0.
        4    1    3    3  502    0  0.69345035475E+03 -0.92123111049E+02 -0.51655621732E+03  0.86959300862E+03  0.12699999809E+01 0.  1.
       -4    1    3    3    0  502 -0.69345035475E+03  0.92123111049E+02  0.61520422668E+03  0.93157818540E+03  0.12699999809E+01 0. -1.
</event>
<event>
 5   0  0.2001811E-05  0.1803615E+04  0.7818609E-02  0.8704380E-01
       -1   -1    0    0    0  501  0.00000000000E+00  0.00000000000E+00  0.83406816030E+03  0.83406816031E+03  0.50400001928E-02 0. -1.
        1   -1    0    0  501    0  0.00000000000E+00  0.00000000000E+00 -0.97504793777E+03  0.97504793779E+03  0.50400001928E-02 0.  1.
    10030    2    1    2    0    0  0.00000000000E+00  0.00000000000E+00 -0.14097977748E+03  0.18091160981E+04  0.18036146370E+04 0.  0.
        2    1    3    3  502    0 -0.53570635248E+03 -0.70777597900E+03 -0.23012402585E+03  0.91699792792E+03  0.25500000920E-02 0. -1.
       -2    1    3    3    0  502  0.53570635248E+03  0.70777597900E+03  0.89144248373E+02  0.89211817018E+03  0.25500000920E-02 0.  1.
</event>
<event>
 5   0  0.4015729E-05  0.1799512E+04  0.7818609E-02  0.8706559E-01
        2   -1    0    0  501    0  0.00000000000E+00  0.00000000000E+00  0.10956693177E+04  0.10956693177E+04  0.25500000920E-02 0.  1.
       -2   -1    0    0    0  501  0.00000000000E+00  0.00000000000E+00 -0.73887372081E+03  0.73887372081E+03  0.25500000920E-02 0. -1.
    10030    2    1    2    0    0  0.00000000000E+00  0.00000000000E+00  0.35679559689E+03  0.18345430385E+04  0.17995124512E+04 0.  0.
        2    1    3    3  502    0 -0.71683773621E+03 -0.39792188251E+03  0.55623793709E+03  0.99075668421E+03  0.25500000920E-02 0.  1.
       -2    1    3    3    0  502  0.71683773621E+03  0.39792188251E+03 -0.19944234020E+03  0.84378635430E+03  0.25500000920E-02 0. -1.
</event>
<event>
 5   0  0.3984648E-05  0.1799039E+04  0.7818609E-02  0.8706811E-01
        2   -1    0    0  501    0  0.00000000000E+00  0.00000000000E+00  0.71025794880E+03  0.71025794880E+03  0.25500000920E-02 0. -1.
       -2   -1    0    0    0  501  0.00000000000E+00  0.00000000000E+00 -0.11392127481E+04  0.11392127481E+04  0.25500000920E-02 0.  1.
    10030    2    1    2    0    0  0.00000000000E+00  0.00000000000E+00 -0.42895479934E+03  0.18494706969E+04  0.17990385318E+04 0.  0.
        1    1    3    3  502    0 -0.17725828580E+03 -0.51978920834E+03 -0.94686230402E+03  0.10946001753E+04  0.50400001928E-02 0.  1.
       -1    1    3    3    0  502  0.17725828580E+03  0.51978920834E+03  0.51790750468E+03  0.75487052163E+03  0.50400001928E-02 0. -1.
</event>
<event>
 5   0  0.3993393E-05  0.1799340E+04  0.7818609E-02  0.8706651E-01
       -2   -1    0    0    0  501  0.00000000000E+00  0.00000000000E+00  0.60404722982E+03  0.60404722983E+03  0.25500000920E-02 0. -1.
        2   -1    0    0  501    0  0.00000000000E+00  0.00000000000E+00 -0.13399713861E+04  0.13399713861E+04  0.25500000920E-02 0.  1.
    10030    2    1    2    0    0  0.00000000000E+00  0.00000000000E+00 -0.73592415627E+03  0.19440186159E+04  0.17993398832E+04 0.  0.
        5    1    3    3  502    0  0.25501987301E+03 -0.10667106529E+02 -0.13000186125E+04  0.13248469367E+04  0.46999998093E+01 0.  1.
       -5    1    3    3    0  502 -0.25501987301E+03  0.10667106529E+02  0.56409445624E+03  0.61917167923E+03  0.46999998093E+01 0. -1.
</event>
<event>
 5   0  0.2001811E-05  0.1791311E+04  0.7818609E-02  0.8710934E-01
        1   -1    0    0  501    0  0.00000000000E+00  0.00000000000E+00  0.16952600692E+04  0.16952600692E+04  0.50400001928E-02 0. -1.
       -1   -1    0    0    0  501  0.00000000000E+00  0.00000000000E+00 -0.47320107738E+03  0.47320107740E+03  0.50400001928E-02 0.  1.
    10030    2    1    2    0    0  0.00000000000E+00  0.00000000000E+00  0.12220589919E+04  0.21684611466E+04  0.17913111301E+04 0.  0.
        2    1    3    3  502    0 -0.76873656599E+03  0.43598169005E+03  0.43492570048E+03  0.98498543487E+03  0.25500000920E-02 0. -1.
       -2    1    3    3    0  502  0.76873656599E+03 -0.43598169005E+03  0.78713329137E+03  0.11834757118E+04  0.25500000920E-02 0.  1.
</event>
<event>
 5   0  0.1906857E-05  0.1799258E+04  0.7818609E-02  0.8706694E-01
        1   -1    0    0  501    0  0.00000000000E+00  0.00000000000E+00  0.89015330004E+03  0.89015330005E+03  0.50400001928E-02 0.  1.
       -1   -1    0    0    0  501  0.00000000000E+00  0.00000000000E+00 -0.90920526213E+03  0.90920526214E+03  0.50400001928E-02 0. -1.
    10030    2    1    2    0    0  0.00000000000E+00  0.00000000000E+00 -0.19051962094E+02  0.17993585622E+04  0.17992576964E+04 0.  0.
        4    1    3    3  502    0  0.61313227252E+03 -0.60460549355E+03  0.25097175955E+03  0.89692107982E+03  0.12699999809E+01 0.  1.
       -4    1    3    3    0  502 -0.61313227252E+03  0.60460549355E+03 -0.27002372165E+03  0.90243748237E+03  0.12699999809E+01 0. -1.
</event>
<event>
 5   0  0.3909859E-05  0.1800945E+04  0.7818609E-02  0.8705797E-01
        2   -1    0    0  501    0  0.00000000000E+00  0.00000000000E+00  0.83695956889E+03  0.83695956890E+03  0.25500000920E-02 0. -1.
       -2   -1    0    0    0  501  0.00000000000E+00  0.00000000000E+00 -0.96880556664E+03  0.96880556665E+03  0.25500000920E-02 0.  1.
    10030    2    1    2    0    0  0.00000000000E+00  0.00000000000E+00 -0.13184599775E+03  0.18057651355E+04  0.18009454066E+04 0.  0.
        4    1    3    3  502    0  0.32441010045E+03  0.77864573235E+03 -0.38191460331E+03  0.92595435465E+03  0.12699999809E+01 0. -1.
       -4    1    3    3    0  502 -0.32441010045E+03 -0.77864573235E+03  0.25006860556E+03  0.87981078089E+03  0.12699999809E+01 0.  1.
</event>
<event>
 5   0  0.3983176E-05  0.1806997E+04  0.7818609E-02  0.8702588E-01
       -2   -1    0    0    0  501  0.00000000000E+00  0.00000000000E+00  0.69182078281E+03  0.69182078281E+03  0.25500000920E-02 0.  1.
        2   -1    0    0  501    0  0.00000000000E+00  0.00000000000E+00 -0.11799431372E+04  0.11799431372E+04  0.25500000920E-02 0. -1.
    10030    2    1    2    0    0  0.00000000000E+00  0.00000000000E+00 -0.48812235439E+03  0.18717639200E+04  0.18069966075E+04 0.  0.
        3    1    3    3  502    0 -0.59350682540E+03  0.30734568471E+03 -0.87379673924E+03  0.11001056647E+04  0.10100000352E+00 0. -1.
       -3    1    3    3    0  502  0.59350682540E+03 -0.30734568471E+03  0.38567438486E+03  0.77165825534E+03  0.10100000352E+00 0.  1.
</event>
<event>
 5   0  0.2038338E-05  0.1801841E+04  0.7818609E-02  0.8705321E-01
        1   -1    0    0  501    0  0.00000000000E+00  0.00000000000E+00  0.10598708727E+04  0.10598708728E+04  0.50400001928E-02 0.  1.
       -1   -1    0    0    0  501  0.00000000000E+00  0.00000000000E+00 -0.76580797085E+03  0.76580797087E+03  0.50400001928E-02 0. -1.
    10030    2    1    2    0    0  0.00000000000E+00  0.00000000000E+00  0.29406290189E+03  0.18256788436E+04  0.18018407948E+04 0.  0.
        1    1    3    3  502    0  0.59510051259E+03  0.66997445212E+03  0.24125188764E+03  0.92801554938E+03  0.50400001928E-02 0.  1.
       -1    1    3    3    0  502 -0.59510051259E+03 -0.66997445212E+03  0.52811014246E+02  0.89766329424E+03  0.50400001928E-02 0. -1.
</event>
<event>
 5   0  0.2038338E-05  0.1808232E+04  0.7818609E-02  0.8701934E-01
        1   -1    0    0  501    0  0.00000000000E+00  0.00000000000E+00  0.87321163512E+03  0.87321163513E+03  0.50400001928E-02 0.  1.
       -1   -1    0    0    0  501  0.00000000000E+00  0.00000000000E+00 -0.93611403549E+03  0.93611403550E+03  0.50400001928E-02 0. -1.
    10030    2    1    2    0    0  0.00000000000E+00  0.00000000000E+00 -0.62902400369E+02  0.18093256706E+04  0.18082319183E+04 0.  0.
        1    1    3    3  502    0 -0.88288575486E+02  0.88215380115E+02 -0.92745296916E+03  0.93581292782E+03  0.50400001928E-02 0. -1.
       -1    1    3    3    0  502  0.88288575486E+02 -0.88215380115E+02  0.86455056879E+03  0.87351274282E+03  0.50400001928E-02 0.  1.
</event>
<event>
 5   0  0.2001811E-05  0.1800545E+04  0.7818609E-02  0.8706010E-01
        1   -1    0    0  501    0  0.00000000000E+00  0.00000000000E+00  0.16450073092E+04  0.16450073092E+04  0.50400001928E-02 0.  1.
       -1   -1    0    0    0  501  0.00000000000E+00  0.00000000000E+00 -0.49269719229E+03  0.49269719232E+03  0.50400001928E-02 0. -1.
    10030    2    1    2    0    0  0.00000000000E+00  0.00000000000E+00  0.11523101169E+04  0.21377045015E+04  0.18005448982E+04 0.  0.
        2    1    3    3  502    0  0.17040494400E+03  0.70400628290E+03  0.12108951689E+04  0.14110031188E+04  0.25500000920E-02 0.  1.
       -2    1    3    3    0  502 -0.17040494400E+03 -0.70400628290E+03 -0.58585051971E+02  0.72670138270E+03  0.25500000920E-02 0. -1.
</event>
<event>
 5   0  0.2001811E-05  0.1799203E+04  0.7818609E-02  0.8706724E-01
       -1   -1    0    0    0  501  0.00000000000E+00  0.00000000000E+00  0.62797514372E+03  0.62797514374E+03  0.50400001928E-02 0. -1.
        1   -1    0    0  501    0  0.00000000000E+00  0.00000000000E+00 -0.12887173252E+04  0.12887173252E+04  0.50400001928E-02 0.  1.
    10030    2    1    2    0    0  0.00000000000E+00  0.00000000000E+00 -0.66074218145E+03  0.19166924689E+04  0.17992025428E+04 0.  0.
        2    1    3    3  502    0  0.39899134110E+02 -0.55690150036E+03 -0.10818058498E+04  0.12173886474E+04  0.25500000920E-02 0.  1.
       -2    1    3    3    0  502 -0.39899134110E+02  0.55690150036E+03  0.42106366838E+03  0.69930382155E+03  0.25500000920E-02 0. -1.
</event>
<event>
 5   0  0.3993393E-05  0.1794701E+04  0.7818609E-02  0.8709122E-01
       -2   -1    0    0    0  501  0.00000000000E+00  0.00000000000E+00  0.47223861844E+03  0.47223861844E+03  0.25500000920E-02 0.  1.
        2   -1    0    0  501    0  0.00000000000E+00  0.00000000000E+00 -0.17051506037E+04  0.17051506037E+04  0.25500000920E-02 0. -1.
    10030    2    1    2    0    0  0.00000000000E+00  0.00000000000E+00 -0.12329119853E+04  0.21773892222E+04  0.17947010507E+04 0.  0.
        5    1    3    3  502    0 -0.45291848424E+03 -0.55638059533E+03  0.37476598285E+02  0.71841569140E+03  0.46999998093E+01 0.  1.
       -5    1    3    3    0  502  0.45291848424E+03  0.55638059533E+03 -0.12703885836E+04  0.14589735308E+04  0.46999998093E+01 0. -1.
</event>
<event>
 5   0  0.2054876E-05  0.1801377E+04  0.7818609E-02  0.8705567E-01
       -1   -1    0    0    0  501  0.00000000000E+00  0.00000000000E+00  0.92120190299E+03  0.92120190301E+03  0.50400001928E-02 0. -1.
        1   -1    0    0  501    0  0.00000000000E+00  0.00000000000E+00 -0.88063220360E+03  0.88063220362E+03  0.50400001928E-02 0.  1.
    10030    2    1    2    0    0  0.00000000000E+00  0.00000000000E+00  0.40569699390E+02  0.18018341066E+04  0.18013773195E+04 0.  0.
        5    1    3    3  502    0 -0.71075351747E+03  0.11936778269E+03 -0.52003611704E+03  0.88875130558E+03  0.46999998093E+01 0.  1.
       -5    1    3    3    0  502  0.71075351747E+03 -0.11936778269E+03  0.56060581643E+03  0.91308280104E+03  0.46999998093E+01 0. -1.
</event>
<event>
 5   0  0.1960300E-05  0.1794907E+04  0.7818609E-02  0.8709012E-01
        1   -1    0    0  501    0  0.00000000000E+00  0.00000000000E+00  0.11256082383E+04  0.11256082383E+04  0.50400001928E-02 0. -1.
       -1   -1    0    0    0  501  0.00000000000E+00  0.00000000000E+00 -0.71554479252E+03  0.71554479253E+03  0.50400001928E-02 0.  1.
    10030    2    1    2    0    0  0.00000000000E+00  0.00000000000E+00  0.41006344579E+03  0.18411530309E+04  0.17949073663E+04 0.  0.
        3    1    3    3  502    0  0.12260155261E+03 -0.30761304651E+03  0.10606489170E+04  0.11111404333E+04  0.10100000352E+00 0. -1.
       -3    1    3    3    0  502 -0.12260155261E+03  0.30761304651E+03 -0.65058547122E+03  0.73001259759E+03  0.10100000352E+00 0.  1.
</event>
<event>
 5   0  0.2054876E-05  0.1806662E+04  0.7818609E-02  0.8702765E-01
        1   -1    0    0  501    0  0.00000000000E+00  0.00000000000E+00  0.20590042397E+04  0.20590042397E+04  0.50400001928E-02 0.  1.
       -1   -1    0    0    0  501  0.00000000000E+00  0.00000000000E+00 -0.39631148958E+03  0.39631148961E+03  0.50400001928E-02 0. -1.
    10030    2    1    2    0    0  0.00000000000E+00  0.00000000000E+00  0.16626927501E+04  0.24553157293E+04  0.18066621570E+04 0.  0.
        5    1    3    3  502    0 -0.23666164579E+03  0.58256607156E+03 -0.50030011134E+02  0.63080666954E+03  0.46999998093E+01 0. -1.
       -5    1    3    3    0  502  0.23666164579E+03 -0.58256607156E+03  0.17127227613E+04  0.18245090598E+04  0.46999998093E+01 0.  1.
</event>
<event>
 5   0  0.1906857E-05  0.1802512E+04  0.7818609E-02  0.8704965E-01
        1   -1    0    0  501    0  0.00000000000E+00  0.00000000000E+00  0.19210200838E+04  0.19210200838E+04  0.50400001928E-02 0. -1.
       -1   -1    0    0    0  501  0.00000000000E+00  0.00000000000E+00 -0.42282870426E+03  0.42282870429E+03  0.50400001928E-02 0.  1.
    10030    2    1    2    0    0  0.00000000000E+00  0.00000000000E+00  0.14981913795E+04  0.23438487881E+04  0.18025120615E+04 0.  0.
        4    1    3    3  502    0 -0.53928116141E+03 -0.50885979814E+03  0.82880234529E+02  0.74607855578E+03  0.12699999809E+01 0.  1.
       -4    1    3    3    0  502  0.53928116141E+03  0.50885979814E+03  0.14153111450E+04  0.15977702323E+04  0.12699999809E+01 0. -1.
</event>
<event>
 5   0  0.4015729E-05  0.1797809E+04  0.7818609E-02  0.8707466E-01
       -2   -1    0    0    0  501  0.00000000000E+00  0.00000000000E+00  0.10572954134E+04  0.10572954134E+04  0.25500000920E-02 0.  1.
        2   -1    0    0  501    0  0.00000000000E+00  0.00000000000E+00 -0.76424134326E+03  0.76424134326E+03  0.25500000920E-02 0. -1.
    10030    2    1    2    0    0  0.00000000000E+00  0.00000000000E+00  0.29305407012E+03  0.18215367566E+04  0.17978085181E+04 0.  0.
        2    1    3    3  502    0  0.67234395912E+03  0.35075044682E+03 -0.34249902958E+03  0.83209245915E+03  0.25500000920E-02 0. -1.
       -2    1    3    3    0  502 -0.67234395912E+03 -0.35075044682E+03  0.63555309969E+03  0.98944429749E+03  0.25500000920E-02 0.  1.
</event>
<event>
 5   0  0.3984648E-05  0.1798166E+04  0.7818609E-02  0.8707275E-01
       -2   -1    0    0    0  501  0.00000000000E+00  0.00000000000E+00  0.10563336288E+04  0.10563336288E+04  0.25500000920E-02 0. -1.
        2   -1    0    0  501    0  0.00000000000E+00  0.00000000000E+00 -0.76524174767E+03  0.76524174767E+03  0.25500000920E-02 0.  1.
    10030    2    1    2    0    0  0.00000000000E+00  0.00000000000E+00  0.29109188115E+03  0.18215753765E+04  0.17981663908E+04 0.  0.
        1    1    3    3  502    0  0.79078913387E+03  0.21105745063E+03 -0.23139744435E+03  0.85055127946E+03  0.50400001928E-02 0.  1.
       -1    1    3    3    0  502 -0.79078913387E+03 -0.21105745063E+03  0.52248932551E+03  0.97102409703E+03  0.50400001928E-02 0. -1.
</event>
<event>
 5   0  0.2054876E-05  0.1799600E+04  0.7818609E-02  0.8706512E-01
        1   -1    0    0  501    0  0.00000000000E+00  0.00000000000E+00  0.99880098563E+03  0.99880098565E+03  0.50400001928E-02 0.  1.
       -1   -1    0    0    0  501  0.00000000000E+00  0.00000000000E+00 -0.81061195107E+03  0.81061195109E+03  0.50400001928E-02 0. -1.
    10030    2    1    2    0    0  0.00000000000E+00  0.00000000000E+00  0.18818903456E+03  0.18094129367E+04  0.17995999730E+04 0.  0.
        5    1    3    3  502    0  0.35579376898E+03  0.63697635646E+03  0.62354907650E+03  0.95977269472E+03  0.46999998093E+01 0.  1.
       -5    1    3    3    0  502 -0.35579376898E+03 -0.63697635646E+03 -0.43536004194E+03  0.84964024201E+03  0.46999998093E+01 0. -1.
</event>
<event>
 5   0  0.2001811E-05  0.1800037E+04  0.7818609E-02  0.8706280E-01
        1   -1    0    0  501    0  0.00000000000E+00  0.00000000000E+00  0.13906110603E+04  0.13906110604E+04  0.50400001928E-02 0. -1.
       -1   -1    0    0    0  501  0.00000000000E+00  0.00000000000E+00 -0.58250188753E+03  0.58250188755E+03  0.50400001928E-02 0.  1.
    10030    2    1    2    0    0  0.00000000000E+00  0.00000000000E+00  0.80810917282E+03  0.19731129479E+04  0.18000372968E+04 0.  0.
        2    1    3    3  502    0 -0.37067643782E+03 -0.37974491187E+03  0.12008790786E+04  0.13129043305E+04  0.25500000920E-02 0. -1.
       -2    1    3    3    0  502  0.37067643782E+03  0.37974491187E+03 -0.39276990575E+03  0.66020861742E+03  0.25500000920E-02 0.  1.
</event>
<event>
 5   0  0.1960300E-05  0.1813750E+04  0.7818609E-02  0.8699021E-01
        1   -1    0    0  501    0  0.00000000000E+00  0.00000000000E+00  0.13451136627E+04  0.13451136627E+04  0.50400001928E-02 0. -1.
       -1   -1    0    0    0  501  0.00000000000E+00  0.00000000000E+00 -0.61141460823E+03  0.61141460825E+03  0.50400001928E-02 0.  1.
    10030    2    1    2    0    0  0.00000000000E+00  0.00000000000E+00  0.73369905446E+03  0.19565282709E+04  0.18137498649E+04 0.  0.
        3    1    3    3  502    0  0.99119095119E+02 -0.54136628308E+03  0.11443665496E+04  0.12698333975E+04  0.10100000352E+00 0. -1.
       -3    1    3    3    0  502 -0.99119095119E+02  0.54136628308E+03 -0.41066749510E+03  0.68669487344E+03  0.10100000352E+00 0.  1.
</event>
<event>
 5   0  0.4015729E-05  0.1802058E+04  0.7818609E-02  0.8705206E-01
       -2   -1    0    0    0  501  0.00000000000E+00  0.00000000000E+00  0.12413975381E+04  0.12413975381E+04  0.25500000920E-02 0.  1.
        2   -1    0    0  501    0  0.00000000000E+00  0.00000000000E+00 -0.65398326841E+03  0.65398326842E+03  0.25500000920E-02 0. -1.
    10030    2    1    2    0    0  0.00000000000E+00  0.00000000000E+00  0.58741426970E+03  0.18953808065E+04  0.18020579562E+04 0.  0.
        2    1    3    3  502    0  0.27993093709E+03 -0.43427696624E+03  0.10701049374E+04  0.11883107296E+04  0.25500000920E-02 0.  1.
       -2    1    3    3    0  502 -0.27993093709E+03  0.43427696624E+03 -0.48269066775E+03  0.70707007692E+03  0.25500000920E-02 0. -1.
</event>
<event>
 5   0  0.3984648E-05  0.1797067E+04  0.7818609E-02  0.8707861E-01
        2   -1    0    0  501    0  0.00000000000E+00  0.00000000000E+00  0.82017667621E+03  0.82017667621E+03  0.25500000920E-02 0.  1.
       -2   -1    0    0    0  501  0.00000000000E+00  0.00000000000E+00 -0.98437611647E+03  0.98437611647E+03  0.25500000920E-02 0. -1.
    10030    2    1    2    0    0  0.00000000000E+00  0.00000000000E+00 -0.16419944026E+03  0.18045527927E+04  0.17970668673E+04 0.  0.
        1    1    3    3  502    0 -0.23043590997E+02 -0.57168806436E+03 -0.77780903773E+03  0.96558021377E+03  0.50400001928E-02 0. -1.
       -1    1    3    3    0  502  0.23043590997E+02  0.57168806436E+03  0.61360959747E+03  0.83897257891E+03  0.50400001928E-02 0.  1.
</event>
<event>
 5   0  0.2038338E-05  0.1797807E+04  0.7818609E-02  0.8707466E-01
        1   -1    0    0  501    0  0.00000000000E+00  0.00000000000E+00  0.15996125531E+04  0.15996125531E+04  0.50400001928E-02 0. -1.
       -1   -1    0    0    0  501  0.00000000000E+00  0.00000000000E+00 -0.50513970617E+03  0.50513970619E+03  0.50400001928E-02 0.  1.
    10030    2    1    2    0    0  0.00000000000E+00  0.00000000000E+00  0.10944728469E+04  0.21047522593E+04  0.17978073479E+04 0.  0.
        1    1    3    3  502    0  0.17710298412E+02  0.88427346280E+03  0.35928144712E+03  0.95463939263E+03  0.50400001928E-02 0. -1.
       -1    1    3    3    0  502 -0.17710298412E+02 -0.88427346280E+03  0.73519139979E+03  0.11501128666E+04  0.50400001928E-02 0.  1.
</event>
<event>
 5   0  0.4015729E-05  0.1804622E+04  0.7818609E-02  0.8703845E-01
        2   -1    0    0  501    0  0.00000000000E+00  0.00000000000E+00  0.15765580944E+04  0.15765580944E+04  0.25500000920E-02 0. -1.
       -2   -1    0    0    0  501  0.00000000000E+00  0.00000000000E+00 -0.51641947928E+03  0.51641947928E+03  0.25500000920E-02 0.  1.
    10030    2    1    2    0    0  0.00000000000E+00  0.00000000000E+00  0.10601386151E+04  0.20929775737E+04  0.18046221878E+04 0.  0.
        2    1    3    3  502    0  0.52905238361E+03  0.39901703674E+03 -0.18020376597E+03  0.68672004302E+03  0.25500000920E-02 0.  1.
       -2    1    3    3    0  502 -0.52905238361E+03 -0.39901703674E+03  0.12403423811E+04  0.14062575307E+04  0.25500000920E-02 0. -1.
</event>
<event>
 5   0  0.1906857E-05  0.1802989E+04  0.7818609E-02  0.8704711E-01
        1   -1    0    0  501    0  0.00000000000E+00  0.00000000000E+00  0.64142326316E+03  0.64142326318E+03  0.50400001928E-02 0. -1.
       -1   -1    0    0    0  501  0.00000000000E+00  0.00000000000E+00 -0.12670146370E+04  0.12670146370E+04  0.50400001928E-02 0.  1.
    10030    2    1    2    0    0  0.00000000000E+00  0.00000000000E+00 -0.62559137382E+03  0.19084379002E+04  0.18029893654E+04 0.  0.
        4    1    3    3  502    0 -0.30640643106E+03 -0.57729252832E+03  0.34443721936E+03  0.73877613336E+03  0.12699999809E+01 0. -1.
       -4    1    3    3    0  502  0.30640643106E+03  0.57729252832E+03 -0.97002859319E+03  0.11696617668E+04  0.12699999809E+01 0.  1.
</event>
<event>
 5   0  0.1960300E-05  0.1797687E+04  0.7818609E-02  0.8707531E-01
        1   -1    0    0  501    0  0.00000000000E+00  0.00000000000E+00  0.13224590989E+04  0.13224590989E+04  0.50400001928E-02 0.  1.
       -1   -1    0    0    0  501  0.00000000000E+00  0.00000000000E+00 -0.61092196966E+03  0.61092196968E+03  0.50400001928E-02 0. -1.
    10030    2    1    2    0    0  0.00000000000E+00  0.00000000000E+00  0.71153712921E+03  0.19333810686E+04  0.17976866440E+04 0.  0.
        3    1    3    3  502    0  0.14841715457E+03  0.36080390957E+03  0.12266521402E+04  0.12871995169E+04  0.10100000352E+00 0.  1.
       -3    1    3    3    0  502 -0.14841715457E+03 -0.36080390957E+03 -0.51511501102E+03  0.64618155167E+03  0.10100000352E+00 0. -1.
</event>
<event>
 5   0  0.3993393E-05  0.1799276E+04  0.7818609E-02  0.8706684E-01
        2   -1    0    0  501    0  0.00000000000E+00  0.00000000000E+00  0.14690851892E+04  0.14690851892E+04  0.25500000920E-02 0. -1.
       -2   -1    0    0    0  501  0.00000000000E+00  0.00000000000E+00 -0.55092017940E+03  0.55092017940E+03  0.25500000920E-02 0.  1.
    10030    2    1    2    0    0  0.00000000000E+00  0.00000000000E+00  0.91816500978E+03  0.20200053686E+04  0.17992761611E+04 0.  0.
        5    1    3    3  502    0 -0.54902240742E+03 -0.18704184068E+03  0.12311350410E+04  0.13609282984E+04  0.46999998093E+01 0. -1.
       -5    1    3    3    0  502  0.54902240742E+03  0.18704184068E+03 -0.31297003126E+03  0.65907707022E+03  0.46999998093E+01 0.  1.
</event>
<event>
 5   0  0.4015729E-05  0.1802215E+04  0.7818609E-02  0.8705122E-01
        2   -1    0    0  501    0  0.00000000000E+00  0.00000000000E+00  0.24682826874E+04  0.24682826874E+04  0.25500000920E-02 0.  1.
       -2   -1    0    0    0  501  0.00000000000E+00  0.00000000000E+00 -0.32897151522E+03  0.32897151523E+03  0.25500000920E-02 0. -1.
    10030    2    1    2    0    0  0.00000000000E+00  0.00000000000E+00  0.21393111722E+04  0.27972542027E+04  0.18022149657E+04 0.  0.
        2    1    3    3  502    0 -0.37606192407E+03 -0.33237237009E+02  0.23396156489E+04  0.23698794630E+04  0.25500000920E-02 0.  1.
       -2    1    3    3    0  502  0.37606192407E+03  0.33237237009E+02 -0.20030447671E+03  0.42737473961E+03  0.25500000920E-02 0. -1.
</event>
<event>
 5   0  0.1446750E-05  0.1796166E+04  0.7818609E-02  0.8708341E-01
        3   -1    0    0  501    0  0.00000000000E+00  0.00000000000E+00  0.13231462808E+04  0.13231462847E+04  0.10100000352E+00 0.  1.
       -3   -1    0    0    0  501  0.00000000000E+00  0.00000000000E+00 -0.60957193670E+03  0.60957194507E+03  0.10100000352E+00 0. -1.
    10030    2    1    2    0    0  0.00000000000E+00  0.00000000000E+00  0.71357434411E+03  0.19327182297E+04  0.17961657526E+04 0.  0.
        4    1    3    3  502    0 -0.53388783902E+03  0.79000107726E+01 -0.42022809535E+03  0.67947913864E+03  0.12699999809E+01 0. -1.
       -4    1    3    3    0  502  0.53388783902E+03 -0.79000107726E+01  0.11338024395E+04  0.12532390911E+04  0.12699999809E+01 0.  1.
</event>
<event>
 5   0  0.2054876E-05  0.1800235E+04  0.7818609E-02  0.8706174E-01
        1   -1    0    0  501    0  0.00000000000E+00  0.00000000000E+00  0.76605791720E+03  0.76605791722E+03  0.50400001928E-02 0.  1.
       -1   -1    0    0    0  501  0.00000000000E+00  0.00000000000E+00 -0.10576376313E+04  0.10576376313E+04  0.50400001928E-02 0. -1.
    10030    2    1    2    0    0  0.00000000000E+00  0.00000000000E+00 -0.29157971413E+03  0.18236955486E+04  0.18002351858E+04 0.  0.
        5    1    3    3  502    0  0.11038494126E+03 -0.62334589741E+03  0.50242755342E+03  0.80820819070E+03  0.46999998093E+01 0.  1.
       -5    1    3    3    0  502 -0.11038494126E+03  0.62334589741E+03 -0.79400726755E+03  0.10154873579E+04  0.46999998093E+01 0. -1.
</event>
<event>
 5   0  0.2001811E-05  0.1802269E+04  0.7818609E-02  0.8705094E-01
        1   -1    0    0  501    0  0.00000000000E+00  0.00000000000E+00  0.93024366763E+03  0.93024366764E+03  0.50400001928E-02 0. -1.
       -1   -1    0    0    0  501  0.00000000000E+00  0.00000000000E+00 -0.87293591985E+03  0.87293591986E+03  0.50400001928E-02 0.  1.
    10030    2    1    2    0    0  0.00000000000E+00  0.00000000000E+00  0.57307747781E+02  0.18031795875E+04  0.18022686944E+04 0.  0.
        2    1    3    3  502    0 -0.27809909537E+03  0.28801153441E+03 -0.77906658447E+03  0.87591922792E+03  0.25500000920E-02 0.  1.
       -2    1    3    3    0  502  0.27809909537E+03 -0.28801153441E+03  0.83637433226E+03  0.92726035959E+03  0.25500000920E-02 0. -1.
</event>
<event>
 5   0  0.2038338E-05  0.1804614E+04  0.7818609E-02  0.8703850E-01
        1   -1    0    0  501    0  0.00000000000E+00  0.00000000000E+00  0.81388706006E+03  0.81388706007E+03  0.50400001928E-02 0.  1.
       -1   -1    0    0    0  501  0.00000000000E+00  0.00000000000E+00 -0.10003323634E+04  0.10003323634E+04  0.50400001928E-02 0. -1.
    10030    2    1    2    0    0  0.00000000000E+00  0.00000000000E+00 -0.18644530331E+03  0.18142194234E+04  0.18046136055E+04 0.  0.
        1    1    3    3  502    0  0.60937549162E+03 -0.34608474690E+03 -0.66461801229E+03  0.96583137458E+03  0.50400001928E-02 0. -1.
       -1    1    3    3    0  502 -0.60937549162E+03  0.34608474690E+03  0.47817270898E+03  0.84838804887E+03  0.50400001928E-02 0.  1.
</event>
<event>
 5   0  0.4015729E-05  0.1795979E+04  0.7818609E-02  0.8708441E-01
       -2   -1    0    0    0  501  0.00000000000E+00  0.00000000000E+00  0.59580473518E+03  0.59580473518E+03  0.25500000920E-02 0.  1.
        2   -1    0    0  501    0  0.00000000000E+00  0.00000000000E+00 -0.13534382562E+04  0.13534382562E+04  0.25500000920E-02 0. -1.
    10030    2    1    2    0    0  0.00000000000E+00  0.00000000000E+00 -0.75763352105E+03  0.19492429914E+04  0.17959787547E+04 0.  0.
        2    1    3    3  502    0 -0.21563450916E+03  0.57858864886E+03 -0.10864716355E+04  0.12496734297E+04  0.25500000920E-02 0. -1.
       -2    1    3    3    0  502  0.21563450916E+03 -0.57858864886E+03  0.32883811447E+03  0.69956956170E+03  0.25500000920E-02 0.  1.
</event>
<event>
 5   0  0.2038338E-05  0.1797329E+04  0.7818609E-02  0.8707721E-01
       -1   -1    0    0    0  501  0.00000000000E+00  0.00000000000E+00  0.39952487758E+03  0.39952487761E+03  0.50400001928E-02 0.  1.
        1   -1    0    0  501    0  0.00000000000E+00  0.00000000000E+00 -0.20213957884E+04  0.20213957884E+04  0.50400001928E-02 0. -1.
    10030    2    1    2    0    0  0.00000000000E+00  0.00000000000E+00 -0.16218709108E+04  0.24209206660E+04  0.17973290238E+04 0.  0.
        1    1    3    3  502    0  0.79540762719E+03  0.35477245467E+02 -0.24961568137E+03  0.83440992129E+03  0.50400001928E-02 0. -1.
       -1    1    3    3    0  502 -0.79540762719E+03 -0.35477245467E+02 -0.13722552294E+04  0.15865107447E+04  0.50400001928E-02 0.  1.
</event>
<event>
 5   0  0.3993393E-05  0.1745761E+04  0.7818609E-02  0.8735687E-01
        2   -1    0    0  501    0  0.00000000000E+00  0.00000000000E+00  0.92443540686E+03  0.92443540687E+03  0.25500000920E-02 0. -1.
       -2   -1    0    0    0  501  0.00000000000E+00  0.00000000000E+00 -0.82420101807E+03  0.82420101807E+03  0.25500000920E-02 0.  1.
    10030    2    1    2    0    0  0.00000000000E+00  0.00000000000E+00  0.10023438880E+03  0.17486364249E+04  0.17457612706E+04 0.  0.
        5    1    3    3  502    0 -0.69811257924E+03  0.37375133985E+03  0.41793754612E+03  0.89540221119E+03  0.46999998093E+01 0.  1.
       -5    1    3    3    0  502  0.69811257924E+03 -0.37375133985E+03 -0.31770315733E+03  0.85323421375E+03  0.46999998093E+01 0. -1.
</event>
<event>
 5   0  0.1960300E-05  0.1801809E+04  0.7818609E-02  0.8705338E-01
       -1   -1    0    0    0  501  0.00000000000E+00  0.00000000000E+00  0.12875913887E+04  0.12875913887E+04  0.50400001928E-02 0. -1.
        1   -1    0    0  501    0  0.00000000000E+00  0.00000000000E+00 -0.63034635962E+03  0.63034635964E+03  0.50400001928E-02 0.  1.
    10030    2    1    2    0    0  0.00000000000E+00  0.00000000000E+00  0.65724502906E+03  0.19179377483E+04  0.18018085853E+04 0.  0.
        3    1    3    3  502    0 -0.33232246783E+03 -0.28999803088E+03  0.11648041417E+04  0.12455142630E+04  0.10100000352E+00 0. -1.
       -3    1    3    3    0  502  0.33232246783E+03  0.28999803088E+03 -0.50755911268E+03  0.67242348532E+03  0.10100000352E+00 0.  1.
</event>
<event>
 5   0  0.1446750E-05  0.1796986E+04  0.7818609E-02  0.8707904E-01
       -3   -1    0    0    0  501  0.00000000000E+00  0.00000000000E+00  0.49805567292E+03  0.49805568316E+03  0.10100000352E+00 0.  1.
        3   -1    0    0  501    0  0.00000000000E+00  0.00000000000E+00 -0.16208830128E+04  0.16208830160E+04  0.10100000352E+00 0. -1.
    10030    2    1    2    0    0  0.00000000000E+00  0.00000000000E+00 -0.11228273399E+04  0.21189386991E+04  0.17969863593E+04 0.  0.
        2    1    3    3  502    0  0.33028527248E+03 -0.26659090573E+03  0.37238385768E+03  0.56464928026E+03  0.25500000920E-02 0.  1.
       -2    1    3    3    0  502 -0.33028527248E+03  0.26659090573E+03 -0.14952111976E+04  0.15542894189E+04  0.25500000920E-02 0. -1.
</event>
<event>
 5   0  0.2054876E-05  0.1801374E+04  0.7818609E-02  0.8705569E-01
       -1   -1    0    0    0  501  0.00000000000E+00  0.00000000000E+00  0.68931936993E+03  0.68931936995E+03  0.50400001928E-02 0. -1.
        1   -1    0    0  501    0  0.00000000000E+00  0.00000000000E+00 -0.11768662696E+04  0.11768662696E+04  0.50400001928E-02 0.  1.
    10030    2    1    2    0    0  0.00000000000E+00  0.00000000000E+00 -0.48754689966E+03  0.18661856395E+04  0.18013736042E+04 0.  0.
        5    1    3    3  502    0 -0.30352588024E+03  0.61109314907E+03  0.36530113510E+03  0.77397015842E+03  0.46999998093E+01 0. -1.
       -5    1    3    3    0  502  0.30352588024E+03 -0.61109314907E+03 -0.85284803476E+03  0.10922154811E+04  0.46999998093E+01 0.  1.
</event>
<event>
 5   0  0.4015729E-05  0.1839744E+04  0.7818609E-02  0.8685445E-01
       -2   -1    0    0    0  501  0.00000000000E+00  0.00000000000E+00  0.70382601783E+03  0.70382601783E+03  0.25500000920E-02 0.  1.
        2   -1    0    0  501    0  0.00000000000E+00  0.00000000000E+00 -0.12022348026E+04  0.12022348026E+04  0.25500000920E-02 0. -1.
    10030    2    1    2    0    0  0.00000000000E+00  0.00000000000E+00 -0.49840878476E+03  0.19060608204E+04  0.18397436056E+04 0.  0.
        2    1    3    3  502    0 -0.28575285074E+03  0.17354043680E+03 -0.11370629061E+04  0.11851932447E+04  0.25500000920E-02 0. -1.
       -2    1    3    3    0  502  0.28575285074E+03 -0.17354043680E+03  0.63865412136E+03  0.72086757567E+03  0.25500000920E-02 0.  1.
</event>
<event>
 5   0  0.1446750E-05  0.1800765E+04  0.7818609E-02  0.8705893E-01
        3   -1    0    0  501    0  0.00000000000E+00  0.00000000000E+00  0.86909739259E+03  0.86909739845E+03  0.10100000352E+00 0.  1.
       -3   -1    0    0    0  501  0.00000000000E+00  0.00000000000E+00 -0.93279380922E+03  0.93279381468E+03  0.10100000352E+00 0. -1.
    10030    2    1    2    0    0  0.00000000000E+00  0.00000000000E+00 -0.63696416631E+02  0.18018912131E+04  0.18007650348E+04 0.  0.
        4    1    3    3  502    0 -0.18621679797E+03  0.20716488757E+03 -0.88859221992E+03  0.93123129924E+03  0.12699999809E+01 0. -1.
       -4    1    3    3    0  502  0.18621679797E+03 -0.20716488757E+03  0.82489580329E+03  0.87065991390E+03  0.12699999809E+01 0.  1.
</event>
<event>
 5   0  0.2038338E-05  0.1803060E+04  0.7818609E-02  0.8704674E-01
       -1   -1    0    0    0  501  0.00000000000E+00  0.00000000000E+00  0.12114317582E+04  0.12114317582E+04  0.50400001928E-02 0.  1.
        1   -1    0    0  501    0  0.00000000000E+00  0.00000000000E+00 -0.67090522802E+03  0.67090522804E+03  0.50400001928E-02 0. -1.
    10030    2    1    2    0    0  0.00000000000E+00  0.00000000000E+00  0.54052653014E+03  0.18823369862E+04  0.18030595109E+04 0.  0.
        1    1    3    3  502    0 -0.55234346785E+03 -0.71221448844E+03  0.29173746520E+03  0.94733496328E+03  0.50400001928E-02 0.  1.
       -1    1    3    3    0  502  0.55234346785E+03  0.71221448844E+03  0.24878906493E+03  0.93500202293E+03  0.50400001928E-02 0. -1.
</event>
<event>
 5   0  0.4015729E-05  0.1806639E+04  0.7818609E-02  0.8702777E-01
       -2   -1    0    0    0  501  0.00000000000E+00  0.00000000000E+00  0.45011544832E+03  0.45011544833E+03  0.25500000920E-02 0. -1.
        2   -1    0    0  501    0  0.00000000000E+00  0.00000000000E+00 -0.18128370974E+04  0.18128370974E+04  0.25500000920E-02 0.  1.
    10030    2    1    2    0    0  0.00000000000E+00  0.00000000000E+00 -0.13627216491E+04  0.22629525457E+04  0.18066388492E+04 0.  0.
        2    1    3    3  502    0  0.86105455911E+03 -0.54349872318E+02 -0.34615424887E+03  0.92961907597E+03  0.25500000920E-02 0. -1.
       -2    1    3    3    0  502 -0.86105455911E+03  0.54349872318E+02 -0.10165674002E+04  0.13333334697E+04  0.25500000920E-02 0.  1.
</event>
<event>
 5   0  0.2001811E-05  0.1796684E+04  0.7818609E-02  0.8708065E-01
        1   -1    0    0  501    0  0.00000000000E+00  0.00000000000E+00  0.19542181541E+04  0.19542181541E+04  0.50400001928E-02 0.  1.
       -1   -1    0    0    0  501  0.00000000000E+00  0.00000000000E+00 -0.41296205481E+03  0.41296205484E+03  0.50400001928E-02 0. -1.
    10030    2    1    2    0    0  0.00000000000E+00  0.00000000000E+00  0.15412560992E+04  0.23671802089E+04  0.17966835497E+04 0.  0.
        2    1    3    3  502    0  0.57498090524E+03  0.16318228916E+03 -0.11298660635E+03  0.60827417676E+03  0.25500000920E-02 0. -1.
       -2    1    3    3    0  502 -0.57498090524E+03 -0.16318228916E+03  0.16542427056E+04  0.17589060321E+04  0.25500000920E-02 0.  1.
</event>
<event>
 5   0  0.2001811E-05  0.1798013E+04  0.7818609E-02  0.8707357E-01
        1   -1    0    0  501    0  0.00000000000E+00  0.00000000000E+00  0.56600365032E+03  0.56600365035E+03  0.50400001928E-02 0.  1.
       -1   -1    0    0    0  501  0.00000000000E+00  0.00000000000E+00 -0.14279277677E+04  0.14279277678E+04  0.50400001928E-02 0. -1.
    10030    2    1    2    0    0  0.00000000000E+00  0.00000000000E+00 -0.86192411743E+03  0.19939314181E+04  0.17980126017E+04 0.  0.
        2    1    3    3  502    0 -0.71611303188E+03  0.94672867322E+02 -0.10244718336E+04  0.12535243772E+04  0.25500000920E-02 0. -1.
       -2    1    3    3    0  502  0.71611303188E+03 -0.94672867322E+02  0.16254771619E+03  0.74040704095E+03  0.25500000920E-02 0.  1.
</event>
<event>
 5   0  0.1906857E-05  0.1792504E+04  0.7818609E-02  0.8710296E-01
       -1   -1    0    0    0  501  0.00000000000E+00  0.00000000000E+00  0.93532426893E+03  0.93532426895E+03  0.50400001928E-02 0. -1.
        1   -1    0    0  501    0  0.00000000000E+00  0.00000000000E+00 -0.85881180707E+03  0.85881180708E+03  0.50400001928E-02 0.  1.
    10030    2    1    2    0    0  0.00000000000E+00  0.00000000000E+00  0.76512461866E+02  0.17941360760E+04  0.17925038640E+04 0.  0.
        4    1    3    3  502    0 -0.74603141025E+03 -0.16098903557E+03  0.50856234983E+03  0.91712464323E+03  0.12699999809E+01 0. -1.
       -4    1    3    3    0  502  0.74603141025E+03  0.16098903557E+03 -0.43204988796E+03  0.87701143279E+03  0.12699999809E+01 0.  1.
</event>
<event>
 5   0  0.1906857E-05  0.1799915E+04  0.7818609E-02  0.8706345E-01
       -1   -1    0    0    0  501  0.00000000000E+00  0.00000000000E+00  0.98362733306E+03  0.98362733307E+03  0.50400001928E-02 0. -1.
        1   -1    0    0  501    0  0.00000000000E+00  0.00000000000E+00 -0.82340488898E+03  0.82340488899E+03  0.50400001928E-02 0.  1.
    10030    2    1    2    0    0  0.00000000000E+00  0.00000000000E+00  0.16022244409E+03  0.18070322221E+04  0.17999150591E+04 0.  0.
        4    1    3    3  502    0  0.59088300448E+03 -0.18265197080E+03  0.73646807379E+03  0.96171269308E+03  0.12699999809E+01 0. -1.
       -4    1    3    3    0  502 -0.59088300448E+03  0.18265197080E+03 -0.57624562970E+03  0.84531952898E+03  0.12699999809E+01 0.  1.
</event>
<event>
 5   0  0.2054876E-05  0.1797457E+04  0.7818609E-02  0.8707653E-01
        1   -1    0    0  501    0  0.00000000000E+00  0.00000000000E+00  0.13914215559E+04  0.13914215559E+04  0.50400001928E-02 0.  1.
       -1   -1    0    0    0  501  0.00000000000E+00  0.00000000000E+00 -0.58049481186E+03  0.58049481189E+03  0.50400001928E-02 0. -1.
    10030    2    1    2    0    0  0.00000000000E+00  0.00000000000E+00  0.81092674400E+03  0.19719163678E+04  0.17974570864E+04 0.  0.
        5    1    3    3  502    0 -0.38604087023E+03 -0.38339149992E+03  0.11902051371E+04  0.13086737386E+04  0.46999998093E+01 0.  1.
       -5    1    3    3    0  502  0.38604087023E+03  0.38339149992E+03 -0.37927839309E+03  0.66324262918E+03  0.46999998093E+01 0. -1.
</event>
<event>
 5   0  0.1960300E-05  0.1800107E+04  0.7818609E-02  0.8706243E-01
        1   -1    0    0  501    0  0.00000000000E+00  0.00000000000E+00  0.14637845044E+04  0.14637845044E+04  0.50400001928E-02 0.  1.
       -1   -1    0    0    0  501  0.00000000000E+00  0.00000000000E+00 -0.55342597611E+03  0.55342597614E+03  0.50400001928E-02 0. -1.
    10030    2    1    2    0    0  0.00000000000E+00  0.00000000000E+00  0.91035852825E+03  0.20172104805E+04  0.18001070726E+04 0.  0.
        3    1    3    3  502    0  0.58060816611E+03  0.51167264299E+03 -0.59789560181E+02  0.77620199552E+03  0.10100000352E+00 0. -1.
       -3    1    3    3    0  502 -0.58060816611E+03 -0.51167264299E+03  0.97014808843E+03  0.12410084850E+04  0.10100000352E+00 0.  1.
</event>
<event>
 5   0  0.3993393E-05  0.1800065E+04  0.7818609E-02  0.8706265E-01
       -2   -1    0    0    0  501  0.00000000000E+00  0.00000000000E+00  0.27399831071E+03  0.27399831072E+03  0.25500000920E-02 0.  1.
        2   -1    0    0  501    0  0.00000000000E+00  0.00000000000E+00 -0.29564363815E+04  0.29564363815E+04  0.25500000920E-02 0. -1.
    10030    2    1    2    0    0  0.00000000000E+00  0.00000000000E+00 -0.26824380708E+04  0.32304346922E+04  0.18000650813E+04 0.  0.
        5    1    3    3  502    0  0.33264151166E+03  0.17425804790E+03  0.12666716344E+03  0.39633685525E+03  0.46999998093E+01 0.  1.
       -5    1    3    3    0  502 -0.33264151166E+03 -0.17425804790E+03 -0.28091052342E+04  0.28340978370E+04  0.46999998093E+01 0. -1.
</event>
<event>
 5   0  0.2054876E-05  0.1798825E+04  0.7818609E-02  0.8706924E-01
        1   -1    0    0  501    0  0.00000000000E+00  0.00000000000E+00  0.81082340522E+03  0.81082340523E+03  0.50400001928E-02 0.  1.
       -1   -1    0    0    0  501  0.00000000000E+00  0.00000000000E+00 -0.99768110158E+03  0.99768110159E+03  0.50400001928E-02 0. -1.
    10030    2    1    2    0    0  0.00000000000E+00  0.00000000000E+00 -0.18685769636E+03  0.18085045068E+04  0.17988253813E+04 0.  0.
        5    1    3    3  502    0 -0.22901950285E+02 -0.34642728533E+03  0.74072508922E+03  0.81806607994E+03  0.46999998093E+01 0.  1.
       -5    1    3    3    0  502  0.22901950285E+02  0.34642728533E+03 -0.92758278558E+03  0.99043842688E+03  0.46999998093E+01 0. -1.
</event>
<event>
 5   0  0.3984648E-05  0.1800077E+04  0.7818609E-02  0.8706258E-01
       -2   -1    0    0    0  501  0.00000000000E+00  0.00000000000E+00  0.92272038166E+03  0.92272038167E+03  0.25500000920E-02 0. -1.
        2   -1    0    0  501    0  0.00000000000E+00  0.00000000000E+00 -0.87791455332E+03  0.87791455333E+03  0.25500000920E-02 0.  1.
    10030    2    1    2    0    0  0.00000000000E+00  0.00000000000E+00  0.44805828342E+02  0.18006349350E+04  0.18000773891E+04 0.  0.
        1    1    3    3  502    0  0.43090921911E+03  0.78749174576E+03 -0.42760542976E+02  0.89869598242E+03  0.50400001928E-02 0. -1.
       -1    1    3    3    0  502 -0.43090921911E+03 -0.78749174576E+03  0.87566371317E+02  0.90193895257E+03  0.50400001928E-02 0.  1.
</event>
<event>
 5   0  0.1960300E-05  0.1800932E+04  0.7818609E-02  0.8705804E-01
        1   -1    0    0  501    0  0.00000000000E+00  0.00000000000E+00  0.15743210276E+04  0.15743210276E+04  0.50400001928E-02 0. -1.
       -1   -1    0    0    0  501  0.00000000000E+00  0.00000000000E+00 -0.51504035478E+03  0.51504035480E+03  0.50400001928E-02 0.  1.
    10030    2    1    2    0    0  0.00000000000E+00  0.00000000000E+00  0.10592806728E+04  0.20893613824E+04  0.18009318262E+04 0.  0.
        3    1    3    3  502    0 -0.61023531686E+03  0.46320387483E+03  0.10785961649E+04  0.13229945838E+04  0.10100000352E+00 0. -1.
       -3    1    3    3    0  502  0.61023531686E+03 -0.46320387483E+03 -0.19315492070E+02  0.76636679862E+03  0.10100000352E+00 0.  1.
</event>
<event>
 5   0  0.2001811E-05  0.1800049E+04  0.7818609E-02  0.8706273E-01
        1   -1    0    0  501    0  0.00000000000E+00  0.00000000000E+00  0.14732197091E+04  0.14732197091E+04  0.50400001928E-02 0. -1.
       -1   -1    0    0    0  501  0.00000000000E+00  0.00000000000E+00 -0.54984615275E+03  0.54984615278E+03  0.50400001928E-02 0.  1.
    10030    2    1    2    0    0  0.00000000000E+00  0.00000000000E+00  0.92337355638E+03  0.20230658619E+04  0.18000490985E+04 0.  0.
        2    1    3    3  502    0 -0.62559465907E+03 -0.58899333173E+03  0.16061222679E+03  0.87411561574E+03  0.25500000920E-02 0.  1.
       -2    1    3    3    0  502  0.62559465907E+03  0.58899333173E+03  0.76276132958E+03  0.11489502462E+04  0.25500000920E-02 0. -1.
</event>
<event>
 5   0  0.3984648E-05  0.1797598E+04  0.7818609E-02  0.8707578E-01
       -2   -1    0    0    0  501  0.00000000000E+00  0.00000000000E+00  0.78198969887E+03  0.78198969888E+03  0.25500000920E-02 0. -1.
        2   -1    0    0  501    0  0.00000000000E+00  0.00000000000E+00 -0.10330565160E+04  0.10330565160E+04  0.25500000920E-02 0.  1.
    10030    2    1    2    0    0  0.00000000000E+00  0.00000000000E+00 -0.25106681713E+03  0.18150462149E+04  0.17975979015E+04 0.  0.
        1    1    3    3  502    0 -0.41269452917E+03 -0.51413896882E+03 -0.74235076368E+03  0.99284455481E+03  0.50400001928E-02 0.  1.
       -1    1    3    3    0  502  0.41269452917E+03  0.51413896882E+03  0.49128394655E+03  0.82220166007E+03  0.50400001928E-02 0. -1.
</event>
<event>
 5   0  0.3983176E-05  0.1799285E+04  0.7818609E-02  0.8706680E-01
       -2   -1    0    0    0  501  0.00000000000E+00  0.00000000000E+00  0.43132968520E+03  0.43132968521E+03  0.25500000920E-02 0.  1.
        2   -1    0    0  501    0  0.00000000000E+00  0.00000000000E+00 -0.18764226141E+04  0.18764226141E+04  0.25500000920E-02 0. -1.
    10030    2    1    2    0    0  0.00000000000E+00  0.00000000000E+00 -0.14450929289E+04  0.23077522993E+04  0.17992851641E+04 0.  0.
        3    1    3    3  502    0  0.19504183452E+02 -0.11971931019E+03  0.42079353890E+03  0.43792732158E+03  0.10100000352E+00 0.  1.
       -3    1    3    3    0  502 -0.19504183452E+02  0.11971931019E+03 -0.18658864678E+04  0.18698249777E+04  0.10100000352E+00 0. -1.
</event>
<event>
 5   0  0.3984648E-05  0.1813726E+04  0.7818609E-02  0.8699034E-01
       -2   -1    0    0    0  501  0.00000000000E+00  0.00000000000E+00  0.78382797472E+03  0.78382797472E+03  0.25500000920E-02 0.  1.
        2   -1    0    0  501    0  0.00000000000E+00  0.00000000000E+00 -0.10492109414E+04  0.10492109414E+04  0.25500000920E-02 0. -1.
    10030    2    1    2    0    0  0.00000000000E+00  0.00000000000E+00 -0.26538296666E+03  0.18330389161E+04  0.18137264262E+04 0.  0.
        1    1    3    3  502    0 -0.27752022953E+03 -0.50232719365E+03  0.57696101887E+03  0.81377767517E+03  0.50400001928E-02 0.  1.
       -1    1    3    3    0  502  0.27752022953E+03  0.50232719365E+03 -0.84234398553E+03  0.10192612409E+04  0.50400001928E-02 0. -1.
</event>
<event>
 5   0  0.3983176E-05  0.1795983E+04  0.7818609E-02  0.8708439E-01
       -2   -1    0    0    0  501  0.00000000000E+00  0.00000000000E+00  0.76643842497E+03  0.76643842497E+03  0.25500000920E-02 0.  1.
        2   -1    0    0  501    0  0.00000000000E+00  0.00000000000E+00 -0.10521246282E+04  0.10521246282E+04  0.25500000920E-02 0. -1.
    10030    2    1    2    0    0  0.00000000000E+00  0.00000000000E+00 -0.28568620327E+03  0.18185630532E+04  0.17959830099E+04 0.  0.
        3    1    3    3  502    0 -0.86314510762E+02  0.54529753932E+03 -0.85997691196E+03  0.10219392841E+04  0.10100000352E+00 0. -1.
       -3    1    3    3    0  502  0.86314510762E+02 -0.54529753932E+03  0.57429070869E+03  0.79662376907E+03  0.10100000352E+00 0.  1.
</event>
<event>
 5   0  0.4015729E-05  0.1803417E+04  0.7818609E-02  0.8704484E-01
       -2   -1    0    0    0  501  0.00000000000E+00  0.00000000000E+00  0.55522916207E+03  0.55522916207E+03  0.25500000920E-02 0.  1.
        2   -1    0    0  501    0  0.00000000000E+00  0.00000000000E+00 -0.14644016598E+04  0.14644016598E+04  0.25500000920E-02 0. -1.
    10030    2    1    2    0    0  0.00000000000E+00  0.00000000000E+00 -0.90917249770E+03  0.20196308218E+04  0.18034173189E+04 0.  0.
        2    1    3    3  502    0 -0.48349982607E+03 -0.31568026228E+03 -0.12301885042E+04  0.13589664697E+04  0.25500000920E-02 0. -1.
       -2    1    3    3    0  502  0.48349982607E+03  0.31568026228E+03  0.32101600650E+03  0.66066435218E+03  0.25500000920E-02 0.  1.
</event>
<event>
 5   0  0.3984648E-05  0.1801679E+04  0.7818609E-02  0.8705407E-01
        2   -1    0    0  501    0  0.00000000000E+00  0.00000000000E+00  0.12935078344E+04  0.12935078344E+04  0.25500000920E-02 0.  1.
       -2   -1    0    0    0  501  0.00000000000E+00  0.00000000000E+00 -0.62737321017E+03  0.62737321017E+03  0.25500000920E-02 0. -1.
    10030    2    1    2    0    0  0.00000000000E+00  0.00000000000E+00  0.66613462423E+03  0.19208810446E+04  0.18016793971E+04 0.  0.
        1    1    3    3  502    0  0.62209913516E+03  0.41581405520E+03 -0.20172024959E+03  0.77498369118E+03  0.50400001928E-02 0. -1.
       -1    1    3    3    0  502 -0.62209913516E+03 -0.41581405520E+03  0.86785487383E+03  0.11458973534E+04  0.50400001928E-02 0.  1.
</event>
<event>
 5   0  0.2054876E-05  0.1802482E+04  0.7818609E-02  0.8704981E-01
       -1   -1    0    0    0  501  0.00000000000E+00  0.00000000000E+00  0.57818190040E+03  0.57818190043E+03  0.50400001928E-02 0. -1.
        1   -1    0    0  501    0  0.00000000000E+00  0.00000000000E+00 -0.14048089735E+04  0.14048089735E+04  0.50400001928E-02 0.  1.
    10030    2    1    2    0    0  0.00000000000E+00  0.00000000000E+00 -0.82662707308E+03  0.19829908739E+04  0.18024817580E+04 0.  0.
        5    1    3    3  502    0 -0.19394293635E+03  0.44919384295E+03 -0.12459596577E+04  0.13385912482E+04  0.46999998093E+01 0.  1.
       -5    1    3    3    0  502  0.19394293635E+03 -0.44919384295E+03  0.41933258463E+03  0.64439962573E+03  0.46999998093E+01 0. -1.
</event>
<event>
 5   0  0.2054876E-05  0.1795319E+04  0.7818609E-02  0.8708793E-01
        1   -1    0    0  501    0  0.00000000000E+00  0.00000000000E+00  0.12752004231E+04  0.12752004231E+04  0.50400001928E-02 0.  1.
       -1   -1    0    0    0  501  0.00000000000E+00  0.00000000000E+00 -0.63189500900E+03  0.63189500902E+03  0.50400001928E-02 0. -1.
    10030    2    1    2    0    0  0.00000000000E+00  0.00000000000E+00  0.64330541411E+03  0.19070954321E+04  0.17953192283E+04 0.  0.
        5    1    3    3  502    0  0.33813804507E+03 -0.79336570775E+03  0.57143173463E+02  0.86432280777E+03  0.46999998093E+01 0. -1.
       -5    1    3    3    0  502 -0.33813804507E+03  0.79336570775E+03  0.58616224064E+03  0.10427726244E+04  0.46999998093E+01 0.  1.
</event>
<event>
 5   0  0.4015729E-05  0.1799376E+04  0.7818609E-02  0.8706631E-01
       -2   -1    0    0    0  501  0.00000000000E+00  0.00000000000E+00  0.92494619524E+03  0.92494619524E+03  0.25500000920E-02 0.  1.
        2   -1    0    0  501    0  0.00000000000E+00  0.00000000000E+00 -0.87511949606E+03  0.87511949607E+03  0.25500000920E-02 0. -1.
    10030    2    1    2    0    0  0.00000000000E+00  0.00000000000E+00  0.49826699179E+02  0.18000656913E+04  0.17993759455E+04 0.  0.
        2    1    3    3  502    0  0.35599711207E+03  0.25378095476E+03 -0.76170844127E+03  0.87825876956E+03  0.25500000920E-02 0. -1.
       -2    1    3    3    0  502 -0.35599711207E+03 -0.25378095476E+03  0.81153514045E+03  0.92180692175E+03  0.25500000920E-02 0.  1.
</event>
<event>
 5   0  0.1960300E-05  0.1800673E+04  0.7818609E-02  0.8705942E-01
        1   -1    0    0  501    0  0.00000000000E+00  0.00000000000E+00  0.12971137985E+04  0.12971137985E+04  0.50400001928E-02 0. -1.
       -1   -1    0    0    0  501  0.00000000000E+00  0.00000000000E+00 -0.62493030256E+03  0.62493030258E+03  0.50400001928E-02 0.  1.
    10030    2    1    2    0    0  0.00000000000E+00  0.00000000000E+00  0.67218349595E+03  0.19220441011E+04  0.18006728949E+04 0.  0.
        3    1    3    3  502    0 -0.16238312516E+03 -0.70545224382E+03 -0.23531759704E+03  0.76118692141E+03  0.10100000352E+00 0.  1.
       -3    1    3    3    0  502  0.16238312516E+03  0.70545224382E+03  0.90750109299E+03  0.11608571797E+04  0.10100000352E+00 0. -1.
</event>
<event>
 5   0  0.2054876E-05  0.1796448E+04  0.7818609E-02  0.8708191E-01
        1   -1    0    0  501    0  0.00000000000E+00  0.00000000000E+00  0.98631575176E+03  0.98631575178E+03  0.50400001928E-02 0. -1.
       -1   -1    0    0    0  501  0.00000000000E+00  0.00000000000E+00 -0.81799993017E+03  0.81799993019E+03  0.50400001928E-02 0.  1.
    10030    2    1    2    0    0  0.00000000000E+00  0.00000000000E+00  0.16831582159E+03  0.18043156820E+04  0.17964478463E+04 0.  0.
        5    1    3    3  502    0  0.67100631908E+03 -0.25583955400E+03  0.62603983798E+03  0.95270736660E+03  0.46999998093E+01 0. -1.
       -5    1    3    3    0  502 -0.67100631908E+03  0.25583955400E+03 -0.45772401639E+03  0.85160831537E+03  0.46999998093E+01 0.  1.
</event>
<event>
 5   0  0.3993393E-05  0.1799263E+04  0.7818609E-02  0.8706692E-01
       -2   -1    0    0    0  501  0.00000000000E+00  0.00000000000E+00  0.42080559114E+03  0.42080559115E+03  0.25500000920E-02 0. -1.
        2   -1    0    0  501    0  0.00000000000E+00  0.00000000000E+00 -0.19233033437E+04  0.19233033437E+04  0.25500000920E-02 0.  1.
    10030    2    1    2    0    0  0.00000000000E+00  0.00000000000E+00 -0.15024977525E+04  0.23441089348E+04  0.17992629608E+04 0.  0.
        5    1    3    3  502    0  0.12421460641E+03  0.29778404873E+03  0.34281433056E+03  0.47079545809E+03  0.46999998093E+01 0. -1.
       -5    1    3    3    0  502 -0.12421460641E+03 -0.29778404873E+03 -0.18453120831E+04  0.18733134768E+04  0.46999998093E+01 0.  1.
</event>
<event>
 5   0  0.3983176E-05  0.1802113E+04  0.7818609E-02  0.8705176E-01
        2   -1    0    0  501    0  0.00000000000E+00  0.00000000000E+00  0.13500139189E+04  0.13500139189E+04  0.25500000920E-02 0.  1.
       -2   -1    0    0    0  501  0.00000000000E+00  0.00000000000E+00 -0.60140353582E+03  0.60140353582E+03  0.25500000920E-02 0. -1.
    10030    2    1    2    0    0  0.00000000000E+00  0.00000000000E+00  0.74861038306E+03  0.19514174547E+04  0.18021133641E+04 0.  0.
        3    1    3    3  502    0 -0.35306036764E+03  0.19074299396E+03  0.12479094556E+04  0.13108442060E+04  0.10100000352E+00 0.  1.
       -3    1    3    3    0  502  0.35306036764E+03 -0.19074299396E+03 -0.49929907250E+03  0.64057324869E+03  0.10100000352E+00 0. -1.
</event>
<event>
 5   0  0.2054876E-05  0.1803465E+04  0.7818609E-02  0.8704459E-01
        1   -1    0    0  501    0  0.00000000000E+00  0.00000000000E+00  0.29681610989E+04  0.29681610989E+04  0.50400001928E-02 0. -1.
       -1   -1    0    0    0  501  0.00000000000E+00  0.00000000000E+00 -0.27394804939E+03  0.27394804944E+03  0.50400001928E-02 0.  1.
    10030    2    1    2    0    0  0.00000000000E+00  0.00000000000E+00  0.26942130495E+04  0.32421091484E+04  0.18034654900E+04 0.  0.
        5    1    3    3  502    0  0.65224801018E+03  0.33995208843E+03  0.22848585868E+04  0.24003324230E+04  0.46999998093E+01 0. -1.
       -5    1    3    3    0  502 -0.65224801018E+03 -0.33995208843E+03  0.40935446273E+03  0.84177672537E+03  0.46999998093E+01 0.  1.
</event>
<event>
 5   0  0.4015729E-05  0.1799148E+04  0.7818609E-02  0.8706753E-01
        2   -1    0    0  501    0  0.00000000000E+00  0.00000000000E+00  0.82949314326E+03  0.82949314326E+03  0.25500000920E-02 0.  1.
       -2   -1    0    0    0  501  0.00000000000E+00  0.00000000000E+00 -0.97557555165E+03  0.97557555166E+03  0.25500000920E-02 0. -1.
    10030    2    1    2    0    0  0.00000000000E+00  0.00000000000E+00 -0.14608240840E+03  0.18050686949E+04  0.17991478325E+04 0.  0.
        2    1    3    3  502    0 -0.64138387320E+03  0.34758397895E+03 -0.60112434865E+03  0.94527158942E+03  0.25500000920E-02 0. -1.
       -2    1    3    3    0  502  0.64138387320E+03 -0.34758397895E+03  0.45504194025E+03  0.85979710550E+03  0.25500000920E-02 0.  1.
</event>
<event>
 5   0  0.2038338E-05  0.1797266E+04  0.7818609E-02  0.8707755E-01
        1   -1    0    0  501    0  0.00000000000E+00  0.00000000000E+00  0.66341776212E+03  0.66341776214E+03  0.50400001928E-02 0.  1.
       -1   -1    0    0    0  501  0.00000000000E+00  0.00000000000E+00 -0.12172435745E+04  0.12172435745E+04  0.50400001928E-02 0. -1.
    10030    2    1    2    0    0  0.00000000000E+00  0.00000000000E+00 -0.55382581237E+03  0.18806613366E+04  0.17972657101E+04 0.  0.
        1    1    3    3  502    0  0.71857485499E+03  0.32594046884E+03  0.17310538681E+03  0.80780720870E+03  0.50400001928E-02 0.  1.
       -1    1    3    3    0  502 -0.71857485499E+03 -0.32594046884E+03 -0.72693119918E+03  0.10728541279E+04  0.50400001928E-02 0. -1.
</event>
<event>
 5   0  0.1446750E-05  0.1800001E+04  0.7818609E-02  0.8706299E-01
        3   -1    0    0  501    0  0.00000000000E+00  0.00000000000E+00  0.51460812277E+03  0.51460813268E+03  0.10100000352E+00 0. -1.
       -3   -1    0    0    0  501  0.00000000000E+00  0.00000000000E+00 -0.15740149789E+04  0.15740149821E+04  0.10100000352E+00 0.  1.
    10030    2    1    2    0    0  0.00000000000E+00  0.00000000000E+00 -0.10594068561E+04  0.20886231148E+04  0.18000010080E+04 0.  0.
        3    1    3    3  502    0  0.35457458200E+03 -0.39573664907E+03  0.31318218987E+03  0.61677688338E+03  0.10100000352E+00 0. -1.
       -3    1    3    3    0  502 -0.35457458200E+03  0.39573664907E+03 -0.13725890460E+04  0.14718462314E+04  0.10100000352E+00 0.  1.
</event>
<event>
 5   0  0.3983176E-05  0.1798393E+04  0.7818609E-02  0.8707154E-01
        2   -1    0    0  501    0  0.00000000000E+00  0.00000000000E+00  0.77055578938E+03  0.77055578938E+03  0.25500000920E-02 0.  1.
       -2   -1    0    0    0  501  0.00000000000E+00  0.00000000000E+00 -0.10493133542E+04  0.10493133542E+04  0.25500000920E-02 0. -1.
    10030    2    1    2    0    0  0.00000000000E+00  0.00000000000E+00 -0.27875756479E+03  0.18198691435E+04  0.17983931494E+04 0.  0.
        3    1    3    3  502    0 -0.15890507692E+03 -0.32611731770E+03 -0.97197452211E+03  0.10374670164E+04  0.10100000352E+00 0. -1.
       -3    1    3    3    0  502  0.15890507692E+03  0.32611731770E+03  0.69321695732E+03  0.78240212710E+03  0.10100000352E+00 0.  1.
</event>
<event>
 5   0  0.2001811E-05  0.1800704E+04  0.7818609E-02  0.8705925E-01
        1   -1    0    0  501    0  0.00000000000E+00  0.00000000000E+00  0.93969403989E+03  0.93969403991E+03  0.50400001928E-02 0. -1.
       -1   -1    0    0    0  501  0.00000000000E+00  0.00000000000E+00 -0.86265733012E+03  0.86265733013E+03  0.50400001928E-02 0.  1.
    10030    2    1    2    0    0  0.00000000000E+00  0.00000000000E+00  0.77036709775E+02  0.18023513700E+04  0.18007042529E+04 0.  0.
        2    1    3    3  502    0  0.81954867873E+03  0.37187964312E+03  0.64608379575E+02  0.90229083365E+03  0.25500000920E-02 0. -1.
       -2    1    3    3    0  502 -0.81954867873E+03 -0.37187964312E+03  0.12428330200E+02  0.90006053639E+03  0.25500000920E-02 0.  1.
</event>
<event>
 5   0  0.1960300E-05  0.1793562E+04  0.7818609E-02  0.8709731E-01
        1   -1    0    0  501    0  0.00000000000E+00  0.00000000000E+00  0.13432351207E+04  0.13432351207E+04  0.50400001928E-02 0. -1.
       -1   -1    0    0    0  501  0.00000000000E+00  0.00000000000E+00 -0.59871562695E+03  0.59871562697E+03  0.50400001928E-02 0.  1.
    10030    2    1    2    0    0  0.00000000000E+00  0.00000000000E+00  0.74451949376E+03  0.19419507477E+04  0.17935616605E+04 0.  0.
        3    1    3    3  502    0 -0.50784641705E+03 -0.18319790371E+03 -0.40304636175E+03  0.67373276241E+03  0.10100000352E+00 0.  1.
       -3    1    3    3    0  502  0.50784641705E+03  0.18319790371E+03  0.11475658555E+04  0.12682179853E+04  0.10100000352E+00 0. -1.
</event>
<event>
 5   0  0.2054876E-05  0.1800365E+04  0.7818609E-02  0.8706105E-01
       -1   -1    0    0    0  501  0.00000000000E+00  0.00000000000E+00  0.82874785309E+03  0.82874785310E+03  0.50400001928E-02 0. -1.
        1   -1    0    0  501    0  0.00000000000E+00  0.00000000000E+00 -0.97777500086E+03  0.97777500087E+03  0.50400001928E-02 0.  1.
    10030    2    1    2    0    0  0.00000000000E+00  0.00000000000E+00 -0.14902714777E+03  0.18065228540E+04  0.18003654438E+04 0.  0.
        5    1    3    3  502    0  0.89553442285E+03 -0.30960666201E+02 -0.16063471493E+03  0.91036589731E+03  0.46999998093E+01 0. -1.
       -5    1    3    3    0  502 -0.89553442285E+03  0.30960666201E+02  0.11607567153E+02  0.89615695666E+03  0.46999998093E+01 0.  1.
</event>
<event>
 5   0  0.2001811E-05  0.1801299E+04  0.7818609E-02  0.8705609E-01
       -1   -1    0    0    0  501  0.00000000000E+00  0.00000000000E+00  0.63246999897E+03  0.63246999899E+03  0.50400001928E-02 0. -1.
        1   -1    0    0  501    0  0.00000000000E+00  0.00000000000E+00 -0.12825419684E+04  0.12825419684E+04  0.50400001928E-02 0.  1.
    10030    2    1    2    0    0  0.00000000000E+00  0.00000000000E+00 -0.65007196941E+03  0.19150119674E+04  0.18012987731E+04 0.  0.
        2    1    3    3  502    0 -0.75854056085E+03  0.17628080508E+03  0.15597602329E+03  0.79422114335E+03  0.25500000920E-02 0. -1.
       -2    1    3    3    0  502  0.75854056085E+03 -0.17628080508E+03 -0.80604799270E+03  0.11207908240E+04  0.25500000920E-02 0.  1.
</event>
<event>
 5   0  0.3909859E-05  0.1806351E+04  0.7818609E-02  0.8702929E-01
       -2   -1    0    0    0  501  0.00000000000E+00  0.00000000000E+00  0.81926109419E+03  0.81926109419E+03  0.25500000920E-02 0. -1.
        2   -1    0    0  501    0  0.00000000000E+00  0.00000000000E+00 -0.99568491125E+03  0.99568491126E+03  0.25500000920E-02 0.  1.
    10030    2    1    2    0    0  0.00000000000E+00  0.00000000000E+00 -0.17642381707E+03  0.18149460054E+04  0.18063509181E+04 0.  0.
        4    1    3    3  502    0  0.66159885795E+03 -0.20744976532E+03  0.49331301053E+03  0.85094523516E+03  0.12699999809E+01 0. -1.
       -4    1    3    3    0  502 -0.66159885795E+03  0.20744976532E+03 -0.66973682760E+03  0.96400077029E+03  0.12699999809E+01 0.  1.
</event>
<event>
 5   0  0.1906857E-05  0.1800865E+04  0.7818609E-02  0.8705839E-01
        1   -1    0    0  501    0  0.00000000000E+00  0.00000000000E+00  0.67114281497E+03  0.67114281498E+03  0.50400001928E-02 0. -1.
       -1   -1    0    0    0  501  0.00000000000E+00  0.00000000000E+00 -0.12080575333E+04  0.12080575334E+04  0.50400001928E-02 0.  1.
    10030    2    1    2    0    0  0.00000000000E+00  0.00000000000E+00 -0.53691471838E+03  0.18792003483E+04  0.18008654959E+04 0.  0.
        4    1    3    3  502    0 -0.21961895108E+03  0.80594114501E+03 -0.61924035932E+03  0.10398239507E+04  0.12699999809E+01 0.  1.
       -4    1    3    3    0  502  0.21961895108E+03 -0.80594114501E+03  0.82325640941E+02  0.83937639766E+03  0.12699999809E+01 0. -1.
</event>
<event>
 5   0  0.2054876E-05  0.1806938E+04  0.7818609E-02  0.8702619E-01
       -1   -1    0    0    0  501  0.00000000000E+00  0.00000000000E+00  0.85692186549E+03  0.85692186550E+03  0.50400001928E-02 0.  1.
        1   -1    0    0  501    0  0.00000000000E+00  0.00000000000E+00 -0.95254469069E+03  0.95254469070E+03  0.50400001928E-02 0. -1.
    10030    2    1    2    0    0  0.00000000000E+00  0.00000000000E+00 -0.95622825201E+02  0.18094665562E+04  0.18069381543E+04 0.  0.
        5    1    3    3  502    0  0.55737720683E+03 -0.52264765282E+03  0.43494651177E+03  0.87922151805E+03  0.46999998093E+01 0.  1.
       -5    1    3    3    0  502 -0.55737720683E+03  0.52264765282E+03 -0.53056933697E+03  0.93024503816E+03  0.46999998093E+01 0. -1.
</event>
<event>
 5   0  0.1446750E-05  0.1802536E+04  0.7818609E-02  0.8704952E-01
       -4   -1    0    0    0  501  0.00000000000E+00  0.00000000000E+00  0.10250029415E+04  0.10250037283E+04  0.12699999809E+01 0.  1.
        4   -1    0    0  501    0  0.00000000000E+00  0.00000000000E+00 -0.79246866070E+03  0.79246967834E+03  0.12699999809E+01 0. -1.
    10030    2    1    2    0    0  0.00000000000E+00  0.00000000000E+00  0.23253428080E+03  0.18174734066E+04  0.18025363774E+04 0.  0.
        5    1    3    3  502    0 -0.52986912465E+03 -0.54912895856E+02  0.84926141508E+03  0.10025187063E+04  0.46999998093E+01 0.  1.
       -5    1    3    3    0  502  0.52986912465E+03  0.54912895856E+02 -0.61672713428E+03  0.81495470030E+03  0.46999998093E+01 0. -1.
</event>
<event>
 5   0  0.3984648E-05  0.1755621E+04  0.7818609E-02  0.8730262E-01
       -2   -1    0    0    0  501  0.00000000000E+00  0.00000000000E+00  0.79999675438E+03  0.79999675439E+03  0.25500000920E-02 0.  1.
        2   -1    0    0  501    0  0.00000000000E+00  0.00000000000E+00 -0.96319344591E+03  0.96319344591E+03  0.25500000920E-02 0. -1.
    10030    2    1    2    0    0  0.00000000000E+00  0.00000000000E+00 -0.16319669152E+03  0.17631902003E+04  0.17556214063E+04 0.  0.
        1    1    3    3  502    0  0.47257872868E+03 -0.52891552337E+03  0.43780566973E+03  0.83352029978E+03  0.50400001928E-02 0.  1.
       -1    1    3    3    0  502 -0.47257872868E+03  0.52891552337E+03 -0.60100236126E+03  0.92966990052E+03  0.50400001928E-02 0. -1.
</event>
<event>
 5   0  0.3983176E-05  0.1799705E+04  0.7818609E-02  0.8706456E-01
        2   -1    0    0  501    0  0.00000000000E+00  0.00000000000E+00  0.21227139551E+04  0.21227139551E+04  0.25500000920E-02 0.  1.
       -2   -1    0    0    0  501  0.00000000000E+00  0.00000000000E+00 -0.38146182318E+03  0.38146182319E+03  0.25500000920E-02 0. -1.
    10030    2    1    2    0    0  0.00000000000E+00  0.00000000000E+00  0.17412521319E+04  0.25041757783E+04  0.17997047929E+04 0.  0.
        3    1    3    3  502    0 -0.67597937251E+03 -0.40090566067E+03  0.14804198272E+04  0.16761015291E+04  0.10100000352E+00 0.  1.
       -3    1    3    3    0  502  0.67597937251E+03  0.40090566067E+03  0.26083230472E+03  0.82807424921E+03  0.10100000352E+00 0. -1.
</event>
<event>
 5   0  0.3983176E-05  0.1802025E+04  0.7818609E-02  0.8705223E-01
       -2   -1    0    0    0  501  0.00000000000E+00  0.00000000000E+00  0.87158313336E+03  0.87158313336E+03  0.25500000920E-02 0. -1.
        2   -1    0    0  501    0  0.00000000000E+00  0.00000000000E+00 -0.93143595084E+03  0.93143595084E+03  0.25500000920E-02 0.  1.
    10030    2    1    2    0    0  0.00000000000E+00  0.00000000000E+00 -0.59852817480E+02  0.18030190842E+04  0.18020253767E+04 0.  0.
        3    1    3    3  502    0  0.51935739631E+03  0.53261531504E+03 -0.53854979770E+03  0.91839374657E+03  0.10100000352E+00 0.  1.
       -3    1    3    3    0  502 -0.51935739631E+03 -0.53261531504E+03  0.47869698022E+03  0.88462533764E+03  0.10100000352E+00 0. -1.
</event>
<event>
 5   0  0.1906857E-05  0.1801651E+04  0.7818609E-02  0.8705422E-01
        1   -1    0    0  501    0  0.00000000000E+00  0.00000000000E+00  0.11960021241E+04  0.11960021241E+04  0.50400001928E-02 0.  1.
       -1   -1    0    0    0  501  0.00000000000E+00  0.00000000000E+00 -0.67849921262E+03  0.67849921264E+03  0.50400001928E-02 0. -1.
    10030    2    1    2    0    0  0.00000000000E+00  0.00000000000E+00  0.51750291146E+03  0.18745013367E+04  0.18016509090E+04 0.  0.
        4    1    3    3  502    0 -0.42189342062E+03  0.32822182800E+03 -0.49566195597E+03  0.72897600388E+03  0.12699999809E+01 0. -1.
       -4    1    3    3    0  502  0.42189342062E+03 -0.32822182800E+03  0.10131648674E+04  0.11455253329E+04  0.12699999809E+01 0.  1.
</event>
<event>
 5   0  0.3984648E-05  0.1797873E+04  0.7818609E-02  0.8707431E-01
        2   -1    0    0  501    0  0.00000000000E+00  0.00000000000E+00  0.96768581526E+03  0.96768581526E+03  0.25500000920E-02 0. -1.
       -2   -1    0    0    0  501  0.00000000000E+00  0.00000000000E+00 -0.83507172567E+03  0.83507172568E+03  0.25500000920E-02 0.  1.
    10030    2    1    2    0    0  0.00000000000E+00  0.00000000000E+00  0.13261408959E+03  0.18027575409E+04  0.17978732588E+04 0.  0.
        1    1    3    3  502    0 -0.74412272736E+03 -0.29896667067E+03 -0.34098280295E+03  0.87141779617E+03  0.50400001928E-02 0.  1.
       -1    1    3    3    0  502  0.74412272736E+03  0.29896667067E+03  0.47359689254E+03  0.93133974477E+03  0.50400001928E-02 0. -1.
</event>
<event>
 5   0  0.2001811E-05  0.1802107E+04  0.7818609E-02  0.8705180E-01
       -1   -1    0    0    0  501  0.00000000000E+00  0.00000000000E+00  0.48519955992E+03  0.48519955995E+03  0.50400001928E-02 0.  1.
        1   -1    0    0  501    0  0.00000000000E+00  0.00000000000E+00 -0.16733260784E+04  0.16733260784E+04  0.50400001928E-02 0. -1.
    10030    2    1    2    0    0  0.00000000000E+00  0.00000000000E+00 -0.11881265185E+04  0.21585256384E+04  0.18021066305E+04 0.  0.
        2    1    3    3  502    0 -0.57130312759E+03  0.46171922313E+03 -0.12191216945E+04  0.14233164127E+04  0.25500000920E-02 0. -1.
       -2    1    3    3    0  502  0.57130312759E+03 -0.46171922313E+03  0.30995176011E+02  0.73520922569E+03  0.25500000920E-02 0.  1.
</event>
<event>
 5   0  0.2038338E-05  0.1800681E+04  0.7818609E-02  0.8705937E-01
       -1   -1    0    0    0  501  0.00000000000E+00  0.00000000000E+00  0.90302782234E+03  0.90302782235E+03  0.50400001928E-02 0.  1.
        1   -1    0    0  501    0  0.00000000000E+00  0.00000000000E+00 -0.89766120050E+03  0.89766120051E+03  0.50400001928E-02 0. -1.
    10030    2    1    2    0    0  0.00000000000E+00  0.00000000000E+00  0.53666218382E+01  0.18006890229E+04  0.18006810257E+04 0.  0.
        1    1    3    3  502    0  0.23699920063E+03 -0.27124467970E+03  0.82783589648E+03  0.90280372667E+03  0.50400001928E-02 0.  1.
       -1    1    3    3    0  502 -0.23699920063E+03  0.27124467970E+03 -0.82246927464E+03  0.89788529619E+03  0.50400001928E-02 0. -1.
</event>
<event>
 5   0  0.2054876E-05  0.1807617E+04  0.7818609E-02  0.8702259E-01
       -1   -1    0    0    0  501  0.00000000000E+00  0.00000000000E+00  0.88504421899E+03  0.88504421901E+03  0.50400001928E-02 0.  1.
        1   -1    0    0  501    0  0.00000000000E+00  0.00000000000E+00 -0.92297106282E+03  0.92297106284E+03  0.50400001928E-02 0. -1.
    10030    2    1    2    0    0  0.00000000000E+00  0.00000000000E+00 -0.37926843831E+02  0.18080152818E+04  0.18076174412E+04 0.  0.
        5    1    3    3  502    0  0.93330362747E+02  0.68780003827E+03  0.56001513706E+03  0.89186237334E+03  0.46999998093E+01 0.  1.
       -5    1    3    3    0  502 -0.93330362747E+02 -0.68780003827E+03 -0.59794198089E+03  0.91615290850E+03  0.46999998093E+01 0. -1.
</event>
<event>
 5   0  0.4015729E-05  0.1804443E+04  0.7818609E-02  0.8703940E-01
        2   -1    0    0  501    0  0.00000000000E+00  0.00000000000E+00  0.16761059746E+04  0.16761059746E+04  0.25500000920E-02 0.  1.
       -2   -1    0    0    0  501  0.00000000000E+00  0.00000000000E+00 -0.48565170603E+03  0.48565170604E+03  0.25500000920E-02 0. -1.
    10030    2    1    2    0    0  0.00000000000E+00  0.00000000000E+00  0.11904542686E+04  0.21617576807E+04  0.18044431009E+04 0.  0.
        2    1    3    3  502    0 -0.96023881787E+01 -0.48820722283E+03 -0.31366237961E+03  0.58036418451E+03  0.25500000920E-02 0. -1.
       -2    1    3    3    0  502  0.96023881787E+01  0.48820722283E+03  0.15041166482E+04  0.15813934962E+04  0.25500000920E-02 0.  1.
</event>
<event>
 5   0  0.3984648E-05  0.1799562E+04  0.7818609E-02  0.8706532E-01
       -2   -1    0    0    0  501  0.00000000000E+00  0.00000000000E+00  0.52564936803E+03  0.52564936804E+03  0.25500000920E-02 0. -1.
        2   -1    0    0  501    0  0.00000000000E+00  0.00000000000E+00 -0.15402015903E+04  0.15402015903E+04  0.25500000920E-02 0.  1.
    10030    2    1    2    0    0  0.00000000000E+00  0.00000000000E+00 -0.10145522223E+04  0.20658509584E+04  0.17995621608E+04 0.  0.
        1    1    3    3  502    0  0.19051112358E+03  0.45993329655E+03 -0.13677001057E+04  0.14554850410E+04  0.50400001928E-02 0.  1.
       -1    1    3    3    0  502 -0.19051112358E+03 -0.45993329655E+03  0.35314788340E+03  0.61036591735E+03  0.50400001928E-02 0. -1.
</event>
<event>
 5   0  0.3993393E-05  0.1800824E+04  0.7818609E-02  0.8705861E-01
       -2   -1    0    0    0  501  0.00000000000E+00  0.00000000000E+00  0.73093478302E+03  0.73093478302E+03  0.25500000920E-02 0.  1.
        2   -1    0    0  501    0  0.00000000000E+00  0.00000000000E+00 -0.11091848134E+04  0.11091848134E+04  0.25500000920E-02 0. -1.
    10030    2    1    2    0    0  0.00000000000E+00  0.00000000000E+00 -0.37825003040E+03  0.18401195964E+04  0.18008239902E+04 0.  0.
        5    1    3    3  502    0  0.66320776755E+03 -0.18757552479E+03  0.40290583896E+03  0.79836352966E+03  0.46999998093E+01 0.  1.
       -5    1    3    3    0  502 -0.66320776755E+03  0.18757552479E+03 -0.78115586936E+03  0.10417560668E+04  0.46999998093E+01 0. -1.
</event>
<event>
 5   0  0.1446750E-05  0.1800018E+04  0.7818609E-02  0.8706290E-01
        3   -1    0    0  501    0  0.00000000000E+00  0.00000000000E+00  0.15515122546E+04  0.15515122579E+04  0.10100000352E+00 0.  1.
       -3   -1    0    0    0  501  0.00000000000E+00  0.00000000000E+00 -0.52208186423E+03  0.52208187400E+03  0.10100000352E+00 0. -1.
    10030    2    1    2    0    0  0.00000000000E+00  0.00000000000E+00  0.10294303904E+04  0.20735941319E+04  0.18000182486E+04 0.  0.
        1    1    3    3  502    0  0.47120590020E+03  0.55621831386E+03 -0.93335008172E+02  0.73493213076E+03  0.50400001928E-02 0.  1.
       -1    1    3    3    0  502 -0.47120590020E+03 -0.55621831386E+03  0.11227653986E+04  0.13386620011E+04  0.50400001928E-02 0. -1.
</event>
<event>
 5   0  0.1446750E-05  0.1809957E+04  0.7818609E-02  0.8701022E-01
        4   -1    0    0  501    0  0.00000000000E+00  0.00000000000E+00  0.13856801693E+04  0.13856807513E+04  0.12699999809E+01 0.  1.
       -4   -1    0    0    0  501  0.00000000000E+00  0.00000000000E+00 -0.59103432293E+03  0.59103568740E+03  0.12699999809E+01 0. -1.
    10030    2    1    2    0    0  0.00000000000E+00  0.00000000000E+00  0.79464584641E+03  0.19767164387E+04  0.18099574188E+04 0.  0.
        3    1    3    3  502    0 -0.61070021642E+03  0.62978938584E+03  0.15459125950E+03  0.89077937368E+03  0.10100000352E+00 0. -1.
       -3    1    3    3    0  502  0.61070021642E+03 -0.62978938584E+03  0.64005458691E+03  0.10859370651E+04  0.10100000352E+00 0.  1.
</event>
<event>
 5   0  0.3909859E-05  0.1800724E+04  0.7818609E-02  0.8705915E-01
       -2   -1    0    0    0  501  0.00000000000E+00  0.00000000000E+00  0.47009810427E+03  0.47009810428E+03  0.25500000920E-02 0.  1.
        2   -1    0    0  501    0  0.00000000000E+00  0.00000000000E+00 -0.17244301303E+04  0.17244301303E+04  0.25500000920E-02 0. -1.
    10030    2    1    2    0    0  0.00000000000E+00  0.00000000000E+00 -0.12543320261E+04  0.21945282346E+04  0.18007235604E+04 0.  0.
        4    1    3    3  502    0  0.68809632795E+03 -0.33937015244E+03 -0.52954818105E+02  0.76906077950E+03  0.12699999809E+01 0.  1.
       -4    1    3    3    0  502 -0.68809632795E+03  0.33937015244E+03 -0.12013772080E+04  0.14254674551E+04  0.12699999809E+01 0. -1.
</event>
<event>
 5   0  0.3984648E-05  0.1799101E+04  0.7818609E-02  0.8706778E-01
       -2   -1    0    0    0  501  0.00000000000E+00  0.00000000000E+00  0.72286550799E+03  0.72286550799E+03  0.25500000920E-02 0.  1.
        2   -1    0    0  501    0  0.00000000000E+00  0.00000000000E+00 -0.11194216466E+04  0.11194216466E+04  0.25500000920E-02 0. -1.
    10030    2    1    2    0    0  0.00000000000E+00  0.00000000000E+00 -0.39655613865E+03  0.18422871546E+04  0.17991012170E+04 0.  0.
        1    1    3    3  502    0  0.74130346755E+02 -0.89353968659E+03 -0.12385038160E+03  0.90512286286E+03  0.50400001928E-02 0.  1.
       -1    1    3    3    0  502 -0.74130346755E+02  0.89353968659E+03 -0.27270575705E+03  0.93716429178E+03  0.50400001928E-02 0. -1.
</event>
<event>
 5   0  0.2038338E-05  0.1800234E+04  0.7818609E-02  0.8706175E-01
        1   -1    0    0  501    0  0.00000000000E+00  0.00000000000E+00  0.73006767969E+03  0.73006767971E+03  0.50400001928E-02 0.  1.
       -1   -1    0    0    0  501  0.00000000000E+00  0.00000000000E+00 -0.11097741099E+04  0.11097741099E+04  0.50400001928E-02 0. -1.
    10030    2    1    2    0    0  0.00000000000E+00  0.00000000000E+00 -0.37970643022E+03  0.18398417896E+04  0.18002335509E+04 0.  0.
        1    1    3    3  502    0 -0.74808034766E+03 -0.38516085387E+03 -0.51663356252E+03  0.98736180190E+03  0.50400001928E-02 0. -1.
       -1    1    3    3    0  502  0.74808034766E+03  0.38516085387E+03  0.13692713230E+03  0.85247998773E+03  0.50400001928E-02 0.  1.
</event>
<event>
 5   0  0.2054876E-05  0.1802666E+04  0.7818609E-02  0.8704883E-01
       -1   -1    0    0    0  501  0.00000000000E+00  0.00000000000E+00  0.15804675640E+04  0.15804675640E+04  0.50400001928E-02 0.  1.
        1   -1    0    0  501    0  0.00000000000E+00  0.00000000000E+00 -0.51402584488E+03  0.51402584491E+03  0.50400001928E-02 0. -1.
    10030    2    1    2    0    0  0.00000000000E+00  0.00000000000E+00  0.10664417191E+04  0.20944934089E+04  0.18026659978E+04 0.  0.
        5    1    3    3  502    0  0.42407356133E+03  0.78235840408E+03  0.36704253505E+03  0.96263459858E+03  0.46999998093E+01 0.  1.
       -5    1    3    3    0  502 -0.42407356133E+03 -0.78235840408E+03  0.69939918407E+03  0.11318588103E+04  0.46999998093E+01 0. -1.
</event>
<event>
 5   0  0.3993393E-05  0.1794181E+04  0.7818609E-02  0.8709400E-01
       -2   -1    0    0    0  501  0.00000000000E+00  0.00000000000E+00  0.10079947064E+04  0.10079947064E+04  0.25500000920E-02 0. -1.
        2   -1    0    0  501    0  0.00000000000E+00  0.00000000000E+00 -0.79838863732E+03  0.79838863732E+03  0.25500000920E-02 0.  1.
    10030    2    1    2    0    0  0.00000000000E+00  0.00000000000E+00  0.20960606913E+03  0.18063833438E+04  0.17941811727E+04 0.  0.
        5    1    3    3  502    0 -0.13886654132E+03  0.87048162897E+03 -0.62844435547E+02  0.88373847701E+03  0.46999998093E+01 0.  1.
       -5    1    3    3    0  502  0.13886654132E+03 -0.87048162897E+03  0.27245050467E+03  0.92264486676E+03  0.46999998093E+01 0. -1.
</event>
<event>
 5   0  0.3993393E-05  0.1799846E+04  0.7818609E-02  0.8706382E-01
        2   -1    0    0  501    0  0.00000000000E+00  0.00000000000E+00  0.13365135134E+04  0.13365135134E+04  0.25500000920E-02 0. -1.
       -2   -1    0    0    0  501  0.00000000000E+00  0.00000000000E+00 -0.60595052368E+03  0.60595052369E+03  0.25500000920E-02 0.  1.
    10030    2    1    2    0    0  0.00000000000E+00  0.00000000000E+00  0.73056298972E+03  0.19424640371E+04  0.17998456193E+04 0.  0.
        5    1    3    3  502    0  0.56002082130E+03 -0.61717379538E+03 -0.12027289329E+01  0.83339687457E+03  0.46999998093E+01 0.  1.
       -5    1    3    3    0  502 -0.56002082130E+03  0.61717379538E+03  0.73176571866E+03  0.11090671625E+04  0.46999998093E+01 0. -1.
</event>
<event>
 5   0  0.3993393E-05  0.1802724E+04  0.7818609E-02  0.8704852E-01
       -2   -1    0    0    0  501  0.00000000000E+00  0.00000000000E+00  0.29381308341E+03  0.29381308342E+03  0.25500000920E-02 0. -1.
        2   -1    0    0  501    0  0.00000000000E+00  0.00000000000E+00 -0.27652062671E+04  0.27652062671E+04  0.25500000920E-02 0.  1.
    10030    2    1    2    0    0  0.00000000000E+00  0.00000000000E+00 -0.24713931837E+04  0.30590193505E+04  0.18027243601E+04 0.  0.
        5    1    3    3  502    0 -0.26701933431E+03 -0.50418828964E+03 -0.51606854322E+02  0.57287914407E+03  0.46999998093E+01 0. -1.
       -5    1    3    3    0  502  0.26701933431E+03  0.50418828964E+03 -0.24197863294E+04  0.24861402065E+04  0.46999998093E+01 0.  1.
</event>
<event>
 5   0  0.3909859E-05  0.1799981E+04  0.7818609E-02  0.8706310E-01
       -2   -1    0    0    0  501  0.00000000000E+00  0.00000000000E+00  0.71013313534E+03  0.71013313534E+03  0.25500000920E-02 0.  1.
        2   -1    0    0  501    0  0.00000000000E+00  0.00000000000E+00 -0.11406067925E+04  0.11406067925E+04  0.25500000920E-02 0. -1.
    10030    2    1    2    0    0  0.00000000000E+00  0.00000000000E+00 -0.43047365716E+03  0.18507399278E+04  0.17999807530E+04 0.  0.
        4    1    3    3  502    0  0.43589125708E+03  0.55493916335E+03 -0.78957862346E+03  0.10589592431E+04  0.12699999809E+01 0. -1.
       -4    1    3    3    0  502 -0.43589125708E+03 -0.55493916335E+03  0.35910496630E+03  0.79178068475E+03  0.12699999809E+01 0.  1.
</event>
<event>
 5   0  0.3909859E-05  0.1798624E+04  0.7818609E-02  0.8707031E-01
        2   -1    0    0  501    0  0.00000000000E+00  0.00000000000E+00  0.84394445205E+03  0.84394445206E+03  0.25500000920E-02 0. -1.
       -2   -1    0    0    0  501  0.00000000000E+00  0.00000000000E+00 -0.95831218975E+03  0.95831218975E+03  0.25500000920E-02 0.  1.
    10030    2    1    2    0    0  0.00000000000E+00  0.00000000000E+00 -0.11436773769E+03  0.18022566418E+04  0.17986242030E+04 0.  0.
        4    1    3    3  502    0 -0.72143595811E+03  0.18812741137E+03 -0.56109001234E+03  0.93310523490E+03  0.12699999809E+01 0.  1.
       -4    1    3    3    0  502  0.72143595811E+03 -0.18812741137E+03  0.44672227465E+03  0.86915140690E+03  0.12699999809E+01 0. -1.
</event>
<event>
 5   0  0.2054876E-05  0.1801845E+04  0.7818609E-02  0.8705319E-01
        1   -1    0    0  501    0  0.00000000000E+00  0.00000000000E+00  0.17367654285E+04  0.17367654285E+04  0.50400001928E-02 0. -1.
       -1   -1    0    0    0  501  0.00000000000E+00  0.00000000000E+00 -0.46734069339E+03  0.46734069342E+03  0.50400001928E-02 0.  1.
    10030    2    1    2    0    0  0.00000000000E+00  0.00000000000E+00  0.12694247351E+04  0.22041061219E+04  0.18018447876E+04 0.  0.
        5    1    3    3  502    0  0.24011816315E+03  0.80072623549E+03  0.10455856008E+04  0.13386898726E+04  0.46999998093E+01 0. -1.
       -5    1    3    3    0  502 -0.24011816315E+03 -0.80072623549E+03  0.22383913428E+03  0.86541624927E+03  0.46999998093E+01 0.  1.
</event>
<event>
 5   0  0.3983176E-05  0.1802832E+04  0.7818609E-02  0.8704795E-01
        2   -1    0    0  501    0  0.00000000000E+00  0.00000000000E+00  0.74079579976E+03  0.74079579976E+03  0.25500000920E-02 0. -1.
       -2   -1    0    0    0  501  0.00000000000E+00  0.00000000000E+00 -0.10968617244E+04  0.10968617244E+04  0.25500000920E-02 0.  1.
    10030    2    1    2    0    0  0.00000000000E+00  0.00000000000E+00 -0.35606592460E+03  0.18376575241E+04  0.18028317263E+04 0.  0.
        3    1    3    3  502    0  0.54064941637E+03 -0.51605918665E+03  0.33561766346E+03  0.81930342473E+03  0.10100000352E+00 0. -1.
       -3    1    3    3    0  502 -0.54064941637E+03  0.51605918665E+03 -0.69168358806E+03  0.10183540994E+04  0.10100000352E+00 0.  1.
</event>
<event>
 5   0  0.4015729E-05  0.1800093E+04  0.7818609E-02  0.8706250E-01
        2   -1    0    0  501    0  0.00000000000E+00  0.00000000000E+00  0.23257435169E+04  0.23257435170E+04  0.25500000920E-02 0.  1.
       -2   -1    0    0    0  501  0.00000000000E+00  0.00000000000E+00 -0.34831156997E+03  0.34831156997E+03  0.25500000920E-02 0. -1.
    10030    2    1    2    0    0  0.00000000000E+00  0.00000000000E+00  0.19774319470E+04  0.26740550869E+04  0.18000926373E+04 0.  0.
        2    1    3    3  502    0  0.31041426410E+03 -0.79411312970E+03  0.14169724682E+04  0.16537181301E+04  0.25500000920E-02 0.  1.
       -2    1    3    3    0  502 -0.31041426410E+03  0.79411312970E+03  0.56045947874E+03  0.10203369568E+04  0.25500000920E-02 0. -1.
</event>
<event>
 5   0  0.1960300E-05  0.1801091E+04  0.7818609E-02  0.8705719E-01
        1   -1    0    0  501    0  0.00000000000E+00  0.00000000000E+00  0.21693315692E+04  0.21693315692E+04  0.50400001928E-02 0.  1.
       -1   -1    0    0    0  501  0.00000000000E+00  0.00000000000E+00 -0.37383978915E+03  0.37383978918E+03  0.50400001928E-02 0. -1.
    10030    2    1    2    0    0  0.00000000000E+00  0.00000000000E+00  0.17954917801E+04  0.25431713584E+04  0.18010912875E+04 0.  0.
        3    1    3    3  502    0 -0.18827093475E+03  0.24205867148E+02 -0.34527063276E+03  0.39400975740E+03  0.10100000352E+00 0. -1.
       -3    1    3    3    0  502  0.18827093475E+03 -0.24205867148E+02  0.21407624129E+04  0.21491616010E+04  0.10100000352E+00 0.  1.
</event>
<event>
 5   0  0.3993393E-05  0.1797399E+04  0.7818609E-02  0.8707684E-01
       -2   -1    0    0    0  501  0.00000000000E+00  0.00000000000E+00  0.53740830994E+03  0.53740830994E+03  0.25500000920E-02 0.  1.
        2   -1    0    0  501    0  0.00000000000E+00  0.00000000000E+00 -0.15028804742E+04  0.15028804742E+04  0.25500000920E-02 0. -1.
    10030    2    1    2    0    0  0.00000000000E+00  0.00000000000E+00 -0.96547216422E+03  0.20402887841E+04  0.17973986265E+04 0.  0.
        5    1    3    3  502    0 -0.50458409534E+03  0.54702762660E+03  0.89121573474E+02  0.74953924406E+03  0.46999998093E+01 0.  1.
       -5    1    3    3    0  502  0.50458409534E+03 -0.54702762660E+03 -0.10545937377E+04  0.12907495400E+04  0.46999998093E+01 0. -1.
</event>
<event>
 5   0  0.4015729E-05  0.1792830E+04  0.7818609E-02  0.8710122E-01
        2   -1    0    0  501    0  0.00000000000E+00  0.00000000000E+00  0.23052124382E+04  0.23052124382E+04  0.25500000920E-02 0.  1.
       -2   -1    0    0    0  501  0.00000000000E+00  0.00000000000E+00 -0.34858390936E+03  0.34858390937E+03  0.25500000920E-02 0. -1.
    10030    2    1    2    0    0  0.00000000000E+00  0.00000000000E+00  0.19566285288E+04  0.26537963476E+04  0.17928301243E+04 0.  0.
        2    1    3    3  502    0  0.65789417079E+03  0.21526061185E+03  0.13523657389E+03  0.70530192251E+03  0.25500000920E-02 0. -1.
       -2    1    3    3    0  502 -0.65789417079E+03 -0.21526061185E+03  0.18213919549E+04  0.19484944251E+04  0.25500000920E-02 0.  1.
</event>
<event>
 5   0  0.2038338E-05  0.1802075E+04  0.7818609E-02  0.8705197E-01
        1   -1    0    0  501    0  0.00000000000E+00  0.00000000000E+00  0.47090692633E+03  0.47090692636E+03  0.50400001928E-02 0.  1.
       -1   -1    0    0    0  501  0.00000000000E+00  0.00000000000E+00 -0.17240539231E+04  0.17240539231E+04  0.50400001928E-02 0. -1.
    10030    2    1    2    0    0  0.00000000000E+00  0.00000000000E+00 -0.12531469968E+04  0.21949608495E+04  0.18020753967E+04 0.  0.
        1    1    3    3  502    0 -0.43476254333E+03 -0.77173268670E+03 -0.42540080120E+03  0.98262691317E+03  0.50400001928E-02 0. -1.
       -1    1    3    3    0  502  0.43476254333E+03  0.77173268670E+03 -0.82774619560E+03  0.12123339363E+04  0.50400001928E-02 0.  1.
</event>
<event>
 5   0  0.3993393E-05  0.1797545E+04  0.7818609E-02  0.8707606E-01
        2   -1    0    0  501    0  0.00000000000E+00  0.00000000000E+00  0.28058621173E+04  0.28058621173E+04  0.25500000920E-02 0. -1.
       -2   -1    0    0    0  501  0.00000000000E+00  0.00000000000E+00 -0.28789448403E+03  0.28789448404E+03  0.25500000920E-02 0.  1.
    10030    2    1    2    0    0  0.00000000000E+00  0.00000000000E+00  0.25179676332E+04  0.30937566013E+04  0.17975452445E+04 0.  0.
        5    1    3    3  502    0  0.84917926179E+03  0.19494415025E+03  0.16386474865E+04  0.18558815467E+04  0.46999998093E+01 0.  1.
       -5    1    3    3    0  502 -0.84917926179E+03 -0.19494415025E+03  0.87932014675E+03  0.12378750546E+04  0.46999998093E+01 0. -1.
</event>
<event>
 5   0  0.3993393E-05  0.1797307E+04  0.7818609E-02  0.8707733E-01
        2   -1    0    0  501    0  0.00000000000E+00  0.00000000000E+00  0.10340420357E+04  0.10340420357E+04  0.25500000920E-02 0. -1.
       -2   -1    0    0    0  501  0.00000000000E+00  0.00000000000E+00 -0.78099125361E+03  0.78099125361E+03  0.25500000920E-02 0.  1.
    10030    2    1    2    0    0  0.00000000000E+00  0.00000000000E+00  0.25305078211E+03  0.18150332893E+04  0.17973066358E+04 0.  0.
        5    1    3    3  502    0  0.50140444383E+03 -0.62434072957E+02 -0.62394018708E+03  0.80288721301E+03  0.46999998093E+01 0.  1.
       -5    1    3    3    0  502 -0.50140444383E+03  0.62434072957E+02  0.87699096920E+03  0.10121460763E+04  0.46999998093E+01 0. -1.
</event>
<event>
 5   0  0.3983176E-05  0.1804102E+04  0.7818609E-02  0.8704121E-01
        2   -1    0    0  501    0  0.00000000000E+00  0.00000000000E+00  0.14870610065E+04  0.14870610065E+04  0.25500000920E-02 0. -1.
       -2   -1    0    0    0  501  0.00000000000E+00  0.00000000000E+00 -0.54718423870E+03  0.54718423871E+03  0.25500000920E-02 0.  1.
    10030    2    1    2    0    0  0.00000000000E+00  0.00000000000E+00  0.93987676783E+03  0.20342452452E+04  0.18041023749E+04 0.  0.
        3    1    3    3  502    0  0.55723549146E+03 -0.62621155849E+03  0.84568037310E+03  0.11907256664E+04  0.10100000352E+00 0. -1.
       -3    1    3    3    0  502 -0.55723549146E+03  0.62621155849E+03  0.94196394731E+02  0.84351957886E+03  0.10100000352E+00 0.  1.
</event>
<event>
 5   0  0.2001811E-05  0.1802204E+04  0.7818609E-02  0.8705128E-01
       -1   -1    0    0    0  501  0.00000000000E+00  0.00000000000E+00  0.67285443253E+03  0.67285443255E+03  0.50400001928E-02 0. -1.
        1   -1    0    0  501    0  0.00000000000E+00  0.00000000000E+00 -0.12067767724E+04  0.12067767724E+04  0.50400001928E-02 0.  1.
    10030    2    1    2    0    0  0.00000000000E+00  0.00000000000E+00 -0.53392233990E+03  0.18796312050E+04  0.18022043174E+04 0.  0.
        2    1    3    3  502    0 -0.20358768753E+03  0.48447295987E+03  0.49648661438E+03  0.72295294012E+03  0.25500000920E-02 0. -1.
       -2    1    3    3    0  502  0.20358768753E+03 -0.48447295987E+03 -0.10304089543E+04  0.11566782649E+04  0.25500000920E-02 0.  1.
</event>
<event>
 5   0  0.2054876E-05  0.1798980E+04  0.7818609E-02  0.8706842E-01
        1   -1    0    0  501    0  0.00000000000E+00  0.00000000000E+00  0.83694776863E+03  0.83694776864E+03  0.50400001928E-02 0. -1.
       -1   -1    0    0    0  501  0.00000000000E+00  0.00000000000E+00 -0.96670619632E+03  0.96670619633E+03  0.50400001928E-02 0.  1.
    10030    2    1    2    0    0  0.00000000000E+00  0.00000000000E+00 -0.12975842769E+03  0.18036539650E+04  0.17989803712E+04 0.  0.
        5    1    3    3  502    0 -0.13180377558E+03  0.10966108271E+02 -0.95689166031E+03  0.96600011923E+03  0.46999998093E+01 0.  1.
       -5    1    3    3    0  502  0.13180377558E+03 -0.10966108271E+02  0.82713323262E+03  0.83765384574E+03  0.46999998093E+01 0. -1.
</event>
<event>
 5   0  0.4015729E-05  0.1798901E+04  0.7818609E-02  0.8706884E-01
        2   -1    0    0  501    0  0.00000000000E+00  0.00000000000E+00  0.91002390703E+03  0.91002390703E+03  0.25500000920E-02 0.  1.
       -2   -1    0    0    0  501  0.00000000000E+00  0.00000000000E+00 -0.88900018574E+03  0.88900018575E+03  0.25500000920E-02 0. -1.
    10030    2    1    2    0    0  0.00000000000E+00  0.00000000000E+00  0.21023721285E+02  0.17990240928E+04  0.17989012451E+04 0.  0.
        2    1    3    3  502    0 -0.76747612470E+03 -0.35023376137E+03  0.32250773625E+03  0.90315808668E+03  0.25500000920E-02 0.  1.
       -2    1    3    3    0  502  0.76747612470E+03  0.35023376137E+03 -0.30148401497E+03  0.89586600610E+03  0.25500000920E-02 0. -1.
</event>
<event>
 5   0  0.3984648E-05  0.1800124E+04  0.7818609E-02  0.8706233E-01
       -2   -1    0    0    0  501  0.00000000000E+00  0.00000000000E+00  0.46412757734E+03  0.46412757735E+03  0.25500000920E-02 0. -1.
        2   -1    0    0  501    0  0.00000000000E+00  0.00000000000E+00 -0.17454509919E+04  0.17454509919E+04  0.25500000920E-02 0.  1.
    10030    2    1    2    0    0  0.00000000000E+00  0.00000000000E+00 -0.12813234146E+04  0.22095785693E+04  0.18001243738E+04 0.  0.
        1    1    3    3  502    0 -0.79953304884E+03 -0.42753716500E+02 -0.11453114667E+04  0.13974331227E+04  0.50400001928E-02 0.  1.
       -1    1    3    3    0  502  0.79953304884E+03  0.42753716500E+02 -0.13601194786E+03  0.81214544661E+03  0.50400001928E-02 0. -1.
</event>
<event>
 5   0  0.2001811E-05  0.1810113E+04  0.7818609E-02  0.8700940E-01
        1   -1    0    0  501    0  0.00000000000E+00  0.00000000000E+00  0.11695736763E+04  0.11695736763E+04  0.50400001928E-02 0.  1.
       -1   -1    0    0    0  501  0.00000000000E+00  0.00000000000E+00 -0.70036408442E+03  0.70036408444E+03  0.50400001928E-02 0. -1.
    10030    2    1    2    0    0  0.00000000000E+00  0.00000000000E+00  0.46920959186E+03  0.18699377607E+04  0.18101131423E+04 0.  0.
        2    1    3    3  502    0  0.34129069802E+03  0.23259987015E+03  0.10665440324E+04  0.11437212131E+04  0.25500000920E-02 0.  1.
       -2    1    3    3    0  502 -0.34129069802E+03 -0.23259987015E+03 -0.59733444058E+03  0.72621654764E+03  0.25500000920E-02 0. -1.
</event>
<event>
 5   0  0.1960300E-05  0.1799992E+04  0.7818609E-02  0.8706304E-01
        1   -1    0    0  501    0  0.00000000000E+00  0.00000000000E+00  0.13950949091E+04  0.13950949091E+04  0.50400001928E-02 0. -1.
       -1   -1    0    0    0  501  0.00000000000E+00  0.00000000000E+00 -0.58060049156E+03  0.58060049158E+03  0.50400001928E-02 0.  1.
    10030    2    1    2    0    0  0.00000000000E+00  0.00000000000E+00  0.81449441749E+03  0.19756954006E+04  0.17999919889E+04 0.  0.
        3    1    3    3  502    0  0.10547334609E+03 -0.25441370848E+03 -0.53321077601E+03  0.60013723735E+03  0.10100000352E+00 0.  1.
       -3    1    3    3    0  502 -0.10547334609E+03  0.25441370848E+03  0.13477051935E+04  0.13755581633E+04  0.10100000352E+00 0. -1.
</event>
<event>
 5   0  0.4015729E-05  0.1802189E+04  0.7818609E-02  0.8705136E-01
       -2   -1    0    0    0  501  0.00000000000E+00  0.00000000000E+00  0.67280289895E+03  0.67280289896E+03  0.25500000920E-02 0.  1.
        2   -1    0    0  501    0  0.00000000000E+00  0.00000000000E+00 -0.12068482387E+04  0.12068482387E+04  0.25500000920E-02 0. -1.
    10030    2    1    2    0    0  0.00000000000E+00  0.00000000000E+00 -0.53404533970E+03  0.18796511376E+04  0.18021886622E+04 0.  0.
        2    1    3    3  502    0  0.51189055346E+03 -0.14519195455E+03 -0.10255071207E+04  0.11553257104E+04  0.25500000920E-02 0. -1.
       -2    1    3    3    0  502 -0.51189055346E+03  0.14519195455E+03  0.49146178100E+03  0.72432542726E+03  0.25500000920E-02 0.  1.
</event>
<event>
 5   0  0.2038338E-05  0.1804579E+04  0.7818609E-02  0.8703868E-01
       -1   -1    0    0    0  501  0.00000000000E+00  0.00000000000E+00  0.72332046399E+03  0.72332046401E+03  0.50400001928E-02 0. -1.
        1   -1    0    0  501    0  0.00000000000E+00  0.00000000000E+00 -0.11255405807E+04  0.11255405807E+04  0.50400001928E-02 0.  1.
    10030    2    1    2    0    0  0.00000000000E+00  0.00000000000E+00 -0.40222011673E+03  0.18488610447E+04  0.18045792142E+04 0.  0.
        1    1    3    3  502    0 -0.72568112737E+03  0.47779176639E+03 -0.45045097857E+03  0.97867469303E+03  0.50400001928E-02 0.  1.
       -1    1    3    3    0  502  0.72568112737E+03 -0.47779176639E+03  0.48230861843E+02  0.87018635171E+03  0.50400001928E-02 0. -1.
</event>
<event>
 5   0  0.2038338E-05  0.1802102E+04  0.7818609E-02  0.8705183E-01
       -1   -1    0    0    0  501  0.00000000000E+00  0.00000000000E+00  0.49637873769E+03  0.49637873772E+03  0.50400001928E-02 0. -1.
        1   -1    0    0  501    0  0.00000000000E+00  0.00000000000E+00 -0.16356310873E+04  0.16356310873E+04  0.50400001928E-02 0.  1.
    10030    2    1    2    0    0  0.00000000000E+00  0.00000000000E+00 -0.11392523496E+04  0.21320098251E+04  0.18021015449E+04 0.  0.
        1    1    3    3  502    0  0.84486587757E+03  0.15442781429E+03 -0.24726180118E+03  0.89374755903E+03  0.50400001928E-02 0. -1.
       -1    1    3    3    0  502 -0.84486587757E+03 -0.15442781429E+03 -0.89199054845E+03  0.12382622660E+04  0.50400001928E-02 0.  1.
</event>
<event>
 5   0  0.2001811E-05  0.1792645E+04  0.7818609E-02  0.8710220E-01
       -1   -1    0    0    0  501  0.00000000000E+00  0.00000000000E+00  0.89022068514E+03  0.89022068516E+03  0.50400001928E-02 0.  1.
        1   -1    0    0  501    0  0.00000000000E+00  0.00000000000E+00 -0.90246646099E+03  0.90246646101E+03  0.50400001928E-02 0. -1.
    10030    2    1    2    0    0  0.00000000000E+00  0.00000000000E+00 -0.12245775850E+02  0.17926871462E+04  0.17926453205E+04 0.  0.
        2    1    3    3  502    0 -0.32556231013E+03  0.74585220273E+03 -0.38177508057E+03  0.89890963853E+03  0.25500000920E-02 0. -1.
       -2    1    3    3    0  502  0.32556231013E+03 -0.74585220273E+03  0.36952930472E+03  0.89377750763E+03  0.25500000920E-02 0.  1.
</event>
<event>
 5   0  0.3909859E-05  0.1791766E+04  0.7818609E-02  0.8710690E-01
       -2   -1    0    0    0  501  0.00000000000E+00  0.00000000000E+00  0.69052856773E+03  0.69052856774E+03  0.25500000920E-02 0. -1.
        2   -1    0    0  501    0  0.00000000000E+00  0.00000000000E+00 -0.11623073603E+04  0.11623073603E+04  0.25500000920E-02 0.  1.
    10030    2    1    2    0    0  0.00000000000E+00  0.00000000000E+00 -0.47177879258E+03  0.18528359281E+04  0.17917660972E+04 0.  0.
        4    1    3    3  502    0  0.57033507549E+03  0.64379628198E+01 -0.95029170298E+03  0.11083228227E+04  0.12699999809E+01 0.  1.
       -4    1    3    3    0  502 -0.57033507549E+03 -0.64379628198E+01  0.47851291040E+03  0.74451310534E+03  0.12699999809E+01 0. -1.
</event>
<event>
 5   0  0.1446750E-05  0.1797934E+04  0.7818609E-02  0.8707399E-01
       -4   -1    0    0    0  501  0.00000000000E+00  0.00000000000E+00  0.86541843790E+03  0.86541936976E+03  0.12699999809E+01 0.  1.
        4   -1    0    0  501    0  0.00000000000E+00  0.00000000000E+00 -0.93381386150E+03  0.93381472511E+03  0.12699999809E+01 0. -1.
    10030    2    1    2    0    0  0.00000000000E+00  0.00000000000E+00 -0.68395423600E+02  0.17992340949E+04  0.17979336457E+04 0.  0.
        2    1    3    3  502    0  0.60465398899E+03  0.10068799049E+03  0.62384678822E+03  0.87460238567E+03  0.25500000920E-02 0.  1.
       -2    1    3    3    0  502 -0.60465398899E+03 -0.10068799049E+03 -0.69224221182E+03  0.92463170920E+03  0.25500000920E-02 0. -1.
</event>
<event>
 5   0  0.3909859E-05  0.1796541E+04  0.7818609E-02  0.8708141E-01
       -2   -1    0    0    0  501  0.00000000000E+00  0.00000000000E+00  0.11979525873E+04  0.11979525873E+04  0.25500000920E-02 0. -1.
        2   -1    0    0  501    0  0.00000000000E+00  0.00000000000E+00 -0.67355725121E+03  0.67355725121E+03  0.25500000920E-02 0.  1.
    10030    2    1    2    0    0  0.00000000000E+00  0.00000000000E+00  0.52439533607E+03  0.18715098385E+04  0.17965407335E+04 0.  0.
        4    1    3    3  502    0 -0.75439807482E+03  0.48733354659E+03  0.27955420887E+03  0.94061820603E+03  0.12699999809E+01 0.  1.
       -4    1    3    3    0  502  0.75439807482E+03 -0.48733354659E+03  0.24484112721E+03  0.93089163246E+03  0.12699999809E+01 0. -1.
</event>
<event>
 5   0  0.3984648E-05  0.1799098E+04  0.7818609E-02  0.8706779E-01
       -2   -1    0    0    0  501  0.00000000000E+00  0.00000000000E+00  0.56326700731E+03  0.56326700732E+03  0.25500000920E-02 0.  1.
        2   -1    0    0  501    0  0.00000000000E+00  0.00000000000E+00 -0.14365977151E+04  0.14365977151E+04  0.25500000920E-02 0. -1.
    10030    2    1    2    0    0  0.00000000000E+00  0.00000000000E+00 -0.87333070783E+03  0.19998647225E+04  0.17990976580E+04 0.  0.
        1    1    3    3  502    0 -0.59435653109E+03 -0.64161548963E+03 -0.20281305608E+03  0.89781025742E+03  0.50400001928E-02 0. -1.
       -1    1    3    3    0  502  0.59435653109E+03  0.64161548963E+03 -0.67051765176E+03  0.11020544650E+04  0.50400001928E-02 0.  1.
</event>
<event>
 5   0  0.3993393E-05  0.1797735E+04  0.7818609E-02  0.8707505E-01
       -2   -1    0    0    0  501  0.00000000000E+00  0.00000000000E+00  0.67557478072E+03  0.67557478072E+03  0.25500000920E-02 0. -1.
        2   -1    0    0  501    0  0.00000000000E+00  0.00000000000E+00 -0.11959634586E+04  0.11959634586E+04  0.25500000920E-02 0.  1.
    10030    2    1    2    0    0  0.00000000000E+00  0.00000000000E+00 -0.52038867788E+03  0.18715382393E+04  0.17977349652E+04 0.  0.
        5    1    3    3  502    0  0.87412614096E+03 -0.11722644796E+02 -0.47783859011E+03  0.99628597245E+03  0.46999998093E+01 0.  1.
       -5    1    3    3    0  502 -0.87412614096E+03  0.11722644796E+02 -0.42550087767E+02  0.87525226688E+03  0.46999998093E+01 0. -1.
</event>
<event>
 5   0  0.3983176E-05  0.1799906E+04  0.7818609E-02  0.8706350E-01
       -2   -1    0    0    0  501  0.00000000000E+00  0.00000000000E+00  0.50237494452E+03  0.50237494453E+03  0.25500000920E-02 0.  1.
        2   -1    0    0  501    0  0.00000000000E+00  0.00000000000E+00 -0.16121727541E+04  0.16121727541E+04  0.25500000920E-02 0. -1.
    10030    2    1    2    0    0  0.00000000000E+00  0.00000000000E+00 -0.11097978096E+04  0.21145476986E+04  0.17999057730E+04 0.  0.
        3    1    3    3  502    0 -0.28596244007E+03 -0.19553212385E+03  0.42090659684E+03  0.54513273801E+03  0.10100000352E+00 0.  1.
       -3    1    3    3    0  502  0.28596244007E+03  0.19553212385E+03 -0.15307044064E+04  0.15694149606E+04  0.10100000352E+00 0. -1.
</event>
<event>
 5   0  0.3909859E-05  0.1800469E+04  0.7818609E-02  0.8706050E-01
        2   -1    0    0  501    0  0.00000000000E+00  0.00000000000E+00  0.11191086877E+04  0.11191086877E+04  0.25500000920E-02 0. -1.
       -2   -1    0    0    0  501  0.00000000000E+00  0.00000000000E+00 -0.72416791425E+03  0.72416791425E+03  0.25500000920E-02 0.  1.
    10030    2    1    2    0    0  0.00000000000E+00  0.00000000000E+00  0.39494077344E+03  0.18432766019E+04  0.18004694990E+04 0.  0.
        4    1    3    3  502    0  0.62183703634E+03  0.34777984336E+03 -0.36587494115E+03  0.80093583056E+03  0.12699999809E+01 0.  1.
       -4    1    3    3    0  502 -0.62183703634E+03 -0.34777984336E+03  0.76081571459E+03  0.10423407714E+04  0.12699999809E+01 0. -1.
</event>
<event>
 5   0  0.1960300E-05  0.1770517E+04  0.7818609E-02  0.8722137E-01
        1   -1    0    0  501    0  0.00000000000E+00  0.00000000000E+00  0.71066554518E+03  0.71066554520E+03  0.50400001928E-02 0. -1.
       -1   -1    0    0    0  501  0.00000000000E+00  0.00000000000E+00 -0.11027444121E+04  0.11027444121E+04  0.50400001928E-02 0.  1.
    10030    2    1    2    0    0  0.00000000000E+00  0.00000000000E+00 -0.39207886694E+03  0.18134099573E+04  0.17705168272E+04 0.  0.
        3    1    3    3  502    0  0.55973086601E+03  0.53908492467E+03 -0.63030566184E+03  0.10005980391E+04  0.10100000352E+00 0.  1.
       -3    1    3    3    0  502 -0.55973086601E+03 -0.53908492467E+03  0.23822679490E+03  0.81281191821E+03  0.10100000352E+00 0. -1.
</event>
<event>
 5   0  0.2001811E-05  0.1772745E+04  0.7818609E-02  0.8720929E-01
        1   -1    0    0  501    0  0.00000000000E+00  0.00000000000E+00  0.76265212553E+03  0.76265212555E+03  0.50400001928E-02 0. -1.
       -1   -1    0    0    0  501  0.00000000000E+00  0.00000000000E+00 -0.10301636801E+04  0.10301636801E+04  0.50400001928E-02 0.  1.
    10030    2    1    2    0    0  0.00000000000E+00  0.00000000000E+00 -0.26751155458E+03  0.17928158057E+04  0.17727453515E+04 0.  0.
        2    1    3    3  502    0  0.85848741887E+03  0.18766018201E+03 -0.25099726641E+03  0.91390186564E+03  0.25500000920E-02 0.  1.
       -2    1    3    3    0  502 -0.85848741887E+03 -0.18766018201E+03 -0.16514288174E+02  0.87891394004E+03  0.25500000920E-02 0. -1.
</event>
<event>
 5   0  0.2054876E-05  0.1800968E+04  0.7818609E-02  0.8705785E-01
        1   -1    0    0  501    0  0.00000000000E+00  0.00000000000E+00  0.65446974925E+03  0.65446974927E+03  0.50400001928E-02 0.  1.
       -1   -1    0    0    0  501  0.00000000000E+00  0.00000000000E+00 -0.12389742265E+04  0.12389742265E+04  0.50400001928E-02 0. -1.
    10030    2    1    2    0    0  0.00000000000E+00  0.00000000000E+00 -0.58450447727E+03  0.18934439758E+04  0.18009676859E+04 0.  0.
        5    1    3    3  502    0 -0.37847207216E+03 -0.56074777535E+03  0.33254394861E+03  0.75384795862E+03  0.46999998093E+01 0.  1.
       -5    1    3    3    0  502  0.37847207216E+03  0.56074777535E+03 -0.91704842588E+03  0.11395960172E+04  0.46999998093E+01 0. -1.
</event>
<event>
 5   0  0.3909859E-05  0.1800384E+04  0.7818609E-02  0.8706095E-01
       -2   -1    0    0    0  501  0.00000000000E+00  0.00000000000E+00  0.14039997906E+04  0.14039997906E+04  0.25500000920E-02 0.  1.
        2   -1    0    0  501    0  0.00000000000E+00  0.00000000000E+00 -0.57716925124E+03  0.57716925125E+03  0.25500000920E-02 0. -1.
    10030    2    1    2    0    0  0.00000000000E+00  0.00000000000E+00  0.82683053933E+03  0.19811690418E+04  0.18003838567E+04 0.  0.
        4    1    3    3  502    0  0.61702902357E+03  0.33899516042E+03 -0.20389817099E+03  0.73295198462E+03  0.12699999809E+01 0. -1.
       -4    1    3    3    0  502 -0.61702902357E+03 -0.33899516042E+03  0.10307287103E+04  0.12482170572E+04  0.12699999809E+01 0.  1.
</event>
<event>
 5   0  0.2038338E-05  0.1800775E+04  0.7818609E-02  0.8705888E-01
        1   -1    0    0  501    0  0.00000000000E+00  0.00000000000E+00  0.16198677257E+04  0.16198677257E+04  0.50400001928E-02 0.  1.
       -1   -1    0    0    0  501  0.00000000000E+00  0.00000000000E+00 -0.50047129655E+03  0.50047129657E+03  0.50400001928E-02 0. -1.
    10030    2    1    2    0    0  0.00000000000E+00  0.00000000000E+00  0.11193964292E+04  0.21203390223E+04  0.18007746122E+04 0.  0.
        1    1    3    3  502    0 -0.49435194878E+03  0.59947887397E+03  0.24066075009E+02  0.77739175812E+03  0.50400001928E-02 0. -1.
       -1    1    3    3    0  502  0.49435194878E+03 -0.59947887397E+03  0.10953303542E+04  0.13429472642E+04  0.50400001928E-02 0.  1.
</event>
<event>
 5   0  0.2054876E-05  0.1799005E+04  0.7818609E-02  0.8706829E-01
       -1   -1    0    0    0  501  0.00000000000E+00  0.00000000000E+00  0.49149780855E+03  0.49149780857E+03  0.50400001928E-02 0. -1.
        1   -1    0    0  501    0  0.00000000000E+00  0.00000000000E+00 -0.16462021555E+04  0.16462021555E+04  0.50400001928E-02 0.  1.
    10030    2    1    2    0    0  0.00000000000E+00  0.00000000000E+00 -0.11547043469E+04  0.21376999640E+04  0.17990050049E+04 0.  0.
        5    1    3    3  502    0 -0.99971091184E+02 -0.30681689522E+03 -0.15750386862E+04  0.16077623516E+04  0.46999998093E+01 0.  1.
       -5    1    3    3    0  502  0.99971091184E+02  0.30681689522E+03  0.42033433929E+03  0.52993761241E+03  0.46999998093E+01 0. -1.
</event>
<event>
 5   0  0.2038338E-05  0.1824240E+04  0.7818609E-02  0.8693514E-01
       -1   -1    0    0    0  501  0.00000000000E+00  0.00000000000E+00  0.11369459769E+04  0.11369459769E+04  0.50400001928E-02 0. -1.
        1   -1    0    0  501    0  0.00000000000E+00  0.00000000000E+00 -0.73175231958E+03  0.73175231960E+03  0.50400001928E-02 0.  1.
    10030    2    1    2    0    0  0.00000000000E+00  0.00000000000E+00  0.40519365735E+03  0.18686982965E+04  0.18242399578E+04 0.  0.
        1    1    3    3  502    0  0.70155773469E+03 -0.46775771576E+03  0.55889876285E+03  0.10116068223E+04  0.50400001928E-02 0. -1.
       -1    1    3    3    0  502 -0.70155773469E+03  0.46775771576E+03 -0.15370510550E+03  0.85709147426E+03  0.50400001928E-02 0.  1.
</event>
<event>
 5   0  0.2001811E-05  0.1794680E+04  0.7818609E-02  0.8709134E-01
        1   -1    0    0  501    0  0.00000000000E+00  0.00000000000E+00  0.66409027937E+03  0.66409027939E+03  0.50400001928E-02 0. -1.
       -1   -1    0    0    0  501  0.00000000000E+00  0.00000000000E+00 -0.12125139573E+04  0.12125139573E+04  0.50400001928E-02 0.  1.
    10030    2    1    2    0    0  0.00000000000E+00  0.00000000000E+00 -0.54842367788E+03  0.18766042366E+04  0.17946796178E+04 0.  0.
        2    1    3    3  502    0  0.31582733648E+03  0.62794090967E+03  0.30907082274E+03  0.76784208401E+03  0.25500000920E-02 0. -1.
       -2    1    3    3    0  502 -0.31582733648E+03 -0.62794090967E+03 -0.85749450063E+03  0.11087621526E+04  0.25500000920E-02 0.  1.
</event>
<event>
 5   0  0.3993393E-05  0.1802728E+04  0.7818609E-02  0.8704850E-01
        2   -1    0    0  501    0  0.00000000000E+00  0.00000000000E+00  0.68502442610E+03  0.68502442611E+03  0.25500000920E-02 0. -1.
       -2   -1    0    0    0  501  0.00000000000E+00  0.00000000000E+00 -0.11860261136E+04  0.11860261136E+04  0.25500000920E-02 0.  1.
    10030    2    1    2    0    0  0.00000000000E+00  0.00000000000E+00 -0.50100168747E+03  0.18710505397E+04  0.18027277751E+04 0.  0.
        5    1    3    3  502    0 -0.57686387319E+03  0.35542323178E+03  0.36644924229E+03  0.77032768291E+03  0.46999998093E+01 0. -1.
       -5    1    3    3    0  502  0.57686387319E+03 -0.35542323178E+03 -0.86745092977E+03  0.11007228568E+04  0.46999998093E+01 0.  1.
</event>
<event>
 5   0  0.3909859E-05  0.1797718E+04  0.7818609E-02  0.8707514E-01
        2   -1    0    0  501    0  0.00000000000E+00  0.00000000000E+00  0.19390151615E+04  0.19390151615E+04  0.25500000920E-02 0.  1.
       -2   -1    0    0    0  501  0.00000000000E+00  0.00000000000E+00 -0.41667951111E+03  0.41667951112E+03  0.25500000920E-02 0. -1.
    10030    2    1    2    0    0  0.00000000000E+00  0.00000000000E+00  0.15223356503E+04  0.23556946726E+04  0.17977184313E+04 0.  0.
        4    1    3    3  502    0  0.71235499850E+03 -0.28150175143E+03  0.14479667631E+03  0.77952586251E+03  0.12699999809E+01 0. -1.
       -4    1    3    3    0  502 -0.71235499850E+03  0.28150175143E+03  0.13775389740E+04  0.15761688101E+04  0.12699999809E+01 0.  1.
</event>
<event>
 5   0  0.1960300E-05  0.1798001E+04  0.7818609E-02  0.8707363E-01
        1   -1    0    0  501    0  0.00000000000E+00  0.00000000000E+00  0.24575255216E+04  0.24575255216E+04  0.50400001928E-02 0. -1.
       -1   -1    0    0    0  501  0.00000000000E+00  0.00000000000E+00 -0.32886819968E+03  0.32886819972E+03  0.50400001928E-02 0.  1.
    10030    2    1    2    0    0  0.00000000000E+00  0.00000000000E+00  0.21286573219E+04  0.27863937213E+04  0.17980011057E+04 0.  0.
        3    1    3    3  502    0  0.21175724757E+03  0.43715666455E+03  0.22366516712E+04  0.22887895906E+04  0.10100000352E+00 0. -1.
       -3    1    3    3    0  502 -0.21175724757E+03 -0.43715666455E+03 -0.10799434931E+03  0.49760413076E+03  0.10100000352E+00 0.  1.
</event>
<event>
 5   0  0.2001811E-05  0.1801388E+04  0.7818609E-02  0.8705561E-01
        1   -1    0    0  501    0  0.00000000000E+00  0.00000000000E+00  0.11336859263E+04  0.11336859263E+04  0.50400001928E-02 0.  1.
       -1   -1    0    0    0  501  0.00000000000E+00  0.00000000000E+00 -0.71558629475E+03  0.71558629477E+03  0.50400001928E-02 0. -1.
    10030    2    1    2    0    0  0.00000000000E+00  0.00000000000E+00  0.41809963155E+03  0.18492722211E+04  0.18013884772E+04 0.  0.
        2    1    3    3  502    0  0.15083791890E+03 -0.37662576027E+03 -0.61647183126E+03  0.73799495921E+03  0.25500000920E-02 0. -1.
       -2    1    3    3    0  502 -0.15083791890E+03  0.37662576027E+03  0.10345714628E+04  0.11112772619E+04  0.25500000920E-02 0.  1.
</event>
<event>
 5   0  0.3909859E-05  0.1802249E+04  0.7818609E-02  0.8705105E-01
       -2   -1    0    0    0  501  0.00000000000E+00  0.00000000000E+00  0.91621725873E+03  0.91621725874E+03  0.25500000920E-02 0. -1.
        2   -1    0    0  501    0  0.00000000000E+00  0.00000000000E+00 -0.88627989900E+03  0.88627989900E+03  0.25500000920E-02 0.  1.
    10030    2    1    2    0    0  0.00000000000E+00  0.00000000000E+00  0.29937359737E+02  0.18024971577E+04  0.18022485284E+04 0.  0.
        4    1    3    3  502    0 -0.23821278290E+03  0.81341685898E+03  0.32100273966E+03  0.90633144499E+03  0.12699999809E+01 0. -1.
       -4    1    3    3    0  502  0.23821278290E+03 -0.81341685898E+03 -0.29106537992E+03  0.89616571275E+03  0.12699999809E+01 0.  1.
</event>
<event>
 5   0  0.2038338E-05  0.1793743E+04  0.7818609E-02  0.8709634E-01
       -1   -1    0    0    0  501  0.00000000000E+00  0.00000000000E+00  0.59337546308E+03  0.59337546310E+03  0.50400001928E-02 0. -1.
        1   -1    0    0  501    0  0.00000000000E+00  0.00000000000E+00 -0.13555974677E+04  0.13555974677E+04  0.50400001928E-02 0.  1.
    10030    2    1    2    0    0  0.00000000000E+00  0.00000000000E+00 -0.76222200459E+03  0.19489729308E+04  0.17937427632E+04 0.  0.
        1    1    3    3  502    0  0.32570328810E+03  0.10587628958E+03  0.51952882719E+03  0.62225607501E+03  0.50400001928E-02 0. -1.
       -1    1    3    3    0  502 -0.32570328810E+03 -0.10587628958E+03 -0.12817508318E+04  0.13267168558E+04  0.50400001928E-02 0.  1.
</event>
<event>
 5   0  0.3984648E-05  0.1806468E+04  0.7818609E-02  0.8702868E-01
        2   -1    0    0  501    0  0.00000000000E+00  0.00000000000E+00  0.16817188614E+04  0.16817188614E+04  0.25500000920E-02 0. -1.
       -2   -1    0    0    0  501  0.00000000000E+00  0.00000000000E+00 -0.48511764688E+03  0.48511764689E+03  0.25500000920E-02 0.  1.
    10030    2    1    2    0    0  0.00000000000E+00  0.00000000000E+00  0.11966012145E+04  0.21668365083E+04  0.18064678207E+04 0.  0.
        1    1    3    3  502    0 -0.85798244210E+03  0.22535773398E+03  0.39434701523E+03  0.97078810647E+03  0.50400001928E-02 0.  1.
       -1    1    3    3    0  502  0.85798244210E+03 -0.22535773398E+03  0.80225419931E+03  0.11960484018E+04  0.50400001928E-02 0. -1.
</event>
<event>
 5   0  0.2038338E-05  0.1790799E+04  0.7818609E-02  0.8711208E-01
        1   -1    0    0  501    0  0.00000000000E+00  0.00000000000E+00  0.89734467712E+03  0.89734467714E+03  0.50400001928E-02 0. -1.
       -1   -1    0    0    0  501  0.00000000000E+00  0.00000000000E+00 -0.89345812684E+03  0.89345812686E+03  0.50400001928E-02 0.  1.
    10030    2    1    2    0    0  0.00000000000E+00  0.00000000000E+00  0.38865502808E+01  0.17908028040E+04  0.17907985865E+04 0.  0.
        1    1    3    3  502    0 -0.45130905698E+03  0.55294624534E+02 -0.76942261501E+03  0.89372731911E+03  0.50400001928E-02 0.  1.
       -1    1    3    3    0  502  0.45130905698E+03 -0.55294624534E+02  0.77330916529E+03  0.89707548488E+03  0.50400001928E-02 0. -1.
</event>
<event>
 5   0  0.2038338E-05  0.1801612E+04  0.7818609E-02  0.8705443E-01
       -1   -1    0    0    0  501  0.00000000000E+00  0.00000000000E+00  0.48785464553E+03  0.48785464556E+03  0.50400001928E-02 0. -1.
        1   -1    0    0  501    0  0.00000000000E+00  0.00000000000E+00 -0.16633058467E+04  0.16633058467E+04  0.50400001928E-02 0.  1.
    10030    2    1    2    0    0  0.00000000000E+00  0.00000000000E+00 -0.11754512012E+04  0.21511604923E+04  0.18016120385E+04 0.  0.
        1    1    3    3  502    0 -0.12338973569E+03  0.16467536693E+03  0.45941581833E+03  0.50339437572E+03  0.50400001928E-02 0. -1.
       -1    1    3    3    0  502  0.12338973569E+03 -0.16467536693E+03 -0.16348670195E+04  0.16477661166E+04  0.50400001928E-02 0.  1.
</event>
<event>
 5   0  0.3983176E-05  0.1807175E+04  0.7818609E-02  0.8702493E-01
        2   -1    0    0  501    0  0.00000000000E+00  0.00000000000E+00  0.12791822040E+04  0.12791822040E+04  0.25500000920E-02 0. -1.
       -2   -1    0    0    0  501  0.00000000000E+00  0.00000000000E+00 -0.63827517087E+03  0.63827517088E+03  0.25500000920E-02 0.  1.
    10030    2    1    2    0    0  0.00000000000E+00  0.00000000000E+00  0.64090703311E+03  0.19174573749E+04  0.18071748558E+04 0.  0.
        3    1    3    3  502    0 -0.17625657049E+03  0.85060892995E+03  0.56541216398E+02  0.87051642701E+03  0.10100000352E+00 0.  1.
       -3    1    3    3    0  502  0.17625657049E+03 -0.85060892995E+03  0.58436581672E+03  0.10469409479E+04  0.10100000352E+00 0. -1.
</event>
<event>
 5   0  0.2054876E-05  0.1800513E+04  0.7818609E-02  0.8706027E-01
       -1   -1    0    0    0  501  0.00000000000E+00  0.00000000000E+00  0.77398657461E+03  0.77398657463E+03  0.50400001928E-02 0. -1.
        1   -1    0    0  501    0  0.00000000000E+00  0.00000000000E+00 -0.10471267453E+04  0.10471267453E+04  0.50400001928E-02 0.  1.
    10030    2    1    2    0    0  0.00000000000E+00  0.00000000000E+00 -0.27314017068E+03  0.18211133199E+04  0.18005133077E+04 0.  0.
        5    1    3    3  502    0  0.60335281037E+03  0.25278483974E+03 -0.76211613596E+03  0.10043793525E+04  0.46999998093E+01 0.  1.
       -5    1    3    3    0  502 -0.60335281037E+03 -0.25278483974E+03  0.48897596528E+03  0.81673396746E+03  0.46999998093E+01 0. -1.
</event>
<event>
 5   0  0.3983176E-05  0.1806252E+04  0.7818609E-02  0.8702982E-01
       -2   -1    0    0    0  501  0.00000000000E+00  0.00000000000E+00  0.47311370125E+03  0.47311370126E+03  0.25500000920E-02 0. -1.
        2   -1    0    0  501    0  0.00000000000E+00  0.00000000000E+00 -0.17239754496E+04  0.17239754496E+04  0.25500000920E-02 0.  1.
    10030    2    1    2    0    0  0.00000000000E+00  0.00000000000E+00 -0.12508617483E+04  0.21970891508E+04  0.18062518161E+04 0.  0.
        3    1    3    3  502    0  0.73486107213E+03 -0.17152602629E+03 -0.12289742501E+04  0.14421579978E+04  0.10100000352E+00 0.  1.
       -3    1    3    3    0  502 -0.73486107213E+03  0.17152602629E+03 -0.21887498221E+02  0.75493115302E+03  0.10100000352E+00 0. -1.
</event>
<event>
 5   0  0.3909859E-05  0.1801234E+04  0.7818609E-02  0.8705643E-01
       -2   -1    0    0    0  501  0.00000000000E+00  0.00000000000E+00  0.11091163776E+04  0.11091163776E+04  0.25500000920E-02 0. -1.
        2   -1    0    0  501    0  0.00000000000E+00  0.00000000000E+00 -0.73131316453E+03  0.73131316453E+03  0.25500000920E-02 0.  1.
    10030    2    1    2    0    0  0.00000000000E+00  0.00000000000E+00  0.37780321309E+03  0.18404295422E+04  0.18012344744E+04 0.  0.
        4    1    3    3  502    0  0.34756048897E+03 -0.13337806167E+03  0.10268207775E+04  0.10922227441E+04  0.12699999809E+01 0. -1.
       -4    1    3    3    0  502 -0.34756048897E+03  0.13337806167E+03 -0.64901756439E+03  0.74820679803E+03  0.12699999809E+01 0.  1.
</event>
<event>
 5   0  0.3983176E-05  0.1798809E+04  0.7818609E-02  0.8706933E-01
        2   -1    0    0  501    0  0.00000000000E+00  0.00000000000E+00  0.18793262562E+04  0.18793262562E+04  0.25500000920E-02 0. -1.
       -2   -1    0    0    0  501  0.00000000000E+00  0.00000000000E+00 -0.43043527514E+03  0.43043527515E+03  0.25500000920E-02 0.  1.
    10030    2    1    2    0    0  0.00000000000E+00  0.00000000000E+00  0.14488909811E+04  0.23097615314E+04  0.17988088438E+04 0.  0.
        3    1    3    3  502    0  0.27045368931E+03 -0.28011492820E+03  0.17654920053E+04  0.18079191359E+04  0.10100000352E+00 0. -1.
       -3    1    3    3    0  502 -0.27045368931E+03  0.28011492820E+03 -0.31660102426E+03  0.50184239540E+03  0.10100000352E+00 0.  1.
</event>
<event>
 5   0  0.3984648E-05  0.1798873E+04  0.7818609E-02  0.8706899E-01
       -2   -1    0    0    0  501  0.00000000000E+00  0.00000000000E+00  0.33118058136E+03  0.33118058137E+03  0.25500000920E-02 0. -1.
        2   -1    0    0  501    0  0.00000000000E+00  0.00000000000E+00 -0.24427334415E+04  0.24427334415E+04  0.25500000920E-02 0.  1.
    10030    2    1    2    0    0  0.00000000000E+00  0.00000000000E+00 -0.21115528601E+04  0.27739140229E+04  0.17988728485E+04 0.  0.
        1    1    3    3  502    0  0.65094389747E+03 -0.51750183252E+03 -0.52730851217E+03  0.98467780078E+03  0.50400001928E-02 0.  1.
       -1    1    3    3    0  502 -0.65094389747E+03  0.51750183252E+03 -0.15842443480E+04  0.17892362221E+04  0.50400001928E-02 0. -1.
</event>
<event>
 5   0  0.2001811E-05  0.1798433E+04  0.7818609E-02  0.8707133E-01
       -1   -1    0    0    0  501  0.00000000000E+00  0.00000000000E+00  0.62107868226E+03  0.62107868228E+03  0.50400001928E-02 0. -1.
        1   -1    0    0  501    0  0.00000000000E+00  0.00000000000E+00 -0.13019128133E+04  0.13019128133E+04  0.50400001928E-02 0.  1.
    10030    2    1    2    0    0  0.00000000000E+00  0.00000000000E+00 -0.68083413106E+03  0.19229914956E+04  0.17984329785E+04 0.  0.
        2    1    3    3  502    0 -0.72747366586E+03  0.35140947874E+03 -0.76258331661E+03  0.11109634877E+04  0.25500000920E-02 0. -1.
       -2    1    3    3    0  502  0.72747366586E+03 -0.35140947874E+03  0.81749185550E+02  0.81202800790E+03  0.25500000920E-02 0.  1.
</event>
<event>
 5   0  0.1906857E-05  0.1800269E+04  0.7818609E-02  0.8706156E-01
       -1   -1    0    0    0  501  0.00000000000E+00  0.00000000000E+00  0.10937654241E+04  0.10937654242E+04  0.50400001928E-02 0. -1.
        1   -1    0    0  501    0  0.00000000000E+00  0.00000000000E+00 -0.74078248973E+03  0.74078248975E+03  0.50400001928E-02 0.  1.
    10030    2    1    2    0    0  0.00000000000E+00  0.00000000000E+00  0.35298293442E+03  0.18345479139E+04  0.18002691733E+04 0.  0.
        4    1    3    3  502    0  0.60822663157E+03 -0.28054140151E+03 -0.43628820835E+03  0.79936983115E+03  0.12699999809E+01 0.  1.
       -4    1    3    3    0  502 -0.60822663157E+03  0.28054140151E+03  0.78927114277E+03  0.10351780828E+04  0.12699999809E+01 0. -1.
</event>
<event>
 5   0  0.3993393E-05  0.1802048E+04  0.7818609E-02  0.8705211E-01
       -2   -1    0    0    0  501  0.00000000000E+00  0.00000000000E+00  0.18039660843E+04  0.18039660843E+04  0.25500000920E-02 0. -1.
        2   -1    0    0  501    0  0.00000000000E+00  0.00000000000E+00 -0.45003283267E+03  0.45003283268E+03  0.25500000920E-02 0.  1.
    10030    2    1    2    0    0  0.00000000000E+00  0.00000000000E+00  0.13539332516E+04  0.22539989170E+04  0.18020476875E+04 0.  0.
        5    1    3    3  502    0 -0.74743314352E+03  0.46743925382E+03  0.90985082442E+03  0.12668884610E+04  0.46999998093E+01 0. -1.
       -5    1    3    3    0  502  0.74743314352E+03 -0.46743925382E+03  0.44408242718E+03  0.98711045591E+03  0.46999998093E+01 0.  1.
</event>
<event>
 5   0  0.2038338E-05  0.1801440E+04  0.7818609E-02  0.8705534E-01
       -1   -1    0    0    0  501  0.00000000000E+00  0.00000000000E+00  0.67015943981E+03  0.67015943983E+03  0.50400001928E-02 0. -1.
        1   -1    0    0  501    0  0.00000000000E+00  0.00000000000E+00 -0.12106017090E+04  0.12106017090E+04  0.50400001928E-02 0.  1.
    10030    2    1    2    0    0  0.00000000000E+00  0.00000000000E+00 -0.54044226917E+03  0.18807611488E+04  0.18014396056E+04 0.  0.
        1    1    3    3  502    0  0.46378785788E+03 -0.52825059287E+03 -0.85817754550E+03  0.11093315851E+04  0.50400001928E-02 0.  1.
       -1    1    3    3    0  502 -0.46378785788E+03  0.52825059287E+03  0.31773527633E+03  0.77142956376E+03  0.50400001928E-02 0. -1.
</event>
<event>
 5   0  0.1906857E-05  0.1802185E+04  0.7818609E-02  0.8705138E-01
       -1   -1    0    0    0  501  0.00000000000E+00  0.00000000000E+00  0.12681390806E+04  0.12681390806E+04  0.50400001928E-02 0. -1.
        1   -1    0    0  501    0  0.00000000000E+00  0.00000000000E+00 -0.64028314583E+03  0.64028314585E+03  0.50400001928E-02 0.  1.
    10030    2    1    2    0    0  0.00000000000E+00  0.00000000000E+00  0.62785593472E+03  0.19084222264E+04  0.18021854287E+04 0.  0.
        4    1    3    3  502    0 -0.44918931352E+03 -0.75275695751E+03  0.92933708807E+02  0.88150573656E+03  0.12699999809E+01 0. -1.
       -4    1    3    3    0  502  0.44918931352E+03  0.75275695751E+03  0.53492222591E+03  0.10269164899E+04  0.12699999809E+01 0.  1.
</event>
<event>
 5   0  0.2054876E-05  0.1806304E+04  0.7818609E-02  0.8702954E-01
       -1   -1    0    0    0  501  0.00000000000E+00  0.00000000000E+00  0.66900045991E+03  0.66900045993E+03  0.50400001928E-02 0. -1.
        1   -1    0    0  501    0  0.00000000000E+00  0.00000000000E+00 -0.12192572607E+04  0.12192572607E+04  0.50400001928E-02 0.  1.
    10030    2    1    2    0    0  0.00000000000E+00  0.00000000000E+00 -0.55025680082E+03  0.18882577207E+04  0.18063041474E+04 0.  0.
        5    1    3    3  502    0  0.32715038746E+03 -0.35720571399E+03  0.52171460136E+03  0.71192100221E+03  0.46999998093E+01 0. -1.
       -5    1    3    3    0  502 -0.32715038746E+03  0.35720571399E+03 -0.10719714022E+04  0.11763367185E+04  0.46999998093E+01 0.  1.
</event>
<event>
 5   0  0.3909859E-05  0.1800312E+04  0.7818609E-02  0.8706134E-01
        2   -1    0    0  501    0  0.00000000000E+00  0.00000000000E+00  0.11689357560E+04  0.11689357560E+04  0.25500000920E-02 0. -1.
       -2   -1    0    0    0  501  0.00000000000E+00  0.00000000000E+00 -0.69317806462E+03  0.69317806462E+03  0.25500000920E-02 0.  1.
    10030    2    1    2    0    0  0.00000000000E+00  0.00000000000E+00  0.47575769138E+03  0.18621138206E+04  0.18003117786E+04 0.  0.
        4    1    3    3  502    0  0.61378655347E+03 -0.63866803119E+03  0.40352721181E+03  0.97337896570E+03  0.12699999809E+01 0. -1.
       -4    1    3    3    0  502 -0.61378655347E+03  0.63866803119E+03  0.72230479573E+02  0.88873485493E+03  0.12699999809E+01 0.  1.
</event>
<event>
 5   0  0.2038338E-05  0.1807297E+04  0.7818609E-02  0.8702429E-01
        1   -1    0    0  501    0  0.00000000000E+00  0.00000000000E+00  0.86223842853E+03  0.86223842855E+03  0.50400001928E-02 0.  1.
       -1   -1    0    0    0  501  0.00000000000E+00  0.00000000000E+00 -0.94704707007E+03  0.94704707008E+03  0.50400001928E-02 0. -1.
    10030    2    1    2    0    0  0.00000000000E+00  0.00000000000E+00 -0.84808641535E+02  0.18092854986E+04  0.18072967410E+04 0.  0.
        1    1    3    3  502    0 -0.74443608847E+03 -0.24888541601E+02 -0.55460768254E+03  0.92865182435E+03  0.50400001928E-02 0. -1.
       -1    1    3    3    0  502  0.74443608847E+03  0.24888541601E+02  0.46979904100E+03  0.88063367427E+03  0.50400001928E-02 0.  1.
</event>
<event>
 5   0  0.4015729E-05  0.1800427E+04  0.7818609E-02  0.8706073E-01
       -2   -1    0    0    0  501  0.00000000000E+00  0.00000000000E+00  0.49495642609E+03  0.49495642610E+03  0.25500000920E-02 0.  1.
        2   -1    0    0  501    0  0.00000000000E+00  0.00000000000E+00 -0.16372836477E+04  0.16372836477E+04  0.25500000920E-02 0. -1.
    10030    2    1    2    0    0  0.00000000000E+00  0.00000000000E+00 -0.11423272216E+04  0.21322400738E+04  0.18004266859E+04 0.  0.
        2    1    3    3  502    0  0.12562841170E+03  0.39875666148E+03  0.37300767827E+03  0.56028930113E+03  0.25500000920E-02 0.  1.
       -2    1    3    3    0  502 -0.12562841170E+03 -0.39875666148E+03 -0.15153348999E+04  0.15719507727E+04  0.25500000920E-02 0. -1.
</event>
<event>
 5   0  0.3993393E-05  0.1801267E+04  0.7818609E-02  0.8705626E-01
        2   -1    0    0  501    0  0.00000000000E+00  0.00000000000E+00  0.66602321099E+03  0.66602321100E+03  0.25500000920E-02 0. -1.
       -2   -1    0    0    0  501  0.00000000000E+00  0.00000000000E+00 -0.12178866965E+04  0.12178866965E+04  0.25500000920E-02 0.  1.
    10030    2    1    2    0    0  0.00000000000E+00  0.00000000000E+00 -0.55186348552E+03  0.18839099075E+04  0.18012671187E+04 0.  0.
        5    1    3    3  502    0 -0.34683120377E+03  0.78021908032E+03  0.23718039028E+02  0.85417699136E+03  0.46999998093E+01 0.  1.
       -5    1    3    3    0  502  0.34683120377E+03 -0.78021908032E+03 -0.57558152454E+03  0.10297329161E+04  0.46999998093E+01 0. -1.
</event>
<event>
 5   0  0.1960300E-05  0.1793268E+04  0.7818609E-02  0.8709887E-01
        1   -1    0    0  501    0  0.00000000000E+00  0.00000000000E+00  0.17434265663E+04  0.17434265664E+04  0.50400001928E-02 0.  1.
       -1   -1    0    0    0  501  0.00000000000E+00  0.00000000000E+00 -0.46113379483E+03  0.46113379486E+03  0.50400001928E-02 0. -1.
    10030    2    1    2    0    0  0.00000000000E+00  0.00000000000E+00  0.12822927715E+04  0.22045603612E+04  0.17932684223E+04 0.  0.
        3    1    3    3  502    0 -0.77989061721E+02 -0.81223319979E+03  0.18421737454E+03  0.83650529937E+03  0.10100000352E+00 0. -1.
       -3    1    3    3    0  502  0.77989061721E+02  0.81223319979E+03  0.10980753970E+04  0.13680550618E+04  0.10100000352E+00 0.  1.
</event>
<event>
 5   0  0.2054876E-05  0.1801466E+04  0.7818609E-02  0.8705520E-01
       -1   -1    0    0    0  501  0.00000000000E+00  0.00000000000E+00  0.86141242284E+03  0.86141242285E+03  0.50400001928E-02 0. -1.
        1   -1    0    0  501    0  0.00000000000E+00  0.00000000000E+00 -0.94184861770E+03  0.94184861772E+03  0.50400001928E-02 0.  1.
    10030    2    1    2    0    0  0.00000000000E+00  0.00000000000E+00 -0.80436194865E+02  0.18032610406E+04  0.18014661804E+04 0.  0.
        5    1    3    3  502    0 -0.25289639542E+03  0.67022355255E+03  0.50634956129E+03  0.87725034364E+03  0.46999998093E+01 0. -1.
       -5    1    3    3    0  502  0.25289639542E+03 -0.67022355255E+03 -0.58678575615E+03  0.92601069693E+03  0.46999998093E+01 0.  1.
</event>
<event>
 5   0  0.4015729E-05  0.1798079E+04  0.7818609E-02  0.8707322E-01
       -2   -1    0    0    0  501  0.00000000000E+00  0.00000000000E+00  0.72605613682E+03  0.72605613682E+03  0.25500000920E-02 0. -1.
        2   -1    0    0  501    0  0.00000000000E+00  0.00000000000E+00 -0.11132361762E+04  0.11132361762E+04  0.25500000920E-02 0.  1.
    10030    2    1    2    0    0  0.00000000000E+00  0.00000000000E+00 -0.38718003940E+03  0.18392923130E+04  0.17980789276E+04 0.  0.
        2    1    3    3  502    0  0.82026129223E+02 -0.40222608466E+03  0.62459178216E+03  0.74741488037E+03  0.25500000920E-02 0. -1.
       -2    1    3    3    0  502 -0.82026129223E+02  0.40222608466E+03 -0.10117718216E+04  0.10918774327E+04  0.25500000920E-02 0.  1.
</event>
<event>
 5   0  0.1906857E-05  0.1799107E+04  0.7818609E-02  0.8706774E-01
        1   -1    0    0  501    0  0.00000000000E+00  0.00000000000E+00  0.16014603501E+04  0.16014603501E+04  0.50400001928E-02 0.  1.
       -1   -1    0    0    0  501  0.00000000000E+00  0.00000000000E+00 -0.50528685312E+03  0.50528685315E+03  0.50400001928E-02 0. -1.
    10030    2    1    2    0    0  0.00000000000E+00  0.00000000000E+00  0.10961734970E+04  0.21067472032E+04  0.17991074017E+04 0.  0.
        4    1    3    3  502    0  0.38239728562E+03 -0.81070898354E+03  0.45953509105E+03  0.10072987902E+04  0.12699999809E+01 0.  1.
       -4    1    3    3    0  502 -0.38239728562E+03  0.81070898354E+03  0.63663840591E+03  0.10994484130E+04  0.12699999809E+01 0. -1.
</event>
<event>
 5   0  0.3983176E-05  0.1799154E+04  0.7818609E-02  0.8706749E-01
        2   -1    0    0  501    0  0.00000000000E+00  0.00000000000E+00  0.88968460623E+03  0.88968460623E+03  0.25500000920E-02 0.  1.
       -2   -1    0    0    0  501  0.00000000000E+00  0.00000000000E+00 -0.90957963252E+03  0.90957963253E+03  0.25500000920E-02 0. -1.
    10030    2    1    2    0    0  0.00000000000E+00  0.00000000000E+00 -0.19895026290E+02  0.17992642388E+04  0.17991542426E+04 0.  0.
        3    1    3    3  502    0 -0.52976250840E+03  0.12300599100E+03  0.70665766638E+03  0.89170839224E+03  0.10100000352E+00 0.  1.
       -3    1    3    3    0  502  0.52976250840E+03 -0.12300599100E+03 -0.72655269267E+03  0.90755584652E+03  0.10100000352E+00 0. -1.
</event>
<event>
 5   0  0.3993393E-05  0.1799727E+04  0.7818609E-02  0.8706445E-01
        2   -1    0    0  501    0  0.00000000000E+00  0.00000000000E+00  0.12195733018E+04  0.12195733018E+04  0.25500000920E-02 0.  1.
       -2   -1    0    0    0  501  0.00000000000E+00  0.00000000000E+00 -0.66396546013E+03  0.66396546013E+03  0.25500000920E-02 0. -1.
    10030    2    1    2    0    0  0.00000000000E+00  0.00000000000E+00  0.55560784166E+03  0.18835387619E+04  0.17997272554E+04 0.  0.
        5    1    3    3  502    0  0.50929406000E+03 -0.73256528506E+03  0.40030222786E+03  0.97790403417E+03  0.46999998093E+01 0. -1.
       -5    1    3    3    0  502 -0.50929406000E+03  0.73256528506E+03  0.15530561380E+03  0.90563472775E+03  0.46999998093E+01 0.  1.
</event>
<event>
 5   0  0.3984648E-05  0.1800796E+04  0.7818609E-02  0.8705876E-01
        2   -1    0    0  501    0  0.00000000000E+00  0.00000000000E+00  0.20376170970E+04  0.20376170970E+04  0.25500000920E-02 0. -1.
       -2   -1    0    0    0  501  0.00000000000E+00  0.00000000000E+00 -0.39787467025E+03  0.39787467026E+03  0.25500000920E-02 0.  1.
    10030    2    1    2    0    0  0.00000000000E+00  0.00000000000E+00  0.16397424267E+04  0.24354917672E+04  0.18007956359E+04 0.  0.
        1    1    3    3  502    0 -0.35370971592E+03 -0.77101363588E+03  0.41156553243E+03  0.94284610481E+03  0.50400001928E-02 0.  1.
       -1    1    3    3    0  502  0.35370971592E+03  0.77101363588E+03  0.12281768943E+04  0.14926456624E+04  0.50400001928E-02 0. -1.
</event>
<event>
 5   0  0.1906857E-05  0.1798350E+04  0.7818609E-02  0.8707177E-01
        1   -1    0    0  501    0  0.00000000000E+00  0.00000000000E+00  0.20517714121E+04  0.20517714122E+04  0.50400001928E-02 0.  1.
       -1   -1    0    0    0  501  0.00000000000E+00  0.00000000000E+00 -0.39405757573E+03  0.39405757576E+03  0.50400001928E-02 0. -1.
    10030    2    1    2    0    0  0.00000000000E+00  0.00000000000E+00  0.16577138364E+04  0.24458289879E+04  0.17983504316E+04 0.  0.
        4    1    3    3  502    0  0.15764280967E+03 -0.88524319913E+03  0.83262565855E+03  0.12254688398E+04  0.12699999809E+01 0.  1.
       -4    1    3    3    0  502 -0.15764280967E+03  0.88524319913E+03  0.82508817787E+03  0.12203601482E+04  0.12699999809E+01 0. -1.
</event>
<event>
 5   0  0.3984648E-05  0.1799226E+04  0.7818609E-02  0.8706711E-01
        2   -1    0    0  501    0  0.00000000000E+00  0.00000000000E+00  0.14557197565E+04  0.14557197565E+04  0.25500000920E-02 0.  1.
       -2   -1    0    0    0  501  0.00000000000E+00  0.00000000000E+00 -0.55594739847E+03  0.55594739848E+03  0.25500000920E-02 0. -1.
    10030    2    1    2    0    0  0.00000000000E+00  0.00000000000E+00  0.89977235801E+03  0.20116671550E+04  0.17992260686E+04 0.  0.
        1    1    3    3  502    0  0.61666153907E+03 -0.35425249326E+03  0.10658801253E+04  0.12813534736E+04  0.50400001928E-02 0.  1.
       -1    1    3    3    0  502 -0.61666153907E+03  0.35425249326E+03 -0.16610776734E+03  0.73031368133E+03  0.50400001928E-02 0. -1.
</event>
<event>
 5   0  0.1906857E-05  0.1801082E+04  0.7818609E-02  0.8705724E-01
       -1   -1    0    0    0  501  0.00000000000E+00  0.00000000000E+00  0.51704783862E+03  0.51704783865E+03  0.50400001928E-02 0.  1.
        1   -1    0    0  501    0  0.00000000000E+00  0.00000000000E+00 -0.15684700610E+04  0.15684700610E+04  0.50400001928E-02 0. -1.
    10030    2    1    2    0    0  0.00000000000E+00  0.00000000000E+00 -0.10514222224E+04  0.20855178997E+04  0.18010819582E+04 0.  0.
        4    1    3    3  502    0 -0.38255699743E+03  0.21735417748E+03 -0.14355335325E+04  0.15014495764E+04  0.12699999809E+01 0. -1.
       -4    1    3    3    0  502  0.38255699743E+03 -0.21735417748E+03  0.38411131011E+03  0.58406832324E+03  0.12699999809E+01 0.  1.
</event>
<event>
 5   0  0.3909859E-05  0.1801849E+04  0.7818609E-02  0.8705317E-01
        2   -1    0    0  501    0  0.00000000000E+00  0.00000000000E+00  0.20778883092E+04  0.20778883092E+04  0.25500000920E-02 0.  1.
       -2   -1    0    0    0  501  0.00000000000E+00  0.00000000000E+00 -0.39062020100E+03  0.39062020101E+03  0.25500000920E-02 0. -1.
    10030    2    1    2    0    0  0.00000000000E+00  0.00000000000E+00  0.16872681082E+04  0.24685085102E+04  0.18018492157E+04 0.  0.
        4    1    3    3  502    0  0.79858311794E+02  0.43777467654E+03 -0.22954662195E+03  0.50071676818E+03  0.12699999809E+01 0. -1.
       -4    1    3    3    0  502 -0.79858311794E+02 -0.43777467654E+03  0.19168147302E+04  0.19677917421E+04  0.12699999809E+01 0.  1.
</event>
<event>
 5   0  0.2038338E-05  0.1800672E+04  0.7818609E-02  0.8705942E-01
        1   -1    0    0  501    0  0.00000000000E+00  0.00000000000E+00  0.16156876037E+04  0.16156876037E+04  0.50400001928E-02 0.  1.
       -1   -1    0    0    0  501  0.00000000000E+00  0.00000000000E+00 -0.50170888286E+03  0.50170888289E+03  0.50400001928E-02 0. -1.
    10030    2    1    2    0    0  0.00000000000E+00  0.00000000000E+00  0.11139787209E+04  0.21173964866E+04  0.18006718999E+04 0.  0.
        1    1    3    3  502    0  0.38186469188E+03 -0.60591674102E+03 -0.84544930669E+02  0.72118207499E+03  0.50400001928E-02 0. -1.
       -1    1    3    3    0  502 -0.38186469188E+03  0.60591674102E+03  0.11985236515E+04  0.13962144116E+04  0.50400001928E-02 0.  1.
</event>
<event>
 5   0  0.3993393E-05  0.1800429E+04  0.7818609E-02  0.8706071E-01
       -2   -1    0    0    0  501  0.00000000000E+00  0.00000000000E+00  0.58683142463E+03  0.58683142463E+03  0.25500000920E-02 0.  1.
        2   -1    0    0  501    0  0.00000000000E+00  0.00000000000E+00 -0.13809528896E+04  0.13809528896E+04  0.25500000920E-02 0. -1.
    10030    2    1    2    0    0  0.00000000000E+00  0.00000000000E+00 -0.79412146496E+03  0.19677843142E+04  0.18004294505E+04 0.  0.
        5    1    3    3  502    0  0.38278343054E+03  0.55581447898E+03  0.25405991284E+03  0.72112510638E+03  0.46999998093E+01 0.  1.
       -5    1    3    3    0  502 -0.38278343054E+03 -0.55581447898E+03 -0.10481813778E+04  0.12466592078E+04  0.46999998093E+01 0. -1.
</event>
<event>
 5   0  0.3993393E-05  0.1798177E+04  0.7818609E-02  0.8707269E-01
        2   -1    0    0  501    0  0.00000000000E+00  0.00000000000E+00  0.89363997673E+03  0.89363997674E+03  0.25500000920E-02 0.  1.
       -2   -1    0    0    0  501  0.00000000000E+00  0.00000000000E+00 -0.90457068289E+03  0.90457068289E+03  0.25500000920E-02 0. -1.
    10030    2    1    2    0    0  0.00000000000E+00  0.00000000000E+00 -0.10930706155E+02  0.17982106596E+04  0.17981774373E+04 0.  0.
        5    1    3    3  502    0  0.60975733791E+03  0.21798951976E+03 -0.62918754029E+03  0.90289672317E+03  0.46999998093E+01 0. -1.
       -5    1    3    3    0  502 -0.60975733791E+03 -0.21798951976E+03  0.61825683413E+03  0.89531393645E+03  0.46999998093E+01 0.  1.
</event>
<event>
 5   0  0.4015729E-05  0.1801188E+04  0.7818609E-02  0.8705668E-01
        2   -1    0    0  501    0  0.00000000000E+00  0.00000000000E+00  0.16903784014E+04  0.16903784014E+04  0.25500000920E-02 0.  1.
       -2   -1    0    0    0  501  0.00000000000E+00  0.00000000000E+00 -0.47981524556E+03  0.47981524556E+03  0.25500000920E-02 0. -1.
    10030    2    1    2    0    0  0.00000000000E+00  0.00000000000E+00  0.12105631559E+04  0.21701936470E+04  0.18011877501E+04 0.  0.
        2    1    3    3  502    0 -0.62884654667E+02  0.50435906096E+03 -0.29049290600E+03  0.58542178863E+03  0.25500000920E-02 0. -1.
       -2    1    3    3    0  502  0.62884654667E+02 -0.50435906096E+03  0.15010560619E+04  0.15847718584E+04  0.25500000920E-02 0.  1.
</event>
<event>
 5   0  0.4015729E-05  0.1796916E+04  0.7818609E-02  0.8707941E-01
        2   -1    0    0  501    0  0.00000000000E+00  0.00000000000E+00  0.19932536854E+04  0.19932536854E+04  0.25500000920E-02 0.  1.
       -2   -1    0    0    0  501  0.00000000000E+00  0.00000000000E+00 -0.40497964229E+03  0.40497964230E+03  0.25500000920E-02 0. -1.
    10030    2    1    2    0    0  0.00000000000E+00  0.00000000000E+00  0.15882740432E+04  0.23982333277E+04  0.17969164305E+04 0.  0.
        2    1    3    3  502    0  0.81764228240E+03  0.88622253246E+02  0.31138460177E+03  0.87940501247E+03  0.25500000920E-02 0. -1.
       -2    1    3    3    0  502 -0.81764228240E+03 -0.88622253246E+02  0.12768894414E+04  0.15188283153E+04  0.25500000920E-02 0.  1.
</event>
<event>
 5   0  0.3984648E-05  0.1798990E+04  0.7818609E-02  0.8706837E-01
        2   -1    0    0  501    0  0.00000000000E+00  0.00000000000E+00  0.10811497235E+04  0.10811497235E+04  0.25500000920E-02 0.  1.
       -2   -1    0    0    0  501  0.00000000000E+00  0.00000000000E+00 -0.74836228816E+03  0.74836228816E+03  0.25500000920E-02 0. -1.
    10030    2    1    2    0    0  0.00000000000E+00  0.00000000000E+00  0.33278743533E+03  0.18295120117E+04  0.17989904735E+04 0.  0.
        1    1    3    3  502    0 -0.64055011915E+03  0.63016819724E+03  0.12476925219E+03  0.90718453375E+03  0.50400001928E-02 0. -1.
       -1    1    3    3    0  502  0.64055011915E+03 -0.63016819724E+03  0.20801818314E+03  0.92232747790E+03  0.50400001928E-02 0.  1.
</event>
<event>
 5   0  0.1960300E-05  0.1804671E+04  0.7818609E-02  0.8703819E-01
       -1   -1    0    0    0  501  0.00000000000E+00  0.00000000000E+00  0.34373205517E+03  0.34373205521E+03  0.50400001928E-02 0.  1.
        1   -1    0    0  501    0  0.00000000000E+00  0.00000000000E+00 -0.23687335685E+04  0.23687335685E+04  0.50400001928E-02 0. -1.
    10030    2    1    2    0    0  0.00000000000E+00  0.00000000000E+00 -0.20250015133E+04  0.27124656237E+04  0.18046713360E+04 0.  0.
        3    1    3    3  502    0 -0.89838307578E+03 -0.46052537609E+02 -0.90625635852E+03  0.12769156529E+04  0.10100000352E+00 0.  1.
       -3    1    3    3    0  502  0.89838307578E+03  0.46052537609E+02 -0.11187451548E+04  0.14355499708E+04  0.10100000352E+00 0. -1.
</event>
<event>
 5   0  0.1960300E-05  0.1800605E+04  0.7818609E-02  0.8705978E-01
        1   -1    0    0  501    0  0.00000000000E+00  0.00000000000E+00  0.10637849952E+04  0.10637849952E+04  0.50400001928E-02 0. -1.
       -1   -1    0    0    0  501  0.00000000000E+00  0.00000000000E+00 -0.76194378750E+03  0.76194378752E+03  0.50400001928E-02 0.  1.
    10030    2    1    2    0    0  0.00000000000E+00  0.00000000000E+00  0.30184120770E+03  0.18257287827E+04  0.18006047521E+04 0.  0.
        3    1    3    3  502    0  0.71568638756E+03 -0.50917147113E+03  0.35137009551E+03  0.94600398867E+03  0.10100000352E+00 0. -1.
       -3    1    3    3    0  502 -0.71568638756E+03  0.50917147113E+03 -0.49528887816E+02  0.87972479406E+03  0.10100000352E+00 0.  1.
</event>
<event>
 5   0  0.1446750E-05  0.1800532E+04  0.7818609E-02  0.8706017E-01
       -3   -1    0    0    0  501  0.00000000000E+00  0.00000000000E+00  0.28539064758E+03  0.28539066545E+03  0.10100000352E+00 0.  1.
        3   -1    0    0  501    0  0.00000000000E+00  0.00000000000E+00 -0.28398916005E+04  0.28398916023E+04  0.10100000352E+00 0. -1.
    10030    2    1    2    0    0  0.00000000000E+00  0.00000000000E+00 -0.25545009529E+04  0.31252822677E+04  0.18005316256E+04 0.  0.
        5    1    3    3  502    0  0.56126799359E+02 -0.23407728298E+03  0.22847500771E+03  0.33191160143E+03  0.46999998093E+01 0.  1.
       -5    1    3    3    0  502 -0.56126799359E+02  0.23407728298E+03 -0.27829759606E+04  0.27933706663E+04  0.46999998093E+01 0. -1.
</event>
<event>
 5   0  0.3983176E-05  0.1800699E+04  0.7818609E-02  0.8705928E-01
        2   -1    0    0  501    0  0.00000000000E+00  0.00000000000E+00  0.14381200193E+04  0.14381200193E+04  0.25500000920E-02 0. -1.
       -2   -1    0    0    0  501  0.00000000000E+00  0.00000000000E+00 -0.56367304210E+03  0.56367304210E+03  0.25500000920E-02 0.  1.
    10030    2    1    2    0    0  0.00000000000E+00  0.00000000000E+00  0.87444697716E+03  0.20017930614E+04  0.18006992932E+04 0.  0.
        3    1    3    3  502    0  0.52569949343E+03 -0.69944879139E+03  0.67315260876E+03  0.11039578860E+04  0.10100000352E+00 0. -1.
       -3    1    3    3    0  502 -0.52569949343E+03  0.69944879139E+03  0.20129436839E+03  0.89783517536E+03  0.10100000352E+00 0.  1.
</event>
<event>
 5   0  0.2038338E-05  0.1810622E+04  0.7818609E-02  0.8700671E-01
       -1   -1    0    0    0  501  0.00000000000E+00  0.00000000000E+00  0.45277186101E+03  0.45277186104E+03  0.50400001928E-02 0. -1.
        1   -1    0    0  501    0  0.00000000000E+00  0.00000000000E+00 -0.18101564853E+04  0.18101564853E+04  0.50400001928E-02 0.  1.
    10030    2    1    2    0    0  0.00000000000E+00  0.00000000000E+00 -0.13573846243E+04  0.22629283464E+04  0.18106219049E+04 0.  0.
        1    1    3    3  502    0  0.11974658129E+03  0.80634883480E+03 -0.11708216374E+04  0.14266607844E+04  0.50400001928E-02 0.  1.
       -1    1    3    3    0  502 -0.11974658129E+03 -0.80634883480E+03 -0.18656298693E+03  0.83626756199E+03  0.50400001928E-02 0. -1.
</event>
<event>
 5   0  0.4015729E-05  0.1799646E+04  0.7818609E-02  0.8706488E-01
       -2   -1    0    0    0  501  0.00000000000E+00  0.00000000000E+00  0.59422992488E+03  0.59422992489E+03  0.25500000920E-02 0.  1.
        2   -1    0    0  501    0  0.00000000000E+00  0.00000000000E+00 -0.13625730932E+04  0.13625730932E+04  0.25500000920E-02 0. -1.
    10030    2    1    2    0    0  0.00000000000E+00  0.00000000000E+00 -0.76834316830E+03  0.19568030181E+04  0.17996463062E+04 0.  0.
        2    1    3    3  502    0  0.43363777906E+03 -0.25262723215E+03 -0.11962664832E+04  0.12972724234E+04  0.25500000920E-02 0. -1.
       -2    1    3    3    0  502 -0.43363777906E+03  0.25262723215E+03  0.42792331486E+03  0.65953059464E+03  0.25500000920E-02 0.  1.
</event>
<event>
 5   0  0.1906857E-05  0.1803044E+04  0.7818609E-02  0.8704683E-01
        1   -1    0    0  501    0  0.00000000000E+00  0.00000000000E+00  0.11443843196E+04  0.11443843196E+04  0.50400001928E-02 0. -1.
       -1   -1    0    0    0  501  0.00000000000E+00  0.00000000000E+00 -0.71019985393E+03  0.71019985395E+03  0.50400001928E-02 0.  1.
    10030    2    1    2    0    0  0.00000000000E+00  0.00000000000E+00  0.43418446569E+03  0.18545841736E+04  0.18030436231E+04 0.  0.
        4    1    3    3  502    0 -0.57076896514E+03 -0.69701472134E+03  0.18246646359E+03  0.91918570298E+03  0.12699999809E+01 0. -1.
       -4    1    3    3    0  502  0.57076896514E+03  0.69701472134E+03  0.25171800211E+03  0.93539847061E+03  0.12699999809E+01 0.  1.
</event>
<event>
 5   0  0.2038338E-05  0.1805510E+04  0.7818609E-02  0.8703375E-01
        1   -1    0    0  501    0  0.00000000000E+00  0.00000000000E+00  0.63890398795E+03  0.63890398797E+03  0.50400001928E-02 0.  1.
       -1   -1    0    0    0  501  0.00000000000E+00  0.00000000000E+00 -0.12755702977E+04  0.12755702978E+04  0.50400001928E-02 0. -1.
    10030    2    1    2    0    0  0.00000000000E+00  0.00000000000E+00 -0.63666630980E+03  0.19144742857E+04  0.18055103989E+04 0.  0.
        1    1    3    3  502    0  0.96529712444E+02 -0.82800875138E+03 -0.68572666475E+03  0.10794153679E+04  0.50400001928E-02 0. -1.
       -1    1    3    3    0  502 -0.96529712444E+02  0.82800875138E+03  0.49060354950E+02  0.83505891780E+03  0.50400001928E-02 0.  1.
</event>
<event>
 5   0  0.2001811E-05  0.1796918E+04  0.7818609E-02  0.8707940E-01
       -1   -1    0    0    0  501  0.00000000000E+00  0.00000000000E+00  0.11196827884E+04  0.11196827884E+04  0.50400001928E-02 0.  1.
        1   -1    0    0  501    0  0.00000000000E+00  0.00000000000E+00 -0.72094412293E+03  0.72094412295E+03  0.50400001928E-02 0. -1.
    10030    2    1    2    0    0  0.00000000000E+00  0.00000000000E+00  0.39873866546E+03  0.18406269114E+04  0.17969181683E+04 0.  0.
        2    1    3    3  502    0 -0.59327098385E+03  0.55775276767E+03  0.58830259934E+03  0.10045688421E+04  0.25500000920E-02 0. -1.
       -2    1    3    3    0  502  0.59327098385E+03 -0.55775276767E+03 -0.18956393388E+03  0.83605806925E+03  0.25500000920E-02 0.  1.
</event>
<event>
 5   0  0.1960300E-05  0.1804793E+04  0.7818609E-02  0.8703755E-01
       -1   -1    0    0    0  501  0.00000000000E+00  0.00000000000E+00  0.34286445206E+03  0.34286445210E+03  0.50400001928E-02 0.  1.
        1   -1    0    0  501    0  0.00000000000E+00  0.00000000000E+00 -0.23750470175E+04  0.23750470175E+04  0.50400001928E-02 0. -1.
    10030    2    1    2    0    0  0.00000000000E+00  0.00000000000E+00 -0.20321825655E+04  0.27179114696E+04  0.18047927242E+04 0.  0.
        3    1    3    3  502    0 -0.88301104874E+03  0.11251173172E+03 -0.12392135257E+04  0.15257842490E+04  0.10100000352E+00 0.  1.
       -3    1    3    3    0  502  0.88301104874E+03 -0.11251173172E+03 -0.79296903971E+03  0.11921272206E+04  0.10100000352E+00 0. -1.
</event>
<event>
 5   0  0.3909859E-05  0.1801307E+04  0.7818609E-02  0.8705605E-01
       -2   -1    0    0    0  501  0.00000000000E+00  0.00000000000E+00  0.54445122163E+03  0.54445122163E+03  0.25500000920E-02 0.  1.
        2   -1    0    0  501    0  0.00000000000E+00  0.00000000000E+00 -0.14898982023E+04  0.14898982023E+04  0.25500000920E-02 0. -1.
    10030    2    1    2    0    0  0.00000000000E+00  0.00000000000E+00 -0.94544698064E+03  0.20343494239E+04  0.18013071879E+04 0.  0.
        4    1    3    3  502    0 -0.16138781726E+03  0.33488194911E+03 -0.13992117568E+04  0.14477524307E+04  0.12699999809E+01 0. -1.
       -4    1    3    3    0  502  0.16138781726E+03 -0.33488194911E+03  0.45376477617E+03  0.58659699317E+03  0.12699999809E+01 0.  1.
</event>
<event>
 5   0  0.3909859E-05  0.1799784E+04  0.7818609E-02  0.8706414E-01
        2   -1    0    0  501    0  0.00000000000E+00  0.00000000000E+00  0.94743354182E+03  0.94743354183E+03  0.25500000920E-02 0.  1.
       -2   -1    0    0    0  501  0.00000000000E+00  0.00000000000E+00 -0.85473599499E+03  0.85473599500E+03  0.25500000920E-02 0. -1.
    10030    2    1    2    0    0  0.00000000000E+00  0.00000000000E+00  0.92697546828E+02  0.18021695368E+04  0.17997839327E+04 0.  0.
        4    1    3    3  502    0  0.83641458735E+03  0.33156161400E+03  0.63148149346E+02  0.90194887187E+03  0.12699999809E+01 0.  1.
       -4    1    3    3    0  502 -0.83641458735E+03 -0.33156161400E+03  0.29549397482E+02  0.90022066495E+03  0.12699999809E+01 0. -1.
</event>
<event>
 5   0  0.2001811E-05  0.1794014E+04  0.7818609E-02  0.8709489E-01
        1   -1    0    0  501    0  0.00000000000E+00  0.00000000000E+00  0.13120169414E+04  0.13120169414E+04  0.50400001928E-02 0. -1.
       -1   -1    0    0    0  501  0.00000000000E+00  0.00000000000E+00 -0.61327064460E+03  0.61327064462E+03  0.50400001928E-02 0.  1.
    10030    2    1    2    0    0  0.00000000000E+00  0.00000000000E+00  0.69874629679E+03  0.19252875860E+04  0.17940139079E+04 0.  0.
        2    1    3    3  502    0  0.33582276166E+02  0.86704093687E+03  0.10527939881E+03  0.87405463634E+03  0.25500000920E-02 0.  1.
       -2    1    3    3    0  502 -0.33582276166E+02 -0.86704093687E+03  0.59346689798E+03  0.10512329497E+04  0.25500000920E-02 0. -1.
</event>
<event>
 5   0  0.3909859E-05  0.1801543E+04  0.7818609E-02  0.8705479E-01
       -2   -1    0    0    0  501  0.00000000000E+00  0.00000000000E+00  0.25829105668E+03  0.25829105669E+03  0.25500000920E-02 0.  1.
        2   -1    0    0  501    0  0.00000000000E+00  0.00000000000E+00 -0.31413770402E+04  0.31413770402E+04  0.25500000920E-02 0. -1.
    10030    2    1    2    0    0  0.00000000000E+00  0.00000000000E+00 -0.28830859835E+04  0.33996680969E+04  0.18015433330E+04 0.  0.
        4    1    3    3  502    0  0.32451713917E+03 -0.54031350710E+03 -0.26559501189E+04  0.27297111032E+04  0.12699999809E+01 0. -1.
       -4    1    3    3    0  502 -0.32451713917E+03  0.54031350710E+03 -0.22713586459E+03  0.66995699374E+03  0.12699999809E+01 0.  1.
</event>
<event>
 5   0  0.3984648E-05  0.1797569E+04  0.7818609E-02  0.8707593E-01
       -2   -1    0    0    0  501  0.00000000000E+00  0.00000000000E+00  0.77790857496E+03  0.77790857497E+03  0.25500000920E-02 0. -1.
        2   -1    0    0  501    0  0.00000000000E+00  0.00000000000E+00 -0.10384433401E+04  0.10384433401E+04  0.25500000920E-02 0.  1.
    10030    2    1    2    0    0  0.00000000000E+00  0.00000000000E+00 -0.26053476518E+03  0.18163519151E+04  0.17975694467E+04 0.  0.
        1    1    3    3  502    0 -0.14406715003E+03  0.67217394883E+03 -0.71531708669E+03  0.99209460020E+03  0.50400001928E-02 0.  1.
       -1    1    3    3    0  502  0.14406715003E+03 -0.67217394883E+03  0.45478232151E+03  0.82425731491E+03  0.50400001928E-02 0. -1.
</event>
<event>
 5   0  0.3909859E-05  0.1800624E+04  0.7818609E-02  0.8705967E-01
        2   -1    0    0  501    0  0.00000000000E+00  0.00000000000E+00  0.12743560810E+04  0.12743560810E+04  0.25500000920E-02 0.  1.
       -2   -1    0    0    0  501  0.00000000000E+00  0.00000000000E+00 -0.63605624494E+03  0.63605624494E+03  0.25500000920E-02 0. -1.
    10030    2    1    2    0    0  0.00000000000E+00  0.00000000000E+00  0.63829983603E+03  0.19104123259E+04  0.18006244956E+04 0.  0.
        4    1    3    3  502    0  0.83332647341E+03 -0.17670538344E+03  0.62829673332E+03  0.10584971430E+04  0.12699999809E+01 0. -1.
       -4    1    3    3    0  502 -0.83332647341E+03  0.17670538344E+03  0.10003102708E+02  0.85191518286E+03  0.12699999809E+01 0.  1.
</event>
<event>
 5   0  0.1960300E-05  0.1797637E+04  0.7818609E-02  0.8707557E-01
        1   -1    0    0  501    0  0.00000000000E+00  0.00000000000E+00  0.10170642805E+04  0.10170642805E+04  0.50400001928E-02 0. -1.
       -1   -1    0    0    0  501  0.00000000000E+00  0.00000000000E+00 -0.79432031453E+03  0.79432031455E+03  0.50400001928E-02 0.  1.
    10030    2    1    2    0    0  0.00000000000E+00  0.00000000000E+00  0.22274396599E+03  0.18113845951E+04  0.17976371372E+04 0.  0.
        3    1    3    3  502    0 -0.16288680719E+03 -0.13293364668E+03  0.99193792742E+03  0.10139745206E+04  0.10100000352E+00 0. -1.
       -3    1    3    3    0  502  0.16288680719E+03  0.13293364668E+03 -0.76919396143E+03  0.79741007448E+03  0.10100000352E+00 0.  1.
</event>
<event>
 5   0  0.3993393E-05  0.1791244E+04  0.7818609E-02  0.8710970E-01
        2   -1    0    0  501    0  0.00000000000E+00  0.00000000000E+00  0.24580152327E+04  0.24580152327E+04  0.25500000920E-02 0. -1.
       -2   -1    0    0    0  501  0.00000000000E+00  0.00000000000E+00 -0.32633601240E+03  0.32633601241E+03  0.25500000920E-02 0.  1.
    10030    2    1    2    0    0  0.00000000000E+00  0.00000000000E+00  0.21316792203E+04  0.27843512451E+04  0.17912441369E+04 0.  0.
        5    1    3    3  502    0 -0.41018128574E+03  0.10604450956E+03 -0.16070035847E+03  0.45314547376E+03  0.46999998093E+01 0.  1.
       -5    1    3    3    0  502  0.41018128574E+03 -0.10604450956E+03  0.22923795787E+04  0.23312057713E+04  0.46999998093E+01 0. -1.
</event>
<event>
 5   0  0.1960300E-05  0.1803666E+04  0.7818609E-02  0.8704353E-01
       -1   -1    0    0    0  501  0.00000000000E+00  0.00000000000E+00  0.11865564268E+04  0.11865564269E+04  0.50400001928E-02 0.  1.
        1   -1    0    0  501    0  0.00000000000E+00  0.00000000000E+00 -0.68543095628E+03  0.68543095630E+03  0.50400001928E-02 0. -1.
    10030    2    1    2    0    0  0.00000000000E+00  0.00000000000E+00  0.50112547056E+03  0.18719873832E+04  0.18036657189E+04 0.  0.
        3    1    3    3  502    0 -0.64316723295E+03 -0.34905582336E+03 -0.29646804858E+03  0.78955517312E+03  0.10100000352E+00 0. -1.
       -3    1    3    3    0  502  0.64316723295E+03  0.34905582336E+03  0.79759351914E+03  0.10824322100E+04  0.10100000352E+00 0.  1.
</event>
<event>
 5   0  0.1960300E-05  0.1799957E+04  0.7818609E-02  0.8706322E-01
       -1   -1    0    0    0  501  0.00000000000E+00  0.00000000000E+00  0.77541313588E+03  0.77541313589E+03  0.50400001928E-02 0.  1.
        1   -1    0    0  501    0  0.00000000000E+00  0.00000000000E+00 -0.10445544281E+04  0.10445544281E+04  0.50400001928E-02 0. -1.
    10030    2    1    2    0    0  0.00000000000E+00  0.00000000000E+00 -0.26914129225E+03  0.18199675640E+04  0.17999569159E+04 0.  0.
        3    1    3    3  502    0 -0.53639822510E+03  0.36459362704E+03 -0.76545407504E+03  0.10032803795E+04  0.10100000352E+00 0. -1.
       -3    1    3    3    0  502  0.53639822510E+03 -0.36459362704E+03  0.49631278279E+03  0.81668718450E+03  0.10100000352E+00 0.  1.
</event>
<event>
 5   0  0.3983176E-05  0.1826344E+04  0.7818609E-02  0.8692414E-01
       -2   -1    0    0    0  501  0.00000000000E+00  0.00000000000E+00  0.53580220096E+03  0.53580220096E+03  0.25500000920E-02 0. -1.
        2   -1    0    0  501    0  0.00000000000E+00  0.00000000000E+00 -0.15563269338E+04  0.15563269338E+04  0.25500000920E-02 0.  1.
    10030    2    1    2    0    0  0.00000000000E+00  0.00000000000E+00 -0.10205247328E+04  0.20921291348E+04  0.18263443230E+04 0.  0.
        3    1    3    3  502    0 -0.49430862521E+03  0.76558056237E+03 -0.44318513541E+03  0.10133448026E+04  0.10100000352E+00 0.  1.
       -3    1    3    3    0  502  0.49430862521E+03 -0.76558056237E+03 -0.57733959742E+03  0.10787843322E+04  0.10100000352E+00 0. -1.
</event>
<event>
 5   0  0.2038338E-05  0.1797524E+04  0.7818609E-02  0.8707617E-01
       -1   -1    0    0    0  501  0.00000000000E+00  0.00000000000E+00  0.54945030660E+03  0.54945030662E+03  0.50400001928E-02 0. -1.
        1   -1    0    0  501    0  0.00000000000E+00  0.00000000000E+00 -0.14701484865E+04  0.14701484865E+04  0.50400001928E-02 0.  1.
    10030    2    1    2    0    0  0.00000000000E+00  0.00000000000E+00 -0.92069817985E+03  0.20195987931E+04  0.17975244495E+04 0.  0.
        1    1    3    3  502    0 -0.80011349764E+03 -0.12256510290E+03 -0.21490629509E+02  0.80973184495E+03  0.50400001928E-02 0.  1.
       -1    1    3    3    0  502  0.80011349764E+03  0.12256510290E+03 -0.89920755034E+03  0.12098669481E+04  0.50400001928E-02 0. -1.
</event>
<event>
 5   0  0.1906857E-05  0.1795525E+04  0.7818609E-02  0.8708683E-01
        1   -1    0    0  501    0  0.00000000000E+00  0.00000000000E+00  0.66483259380E+03  0.66483259382E+03  0.50400001928E-02 0. -1.
       -1   -1    0    0    0  501  0.00000000000E+00  0.00000000000E+00 -0.12123013237E+04  0.12123013237E+04  0.50400001928E-02 0.  1.
    10030    2    1    2    0    0  0.00000000000E+00  0.00000000000E+00 -0.54746872991E+03  0.18771339175E+04  0.17955249188E+04 0.  0.
        4    1    3    3  502    0  0.11672664174E+03 -0.76652190747E+03  0.19937698238E+03  0.80058337325E+03  0.12699999809E+01 0. -1.
       -4    1    3    3    0  502 -0.11672664174E+03  0.76652190747E+03 -0.74684571229E+03  0.10765505443E+04  0.12699999809E+01 0.  1.
</event>
<event>
 5   0  0.2054876E-05  0.1799762E+04  0.7818609E-02  0.8706426E-01
        1   -1    0    0  501    0  0.00000000000E+00  0.00000000000E+00  0.84283920108E+03  0.84283920110E+03  0.50400001928E-02 0.  1.
       -1   -1    0    0    0  501  0.00000000000E+00  0.00000000000E+00 -0.96078322797E+03  0.96078322798E+03  0.50400001928E-02 0. -1.
    10030    2    1    2    0    0  0.00000000000E+00  0.00000000000E+00 -0.11794402689E+03  0.18036224291E+04  0.17997619490E+04 0.  0.
        5    1    3    3  502    0 -0.32946744924E+02 -0.79371259256E+03  0.36466220102E+03  0.87410856216E+03  0.46999998093E+01 0.  1.
       -5    1    3    3    0  502  0.32946744924E+02  0.79371259256E+03 -0.48260622791E+03  0.92951386692E+03  0.46999998093E+01 0. -1.
</event>
<event>
 5   0  0.1906857E-05  0.1797936E+04  0.7818609E-02  0.8707398E-01
        1   -1    0    0  501    0  0.00000000000E+00  0.00000000000E+00  0.10276305486E+04  0.10276305486E+04  0.50400001928E-02 0. -1.
       -1   -1    0    0    0  501  0.00000000000E+00  0.00000000000E+00 -0.78641474270E+03  0.78641474272E+03  0.50400001928E-02 0.  1.
    10030    2    1    2    0    0  0.00000000000E+00  0.00000000000E+00  0.24121580592E+03  0.18140452914E+04  0.17979363877E+04 0.  0.
        4    1    3    3  502    0  0.12239251994E+03  0.88193769607E+03 -0.43898285927E+01  0.89040154548E+03  0.12699999809E+01 0.  1.
       -4    1    3    3    0  502 -0.12239251994E+03 -0.88193769607E+03  0.24560563452E+03  0.92364374588E+03  0.12699999809E+01 0. -1.
</event>
<event>
 5   0  0.2038338E-05  0.1800590E+04  0.7818609E-02  0.8705986E-01
       -1   -1    0    0    0  501  0.00000000000E+00  0.00000000000E+00  0.39653194493E+03  0.39653194496E+03  0.50400001928E-02 0.  1.
        1   -1    0    0  501    0  0.00000000000E+00  0.00000000000E+00 -0.20440504446E+04  0.20440504446E+04  0.50400001928E-02 0. -1.
    10030    2    1    2    0    0  0.00000000000E+00  0.00000000000E+00 -0.16475184996E+04  0.24405823895E+04  0.18005902347E+04 0.  0.
        1    1    3    3  502    0 -0.28457327604E+03  0.34387491731E+03 -0.18835144688E+04  0.19356804132E+04  0.50400001928E-02 0. -1.
       -1    1    3    3    0  502  0.28457327604E+03 -0.34387491731E+03  0.23599596912E+03  0.50490197629E+03  0.50400001928E-02 0.  1.
</event>
<event>
 5   0  0.3909859E-05  0.1801292E+04  0.7818609E-02  0.8705613E-01
        2   -1    0    0  501    0  0.00000000000E+00  0.00000000000E+00  0.30539233380E+04  0.30539233380E+04  0.25500000920E-02 0. -1.
       -2   -1    0    0    0  501  0.00000000000E+00  0.00000000000E+00 -0.26561339280E+03  0.26561339281E+03  0.25500000920E-02 0.  1.
    10030    2    1    2    0    0  0.00000000000E+00  0.00000000000E+00  0.27883099452E+04  0.33195367308E+04  0.18012916912E+04 0.  0.
        4    1    3    3  502    0 -0.23103514230E+03 -0.37542575426E+03 -0.53214983495E+02  0.44402160005E+03  0.12699999809E+01 0.  1.
       -4    1    3    3    0  502  0.23103514230E+03  0.37542575426E+03  0.28415249287E+04  0.28755151307E+04  0.12699999809E+01 0. -1.
</event>
<event>
 5   0  0.1906857E-05  0.1803861E+04  0.7818609E-02  0.8704249E-01
       -1   -1    0    0    0  501  0.00000000000E+00  0.00000000000E+00  0.58876000923E+03  0.58876000925E+03  0.50400001928E-02 0. -1.
        1   -1    0    0  501    0  0.00000000000E+00  0.00000000000E+00 -0.13816810491E+04  0.13816810491E+04  0.50400001928E-02 0.  1.
    10030    2    1    2    0    0  0.00000000000E+00  0.00000000000E+00 -0.79292103986E+03  0.19704410584E+04  0.18038609118E+04 0.  0.
        4    1    3    3  502    0 -0.89856706918E+03 -0.77808273442E+02 -0.39664690994E+03  0.98529553399E+03  0.12699999809E+01 0. -1.
       -4    1    3    3    0  502  0.89856706918E+03  0.77808273442E+02 -0.39627412992E+03  0.98514552437E+03  0.12699999809E+01 0.  1.
</event>
<event>
 5   0  0.2038338E-05  0.1797408E+04  0.7818609E-02  0.8707679E-01
       -1   -1    0    0    0  501  0.00000000000E+00  0.00000000000E+00  0.16351481097E+04  0.16351481098E+04  0.50400001928E-02 0. -1.
        1   -1    0    0  501    0  0.00000000000E+00  0.00000000000E+00 -0.49394251667E+03  0.49394251669E+03  0.50400001928E-02 0.  1.
    10030    2    1    2    0    0  0.00000000000E+00  0.00000000000E+00  0.11412055931E+04  0.21290906264E+04  0.17974083259E+04 0.  0.
        1    1    3    3  502    0  0.57051386009E+03  0.49836554233E+03 -0.21714531525E+01  0.75753481343E+03  0.50400001928E-02 0.  1.
       -1    1    3    3    0  502 -0.57051386009E+03 -0.49836554233E+03  0.11433770462E+04  0.13715558130E+04  0.50400001928E-02 0. -1.
</event>
<event>
 5   0  0.1960300E-05  0.1798267E+04  0.7818609E-02  0.8707222E-01
       -1   -1    0    0    0  501  0.00000000000E+00  0.00000000000E+00  0.58376127130E+03  0.58376127132E+03  0.50400001928E-02 0. -1.
        1   -1    0    0  501    0  0.00000000000E+00  0.00000000000E+00 -0.13848824276E+04  0.13848824276E+04  0.50400001928E-02 0.  1.
    10030    2    1    2    0    0  0.00000000000E+00  0.00000000000E+00 -0.80112115627E+03  0.19686436989E+04  0.17982666393E+04 0.  0.
        3    1    3    3  502    0 -0.79128316788E+03  0.46286314265E+02  0.64118756603E+02  0.79522493661E+03  0.10100000352E+00 0. -1.
       -3    1    3    3    0  502  0.79128316788E+03 -0.46286314265E+02 -0.86523991287E+03  0.11734187623E+04  0.10100000352E+00 0.  1.
</event>
<event>
 5   0  0.1960300E-05  0.1803303E+04  0.7818609E-02  0.8704545E-01
       -1   -1    0    0    0  501  0.00000000000E+00  0.00000000000E+00  0.51907105215E+03  0.51907105217E+03  0.50400001928E-02 0. -1.
        1   -1    0    0  501    0  0.00000000000E+00  0.00000000000E+00 -0.15662119906E+04  0.15662119906E+04  0.50400001928E-02 0.  1.
    10030    2    1    2    0    0  0.00000000000E+00  0.00000000000E+00 -0.10471409385E+04  0.20852830428E+04  0.18033028652E+04 0.  0.
        3    1    3    3  502    0 -0.32827357356E+03 -0.29364947831E+03  0.38620716876E+03  0.58578967439E+03  0.10100000352E+00 0. -1.
       -3    1    3    3    0  502  0.32827357356E+03  0.29364947831E+03 -0.14333481072E+04  0.14994933684E+04  0.10100000352E+00 0.  1.
</event>
<event>
 5   0  0.3909859E-05  0.1801810E+04  0.7818609E-02  0.8705337E-01
       -2   -1    0    0    0  501  0.00000000000E+00  0.00000000000E+00  0.43397601043E+03  0.43397601044E+03  0.25500000920E-02 0.  1.
        2   -1    0    0  501    0  0.00000000000E+00  0.00000000000E+00 -0.18702187264E+04  0.18702187264E+04  0.25500000920E-02 0. -1.
    10030    2    1    2    0    0  0.00000000000E+00  0.00000000000E+00 -0.14362427160E+04  0.23041947369E+04  0.18018102692E+04 0.  0.
        4    1    3    3  502    0  0.56753630398E+03 -0.17830293748E+03 -0.15833265297E+04  0.16913940719E+04  0.12699999809E+01 0. -1.
       -4    1    3    3    0  502 -0.56753630398E+03  0.17830293748E+03  0.14708381371E+03  0.61280066499E+03  0.12699999809E+01 0.  1.
</event>
<event>
 5   0  0.2001811E-05  0.1798871E+04  0.7818609E-02  0.8706900E-01
       -1   -1    0    0    0  501  0.00000000000E+00  0.00000000000E+00  0.41761270800E+03  0.41761270803E+03  0.50400001928E-02 0. -1.
        1   -1    0    0  501    0  0.00000000000E+00  0.00000000000E+00 -0.19371645636E+04  0.19371645636E+04  0.50400001928E-02 0.  1.
    10030    2    1    2    0    0  0.00000000000E+00  0.00000000000E+00 -0.15195518556E+04  0.23547772716E+04  0.17988713565E+04 0.  0.
        2    1    3    3  502    0  0.50365472352E+02  0.89323656446E+03 -0.63854884059E+03  0.10991600715E+04  0.25500000920E-02 0. -1.
       -2    1    3    3    0  502 -0.50365472352E+02 -0.89323656446E+03 -0.88100301503E+03  0.12556172002E+04  0.25500000920E-02 0.  1.
</event>
<event>
 5   0  0.1906857E-05  0.1795483E+04  0.7818609E-02  0.8708705E-01
       -1   -1    0    0    0  501  0.00000000000E+00  0.00000000000E+00  0.39405841699E+03  0.39405841702E+03  0.50400001928E-02 0.  1.
        1   -1    0    0  501    0  0.00000000000E+00  0.00000000000E+00 -0.20452292337E+04  0.20452292337E+04  0.50400001928E-02 0. -1.
    10030    2    1    2    0    0  0.00000000000E+00  0.00000000000E+00 -0.16511708167E+04  0.24392876508E+04  0.17954829927E+04 0.  0.
        4    1    3    3  502    0 -0.71968556483E+03 -0.52157817076E+03 -0.99714789037E+03  0.13357756655E+04  0.12699999809E+01 0. -1.
       -4    1    3    3    0  502  0.71968556483E+03  0.52157817076E+03 -0.65402292636E+03  0.11035119852E+04  0.12699999809E+01 0.  1.
</event>
<event>
 5   0  0.3909859E-05  0.1796917E+04  0.7818609E-02  0.8707941E-01
        2   -1    0    0  501    0  0.00000000000E+00  0.00000000000E+00  0.94428956021E+03  0.94428956022E+03  0.25500000920E-02 0. -1.
       -2   -1    0    0    0  501  0.00000000000E+00  0.00000000000E+00 -0.85485212945E+03  0.85485212945E+03  0.25500000920E-02 0.  1.
    10030    2    1    2    0    0  0.00000000000E+00  0.00000000000E+00  0.89437430762E+02  0.17991416897E+04  0.17969172951E+04 0.  0.
        4    1    3    3  502    0  0.31053464429E+03  0.79166244365E+03 -0.24558008740E+03  0.88513975293E+03  0.12699999809E+01 0.  1.
       -4    1    3    3    0  502 -0.31053464429E+03 -0.79166244365E+03  0.33501751817E+03  0.91400193674E+03  0.12699999809E+01 0. -1.
</event>
<event>
 5   0  0.3993393E-05  0.1799036E+04  0.7818609E-02  0.8706812E-01
       -2   -1    0    0    0  501  0.00000000000E+00  0.00000000000E+00  0.58085482556E+03  0.58085482557E+03  0.25500000920E-02 0.  1.
        2   -1    0    0  501    0  0.00000000000E+00  0.00000000000E+00 -0.13930032210E+04  0.13930032210E+04  0.25500000920E-02 0. -1.
    10030    2    1    2    0    0  0.00000000000E+00  0.00000000000E+00 -0.81214839540E+03  0.19738580465E+04  0.17990360118E+04 0.  0.
        5    1    3    3  502    0  0.12332670421E+03  0.70743243105E+03  0.18826727574E+03  0.74238586839E+03  0.46999998093E+01 0.  1.
       -5    1    3    3    0  502 -0.12332670421E+03 -0.70743243105E+03 -0.10004156711E+04  0.12314721781E+04  0.46999998093E+01 0. -1.
</event>
<event>
 5   0  0.1906857E-05  0.1791052E+04  0.7818609E-02  0.8711073E-01
        1   -1    0    0  501    0  0.00000000000E+00  0.00000000000E+00  0.81125093017E+03  0.81125093019E+03  0.50400001928E-02 0. -1.
       -1   -1    0    0    0  501  0.00000000000E+00  0.00000000000E+00 -0.98855542067E+03  0.98855542068E+03  0.50400001928E-02 0.  1.
    10030    2    1    2    0    0  0.00000000000E+00  0.00000000000E+00 -0.17730449050E+03  0.17998063509E+04  0.17910516515E+04 0.  0.
        4    1    3    3  502    0  0.63506161991E+03  0.62996640785E+03 -0.45971638317E+02  0.89569857683E+03  0.12699999809E+01 0.  1.
       -4    1    3    3    0  502 -0.63506161991E+03 -0.62996640785E+03 -0.13133285218E+03  0.90410777403E+03  0.12699999809E+01 0. -1.
</event>
<event>
 5   0  0.3909859E-05  0.1797445E+04  0.7818609E-02  0.8707659E-01
        2   -1    0    0  501    0  0.00000000000E+00  0.00000000000E+00  0.19894127199E+04  0.19894127199E+04  0.25500000920E-02 0. -1.
       -2   -1    0    0    0  501  0.00000000000E+00  0.00000000000E+00 -0.40600038900E+03  0.40600038901E+03  0.25500000920E-02 0.  1.
    10030    2    1    2    0    0  0.00000000000E+00  0.00000000000E+00  0.15834123309E+04  0.23954131089E+04  0.17974452294E+04 0.  0.
        4    1    3    3  502    0 -0.71961231490E+03 -0.48862586378E+03  0.10929724508E+04  0.13968491363E+04  0.12699999809E+01 0. -1.
       -4    1    3    3    0  502  0.71961231490E+03  0.48862586378E+03  0.49043988012E+03  0.99856397262E+03  0.12699999809E+01 0.  1.
</event>
<event>
 5   0  0.3983176E-05  0.1803423E+04  0.7818609E-02  0.8704481E-01
        2   -1    0    0  501    0  0.00000000000E+00  0.00000000000E+00  0.88347018490E+03  0.88347018491E+03  0.25500000920E-02 0. -1.
       -2   -1    0    0    0  501  0.00000000000E+00  0.00000000000E+00 -0.92032920556E+03  0.92032920556E+03  0.25500000920E-02 0.  1.
    10030    2    1    2    0    0  0.00000000000E+00  0.00000000000E+00 -0.36859020653E+02  0.18037993905E+04  0.18034227607E+04 0.  0.
        3    1    3    3  502    0 -0.18361111018E+03 -0.43783831958E+03  0.74832563578E+03  0.88623174240E+03  0.10100000352E+00 0. -1.
       -3    1    3    3    0  502  0.18361111018E+03  0.43783831958E+03 -0.78518465643E+03  0.91756764806E+03  0.10100000352E+00 0.  1.
</event>
<event>
 5   0  0.2054876E-05  0.1800679E+04  0.7818609E-02  0.8705938E-01
       -1   -1    0    0    0  501  0.00000000000E+00  0.00000000000E+00  0.16105779178E+04  0.16105779178E+04  0.50400001928E-02 0. -1.
        1   -1    0    0  501    0  0.00000000000E+00  0.00000000000E+00 -0.50330477668E+03  0.50330477671E+03  0.50400001928E-02 0.  1.
    10030    2    1    2    0    0  0.00000000000E+00  0.00000000000E+00  0.11072731411E+04  0.21138826945E+04  0.18006793821E+04 0.  0.
        5    1    3    3  502    0 -0.33031809984E+03  0.78862493331E+02  0.15324910981E+04  0.15696752517E+04  0.46999998093E+01 0. -1.
       -5    1    3    3    0  502  0.33031809984E+03 -0.78862493331E+02 -0.42521795697E+03  0.54420744286E+03  0.46999998093E+01 0.  1.
</event>
<event>
 5   0  0.4015729E-05  0.1800207E+04  0.7818609E-02  0.8706189E-01
        2   -1    0    0  501    0  0.00000000000E+00  0.00000000000E+00  0.23206806759E+04  0.23206806759E+04  0.25500000920E-02 0.  1.
       -2   -1    0    0    0  501  0.00000000000E+00  0.00000000000E+00 -0.34911591034E+03  0.34911591035E+03  0.25500000920E-02 0. -1.
    10030    2    1    2    0    0  0.00000000000E+00  0.00000000000E+00  0.19715647656E+04  0.26697965863E+04  0.18002072623E+04 0.  0.
        2    1    3    3  502    0  0.77621793176E+03 -0.37286052758E+03  0.13743506961E+04  0.16218443472E+04  0.25500000920E-02 0.  1.
       -2    1    3    3    0  502 -0.77621793176E+03  0.37286052758E+03  0.59721406945E+03  0.10479522391E+04  0.25500000920E-02 0. -1.
</event>
<event>
 5   0  0.2054876E-05  0.1799597E+04  0.7818609E-02  0.8706514E-01
        1   -1    0    0  501    0  0.00000000000E+00  0.00000000000E+00  0.11718027050E+04  0.11718027050E+04  0.50400001928E-02 0. -1.
       -1   -1    0    0    0  501  0.00000000000E+00  0.00000000000E+00 -0.69093299426E+03  0.69093299428E+03  0.50400001928E-02 0.  1.
    10030    2    1    2    0    0  0.00000000000E+00  0.00000000000E+00  0.48086971077E+03  0.18627356993E+04  0.17995967901E+04 0.  0.
        5    1    3    3  502    0 -0.38336287972E+03 -0.18896586846E+03 -0.57914065150E+03  0.71979245703E+03  0.46999998093E+01 0.  1.
       -5    1    3    3    0  502  0.38336287972E+03  0.18896586846E+03  0.10600103623E+04  0.11429432423E+04  0.46999998093E+01 0. -1.
</event>
<event>
 5   0  0.4015729E-05  0.1796100E+04  0.7818609E-02  0.8708376E-01
        2   -1    0    0  501    0  0.00000000000E+00  0.00000000000E+00  0.22726177109E+04  0.22726177109E+04  0.25500000920E-02 0.  1.
       -2   -1    0    0    0  501  0.00000000000E+00  0.00000000000E+00 -0.35487428273E+03  0.35487428274E+03  0.25500000920E-02 0. -1.
    10030    2    1    2    0    0  0.00000000000E+00  0.00000000000E+00  0.19177434282E+04  0.26274919937E+04  0.17960997524E+04 0.  0.
        2    1    3    3  502    0  0.45840539195E+03 -0.40163158571E+03  0.19237679402E+04  0.20180006248E+04  0.25500000920E-02 0.  1.
       -2    1    3    3    0  502 -0.45840539195E+03  0.40163158571E+03 -0.60245119638E+01  0.60949136890E+03  0.25500000920E-02 0. -1.
</event>
<event>
 5   0  0.1960300E-05  0.1802543E+04  0.7818609E-02  0.8704949E-01
       -1   -1    0    0    0  501  0.00000000000E+00  0.00000000000E+00  0.68170785817E+03  0.68170785818E+03  0.50400001928E-02 0.  1.
        1   -1    0    0  501    0  0.00000000000E+00  0.00000000000E+00 -0.11915512786E+04  0.11915512786E+04  0.50400001928E-02 0. -1.
    10030    2    1    2    0    0  0.00000000000E+00  0.00000000000E+00 -0.50984342047E+03  0.18732591368E+04  0.18025425044E+04 0.  0.
        3    1    3    3  502    0 -0.17441672908E+03 -0.21845066048E+03  0.63551723678E+03  0.69427952216E+03  0.10100000352E+00 0.  1.
       -3    1    3    3    0  502  0.17441672908E+03  0.21845066048E+03 -0.11453606572E+04  0.11789796147E+04  0.10100000352E+00 0. -1.
</event>
<event>
 5   0  0.3983176E-05  0.1799859E+04  0.7818609E-02  0.8706374E-01
       -2   -1    0    0    0  501  0.00000000000E+00  0.00000000000E+00  0.93401579702E+03  0.93401579702E+03  0.25500000920E-02 0. -1.
        2   -1    0    0  501    0  0.00000000000E+00  0.00000000000E+00 -0.86708729794E+03  0.86708729795E+03  0.25500000920E-02 0.  1.
    10030    2    1    2    0    0  0.00000000000E+00  0.00000000000E+00  0.66928499078E+02  0.18011030950E+04  0.17998591430E+04 0.  0.
        3    1    3    3  502    0  0.37987984301E+03 -0.63416597604E+03  0.54704214827E+03  0.91963596193E+03  0.10100000352E+00 0. -1.
       -3    1    3    3    0  502 -0.37987984301E+03  0.63416597604E+03 -0.48011364919E+03  0.88146713304E+03  0.10100000352E+00 0.  1.
</event>
<event>
 5   0  0.1906857E-05  0.1801055E+04  0.7818609E-02  0.8705739E-01
        1   -1    0    0  501    0  0.00000000000E+00  0.00000000000E+00  0.49796449553E+03  0.49796449556E+03  0.50400001928E-02 0.  1.
       -1   -1    0    0    0  501  0.00000000000E+00  0.00000000000E+00 -0.16285293844E+04  0.16285293844E+04  0.50400001928E-02 0. -1.
    10030    2    1    2    0    0  0.00000000000E+00  0.00000000000E+00 -0.11305648888E+04  0.21264938799E+04  0.18010550390E+04 0.  0.
        4    1    3    3  502    0 -0.67800374794E+03 -0.23051438274E+03 -0.12099478100E+04  0.14059876524E+04  0.12699999809E+01 0. -1.
       -4    1    3    3    0  502  0.67800374794E+03  0.23051438274E+03  0.79382921156E+02  0.72050622755E+03  0.12699999809E+01 0.  1.
</event>
<event>
 5   0  0.2038338E-05  0.1749640E+04  0.7818609E-02  0.8733548E-01
       -1   -1    0    0    0  501  0.00000000000E+00  0.00000000000E+00  0.78776539957E+03  0.78776539958E+03  0.50400001928E-02 0.  1.
        1   -1    0    0  501    0  0.00000000000E+00  0.00000000000E+00 -0.97149517890E+03  0.97149517891E+03  0.50400001928E-02 0. -1.
    10030    2    1    2    0    0  0.00000000000E+00  0.00000000000E+00 -0.18372977933E+03  0.17592605785E+04  0.17496402920E+04 0.  0.
        1    1    3    3  502    0 -0.17864738852E+03  0.74228925772E+03 -0.52129872987E+03  0.92447855429E+03  0.50400001928E-02 0. -1.
       -1    1    3    3    0  502  0.17864738852E+03 -0.74228925772E+03  0.33756895054E+03  0.83478202421E+03  0.50400001928E-02 0.  1.
</event>
<event>
 5   0  0.4015729E-05  0.1797443E+04  0.7818609E-02  0.8707660E-01
       -2   -1    0    0    0  501  0.00000000000E+00  0.00000000000E+00  0.16147170712E+04  0.16147170712E+04  0.25500000920E-02 0. -1.
        2   -1    0    0  501    0  0.00000000000E+00  0.00000000000E+00 -0.50021165616E+03  0.50021165617E+03  0.25500000920E-02 0.  1.
    10030    2    1    2    0    0  0.00000000000E+00  0.00000000000E+00  0.11145054150E+04  0.21149287274E+04  0.17974429620E+04 0.  0.
        2    1    3    3  502    0  0.26568332277E+03  0.42075807342E+02 -0.45173387885E+03  0.52575802311E+03  0.25500000920E-02 0.  1.
       -2    1    3    3    0  502 -0.26568332277E+03 -0.42075807342E+02  0.15662392939E+04  0.15891707042E+04  0.25500000920E-02 0. -1.
</event>
<event>
 5   0  0.1960300E-05  0.1794880E+04  0.7818609E-02  0.8709027E-01
       -1   -1    0    0    0  501  0.00000000000E+00  0.00000000000E+00  0.52097396054E+03  0.52097396057E+03  0.50400001928E-02 0.  1.
        1   -1    0    0  501    0  0.00000000000E+00  0.00000000000E+00 -0.15459477258E+04  0.15459477258E+04  0.50400001928E-02 0. -1.
    10030    2    1    2    0    0  0.00000000000E+00  0.00000000000E+00 -0.10249737652E+04  0.20669216864E+04  0.17948799509E+04 0.  0.
        3    1    3    3  502    0  0.19762119911E+03 -0.58024332598E+03 -0.12673220237E+04  0.14077789520E+04  0.10100000352E+00 0. -1.
       -3    1    3    3    0  502 -0.19762119911E+03  0.58024332598E+03  0.24234825848E+03  0.65914273437E+03  0.10100000352E+00 0.  1.
</event>
<event>
 5   0  0.3909859E-05  0.1801214E+04  0.7818609E-02  0.8705654E-01
       -2   -1    0    0    0  501  0.00000000000E+00  0.00000000000E+00  0.10273574153E+04  0.10273574153E+04  0.25500000920E-02 0.  1.
        2   -1    0    0  501    0  0.00000000000E+00  0.00000000000E+00 -0.78949445323E+03  0.78949445324E+03  0.25500000920E-02 0. -1.
    10030    2    1    2    0    0  0.00000000000E+00  0.00000000000E+00  0.23786296210E+03  0.18168518686E+04  0.18012140138E+04 0.  0.
        4    1    3    3  502    0  0.51531184118E+03  0.41749724819E+03  0.73351688390E+03  0.98888769725E+03  0.12699999809E+01 0.  1.
       -4    1    3    3    0  502 -0.51531184118E+03 -0.41749724819E+03 -0.49565392180E+03  0.82796417133E+03  0.12699999809E+01 0. -1.
</event>
<event>
 5   0  0.3983176E-05  0.1766477E+04  0.7818609E-02  0.8724332E-01
       -2   -1    0    0    0  501  0.00000000000E+00  0.00000000000E+00  0.36179020747E+03  0.36179020748E+03  0.25500000920E-02 0. -1.
        2   -1    0    0  501    0  0.00000000000E+00  0.00000000000E+00 -0.21562509698E+04  0.21562509698E+04  0.25500000920E-02 0.  1.
    10030    2    1    2    0    0  0.00000000000E+00  0.00000000000E+00 -0.17944607623E+04  0.25180411772E+04  0.17664772693E+04 0.  0.
        3    1    3    3  502    0 -0.13650690421E+03  0.28945655472E+03  0.27623616095E+03  0.42275957563E+03  0.10100000352E+00 0. -1.
       -3    1    3    3    0  502  0.13650690421E+03 -0.28945655472E+03 -0.20706969232E+04  0.20952816016E+04  0.10100000352E+00 0.  1.
</event>
<event>
 5   0  0.3993393E-05  0.1797350E+04  0.7818609E-02  0.8707710E-01
        2   -1    0    0  501    0  0.00000000000E+00  0.00000000000E+00  0.18371700642E+04  0.18371700642E+04  0.25500000920E-02 0. -1.
       -2   -1    0    0    0  501  0.00000000000E+00  0.00000000000E+00 -0.43959830545E+03  0.43959830546E+03  0.25500000920E-02 0.  1.
    10030    2    1    2    0    0  0.00000000000E+00  0.00000000000E+00  0.13975717587E+04  0.22767683697E+04  0.17973501017E+04 0.  0.
        5    1    3    3  502    0  0.49139401455E+03 -0.71376865219E+03  0.10003142983E+04  0.13234744243E+04  0.46999998093E+01 0. -1.
       -5    1    3    3    0  502 -0.49139401455E+03  0.71376865219E+03  0.39725746045E+03  0.95329394537E+03  0.46999998093E+01 0.  1.
</event>
<event>
 5   0  0.1906857E-05  0.1798863E+04  0.7818609E-02  0.8706905E-01
       -1   -1    0    0    0  501  0.00000000000E+00  0.00000000000E+00  0.87372742422E+03  0.87372742424E+03  0.50400001928E-02 0. -1.
        1   -1    0    0  501    0  0.00000000000E+00  0.00000000000E+00 -0.92589141174E+03  0.92589141175E+03  0.50400001928E-02 0.  1.
    10030    2    1    2    0    0  0.00000000000E+00  0.00000000000E+00 -0.52163987515E+02  0.17996188360E+04  0.17988626610E+04 0.  0.
        4    1    3    3  502    0 -0.86991698095E+03 -0.49726987050E+00 -0.25469348892E+03  0.90643598077E+03  0.12699999809E+01 0. -1.
       -4    1    3    3    0  502  0.86991698095E+03  0.49726987050E+00  0.20252950140E+03  0.89318285523E+03  0.12699999809E+01 0.  1.
</event>
<event>
 5   0  0.1960300E-05  0.1798187E+04  0.7818609E-02  0.8707264E-01
        1   -1    0    0  501    0  0.00000000000E+00  0.00000000000E+00  0.74592167305E+03  0.74592167307E+03  0.50400001928E-02 0.  1.
       -1   -1    0    0    0  501  0.00000000000E+00  0.00000000000E+00 -0.10837185357E+04  0.10837185357E+04  0.50400001928E-02 0. -1.
    10030    2    1    2    0    0  0.00000000000E+00  0.00000000000E+00 -0.33779686266E+03  0.18296402088E+04  0.17981870240E+04 0.  0.
        3    1    3    3  502    0  0.55799371652E+03  0.39717228280E+03  0.42375555865E+03  0.80540151079E+03  0.10100000352E+00 0.  1.
       -3    1    3    3    0  502 -0.55799371652E+03 -0.39717228280E+03 -0.76155242130E+03  0.10242386980E+04  0.10100000352E+00 0. -1.
</event>
<event>
 5   0  0.2054876E-05  0.1801450E+04  0.7818609E-02  0.8705528E-01
        1   -1    0    0  501    0  0.00000000000E+00  0.00000000000E+00  0.19105852659E+04  0.19105852659E+04  0.50400001928E-02 0. -1.
       -1   -1    0    0    0  501  0.00000000000E+00  0.00000000000E+00 -0.42463740766E+03  0.42463740769E+03  0.50400001928E-02 0.  1.
    10030    2    1    2    0    0  0.00000000000E+00  0.00000000000E+00  0.14859478583E+04  0.23352226736E+04  0.18014504983E+04 0.  0.
        5    1    3    3  502    0  0.30761801660E+03 -0.62961311508E+02 -0.35137691416E+03  0.47125449249E+03  0.46999998093E+01 0.  1.
       -5    1    3    3    0  502 -0.30761801660E+03  0.62961311508E+02  0.18373247724E+04  0.18639681811E+04  0.46999998093E+01 0. -1.
</event>
<event>
 5   0  0.3909859E-05  0.1821941E+04  0.7818609E-02  0.8694718E-01
       -2   -1    0    0    0  501  0.00000000000E+00  0.00000000000E+00  0.73256251736E+03  0.73256251737E+03  0.25500000920E-02 0. -1.
        2   -1    0    0  501    0  0.00000000000E+00  0.00000000000E+00 -0.11328280190E+04  0.11328280190E+04  0.25500000920E-02 0.  1.
    10030    2    1    2    0    0  0.00000000000E+00  0.00000000000E+00 -0.40026550160E+03  0.18653905363E+04  0.18219411026E+04 0.  0.
        4    1    3    3  502    0  0.13103662238E+03 -0.78646581970E+03 -0.65128461365E+03  0.10295010164E+04  0.12699999809E+01 0.  1.
       -4    1    3    3    0  502 -0.13103662238E+03  0.78646581970E+03  0.25101911205E+03  0.83588951990E+03  0.12699999809E+01 0. -1.
</event>
<event>
 5   0  0.3984648E-05  0.1797939E+04  0.7818609E-02  0.8707396E-01
       -2   -1    0    0    0  501  0.00000000000E+00  0.00000000000E+00  0.50044869055E+03  0.50044869056E+03  0.25500000920E-02 0.  1.
        2   -1    0    0  501    0  0.00000000000E+00  0.00000000000E+00 -0.16148434598E+04  0.16148434598E+04  0.25500000920E-02 0. -1.
    10030    2    1    2    0    0  0.00000000000E+00  0.00000000000E+00 -0.11143947692E+04  0.21152921504E+04  0.17979391479E+04 0.  0.
        1    1    3    3  502    0 -0.59512287676E+02 -0.89698162353E+03 -0.55091108488E+03  0.10543342775E+04  0.50400001928E-02 0.  1.
       -1    1    3    3    0  502  0.59512287676E+02  0.89698162353E+03 -0.56348368437E+03  0.10609578728E+04  0.50400001928E-02 0. -1.
</event>
<event>
 5   0  0.3993393E-05  0.1802675E+04  0.7818609E-02  0.8704878E-01
        2   -1    0    0  501    0  0.00000000000E+00  0.00000000000E+00  0.15737048002E+04  0.15737048002E+04  0.25500000920E-02 0.  1.
       -2   -1    0    0    0  501  0.00000000000E+00  0.00000000000E+00 -0.51624018704E+03  0.51624018705E+03  0.25500000920E-02 0. -1.
    10030    2    1    2    0    0  0.00000000000E+00  0.00000000000E+00  0.10574646132E+04  0.20899449873E+04  0.18026754122E+04 0.  0.
        5    1    3    3  502    0  0.98511490708E+02 -0.46367712580E+03 -0.36003936994E+03  0.59527424663E+03  0.46999998093E+01 0. -1.
       -5    1    3    3    0  502 -0.98511490708E+02  0.46367712580E+03  0.14175039831E+04  0.14946707407E+04  0.46999998093E+01 0.  1.
</event>
<event>
 5   0  0.3909859E-05  0.1796471E+04  0.7818609E-02  0.8708179E-01
        2   -1    0    0  501    0  0.00000000000E+00  0.00000000000E+00  0.11912520234E+04  0.11912520234E+04  0.25500000920E-02 0.  1.
       -2   -1    0    0    0  501  0.00000000000E+00  0.00000000000E+00 -0.67729297989E+03  0.67729297990E+03  0.25500000920E-02 0. -1.
    10030    2    1    2    0    0  0.00000000000E+00  0.00000000000E+00  0.51395904354E+03  0.18685450033E+04  0.17964705762E+04 0.  0.
        4    1    3    3  502    0  0.25362190390E+03 -0.70721801545E+03  0.76901406029E+03  0.10751119148E+04  0.12699999809E+01 0.  1.
       -4    1    3    3    0  502 -0.25362190390E+03  0.70721801545E+03 -0.25505501675E+03  0.79343308853E+03  0.12699999809E+01 0. -1.
</event>
<event>
 5   0  0.4015729E-05  0.1792512E+04  0.7818609E-02  0.8710292E-01
       -2   -1    0    0    0  501  0.00000000000E+00  0.00000000000E+00  0.47320018924E+03  0.47320018924E+03  0.25500000920E-02 0. -1.
        2   -1    0    0  501    0  0.00000000000E+00  0.00000000000E+00 -0.16975363364E+04  0.16975363364E+04  0.25500000920E-02 0.  1.
    10030    2    1    2    0    0  0.00000000000E+00  0.00000000000E+00 -0.12243361472E+04  0.21707365257E+04  0.17925116632E+04 0.  0.
        2    1    3    3  502    0  0.57304034031E+03  0.40563948311E+03 -0.12868127883E+04  0.14658805456E+04  0.25500000920E-02 0.  1.
       -2    1    3    3    0  502 -0.57304034031E+03 -0.40563948311E+03  0.62476641139E+02  0.70485598003E+03  0.25500000920E-02 0. -1.
</event>
<event>
 5   0  0.3993393E-05  0.1793892E+04  0.7818609E-02  0.8709555E-01
        2   -1    0    0  501    0  0.00000000000E+00  0.00000000000E+00  0.92773779211E+03  0.92773779211E+03  0.25500000920E-02 0.  1.
       -2   -1    0    0    0  501  0.00000000000E+00  0.00000000000E+00 -0.86717597867E+03  0.86717597867E+03  0.25500000920E-02 0. -1.
    10030    2    1    2    0    0  0.00000000000E+00  0.00000000000E+00  0.60561813441E+02  0.17949137708E+04  0.17938917780E+04 0.  0.
        5    1    3    3  502    0 -0.45404401694E+02 -0.20206325190E+03  0.90347432392E+03  0.92691912346E+03  0.46999998093E+01 0.  1.
       -5    1    3    3    0  502  0.45404401694E+02  0.20206325190E+03 -0.84291251047E+03  0.86799464732E+03  0.46999998093E+01 0. -1.
</event>
<event>
 5   0  0.3993393E-05  0.1797587E+04  0.7818609E-02  0.8707584E-01
       -2   -1    0    0    0  501  0.00000000000E+00  0.00000000000E+00  0.12481254254E+04  0.12481254254E+04  0.25500000920E-02 0.  1.
        2   -1    0    0  501    0  0.00000000000E+00  0.00000000000E+00 -0.64723408785E+03  0.64723408786E+03  0.25500000920E-02 0. -1.
    10030    2    1    2    0    0  0.00000000000E+00  0.00000000000E+00  0.60089133756E+03  0.18953595133E+04  0.17975865167E+04 0.  0.
        5    1    3    3  502    0  0.28458336866E+03 -0.39953074499E+03  0.10945323059E+04  0.11994313521E+04  0.46999998093E+01 0.  1.
       -5    1    3    3    0  502 -0.28458336866E+03  0.39953074499E+03 -0.49364096829E+03  0.69592816115E+03  0.46999998093E+01 0. -1.
</event>
<event>
 5   0  0.2001811E-05  0.1784252E+04  0.7818609E-02  0.8714719E-01
       -1   -1    0    0    0  501  0.00000000000E+00  0.00000000000E+00  0.60096230887E+03  0.60096230889E+03  0.50400001928E-02 0. -1.
        1   -1    0    0  501    0  0.00000000000E+00  0.00000000000E+00 -0.13243566742E+04  0.13243566742E+04  0.50400001928E-02 0.  1.
    10030    2    1    2    0    0  0.00000000000E+00  0.00000000000E+00 -0.72339436531E+03  0.19253189831E+04  0.17842516019E+04 0.  0.
        2    1    3    3  502    0 -0.23160974369E+03  0.41123444581E+03 -0.11786063606E+04  0.12695943431E+04  0.25500000920E-02 0.  1.
       -2    1    3    3    0  502  0.23160974369E+03 -0.41123444581E+03  0.45521199530E+03  0.65572463997E+03  0.25500000920E-02 0. -1.
</event>
<event>
 5   0  0.2001811E-05  0.1811916E+04  0.7818609E-02  0.8699988E-01
       -1   -1    0    0    0  501  0.00000000000E+00  0.00000000000E+00  0.11909603025E+04  0.11909603026E+04  0.50400001928E-02 0.  1.
        1   -1    0    0  501    0  0.00000000000E+00  0.00000000000E+00 -0.68915823110E+03  0.68915823111E+03  0.50400001928E-02 0. -1.
    10030    2    1    2    0    0  0.00000000000E+00  0.00000000000E+00  0.50180207145E+03  0.18801185337E+04  0.18119162182E+04 0.  0.
        2    1    3    3  502    0  0.21362890625E+03  0.11596465563E+03  0.11564917579E+04  0.11817606767E+04  0.25500000920E-02 0.  1.
       -2    1    3    3    0  502 -0.21362890625E+03 -0.11596465563E+03 -0.65468968640E+03  0.69835785700E+03  0.25500000920E-02 0. -1.
</event>
<event>
 5   0  0.1446750E-05  0.1798548E+04  0.7818609E-02  0.8707072E-01
        4   -1    0    0  501    0  0.00000000000E+00  0.00000000000E+00  0.10011880988E+04  0.10011889043E+04  0.12699999809E+01 0. -1.
       -4   -1    0    0    0  501  0.00000000000E+00  0.00000000000E+00 -0.80773267754E+03  0.80773367595E+03  0.12699999809E+01 0.  1.
    10030    2    1    2    0    0  0.00000000000E+00  0.00000000000E+00  0.19345542129E+03  0.18089225803E+04  0.17985482761E+04 0.  0.
        5    1    3    3  502    0 -0.89398531433E+03  0.78248864900E+01 -0.78987183789E+00  0.89403226171E+03  0.46999998093E+01 0. -1.
       -5    1    3    3    0  502  0.89398531433E+03 -0.78248864900E+01  0.19424529313E+03  0.91489031856E+03  0.46999998093E+01 0.  1.
</event>
<event>
 5   0  0.2054876E-05  0.1799806E+04  0.7818609E-02  0.8706403E-01
       -1   -1    0    0    0  501  0.00000000000E+00  0.00000000000E+00  0.66189857121E+03  0.66189857123E+03  0.50400001928E-02 0. -1.
        1   -1    0    0  501    0  0.00000000000E+00  0.00000000000E+00 -0.12234886260E+04  0.12234886260E+04  0.50400001928E-02 0.  1.
    10030    2    1    2    0    0  0.00000000000E+00  0.00000000000E+00 -0.56159005482E+03  0.18853871973E+04  0.17998059601E+04 0.  0.
        5    1    3    3  502    0  0.56273650667E+03  0.69934389781E+03 -0.34745265268E+03  0.96254854381E+03  0.46999998093E+01 0.  1.
       -5    1    3    3    0  502 -0.56273650667E+03 -0.69934389781E+03 -0.21413740215E+03  0.92283865347E+03  0.46999998093E+01 0. -1.
</event>
<event>
 5   0  0.3983176E-05  0.1798592E+04  0.7818609E-02  0.8707048E-01
        2   -1    0    0  501    0  0.00000000000E+00  0.00000000000E+00  0.11430684879E+04  0.11430684879E+04  0.25500000920E-02 0.  1.
       -2   -1    0    0    0  501  0.00000000000E+00  0.00000000000E+00 -0.70751099952E+03  0.70751099952E+03  0.25500000920E-02 0. -1.
    10030    2    1    2    0    0  0.00000000000E+00  0.00000000000E+00  0.43555748842E+03  0.18505794875E+04  0.17985922589E+04 0.  0.
        3    1    3    3  502    0 -0.59104850527E+03 -0.60918020612E+03  0.52351169023E+03  0.99724789251E+03  0.10100000352E+00 0.  1.
       -3    1    3    3    0  502  0.59104850527E+03  0.60918020612E+03 -0.87954201810E+02  0.85333159495E+03  0.10100000352E+00 0. -1.
</event>
<event>
 5   0  0.2038338E-05  0.1800994E+04  0.7818609E-02  0.8705771E-01
        1   -1    0    0  501    0  0.00000000000E+00  0.00000000000E+00  0.85727425402E+03  0.85727425404E+03  0.50400001928E-02 0.  1.
       -1   -1    0    0    0  501  0.00000000000E+00  0.00000000000E+00 -0.94589930539E+03  0.94589930541E+03  0.50400001928E-02 0. -1.
    10030    2    1    2    0    0  0.00000000000E+00  0.00000000000E+00 -0.88625051367E+02  0.18031735594E+04  0.18009943048E+04 0.  0.
        1    1    3    3  502    0 -0.89288779892E+03  0.11472031771E+03 -0.66378900566E+02  0.90267133068E+03  0.50400001928E-02 0.  1.
       -1    1    3    3    0  502  0.89288779892E+03 -0.11472031771E+03 -0.22246150801E+02  0.90050222877E+03  0.50400001928E-02 0. -1.
</event>
<event>
 5   0  0.2001811E-05  0.1807017E+04  0.7818609E-02  0.8702577E-01
       -1   -1    0    0    0  501  0.00000000000E+00  0.00000000000E+00  0.11920313741E+04  0.11920313742E+04  0.50400001928E-02 0.  1.
        1   -1    0    0  501    0  0.00000000000E+00  0.00000000000E+00 -0.68482031562E+03  0.68482031564E+03  0.50400001928E-02 0. -1.
    10030    2    1    2    0    0  0.00000000000E+00  0.00000000000E+00  0.50721105852E+03  0.18768516898E+04  0.18070166595E+04 0.  0.
        2    1    3    3  502    0 -0.54657739006E+03  0.66391580643E+03  0.54143670775E+03  0.10162109770E+04  0.25500000920E-02 0.  1.
       -2    1    3    3    0  502  0.54657739006E+03 -0.66391580643E+03 -0.34225649231E+02  0.86064071274E+03  0.25500000920E-02 0. -1.
</event>
<event>
 5   0  0.2054876E-05  0.1796468E+04  0.7818609E-02  0.8708180E-01
       -1   -1    0    0    0  501  0.00000000000E+00  0.00000000000E+00  0.77263602349E+03  0.77263602351E+03  0.50400001928E-02 0. -1.
        1   -1    0    0  501    0  0.00000000000E+00  0.00000000000E+00 -0.10442484727E+04  0.10442484727E+04  0.50400001928E-02 0.  1.
    10030    2    1    2    0    0  0.00000000000E+00  0.00000000000E+00 -0.27161244921E+03  0.18168844962E+04  0.17964676312E+04 0.  0.
        5    1    3    3  502    0 -0.86204995236E+03 -0.11960116226E+03 -0.36051900967E+03  0.94203535216E+03  0.46999998093E+01 0.  1.
       -5    1    3    3    0  502  0.86204995236E+03  0.11960116226E+03  0.88906560454E+02  0.87484914407E+03  0.46999998093E+01 0. -1.
</event>
<event>
 5   0  0.4015729E-05  0.1798677E+04  0.7818609E-02  0.8707003E-01
        2   -1    0    0  501    0  0.00000000000E+00  0.00000000000E+00  0.12330009049E+04  0.12330009049E+04  0.25500000920E-02 0.  1.
       -2   -1    0    0    0  501  0.00000000000E+00  0.00000000000E+00 -0.65596847927E+03  0.65596847928E+03  0.25500000920E-02 0. -1.
    10030    2    1    2    0    0  0.00000000000E+00  0.00000000000E+00  0.57703242561E+03  0.18889693842E+04  0.17986769899E+04 0.  0.
        2    1    3    3  502    0  0.34089005639E+03  0.77251188637E+03  0.61361878624E+03  0.10437953152E+04  0.25500000920E-02 0.  1.
       -2    1    3    3    0  502 -0.34089005639E+03 -0.77251188637E+03 -0.36586360622E+02  0.84517406901E+03  0.25500000920E-02 0. -1.
</event>
<event>
 5   0  0.3909859E-05  0.1780804E+04  0.7818609E-02  0.8716575E-01
       -2   -1    0    0    0  501  0.00000000000E+00  0.00000000000E+00  0.69199744975E+03  0.69199744976E+03  0.25500000920E-02 0. -1.
        2   -1    0    0  501    0  0.00000000000E+00  0.00000000000E+00 -0.11456918329E+04  0.11456918329E+04  0.25500000920E-02 0.  1.
    10030    2    1    2    0    0  0.00000000000E+00  0.00000000000E+00 -0.45369438311E+03  0.18376892826E+04  0.17808041179E+04 0.  0.
        4    1    3    3  502    0 -0.79497859545E+03  0.13326350383E+03 -0.61716758424E+03  0.10152081405E+04  0.12699999809E+01 0.  1.
       -4    1    3    3    0  502  0.79497859545E+03 -0.13326350383E+03  0.16347320114E+03  0.82248114208E+03  0.12699999809E+01 0. -1.
</event>
<event>
 5   0  0.1960300E-05  0.1791551E+04  0.7818609E-02  0.8710806E-01
       -1   -1    0    0    0  501  0.00000000000E+00  0.00000000000E+00  0.71231474950E+03  0.71231474952E+03  0.50400001928E-02 0. -1.
        1   -1    0    0  501    0  0.00000000000E+00  0.00000000000E+00 -0.11264874806E+04  0.11264874806E+04  0.50400001928E-02 0.  1.
    10030    2    1    2    0    0  0.00000000000E+00  0.00000000000E+00 -0.41417273105E+03  0.18388022301E+04  0.17915508897E+04 0.  0.
        3    1    3    3  502    0  0.54048715420E+03 -0.70565523017E+03 -0.93080362086E+02  0.89372234599E+03  0.10100000352E+00 0. -1.
       -3    1    3    3    0  502 -0.54048715420E+03  0.70565523017E+03 -0.32109236896E+03  0.94507988410E+03  0.10100000352E+00 0.  1.
</event>
<event>
 5   0  0.4015729E-05  0.1800234E+04  0.7818609E-02  0.8706175E-01
        2   -1    0    0  501    0  0.00000000000E+00  0.00000000000E+00  0.15715125456E+04  0.15715125456E+04  0.25500000920E-02 0. -1.
       -2   -1    0    0    0  501  0.00000000000E+00  0.00000000000E+00 -0.51556087245E+03  0.51556087246E+03  0.25500000920E-02 0.  1.
    10030    2    1    2    0    0  0.00000000000E+00  0.00000000000E+00  0.10559516732E+04  0.20870734181E+04  0.18002337394E+04 0.  0.
        2    1    3    3  502    0 -0.11970180453E+03 -0.37475454240E+03 -0.41061345646E+03  0.56865886056E+03  0.25500000920E-02 0.  1.
       -2    1    3    3    0  502  0.11970180453E+03  0.37475454240E+03  0.14665651296E+04  0.15184145575E+04  0.25500000920E-02 0. -1.
</event>
<event>
 5   0  0.2054876E-05  0.1801578E+04  0.7818609E-02  0.8705461E-01
       -1   -1    0    0    0  501  0.00000000000E+00  0.00000000000E+00  0.16204170638E+04  0.16204170638E+04  0.50400001928E-02 0.  1.
        1   -1    0    0  501    0  0.00000000000E+00  0.00000000000E+00 -0.50074810584E+03  0.50074810586E+03  0.50400001928E-02 0. -1.
    10030    2    1    2    0    0  0.00000000000E+00  0.00000000000E+00  0.11196689579E+04  0.21211651696E+04  0.18015779477E+04 0.  0.
        5    1    3    3  502    0  0.45745637499E+03 -0.43813123461E+03 -0.19422423203E+03  0.66254845563E+03  0.46999998093E+01 0. -1.
       -5    1    3    3    0  502 -0.45745637499E+03  0.43813123461E+03  0.13138931900E+04  0.14586167140E+04  0.46999998093E+01 0.  1.
</event>
<event>
 5   0  0.1446750E-05  0.1800833E+04  0.7818609E-02  0.8705856E-01
       -3   -1    0    0    0  501  0.00000000000E+00  0.00000000000E+00  0.20667155223E+04  0.20667155248E+04  0.10100000352E+00 0.  1.
        3   -1    0    0  501    0  0.00000000000E+00  0.00000000000E+00 -0.39228919373E+03  0.39228920674E+03  0.10100000352E+00 0. -1.
    10030    2    1    2    0    0  0.00000000000E+00  0.00000000000E+00  0.16744263286E+04  0.24590047315E+04  0.18008333459E+04 0.  0.
        5    1    3    3  502    0 -0.50143559551E+03  0.27882803166E+03  0.17847682023E+04  0.18747272745E+04  0.46999998093E+01 0.  1.
       -5    1    3    3    0  502  0.50143559551E+03 -0.27882803166E+03 -0.11034187375E+03  0.58427745702E+03  0.46999998093E+01 0. -1.
</event>
<event>
 5   0  0.1906857E-05  0.1806078E+04  0.7818609E-02  0.8703074E-01
       -1   -1    0    0    0  501  0.00000000000E+00  0.00000000000E+00  0.32069396625E+03  0.32069396629E+03  0.50400001928E-02 0.  1.
        1   -1    0    0  501    0  0.00000000000E+00  0.00000000000E+00 -0.25428596796E+04  0.25428596796E+04  0.50400001928E-02 0. -1.
    10030    2    1    2    0    0  0.00000000000E+00  0.00000000000E+00 -0.22221657133E+04  0.28635536458E+04  0.18060783552E+04 0.  0.
        4    1    3    3  502    0  0.28832222462E+03  0.54782377400E+03 -0.68693465882E+02  0.62286515212E+03  0.12699999809E+01 0.  1.
       -4    1    3    3    0  502 -0.28832222462E+03 -0.54782377400E+03 -0.21534722474E+04  0.22406884937E+04  0.12699999809E+01 0. -1.
</event>
<event>
 5   0  0.2001811E-05  0.1795244E+04  0.7818609E-02  0.8708833E-01
        1   -1    0    0  501    0  0.00000000000E+00  0.00000000000E+00  0.78242658616E+03  0.78242658617E+03  0.50400001928E-02 0. -1.
       -1   -1    0    0    0  501  0.00000000000E+00  0.00000000000E+00 -0.10297769207E+04  0.10297769208E+04  0.50400001928E-02 0.  1.
    10030    2    1    2    0    0  0.00000000000E+00  0.00000000000E+00 -0.24735033459E+03  0.18122035069E+04  0.17952435385E+04 0.  0.
        2    1    3    3  502    0 -0.87757895261E+03  0.75228052423E+02 -0.29828549365E+03  0.92993457494E+03  0.25500000920E-02 0. -1.
       -2    1    3    3    0  502  0.87757895261E+03 -0.75228052423E+02  0.50935159063E+02  0.88226893200E+03  0.25500000920E-02 0.  1.
</event>
<event>
 5   0  0.2054876E-05  0.1800286E+04  0.7818609E-02  0.8706147E-01
        1   -1    0    0  501    0  0.00000000000E+00  0.00000000000E+00  0.91932227509E+03  0.91932227511E+03  0.50400001928E-02 0.  1.
       -1   -1    0    0    0  501  0.00000000000E+00  0.00000000000E+00 -0.88136368935E+03  0.88136368937E+03  0.50400001928E-02 0. -1.
    10030    2    1    2    0    0  0.00000000000E+00  0.00000000000E+00  0.37958585741E+02  0.18006859645E+04  0.18002858352E+04 0.  0.
        5    1    3    3  502    0  0.56905209763E+03 -0.20460537762E+03 -0.64791587478E+03  0.88628478558E+03  0.46999998093E+01 0. -1.
       -5    1    3    3    0  502 -0.56905209763E+03  0.20460537762E+03  0.68587446052E+03  0.91440117889E+03  0.46999998093E+01 0.  1.
</event>
<event>
 5   0  0.2038338E-05  0.1800491E+04  0.7818609E-02  0.8706038E-01
       -1   -1    0    0    0  501  0.00000000000E+00  0.00000000000E+00  0.16079344892E+04  0.16079344892E+04  0.50400001928E-02 0.  1.
        1   -1    0    0  501    0  0.00000000000E+00  0.00000000000E+00 -0.50402689273E+03  0.50402689276E+03  0.50400001928E-02 0. -1.
    10030    2    1    2    0    0  0.00000000000E+00  0.00000000000E+00  0.11039075965E+04  0.21119613820E+04  0.18004912933E+04 0.  0.
        1    1    3    3  502    0  0.33083486795E+03  0.80990356115E+03  0.30299549712E+03  0.92585191014E+03  0.50400001928E-02 0. -1.
       -1    1    3    3    0  502 -0.33083486795E+03 -0.80990356115E+03  0.80091209934E+03  0.11861094718E+04  0.50400001928E-02 0.  1.
</event>
<event>
 5   0  0.3983176E-05  0.1799024E+04  0.7818609E-02  0.8706819E-01
        2   -1    0    0  501    0  0.00000000000E+00  0.00000000000E+00  0.22172327065E+04  0.22172327065E+04  0.25500000920E-02 0.  1.
       -2   -1    0    0    0  501  0.00000000000E+00  0.00000000000E+00 -0.36492423519E+03  0.36492423519E+03  0.25500000920E-02 0. -1.
    10030    2    1    2    0    0  0.00000000000E+00  0.00000000000E+00  0.18523084713E+04  0.25821569417E+04  0.17990241240E+04 0.  0.
        3    1    3    3  502    0 -0.42030301106E+03  0.46597449789E+03  0.18511611047E+04  0.19546314996E+04  0.10100000352E+00 0.  1.
       -3    1    3    3    0  502  0.42030301106E+03 -0.46597449789E+03  0.11473666675E+01  0.62752544207E+03  0.10100000352E+00 0. -1.
</event>
<event>
 5   0  0.3983176E-05  0.1797827E+04  0.7818609E-02  0.8707456E-01
        2   -1    0    0  501    0  0.00000000000E+00  0.00000000000E+00  0.26948804333E+04  0.26948804333E+04  0.25500000920E-02 0.  1.
       -2   -1    0    0    0  501  0.00000000000E+00  0.00000000000E+00 -0.29984466618E+03  0.29984466619E+03  0.25500000920E-02 0. -1.
    10030    2    1    2    0    0  0.00000000000E+00  0.00000000000E+00  0.23950357672E+04  0.29947250995E+04  0.17978270483E+04 0.  0.
        3    1    3    3  502    0 -0.27421722823E+03 -0.82045658593E+03  0.79051136149E+03  0.11718584900E+04  0.10100000352E+00 0. -1.
       -3    1    3    3    0  502  0.27421722823E+03  0.82045658593E+03  0.16045244057E+04  0.18228666096E+04  0.10100000352E+00 0.  1.
</event>
<event>
 5   0  0.2054876E-05  0.1746435E+04  0.7818609E-02  0.8735315E-01
       -1   -1    0    0    0  501  0.00000000000E+00  0.00000000000E+00  0.33473184896E+03  0.33473184900E+03  0.50400001928E-02 0. -1.
        1   -1    0    0  501    0  0.00000000000E+00  0.00000000000E+00 -0.22779689580E+04  0.22779689580E+04  0.50400001928E-02 0.  1.
    10030    2    1    2    0    0  0.00000000000E+00  0.00000000000E+00 -0.19432371090E+04  0.26127008070E+04  0.17464349530E+04 0.  0.
        5    1    3    3  502    0 -0.33410651228E+03  0.75182018529E+03 -0.14093823960E+04  0.16319441108E+04  0.46999998093E+01 0.  1.
       -5    1    3    3    0  502  0.33410651228E+03 -0.75182018529E+03 -0.53385471304E+03  0.98075669623E+03  0.46999998093E+01 0. -1.
</event>
<event>
 5   0  0.1960300E-05  0.1776941E+04  0.7818609E-02  0.8718659E-01
        1   -1    0    0  501    0  0.00000000000E+00  0.00000000000E+00  0.82644485973E+03  0.82644485975E+03  0.50400001928E-02 0.  1.
       -1   -1    0    0    0  501  0.00000000000E+00  0.00000000000E+00 -0.95515089347E+03  0.95515089348E+03  0.50400001928E-02 0. -1.
    10030    2    1    2    0    0  0.00000000000E+00  0.00000000000E+00 -0.12870603374E+03  0.17815957532E+04  0.17769406813E+04 0.  0.
        3    1    3    3  502    0  0.56088112265E+03  0.38103956450E+03  0.51125964136E+03  0.84921446911E+03  0.10100000352E+00 0.  1.
       -3    1    3    3    0  502 -0.56088112265E+03 -0.38103956450E+03 -0.63996567510E+03  0.93238128412E+03  0.10100000352E+00 0. -1.
</event>
<event>
 5   0  0.1960300E-05  0.1799892E+04  0.7818609E-02  0.8706357E-01
       -1   -1    0    0    0  501  0.00000000000E+00  0.00000000000E+00  0.58891039561E+03  0.58891039564E+03  0.50400001928E-02 0. -1.
        1   -1    0    0  501    0  0.00000000000E+00  0.00000000000E+00 -0.13752564441E+04  0.13752564441E+04  0.50400001928E-02 0.  1.
    10030    2    1    2    0    0  0.00000000000E+00  0.00000000000E+00 -0.78634604848E+03  0.19641668397E+04  0.17998920152E+04 0.  0.
        3    1    3    3  502    0 -0.17614020977E+03  0.31142349963E+03  0.50796224669E+03  0.62131765135E+03  0.10100000352E+00 0. -1.
       -3    1    3    3    0  502  0.17614020977E+03 -0.31142349963E+03 -0.12943082952E+04  0.13428491884E+04  0.10100000352E+00 0.  1.
</event>
<event>
 5   0  0.4015729E-05  0.1800544E+04  0.7818609E-02  0.8706010E-01
       -2   -1    0    0    0  501  0.00000000000E+00  0.00000000000E+00  0.75426616707E+03  0.75426616707E+03  0.25500000920E-02 0.  1.
        2   -1    0    0  501    0  0.00000000000E+00  0.00000000000E+00 -0.10745412402E+04  0.10745412402E+04  0.25500000920E-02 0. -1.
    10030    2    1    2    0    0  0.00000000000E+00  0.00000000000E+00 -0.32027507314E+03  0.18288074073E+04  0.18005444761E+04 0.  0.
        2    1    3    3  502    0 -0.42362067790E+03 -0.71582819751E+03 -0.50996456255E+03  0.97566815166E+03  0.25500000920E-02 0. -1.
       -2    1    3    3    0  502  0.42362067790E+03  0.71582819751E+03  0.18968948940E+03  0.85313925563E+03  0.25500000920E-02 0.  1.
</event>
<event>
 5   0  0.4015729E-05  0.1802133E+04  0.7818609E-02  0.8705166E-01
       -2   -1    0    0    0  501  0.00000000000E+00  0.00000000000E+00  0.51347464005E+03  0.51347464006E+03  0.25500000920E-02 0. -1.
        2   -1    0    0  501    0  0.00000000000E+00  0.00000000000E+00 -0.15812290487E+04  0.15812290487E+04  0.25500000920E-02 0.  1.
    10030    2    1    2    0    0  0.00000000000E+00  0.00000000000E+00 -0.10677544086E+04  0.20947036887E+04  0.18021331989E+04 0.  0.
        2    1    3    3  502    0  0.67713357397E+03 -0.53647913481E+03 -0.23616827645E+03  0.89559767412E+03  0.25500000920E-02 0. -1.
       -2    1    3    3    0  502 -0.67713357397E+03  0.53647913481E+03 -0.83158613219E+03  0.11991060146E+04  0.25500000920E-02 0.  1.
</event>
<event>
 5   0  0.1906857E-05  0.1798737E+04  0.7818609E-02  0.8706971E-01
       -1   -1    0    0    0  501  0.00000000000E+00  0.00000000000E+00  0.95853056472E+03  0.95853056473E+03  0.50400001928E-02 0.  1.
        1   -1    0    0  501    0  0.00000000000E+00  0.00000000000E+00 -0.84385846921E+03  0.84385846922E+03  0.50400001928E-02 0. -1.
    10030    2    1    2    0    0  0.00000000000E+00  0.00000000000E+00  0.11467209551E+03  0.18023890340E+04  0.17987374851E+04 0.  0.
        4    1    3    3  502    0 -0.51194048391E+03 -0.11345700160E+02  0.79819531978E+03  0.94832967126E+03  0.12699999809E+01 0.  1.
       -4    1    3    3    0  502  0.51194048391E+03  0.11345700160E+02 -0.68352322427E+03  0.85405936269E+03  0.12699999809E+01 0. -1.
</event>
<event>
 5   0  0.3984648E-05  0.1799393E+04  0.7818609E-02  0.8706623E-01
       -2   -1    0    0    0  501  0.00000000000E+00  0.00000000000E+00  0.67129465368E+03  0.67129465369E+03  0.25500000920E-02 0.  1.
        2   -1    0    0  501    0  0.00000000000E+00  0.00000000000E+00 -0.12058094074E+04  0.12058094074E+04  0.25500000920E-02 0. -1.
    10030    2    1    2    0    0  0.00000000000E+00  0.00000000000E+00 -0.53451475374E+03  0.18771040611E+04  0.17993925737E+04 0.  0.
        1    1    3    3  502    0 -0.34287011834E+03 -0.20406836202E+03  0.57394883376E+03  0.69901436195E+03  0.50400001928E-02 0.  1.
       -1    1    3    3    0  502  0.34287011834E+03  0.20406836202E+03 -0.11084635875E+04  0.11780896992E+04  0.50400001928E-02 0. -1.
</event>
<event>
 5   0  0.1446750E-05  0.1804664E+04  0.7818609E-02  0.8703823E-01
       -3   -1    0    0    0  501  0.00000000000E+00  0.00000000000E+00  0.12931105186E+04  0.12931105225E+04  0.10100000352E+00 0.  1.
        3   -1    0    0  501    0  0.00000000000E+00  0.00000000000E+00 -0.62964668371E+03  0.62964669181E+03  0.10100000352E+00 0. -1.
    10030    2    1    2    0    0  0.00000000000E+00  0.00000000000E+00  0.66346383484E+03  0.19227572143E+04  0.18046636931E+04 0.  0.
        3    1    3    3  502    0  0.38602253534E+03 -0.31617148903E+03 -0.46927972363E+03  0.68498268407E+03  0.10100000352E+00 0. -1.
       -3    1    3    3    0  502 -0.38602253534E+03  0.31617148903E+03  0.11327435585E+04  0.12377745302E+04  0.10100000352E+00 0.  1.
</event>
<event>
 5   0  0.3993393E-05  0.1801347E+04  0.7818609E-02  0.8705584E-01
        2   -1    0    0  501    0  0.00000000000E+00  0.00000000000E+00  0.18070867431E+04  0.18070867431E+04  0.25500000920E-02 0. -1.
       -2   -1    0    0    0  501  0.00000000000E+00  0.00000000000E+00 -0.44890614860E+03  0.44890614861E+03  0.25500000920E-02 0.  1.
    10030    2    1    2    0    0  0.00000000000E+00  0.00000000000E+00  0.13581805945E+04  0.22559928917E+04  0.18013465519E+04 0.  0.
        5    1    3    3  502    0  0.19814354649E+03 -0.73049060672E+03  0.67706110789E+02  0.75992341651E+03  0.46999998093E+01 0.  1.
       -5    1    3    3    0  502 -0.19814354649E+03  0.73049060672E+03  0.12904744837E+04  0.14960694752E+04  0.46999998093E+01 0. -1.
</event>
<event>
 5   0  0.3993393E-05  0.1799738E+04  0.7818609E-02  0.8706439E-01
        2   -1    0    0  501    0  0.00000000000E+00  0.00000000000E+00  0.20385736237E+04  0.20385736237E+04  0.25500000920E-02 0. -1.
       -2   -1    0    0    0  501  0.00000000000E+00  0.00000000000E+00 -0.39722096749E+03  0.39722096750E+03  0.25500000920E-02 0.  1.
    10030    2    1    2    0    0  0.00000000000E+00  0.00000000000E+00  0.16413526562E+04  0.24357945912E+04  0.17997379666E+04 0.  0.
        5    1    3    3  502    0  0.31425691605E+03  0.24597568495E+03  0.19122387454E+04  0.19534432565E+04  0.46999998093E+01 0. -1.
       -5    1    3    3    0  502 -0.31425691605E+03 -0.24597568495E+03 -0.27088608914E+03  0.48235133478E+03  0.46999998093E+01 0.  1.
</event>
<event>
 5   0  0.4015729E-05  0.1793179E+04  0.7818609E-02  0.8709935E-01
       -2   -1    0    0    0  501  0.00000000000E+00  0.00000000000E+00  0.24352576625E+04  0.24352576625E+04  0.25500000920E-02 0.  1.
        2   -1    0    0  501    0  0.00000000000E+00  0.00000000000E+00 -0.33009757115E+03  0.33009757116E+03  0.25500000920E-02 0. -1.
    10030    2    1    2    0    0  0.00000000000E+00  0.00000000000E+00  0.21051600913E+04  0.27653552336E+04  0.17931788974E+04 0.  0.
        2    1    3    3  502    0 -0.29839465626E+03  0.88792713863E+02  0.23492259382E+04  0.23697649727E+04  0.25500000920E-02 0.  1.
       -2    1    3    3    0  502  0.29839465626E+03 -0.88792713863E+02 -0.24406584691E+03  0.39559026094E+03  0.25500000920E-02 0. -1.
</event>
<event>
 5   0  0.2054876E-05  0.1804962E+04  0.7818609E-02  0.8703665E-01
       -1   -1    0    0    0  501  0.00000000000E+00  0.00000000000E+00  0.60729630989E+03  0.60729630991E+03  0.50400001928E-02 0.  1.
        1   -1    0    0  501    0  0.00000000000E+00  0.00000000000E+00 -0.13411445854E+04  0.13411445854E+04  0.50400001928E-02 0. -1.
    10030    2    1    2    0    0  0.00000000000E+00  0.00000000000E+00 -0.73384827547E+03  0.19484408953E+04  0.18049622243E+04 0.  0.
        5    1    3    3  502    0 -0.11617091654E+02  0.23961954098E+03 -0.13060800123E+04  0.13279380896E+04  0.46999998093E+01 0. -1.
       -5    1    3    3    0  502  0.11617091654E+02 -0.23961954098E+03  0.57223173683E+03  0.62050280569E+03  0.46999998093E+01 0.  1.
</event>
<event>
 5   0  0.3983176E-05  0.1798979E+04  0.7818609E-02  0.8706843E-01
        2   -1    0    0  501    0  0.00000000000E+00  0.00000000000E+00  0.15021989704E+04  0.15021989704E+04  0.25500000920E-02 0.  1.
       -2   -1    0    0    0  501  0.00000000000E+00  0.00000000000E+00 -0.53859794774E+03  0.53859794774E+03  0.25500000920E-02 0. -1.
    10030    2    1    2    0    0  0.00000000000E+00  0.00000000000E+00  0.96360102267E+03  0.20407969182E+04  0.17989789132E+04 0.  0.
        3    1    3    3  502    0  0.27535716361E+03 -0.63525859661E+03  0.11331848121E+04  0.13279619274E+04  0.10100000352E+00 0.  1.
       -3    1    3    3    0  502 -0.27535716361E+03  0.63525859661E+03 -0.16958378945E+03  0.71283499070E+03  0.10100000352E+00 0. -1.
</event>
<event>
 5   0  0.1960300E-05  0.1801512E+04  0.7818609E-02  0.8705496E-01
        1   -1    0    0  501    0  0.00000000000E+00  0.00000000000E+00  0.78121319153E+03  0.78121319154E+03  0.50400001928E-02 0. -1.
       -1   -1    0    0    0  501  0.00000000000E+00  0.00000000000E+00 -0.10385919045E+04  0.10385919045E+04  0.50400001928E-02 0.  1.
    10030    2    1    2    0    0  0.00000000000E+00  0.00000000000E+00 -0.25737871299E+03  0.18198050961E+04  0.18015123607E+04 0.  0.
        3    1    3    3  502    0  0.13999581972E+03  0.86999259451E+03 -0.31733612055E+03  0.93658324117E+03  0.10100000352E+00 0.  1.
       -3    1    3    3    0  502 -0.13999581972E+03 -0.86999259451E+03  0.59957407556E+02  0.88322185490E+03  0.10100000352E+00 0. -1.
</event>
<event>
 5   0  0.3909859E-05  0.1799238E+04  0.7818609E-02  0.8706705E-01
        2   -1    0    0  501    0  0.00000000000E+00  0.00000000000E+00  0.12124801427E+04  0.12124801427E+04  0.25500000920E-02 0.  1.
       -2   -1    0    0    0  501  0.00000000000E+00  0.00000000000E+00 -0.66748693863E+03  0.66748693863E+03  0.25500000920E-02 0. -1.
    10030    2    1    2    0    0  0.00000000000E+00  0.00000000000E+00  0.54499320407E+03  0.18799670813E+04  0.17992383484E+04 0.  0.
        4    1    3    3  502    0  0.83756491677E+03  0.11657256203E+03 -0.48209702631E+02  0.84701236139E+03  0.12699999809E+01 0. -1.
       -4    1    3    3    0  502 -0.83756491677E+03 -0.11657256203E+03  0.59320290670E+03  0.10329547199E+04  0.12699999809E+01 0.  1.
</event>
<event>
 5   0  0.2001811E-05  0.1802245E+04  0.7818609E-02  0.8705106E-01
       -1   -1    0    0    0  501  0.00000000000E+00  0.00000000000E+00  0.76261833700E+03  0.76261833702E+03  0.50400001928E-02 0. -1.
        1   -1    0    0  501    0  0.00000000000E+00  0.00000000000E+00 -0.10647814995E+04  0.10647814995E+04  0.50400001928E-02 0.  1.
    10030    2    1    2    0    0  0.00000000000E+00  0.00000000000E+00 -0.30216316249E+03  0.18273998365E+04  0.18022451514E+04 0.  0.
        2    1    3    3  502    0  0.32915625463E+03  0.44753169597E+03  0.56832348303E+03  0.79474526751E+03  0.25500000920E-02 0. -1.
       -2    1    3    3    0  502 -0.32915625463E+03 -0.44753169597E+03 -0.87048664551E+03  0.10326545690E+04  0.25500000920E-02 0.  1.
</event>
<event>
 5   0  0.2038338E-05  0.1800286E+04  0.7818609E-02  0.8706147E-01
       -1   -1    0    0    0  501  0.00000000000E+00  0.00000000000E+00  0.78656051403E+03  0.78656051405E+03  0.50400001928E-02 0. -1.
        1   -1    0    0  501    0  0.00000000000E+00  0.00000000000E+00 -0.10301271565E+04  0.10301271565E+04  0.50400001928E-02 0.  1.
    10030    2    1    2    0    0  0.00000000000E+00  0.00000000000E+00 -0.24356664249E+03  0.18166876706E+04  0.18002859171E+04 0.  0.
        1    1    3    3  502    0 -0.33688738861E+03  0.17019357854E+03  0.70285111139E+03  0.79778358694E+03  0.50400001928E-02 0. -1.
       -1    1    3    3    0  502  0.33688738861E+03 -0.17019357854E+03 -0.94641775389E+03  0.10189040837E+04  0.50400001928E-02 0.  1.
</event>
<event>
 5   0  0.3993393E-05  0.1799458E+04  0.7818609E-02  0.8706588E-01
        2   -1    0    0  501    0  0.00000000000E+00  0.00000000000E+00  0.16548565688E+04  0.16548565688E+04  0.25500000920E-02 0.  1.
       -2   -1    0    0    0  501  0.00000000000E+00  0.00000000000E+00 -0.48917379259E+03  0.48917379259E+03  0.25500000920E-02 0. -1.
    10030    2    1    2    0    0  0.00000000000E+00  0.00000000000E+00  0.11656827762E+04  0.21440303614E+04  0.17994582117E+04 0.  0.
        5    1    3    3  502    0 -0.15121099827E+03  0.59777826409E+02  0.16371907217E+04  0.16452518663E+04  0.46999998093E+01 0.  1.
       -5    1    3    3    0  502  0.15121099827E+03 -0.59777826409E+02 -0.47150794545E+03  0.49877849507E+03  0.46999998093E+01 0. -1.
</event>
<event>
 5   0  0.2054876E-05  0.1799345E+04  0.7818609E-02  0.8706648E-01
        1   -1    0    0  501    0  0.00000000000E+00  0.00000000000E+00  0.24114238259E+04  0.24114238259E+04  0.50400001928E-02 0. -1.
       -1   -1    0    0    0  501  0.00000000000E+00  0.00000000000E+00 -0.33565655124E+03  0.33565655128E+03  0.50400001928E-02 0.  1.
    10030    2    1    2    0    0  0.00000000000E+00  0.00000000000E+00  0.20757672747E+04  0.27470803772E+04  0.17993445530E+04 0.  0.
        5    1    3    3  502    0 -0.83070057136E+02  0.47549563153E+03  0.21969699402E+04  0.22493767444E+04  0.46999998093E+01 0. -1.
       -5    1    3    3    0  502  0.83070057136E+02 -0.47549563153E+03 -0.12120266553E+03  0.49770363282E+03  0.46999998093E+01 0.  1.
</event>
<event>
 5   0  0.3983176E-05  0.1796578E+04  0.7818609E-02  0.8708121E-01
       -2   -1    0    0    0  501  0.00000000000E+00  0.00000000000E+00  0.62274537618E+03  0.62274537618E+03  0.25500000920E-02 0. -1.
        2   -1    0    0  501    0  0.00000000000E+00  0.00000000000E+00 -0.12957516282E+04  0.12957516282E+04  0.25500000920E-02 0.  1.
    10030    2    1    2    0    0  0.00000000000E+00  0.00000000000E+00 -0.67300625205E+03  0.19184970044E+04  0.17965782311E+04 0.  0.
        3    1    3    3  502    0  0.21661738334E+03 -0.72216252572E+03  0.18498251944E+03  0.77631201653E+03  0.10100000352E+00 0. -1.
       -3    1    3    3    0  502 -0.21661738334E+03  0.72216252572E+03 -0.85798877149E+03  0.11421849879E+04  0.10100000352E+00 0.  1.
</event>
<event>
 5   0  0.3984648E-05  0.1799048E+04  0.7818609E-02  0.8706806E-01
        2   -1    0    0  501    0  0.00000000000E+00  0.00000000000E+00  0.98534199265E+03  0.98534199266E+03  0.25500000920E-02 0. -1.
       -2   -1    0    0    0  501  0.00000000000E+00  0.00000000000E+00 -0.82117986657E+03  0.82117986657E+03  0.25500000920E-02 0.  1.
    10030    2    1    2    0    0  0.00000000000E+00  0.00000000000E+00  0.16416212608E+03  0.18065218592E+04  0.17990475325E+04 0.  0.
        1    1    3    3  502    0 -0.82357919392E+03  0.97037946121E+02  0.43201699036E+03  0.93506028235E+03  0.50400001928E-02 0. -1.
       -1    1    3    3    0  502  0.82357919392E+03 -0.97037946121E+02 -0.26785486428E+03  0.87146157688E+03  0.50400001928E-02 0.  1.
</event>
<event>
 5   0  0.2001811E-05  0.1801873E+04  0.7818609E-02  0.8705304E-01
        1   -1    0    0  501    0  0.00000000000E+00  0.00000000000E+00  0.94367589281E+03  0.94367589282E+03  0.50400001928E-02 0.  1.
       -1   -1    0    0    0  501  0.00000000000E+00  0.00000000000E+00 -0.86013235221E+03  0.86013235222E+03  0.50400001928E-02 0. -1.
    10030    2    1    2    0    0  0.00000000000E+00  0.00000000000E+00  0.83543540600E+02  0.18038082450E+04  0.18018725431E+04 0.  0.
        2    1    3    3  502    0  0.18209041009E+03 -0.31087172672E+03  0.86842397732E+03  0.94019059361E+03  0.25500000920E-02 0.  1.
       -2    1    3    3    0  502 -0.18209041009E+03  0.31087172672E+03 -0.78488043672E+03  0.86361765144E+03  0.25500000920E-02 0. -1.
</event>
<event>
 5   0  0.2001811E-05  0.1799501E+04  0.7818609E-02  0.8706565E-01
       -1   -1    0    0    0  501  0.00000000000E+00  0.00000000000E+00  0.87845514687E+03  0.87845514688E+03  0.50400001928E-02 0.  1.
        1   -1    0    0  501    0  0.00000000000E+00  0.00000000000E+00 -0.92156247958E+03  0.92156247959E+03  0.50400001928E-02 0. -1.
    10030    2    1    2    0    0  0.00000000000E+00  0.00000000000E+00 -0.43107332710E+02  0.18000176265E+04  0.17995013791E+04 0.  0.
        2    1    3    3  502    0 -0.41703671142E+02 -0.82519401429E+03 -0.37783971502E+03  0.90854125259E+03  0.25500000920E-02 0. -1.
       -2    1    3    3    0  502  0.41703671142E+02  0.82519401429E+03  0.33473238231E+03  0.89147637388E+03  0.25500000920E-02 0.  1.
</event>
<event>
 5   0  0.3983176E-05  0.1799890E+04  0.7818609E-02  0.8706358E-01
        2   -1    0    0  501    0  0.00000000000E+00  0.00000000000E+00  0.14196266588E+04  0.14196266588E+04  0.25500000920E-02 0.  1.
       -2   -1    0    0    0  501  0.00000000000E+00  0.00000000000E+00 -0.57050276137E+03  0.57050276138E+03  0.25500000920E-02 0. -1.
    10030    2    1    2    0    0  0.00000000000E+00  0.00000000000E+00  0.84912389747E+03  0.19901294202E+04  0.17998899177E+04 0.  0.
        3    1    3    3  502    0 -0.44031416518E+03 -0.25643687220E+03  0.12447645034E+04  0.13450186291E+04  0.10100000352E+00 0.  1.
       -3    1    3    3    0  502  0.44031416518E+03  0.25643687220E+03 -0.39564060597E+03  0.64511079109E+03  0.10100000352E+00 0. -1.
</event>
<event>
 5   0  0.3983176E-05  0.1796030E+04  0.7818609E-02  0.8708414E-01
       -2   -1    0    0    0  501  0.00000000000E+00  0.00000000000E+00  0.76410494998E+03  0.76410494998E+03  0.25500000920E-02 0. -1.
        2   -1    0    0  501    0  0.00000000000E+00  0.00000000000E+00 -0.10553927402E+04  0.10553927402E+04  0.25500000920E-02 0.  1.
    10030    2    1    2    0    0  0.00000000000E+00  0.00000000000E+00 -0.29128779023E+03  0.18194976902E+04  0.17960298628E+04 0.  0.
        3    1    3    3  502    0  0.16833777269E+02  0.71441005825E+03 -0.69659347774E+03  0.99795169763E+03  0.10100000352E+00 0.  1.
       -3    1    3    3    0  502 -0.16833777269E+02 -0.71441005825E+03  0.40530568750E+03  0.82154599257E+03  0.10100000352E+00 0. -1.
</event>
<event>
 5   0  0.1906857E-05  0.1798407E+04  0.7818609E-02  0.8707147E-01
       -1   -1    0    0    0  501  0.00000000000E+00  0.00000000000E+00  0.88057431650E+03  0.88057431652E+03  0.50400001928E-02 0. -1.
        1   -1    0    0  501    0  0.00000000000E+00  0.00000000000E+00 -0.91822721392E+03  0.91822721394E+03  0.50400001928E-02 0.  1.
    10030    2    1    2    0    0  0.00000000000E+00  0.00000000000E+00 -0.37652897419E+02  0.17988015305E+04  0.17984074080E+04 0.  0.
        4    1    3    3  502    0  0.12577400619E+03  0.70681616450E+03 -0.56038531242E+03  0.91073679091E+03  0.12699999809E+01 0.  1.
       -4    1    3    3    0  502 -0.12577400619E+03 -0.70681616450E+03  0.52273241500E+03  0.88806473955E+03  0.12699999809E+01 0. -1.
</event>
<event>
 5   0  0.1906857E-05  0.1799985E+04  0.7818609E-02  0.8706307E-01
       -1   -1    0    0    0  501  0.00000000000E+00  0.00000000000E+00  0.56378190445E+03  0.56378190447E+03  0.50400001928E-02 0. -1.
        1   -1    0    0  501    0  0.00000000000E+00  0.00000000000E+00 -0.14367021507E+04  0.14367021507E+04  0.50400001928E-02 0.  1.
    10030    2    1    2    0    0  0.00000000000E+00  0.00000000000E+00 -0.87292024623E+03  0.20004840552E+04  0.17999851940E+04 0.  0.
        4    1    3    3  502    0  0.44105739450E+03  0.55588454365E+02 -0.13061627066E+04  0.13797406751E+04  0.12699999809E+01 0.  1.
       -4    1    3    3    0  502 -0.44105739450E+03 -0.55588454365E+02  0.43324246038E+03  0.62074338005E+03  0.12699999809E+01 0. -1.
</event>
<event>
 5   0  0.2038338E-05  0.1800560E+04  0.7818609E-02  0.8706002E-01
       -1   -1    0    0    0  501  0.00000000000E+00  0.00000000000E+00  0.12990325707E+04  0.12990325707E+04  0.50400001928E-02 0. -1.
        1   -1    0    0  501    0  0.00000000000E+00  0.00000000000E+00 -0.62392871226E+03  0.62392871228E+03  0.50400001928E-02 0.  1.
    10030    2    1    2    0    0  0.00000000000E+00  0.00000000000E+00  0.67510385844E+03  0.19229612830E+04  0.18005596008E+04 0.  0.
        1    1    3    3  502    0  0.62489957915E+03 -0.63535256435E+03  0.47403353846E+03  0.10093959385E+04  0.50400001928E-02 0.  1.
       -1    1    3    3    0  502 -0.62489957915E+03  0.63535256435E+03  0.20107031999E+03  0.91356534449E+03  0.50400001928E-02 0. -1.
</event>
<event>
 5   0  0.2038338E-05  0.1804283E+04  0.7818609E-02  0.8704025E-01
       -1   -1    0    0    0  501  0.00000000000E+00  0.00000000000E+00  0.90767903177E+03  0.90767903179E+03  0.50400001928E-02 0.  1.
        1   -1    0    0  501    0  0.00000000000E+00  0.00000000000E+00 -0.89663779033E+03  0.89663779034E+03  0.50400001928E-02 0. -1.
    10030    2    1    2    0    0  0.00000000000E+00  0.00000000000E+00  0.11041241443E+02  0.18043168221E+04  0.18042830392E+04 0.  0.
        1    1    3    3  502    0 -0.73843278069E+03  0.45294206966E+03  0.25735827922E+03  0.90369949318E+03  0.50400001928E-02 0.  1.
       -1    1    3    3    0  502  0.73843278069E+03 -0.45294206966E+03 -0.24631703778E+03  0.90061732894E+03  0.50400001928E-02 0. -1.
</event>
<event>
 5   0  0.2001811E-05  0.1802519E+04  0.7818609E-02  0.8704961E-01
        1   -1    0    0  501    0  0.00000000000E+00  0.00000000000E+00  0.15127970608E+04  0.15127970608E+04  0.50400001928E-02 0.  1.
       -1   -1    0    0    0  501  0.00000000000E+00  0.00000000000E+00 -0.53693152158E+03  0.53693152161E+03  0.50400001928E-02 0. -1.
    10030    2    1    2    0    0  0.00000000000E+00  0.00000000000E+00  0.97586553922E+03  0.20497285824E+04  0.18025187131E+04 0.  0.
        2    1    3    3  502    0  0.47828843899E+03  0.44149824383E+03 -0.22092843812E+03  0.68737901114E+03  0.25500000920E-02 0. -1.
       -2    1    3    3    0  502 -0.47828843899E+03 -0.44149824383E+03  0.11967939773E+04  0.13623495713E+04  0.25500000920E-02 0.  1.
</event>
<event>
 5   0  0.2054876E-05  0.1799488E+04  0.7818609E-02  0.8706572E-01
       -1   -1    0    0    0  501  0.00000000000E+00  0.00000000000E+00  0.52356153422E+03  0.52356153425E+03  0.50400001928E-02 0. -1.
        1   -1    0    0  501    0  0.00000000000E+00  0.00000000000E+00 -0.15462157345E+04  0.15462157345E+04  0.50400001928E-02 0.  1.
    10030    2    1    2    0    0  0.00000000000E+00  0.00000000000E+00 -0.10226542003E+04  0.20697772688E+04  0.17994877963E+04 0.  0.
        5    1    3    3  502    0 -0.89321317301E+03 -0.10810307531E+03 -0.51244516212E+03  0.10354410565E+04  0.46999998093E+01 0.  1.
       -5    1    3    3    0  502  0.89321317301E+03  0.10810307531E+03 -0.51020903816E+03  0.10343362122E+04  0.46999998093E+01 0. -1.
</event>
<event>
 5   0  0.2001811E-05  0.1797250E+04  0.7818609E-02  0.8707763E-01
       -1   -1    0    0    0  501  0.00000000000E+00  0.00000000000E+00  0.88579891797E+03  0.88579891799E+03  0.50400001928E-02 0. -1.
        1   -1    0    0  501    0  0.00000000000E+00  0.00000000000E+00 -0.91163688413E+03  0.91163688414E+03  0.50400001928E-02 0.  1.
    10030    2    1    2    0    0  0.00000000000E+00  0.00000000000E+00 -0.25837966152E+02  0.17974358021E+04  0.17972500834E+04 0.  0.
        2    1    3    3  502    0 -0.20978173980E+03 -0.32315046494E+03 -0.82484791210E+03  0.91038930104E+03  0.25500000920E-02 0.  1.
       -2    1    3    3    0  502  0.20978173980E+03  0.32315046494E+03  0.79900994595E+03  0.88704650108E+03  0.25500000920E-02 0. -1.
</event>
<event>
 5   0  0.3984648E-05  0.1801234E+04  0.7818609E-02  0.8705644E-01
       -2   -1    0    0    0  501  0.00000000000E+00  0.00000000000E+00  0.91074497513E+03  0.91074497514E+03  0.25500000920E-02 0. -1.
        2   -1    0    0  501    0  0.00000000000E+00  0.00000000000E+00 -0.89060162834E+03  0.89060162834E+03  0.25500000920E-02 0.  1.
    10030    2    1    2    0    0  0.00000000000E+00  0.00000000000E+00  0.20143346796E+02  0.18013466035E+04  0.18012339747E+04 0.  0.
        1    1    3    3  502    0  0.46601088656E+03 -0.15804313728E+03 -0.74427462240E+03  0.89223791290E+03  0.50400001928E-02 0.  1.
       -1    1    3    3    0  502 -0.46601088656E+03  0.15804313728E+03  0.76441796919E+03  0.90910869058E+03  0.50400001928E-02 0. -1.
</event>
<event>
 5   0  0.3984648E-05  0.1799615E+04  0.7818609E-02  0.8706504E-01
       -2   -1    0    0    0  501  0.00000000000E+00  0.00000000000E+00  0.31648209840E+03  0.31648209841E+03  0.25500000920E-02 0. -1.
        2   -1    0    0  501    0  0.00000000000E+00  0.00000000000E+00 -0.25582916398E+04  0.25582916398E+04  0.25500000920E-02 0.  1.
    10030    2    1    2    0    0  0.00000000000E+00  0.00000000000E+00 -0.22418095414E+04  0.28747737382E+04  0.17996149660E+04 0.  0.
        1    1    3    3  502    0  0.17955321877E+03  0.77578608310E+03 -0.45156080486E+03  0.91541824627E+03  0.50400001928E-02 0. -1.
       -1    1    3    3    0  502 -0.17955321877E+03 -0.77578608310E+03 -0.17902487365E+04  0.19593554919E+04  0.50400001928E-02 0.  1.
</event>
<event>
 5   0  0.4015729E-05  0.1800768E+04  0.7818609E-02  0.8705891E-01
       -2   -1    0    0    0  501  0.00000000000E+00  0.00000000000E+00  0.87456202096E+03  0.87456202096E+03  0.25500000920E-02 0.  1.
        2   -1    0    0  501    0  0.00000000000E+00  0.00000000000E+00 -0.92696832193E+03  0.92696832193E+03  0.25500000920E-02 0. -1.
    10030    2    1    2    0    0  0.00000000000E+00  0.00000000000E+00 -0.52406300970E+02  0.18015303429E+04  0.18007679351E+04 0.  0.
        2    1    3    3  502    0 -0.53339998560E+03 -0.22100618354E+03  0.66498154387E+03  0.88065869183E+03  0.25500000920E-02 0.  1.
       -2    1    3    3    0  502  0.53339998560E+03  0.22100618354E+03 -0.71738784484E+03  0.92087165106E+03  0.25500000920E-02 0. -1.
</event>
<event>
 5   0  0.1906857E-05  0.1807899E+04  0.7818609E-02  0.8702110E-01
        1   -1    0    0  501    0  0.00000000000E+00  0.00000000000E+00  0.11695762969E+04  0.11695762969E+04  0.50400001928E-02 0.  1.
       -1   -1    0    0    0  501  0.00000000000E+00  0.00000000000E+00 -0.69865025129E+03  0.69865025131E+03  0.50400001928E-02 0. -1.
    10030    2    1    2    0    0  0.00000000000E+00  0.00000000000E+00  0.47092604557E+03  0.18682265482E+04  0.18078990832E+04 0.  0.
        4    1    3    3  502    0  0.72943417737E+03  0.11051215146E+03  0.77522985766E+03  0.10701729299E+04  0.12699999809E+01 0.  1.
       -4    1    3    3    0  502 -0.72943417737E+03 -0.11051215146E+03 -0.30430381209E+03  0.79805361830E+03  0.12699999809E+01 0. -1.
</event>
<event>
 5   0  0.1906857E-05  0.1798359E+04  0.7818609E-02  0.8707173E-01
       -1   -1    0    0    0  501  0.00000000000E+00  0.00000000000E+00  0.52752851506E+03  0.52752851508E+03  0.50400001928E-02 0.  1.
        1   -1    0    0  501    0  0.00000000000E+00  0.00000000000E+00 -0.15326638153E+04  0.15326638153E+04  0.50400001928E-02 0. -1.
    10030    2    1    2    0    0  0.00000000000E+00  0.00000000000E+00 -0.10051353002E+04  0.20601923304E+04  0.17983591038E+04 0.  0.
        4    1    3    3  502    0  0.56471671888E+02 -0.86857255494E+02  0.52066732423E+03  0.53087598173E+03  0.12699999809E+01 0.  1.
       -4    1    3    3    0  502 -0.56471671888E+02  0.86857255494E+02 -0.15258026244E+04  0.15293163486E+04  0.12699999809E+01 0. -1.
</event>
<event>
 5   0  0.2038338E-05  0.1799111E+04  0.7818609E-02  0.8706772E-01
       -1   -1    0    0    0  501  0.00000000000E+00  0.00000000000E+00  0.98371117359E+03  0.98371117361E+03  0.50400001928E-02 0. -1.
        1   -1    0    0  501    0  0.00000000000E+00  0.00000000000E+00 -0.82259934958E+03  0.82259934960E+03  0.50400001928E-02 0.  1.
    10030    2    1    2    0    0  0.00000000000E+00  0.00000000000E+00  0.16111182401E+03  0.18063105232E+04  0.17991110823E+04 0.  0.
        1    1    3    3  502    0  0.76367821977E+03  0.10046351282E+03 -0.38595692811E+03  0.86154517650E+03  0.50400001928E-02 0.  1.
       -1    1    3    3    0  502 -0.76367821977E+03 -0.10046351282E+03  0.54706875212E+03  0.94476534671E+03  0.50400001928E-02 0. -1.
</event>
<event>
 5   0  0.2001811E-05  0.1801482E+04  0.7818609E-02  0.8705512E-01
       -1   -1    0    0    0  501  0.00000000000E+00  0.00000000000E+00  0.93548436979E+03  0.93548436980E+03  0.50400001928E-02 0.  1.
        1   -1    0    0  501    0  0.00000000000E+00  0.00000000000E+00 -0.86728818974E+03  0.86728818976E+03  0.50400001928E-02 0. -1.
    10030    2    1    2    0    0  0.00000000000E+00  0.00000000000E+00  0.68196180046E+02  0.18027725596E+04  0.18014822182E+04 0.  0.
        2    1    3    3  502    0  0.59368867876E+03 -0.29260990922E+03 -0.57727955149E+03  0.87825878125E+03  0.25500000920E-02 0. -1.
       -2    1    3    3    0  502 -0.59368867876E+03  0.29260990922E+03  0.64547573154E+03  0.92451377831E+03  0.25500000920E-02 0.  1.
</event>
<event>
 5   0  0.2001811E-05  0.1798220E+04  0.7818609E-02  0.8707246E-01
       -1   -1    0    0    0  501  0.00000000000E+00  0.00000000000E+00  0.11665118980E+04  0.11665118980E+04  0.50400001928E-02 0. -1.
        1   -1    0    0  501    0  0.00000000000E+00  0.00000000000E+00 -0.69300547159E+03  0.69300547161E+03  0.50400001928E-02 0.  1.
    10030    2    1    2    0    0  0.00000000000E+00  0.00000000000E+00  0.47350642643E+03  0.18595173696E+04  0.17982203736E+04 0.  0.
        2    1    3    3  502    0  0.59484219612E+03 -0.64071964564E+03  0.19742041309E+02  0.87449908565E+03  0.25500000920E-02 0.  1.
       -2    1    3    3    0  502 -0.59484219612E+03  0.64071964564E+03  0.45376438512E+03  0.98501828400E+03  0.25500000920E-02 0. -1.
</event>
<event>
 5   0  0.3983176E-05  0.1797111E+04  0.7818609E-02  0.8707837E-01
       -2   -1    0    0    0  501  0.00000000000E+00  0.00000000000E+00  0.82609203212E+03  0.82609203213E+03  0.25500000920E-02 0. -1.
        2   -1    0    0  501    0  0.00000000000E+00  0.00000000000E+00 -0.97737534669E+03  0.97737534670E+03  0.25500000920E-02 0.  1.
    10030    2    1    2    0    0  0.00000000000E+00  0.00000000000E+00 -0.15128331457E+03  0.18034673788E+04  0.17971109997E+04 0.  0.
        3    1    3    3  502    0 -0.88300582391E+03  0.62436530130E+02 -0.23047402020E+03  0.91472175526E+03  0.10100000352E+00 0.  1.
       -3    1    3    3    0  502  0.88300582391E+03 -0.62436530130E+02  0.79190705632E+02  0.88874562357E+03  0.10100000352E+00 0. -1.
</event>
<event>
 5   0  0.3984648E-05  0.1794358E+04  0.7818609E-02  0.8709305E-01
        2   -1    0    0  501    0  0.00000000000E+00  0.00000000000E+00  0.17971378661E+04  0.17971378661E+04  0.25500000920E-02 0.  1.
       -2   -1    0    0    0  501  0.00000000000E+00  0.00000000000E+00 -0.44789569012E+03  0.44789569013E+03  0.25500000920E-02 0. -1.
    10030    2    1    2    0    0  0.00000000000E+00  0.00000000000E+00  0.13492421760E+04  0.22450335562E+04  0.17943581636E+04 0.  0.
        1    1    3    3  502    0  0.64782883271E+03 -0.56142621000E+03  0.34347944394E+03  0.92350404125E+03  0.50400001928E-02 0. -1.
       -1    1    3    3    0  502 -0.64782883271E+03  0.56142621000E+03  0.10057627320E+04  0.13215295150E+04  0.50400001928E-02 0.  1.
</event>
<event>
 5   0  0.3983176E-05  0.1807768E+04  0.7818609E-02  0.8702180E-01
        2   -1    0    0  501    0  0.00000000000E+00  0.00000000000E+00  0.78459120602E+03  0.78459120603E+03  0.25500000920E-02 0.  1.
       -2   -1    0    0    0  501  0.00000000000E+00  0.00000000000E+00 -0.10413140617E+04  0.10413140617E+04  0.25500000920E-02 0. -1.
    10030    2    1    2    0    0  0.00000000000E+00  0.00000000000E+00 -0.25672285566E+03  0.18259052677E+04  0.18077675243E+04 0.  0.
        3    1    3    3  502    0  0.12930014934E+02  0.42562059348E+03 -0.93365995784E+03  0.10261778608E+04  0.10100000352E+00 0. -1.
       -3    1    3    3    0  502 -0.12930014934E+02 -0.42562059348E+03  0.67693710218E+03  0.79972740693E+03  0.10100000352E+00 0.  1.
</event>
<event>
 5   0  0.2038338E-05  0.1794392E+04  0.7818609E-02  0.8709287E-01
       -1   -1    0    0    0  501  0.00000000000E+00  0.00000000000E+00  0.53540601582E+03  0.53540601585E+03  0.50400001928E-02 0.  1.
        1   -1    0    0  501    0  0.00000000000E+00  0.00000000000E+00 -0.15034587459E+04  0.15034587459E+04  0.50400001928E-02 0. -1.
    10030    2    1    2    0    0  0.00000000000E+00  0.00000000000E+00 -0.96805273007E+03  0.20388647617E+04  0.17943922170E+04 0.  0.
        1    1    3    3  502    0  0.88284569251E+03  0.15959752422E+03 -0.47432026101E+03  0.10148239239E+04  0.50400001928E-02 0.  1.
       -1    1    3    3    0  502 -0.88284569251E+03 -0.15959752422E+03 -0.49373246905E+03  0.10240408378E+04  0.50400001928E-02 0. -1.
</event>
<event>
 5   0  0.4015729E-05  0.1797405E+04  0.7818609E-02  0.8707681E-01
       -2   -1    0    0    0  501  0.00000000000E+00  0.00000000000E+00  0.98196495528E+03  0.98196495528E+03  0.25500000920E-02 0. -1.
        2   -1    0    0  501    0  0.00000000000E+00  0.00000000000E+00 -0.82249996966E+03  0.82249996966E+03  0.25500000920E-02 0.  1.
    10030    2    1    2    0    0  0.00000000000E+00  0.00000000000E+00  0.15946498562E+03  0.18044649249E+04  0.17974049582E+04 0.  0.
        2    1    3    3  502    0 -0.58218785146E+03 -0.49777151498E+03 -0.39216376657E+03  0.86052983408E+03  0.25500000920E-02 0.  1.
       -2    1    3    3    0  502  0.58218785146E+03  0.49777151498E+03  0.55162875219E+03  0.94393509087E+03  0.25500000920E-02 0. -1.
</event>
<event>
 5   0  0.4015729E-05  0.1800285E+04  0.7818609E-02  0.8706148E-01
        2   -1    0    0  501    0  0.00000000000E+00  0.00000000000E+00  0.10798255651E+04  0.10798255651E+04  0.25500000920E-02 0. -1.
       -2   -1    0    0    0  501  0.00000000000E+00  0.00000000000E+00 -0.75035910478E+03  0.75035910478E+03  0.25500000920E-02 0.  1.
    10030    2    1    2    0    0  0.00000000000E+00  0.00000000000E+00  0.32946646029E+03  0.18301846699E+04  0.18002854711E+04 0.  0.
        2    1    3    3  502    0 -0.70142805417E+03 -0.51099963459E+03 -0.78265868325E+02  0.87134808652E+03  0.25500000920E-02 0.  1.
       -2    1    3    3    0  502  0.70142805417E+03  0.51099963459E+03  0.40773232862E+03  0.95883658333E+03  0.25500000920E-02 0. -1.
</event>
<event>
 5   0  0.1906857E-05  0.1799162E+04  0.7818609E-02  0.8706745E-01
       -1   -1    0    0    0  501  0.00000000000E+00  0.00000000000E+00  0.49105733745E+03  0.49105733747E+03  0.50400001928E-02 0.  1.
        1   -1    0    0  501    0  0.00000000000E+00  0.00000000000E+00 -0.16479656309E+04  0.16479656309E+04  0.50400001928E-02 0. -1.
    10030    2    1    2    0    0  0.00000000000E+00  0.00000000000E+00 -0.11569082934E+04  0.21390229683E+04  0.17991615991E+04 0.  0.
        4    1    3    3  502    0  0.14301162274E+03  0.61195822257E+03 -0.13437019977E+04  0.14834021242E+04  0.12699999809E+01 0. -1.
       -4    1    3    3    0  502 -0.14301162274E+03 -0.61195822257E+03  0.18679370433E+03  0.65562084415E+03  0.12699999809E+01 0.  1.
</event>
<event>
 5   0  0.1906857E-05  0.1799707E+04  0.7818609E-02  0.8706455E-01
       -1   -1    0    0    0  501  0.00000000000E+00  0.00000000000E+00  0.86924087696E+03  0.86924087697E+03  0.50400001928E-02 0.  1.
        1   -1    0    0  501    0  0.00000000000E+00  0.00000000000E+00 -0.93154467024E+03  0.93154467026E+03  0.50400001928E-02 0. -1.
    10030    2    1    2    0    0  0.00000000000E+00  0.00000000000E+00 -0.62303793285E+02  0.18007855472E+04  0.17997074275E+04 0.  0.
        4    1    3    3  502    0 -0.52226026720E+03 -0.24530330025E+03  0.65977286914E+03  0.87648807611E+03  0.12699999809E+01 0.  1.
       -4    1    3    3    0  502  0.52226026720E+03  0.24530330025E+03 -0.72207666242E+03  0.92429747112E+03  0.12699999809E+01 0. -1.
</event>
<event>
 5   0  0.2054876E-05  0.1799638E+04  0.7818609E-02  0.8706492E-01
       -1   -1    0    0    0  501  0.00000000000E+00  0.00000000000E+00  0.99718501254E+03  0.99718501255E+03  0.50400001928E-02 0. -1.
        1   -1    0    0  501    0  0.00000000000E+00  0.00000000000E+00 -0.81196013591E+03  0.81196013592E+03  0.50400001928E-02 0.  1.
    10030    2    1    2    0    0  0.00000000000E+00  0.00000000000E+00  0.18522487663E+03  0.18091451485E+04  0.17996382729E+04 0.  0.
        5    1    3    3  502    0 -0.24046642088E+03  0.86699532490E+03  0.10481722223E+03  0.90582213102E+03  0.46999998093E+01 0. -1.
       -5    1    3    3    0  502  0.24046642088E+03 -0.86699532490E+03  0.80407654398E+02  0.90332301745E+03  0.46999998093E+01 0.  1.
</event>
<event>
 5   0  0.3909859E-05  0.1799181E+04  0.7818609E-02  0.8706735E-01
       -2   -1    0    0    0  501  0.00000000000E+00  0.00000000000E+00  0.55059847184E+03  0.55059847184E+03  0.25500000920E-02 0.  1.
        2   -1    0    0  501    0  0.00000000000E+00  0.00000000000E+00 -0.14697878851E+04  0.14697878851E+04  0.25500000920E-02 0. -1.
    10030    2    1    2    0    0  0.00000000000E+00  0.00000000000E+00 -0.91918941326E+03  0.20203863570E+04  0.17991808842E+04 0.  0.
        4    1    3    3  502    0 -0.14869952402E+03 -0.12382822516E+03  0.52694959544E+03  0.56135769953E+03  0.12699999809E+01 0.  1.
       -4    1    3    3    0  502  0.14869952402E+03  0.12382822516E+03 -0.14461390087E+04  0.14590286574E+04  0.12699999809E+01 0. -1.
</event>
<event>
 5   0  0.2054876E-05  0.1778201E+04  0.7818609E-02  0.8717979E-01
       -1   -1    0    0    0  501  0.00000000000E+00  0.00000000000E+00  0.13093963665E+04  0.13093963665E+04  0.50400001928E-02 0. -1.
        1   -1    0    0  501    0  0.00000000000E+00  0.00000000000E+00 -0.60371284077E+03  0.60371284079E+03  0.50400001928E-02 0.  1.
    10030    2    1    2    0    0  0.00000000000E+00  0.00000000000E+00  0.70568352572E+03  0.19131092073E+04  0.17782006637E+04 0.  0.
        5    1    3    3  502    0 -0.49671048834E+03  0.59414521793E+03 -0.11703976982E+03  0.78323064734E+03  0.46999998093E+01 0.  1.
       -5    1    3    3    0  502  0.49671048834E+03 -0.59414521793E+03  0.82272329554E+03  0.11298785600E+04  0.46999998093E+01 0. -1.
</event>
<event>
 5   0  0.3984648E-05  0.1799595E+04  0.7818609E-02  0.8706515E-01
        2   -1    0    0  501    0  0.00000000000E+00  0.00000000000E+00  0.72139304746E+03  0.72139304746E+03  0.25500000920E-02 0.  1.
       -2   -1    0    0    0  501  0.00000000000E+00  0.00000000000E+00 -0.11223226740E+04  0.11223226740E+04  0.25500000920E-02 0. -1.
    10030    2    1    2    0    0  0.00000000000E+00  0.00000000000E+00 -0.40092962657E+03  0.18437157215E+04  0.17995952590E+04 0.  0.
        1    1    3    3  502    0 -0.51628651361E+03  0.73634965481E+03 -0.23073917020E+03  0.92844124368E+03  0.50400001928E-02 0.  1.
       -1    1    3    3    0  502  0.51628651361E+03 -0.73634965481E+03 -0.17019045638E+03  0.91527447782E+03  0.50400001928E-02 0. -1.
</event>
<event>
 5   0  0.2054876E-05  0.1804593E+04  0.7818609E-02  0.8703861E-01
        1   -1    0    0  501    0  0.00000000000E+00  0.00000000000E+00  0.18405094261E+04  0.18405094261E+04  0.50400001928E-02 0. -1.
       -1   -1    0    0    0  501  0.00000000000E+00  0.00000000000E+00 -0.44234457354E+03  0.44234457357E+03  0.50400001928E-02 0.  1.
    10030    2    1    2    0    0  0.00000000000E+00  0.00000000000E+00  0.13981648526E+04  0.22828539997E+04  0.18045934248E+04 0.  0.
        5    1    3    3  502    0  0.63407387613E+02  0.76488815787E+03  0.12991931692E+04  0.15089729526E+04  0.46999998093E+01 0.  1.
       -5    1    3    3    0  502 -0.63407387613E+02 -0.76488815787E+03  0.98971683338E+02  0.77388104703E+03  0.46999998093E+01 0. -1.
</event>
<event>
 5   0  0.1960300E-05  0.1799954E+04  0.7818609E-02  0.8706324E-01
        1   -1    0    0  501    0  0.00000000000E+00  0.00000000000E+00  0.58528007434E+03  0.58528007436E+03  0.50400001928E-02 0. -1.
       -1   -1    0    0    0  501  0.00000000000E+00  0.00000000000E+00 -0.13838815753E+04  0.13838815753E+04  0.50400001928E-02 0.  1.
    10030    2    1    2    0    0  0.00000000000E+00  0.00000000000E+00 -0.79860150098E+03  0.19691616497E+04  0.17999536786E+04 0.  0.
        3    1    3    3  502    0  0.11851612972E+03  0.88747973718E+03 -0.49892113774E+03  0.10249822773E+04  0.10100000352E+00 0.  1.
       -3    1    3    3    0  502 -0.11851612972E+03 -0.88747973718E+03 -0.29968036324E+03  0.94417937238E+03  0.10100000352E+00 0. -1.
</event>
<event>
 5   0  0.1960300E-05  0.1799773E+04  0.7818609E-02  0.8706420E-01
       -1   -1    0    0    0  501  0.00000000000E+00  0.00000000000E+00  0.57317739769E+03  0.57317739772E+03  0.50400001928E-02 0.  1.
        1   -1    0    0  501    0  0.00000000000E+00  0.00000000000E+00 -0.14128182639E+04  0.14128182639E+04  0.50400001928E-02 0. -1.
    10030    2    1    2    0    0  0.00000000000E+00  0.00000000000E+00 -0.83964086616E+03  0.19859956616E+04  0.17997727589E+04 0.  0.
        3    1    3    3  502    0  0.12829180254E+02 -0.17863961417E+03 -0.13929527966E+04  0.14044195254E+04  0.10100000352E+00 0. -1.
       -3    1    3    3    0  502 -0.12829180254E+02  0.17863961417E+03  0.55331193043E+03  0.58157613618E+03  0.10100000352E+00 0.  1.
</event>
<event>
 5   0  0.2054876E-05  0.1796865E+04  0.7818609E-02  0.8707969E-01
        1   -1    0    0  501    0  0.00000000000E+00  0.00000000000E+00  0.21542003098E+04  0.21542003099E+04  0.50400001928E-02 0.  1.
       -1   -1    0    0    0  501  0.00000000000E+00  0.00000000000E+00 -0.37470078026E+03  0.37470078030E+03  0.50400001928E-02 0. -1.
    10030    2    1    2    0    0  0.00000000000E+00  0.00000000000E+00  0.17794995296E+04  0.25289010902E+04  0.17968645325E+04 0.  0.
        5    1    3    3  502    0 -0.27512501081E+03 -0.54367694197E+03 -0.39430564716E+02  0.61061874213E+03  0.46999998093E+01 0. -1.
       -5    1    3    3    0  502  0.27512501081E+03  0.54367694197E+03  0.18189300943E+04  0.19182823480E+04  0.46999998093E+01 0.  1.
</event>
<event>
 5   0  0.3909859E-05  0.1747946E+04  0.7818609E-02  0.8734481E-01
        2   -1    0    0  501    0  0.00000000000E+00  0.00000000000E+00  0.22971198068E+04  0.22971198068E+04  0.25500000920E-02 0. -1.
       -2   -1    0    0    0  501  0.00000000000E+00  0.00000000000E+00 -0.33251606041E+03  0.33251606042E+03  0.25500000920E-02 0.  1.
    10030    2    1    2    0    0  0.00000000000E+00  0.00000000000E+00  0.19646037464E+04  0.26296358672E+04  0.17479464848E+04 0.  0.
        4    1    3    3  502    0 -0.67693780518E+03 -0.16792799409E+03  0.18996947826E+03  0.72286556070E+03  0.12699999809E+01 0.  1.
       -4    1    3    3    0  502  0.67693780518E+03  0.16792799409E+03  0.17746342681E+04  0.19067703065E+04  0.12699999809E+01 0. -1.
</event>
<event>
 5   0  0.3983176E-05  0.1801801E+04  0.7818609E-02  0.8705343E-01
       -2   -1    0    0    0  501  0.00000000000E+00  0.00000000000E+00  0.37686411679E+03  0.37686411680E+03  0.25500000920E-02 0.  1.
        2   -1    0    0  501    0  0.00000000000E+00  0.00000000000E+00 -0.21536178070E+04  0.21536178070E+04  0.25500000920E-02 0. -1.
    10030    2    1    2    0    0  0.00000000000E+00  0.00000000000E+00 -0.17767536902E+04  0.25304819238E+04  0.18018005137E+04 0.  0.
        3    1    3    3  502    0  0.77866634685E+03 -0.18299862001E+03 -0.30624329141E+03  0.85650145264E+03  0.10100000352E+00 0.  1.
       -3    1    3    3    0  502 -0.77866634685E+03  0.18299862001E+03 -0.14705103988E+04  0.16739804712E+04  0.10100000352E+00 0. -1.
</event>
<event>
 5   0  0.4015729E-05  0.1801149E+04  0.7818609E-02  0.8705689E-01
        2   -1    0    0  501    0  0.00000000000E+00  0.00000000000E+00  0.10573912902E+04  0.10573912902E+04  0.25500000920E-02 0. -1.
       -2   -1    0    0    0  501  0.00000000000E+00  0.00000000000E+00 -0.76701459694E+03  0.76701459695E+03  0.25500000920E-02 0.  1.
    10030    2    1    2    0    0  0.00000000000E+00  0.00000000000E+00  0.29037669324E+03  0.18244058871E+04  0.18011491379E+04 0.  0.
        2    1    3    3  502    0  0.85240205089E+03 -0.22288077007E+02  0.43866824693E+03  0.95891388853E+03  0.25500000920E-02 0. -1.
       -2    1    3    3    0  502 -0.85240205089E+03  0.22288077007E+02 -0.14829155369E+03  0.86549199860E+03  0.25500000920E-02 0.  1.
</event>
<event>
 5   0  0.3984648E-05  0.1798895E+04  0.7818609E-02  0.8706887E-01
        2   -1    0    0  501    0  0.00000000000E+00  0.00000000000E+00  0.17916953645E+04  0.17916953645E+04  0.25500000920E-02 0.  1.
       -2   -1    0    0    0  501  0.00000000000E+00  0.00000000000E+00 -0.45153107697E+03  0.45153107697E+03  0.25500000920E-02 0. -1.
    10030    2    1    2    0    0  0.00000000000E+00  0.00000000000E+00  0.13401642876E+04  0.22432264415E+04  0.17988953694E+04 0.  0.
        1    1    3    3  502    0 -0.21639671093E+03 -0.42058101280E+03  0.16240919581E+04  0.16915645460E+04  0.50400001928E-02 0.  1.
       -1    1    3    3    0  502  0.21639671093E+03  0.42058101280E+03 -0.28392767056E+03  0.55166189551E+03  0.50400001928E-02 0. -1.
</event>
<event>
 5   0  0.3993393E-05  0.1798449E+04  0.7818609E-02  0.8707125E-01
        2   -1    0    0  501    0  0.00000000000E+00  0.00000000000E+00  0.18445507874E+04  0.18445507874E+04  0.25500000920E-02 0.  1.
       -2   -1    0    0    0  501  0.00000000000E+00  0.00000000000E+00 -0.43837486009E+03  0.43837486010E+03  0.25500000920E-02 0. -1.
    10030    2    1    2    0    0  0.00000000000E+00  0.00000000000E+00  0.14061759273E+04  0.22829256475E+04  0.17984489911E+04 0.  0.
        5    1    3    3  502    0  0.76014231377E+03 -0.69675912594E+02  0.13064289714E+04  0.15130927986E+04  0.46999998093E+01 0.  1.
       -5    1    3    3    0  502 -0.76014231377E+03  0.69675912594E+02  0.99746955909E+02  0.76983284886E+03  0.46999998093E+01 0. -1.
</event>
<event>
 5   0  0.3983176E-05  0.1799075E+04  0.7818609E-02  0.8706792E-01
       -2   -1    0    0    0  501  0.00000000000E+00  0.00000000000E+00  0.59602104609E+03  0.59602104609E+03  0.25500000920E-02 0. -1.
        2   -1    0    0  501    0  0.00000000000E+00  0.00000000000E+00 -0.13576155759E+04  0.13576155759E+04  0.25500000920E-02 0.  1.
    10030    2    1    2    0    0  0.00000000000E+00  0.00000000000E+00 -0.76159452979E+03  0.19536366220E+04  0.17990747130E+04 0.  0.
        3    1    3    3  502    0  0.70635250382E+03  0.55657528475E+03 -0.40402507695E+03  0.98587330842E+03  0.10100000352E+00 0. -1.
       -3    1    3    3    0  502 -0.70635250382E+03 -0.55657528475E+03 -0.35756945285E+03  0.96776331356E+03  0.10100000352E+00 0.  1.
</event>
<event>
 5   0  0.2038338E-05  0.1798557E+04  0.7818609E-02  0.8707067E-01
        1   -1    0    0  501    0  0.00000000000E+00  0.00000000000E+00  0.15990511372E+04  0.15990511372E+04  0.50400001928E-02 0. -1.
       -1   -1    0    0    0  501  0.00000000000E+00  0.00000000000E+00 -0.50573880978E+03  0.50573880980E+03  0.50400001928E-02 0.  1.
    10030    2    1    2    0    0  0.00000000000E+00  0.00000000000E+00  0.10933123274E+04  0.21047899470E+04  0.17985574430E+04 0.  0.
        1    1    3    3  502    0  0.32997134819E+03 -0.73429007475E+02  0.15218668889E+04  0.15589585426E+04  0.50400001928E-02 0. -1.
       -1    1    3    3    0  502 -0.32997134819E+03  0.73429007475E+02 -0.42855456156E+03  0.54583140440E+03  0.50400001928E-02 0.  1.
</event>
<event>
 5   0  0.1960300E-05  0.1809834E+04  0.7818609E-02  0.8701088E-01
       -1   -1    0    0    0  501  0.00000000000E+00  0.00000000000E+00  0.54121552412E+03  0.54121552415E+03  0.50400001928E-02 0. -1.
        1   -1    0    0  501    0  0.00000000000E+00  0.00000000000E+00 -0.15130282613E+04  0.15130282613E+04  0.50400001928E-02 0.  1.
    10030    2    1    2    0    0  0.00000000000E+00  0.00000000000E+00 -0.97181273715E+03  0.20542437854E+04  0.18098335652E+04 0.  0.
        3    1    3    3  502    0 -0.83884719803E+03 -0.33605350567E+03 -0.43173491797E+03  0.10014946979E+04  0.10100000352E+00 0.  1.
       -3    1    3    3    0  502  0.83884719803E+03  0.33605350567E+03 -0.54007781919E+03  0.10527490875E+04  0.10100000352E+00 0. -1.
</event>
<event>
 5   0  0.2054876E-05  0.1802463E+04  0.7818609E-02  0.8704991E-01
        1   -1    0    0  501    0  0.00000000000E+00  0.00000000000E+00  0.72846929591E+03  0.72846929592E+03  0.50400001928E-02 0.  1.
       -1   -1    0    0    0  501  0.00000000000E+00  0.00000000000E+00 -0.11149652719E+04  0.11149652719E+04  0.50400001928E-02 0. -1.
    10030    2    1    2    0    0  0.00000000000E+00  0.00000000000E+00 -0.38649597600E+03  0.18434345678E+04  0.18024627226E+04 0.  0.
        5    1    3    3  502    0 -0.11139429072E+03  0.82366127117E+03  0.16305204052E+03  0.84701513301E+03  0.46999998093E+01 0. -1.
       -5    1    3    3    0  502  0.11139429072E+03 -0.82366127117E+03 -0.54954801652E+03  0.99641943483E+03  0.46999998093E+01 0.  1.
</event>
<event>
 5   0  0.1960300E-05  0.1801331E+04  0.7818609E-02  0.8705592E-01
        1   -1    0    0  501    0  0.00000000000E+00  0.00000000000E+00  0.74558496201E+03  0.74558496203E+03  0.50400001928E-02 0. -1.
       -1   -1    0    0    0  501  0.00000000000E+00  0.00000000000E+00 -0.10880027912E+04  0.10880027912E+04  0.50400001928E-02 0.  1.
    10030    2    1    2    0    0  0.00000000000E+00  0.00000000000E+00 -0.34241782917E+03  0.18335877532E+04  0.18013311964E+04 0.  0.
        3    1    3    3  502    0  0.74875842587E+03  0.33816593635E+03  0.20445689556E+03  0.84663924617E+03  0.10100000352E+00 0. -1.
       -3    1    3    3    0  502 -0.74875842587E+03 -0.33816593635E+03 -0.54687472473E+03  0.98694850705E+03  0.10100000352E+00 0.  1.
</event>
<event>
 5   0  0.4015729E-05  0.1799952E+04  0.7818609E-02  0.8706325E-01
       -2   -1    0    0    0  501  0.00000000000E+00  0.00000000000E+00  0.71022940514E+03  0.71022940515E+03  0.25500000920E-02 0.  1.
        2   -1    0    0  501    0  0.00000000000E+00  0.00000000000E+00 -0.11404160746E+04  0.11404160746E+04  0.25500000920E-02 0. -1.
    10030    2    1    2    0    0  0.00000000000E+00  0.00000000000E+00 -0.43018666949E+03  0.18506454798E+04  0.17999522553E+04 0.  0.
        2    1    3    3  502    0  0.80795661369E+03  0.31843096077E+03  0.27703247364E+02  0.86888413284E+03  0.25500000920E-02 0.  1.
       -2    1    3    3    0  502 -0.80795661369E+03 -0.31843096077E+03 -0.45788991685E+03  0.98176134694E+03  0.25500000920E-02 0. -1.
</event>
<event>
 5   0  0.3983176E-05  0.1798807E+04  0.7818609E-02  0.8706934E-01
       -2   -1    0    0    0  501  0.00000000000E+00  0.00000000000E+00  0.42135995095E+03  0.42135995096E+03  0.25500000920E-02 0. -1.
        2   -1    0    0  501    0  0.00000000000E+00  0.00000000000E+00 -0.19198001023E+04  0.19198001023E+04  0.25500000920E-02 0.  1.
    10030    2    1    2    0    0  0.00000000000E+00  0.00000000000E+00 -0.14984401514E+04  0.23411600533E+04  0.17988072459E+04 0.  0.
        3    1    3    3  502    0  0.75119625950E+03 -0.24375696766E+03 -0.18909773049E+03  0.81207834686E+03  0.10100000352E+00 0.  1.
       -3    1    3    3    0  502 -0.75119625950E+03  0.24375696766E+03 -0.13093424209E+04  0.15290817064E+04  0.10100000352E+00 0. -1.
</event>
<event>
 5   0  0.1960300E-05  0.1799141E+04  0.7818609E-02  0.8706757E-01
       -1   -1    0    0    0  501  0.00000000000E+00  0.00000000000E+00  0.13555952553E+04  0.13555952553E+04  0.50400001928E-02 0. -1.
        1   -1    0    0  501    0  0.00000000000E+00  0.00000000000E+00 -0.59695298630E+03  0.59695298633E+03  0.50400001928E-02 0.  1.
    10030    2    1    2    0    0  0.00000000000E+00  0.00000000000E+00  0.75864226901E+03  0.19525482416E+04  0.17991405014E+04 0.  0.
        3    1    3    3  502    0 -0.77877627073E+01 -0.22085768358E+03  0.13256765676E+04  0.13439706610E+04  0.10100000352E+00 0. -1.
       -3    1    3    3    0  502  0.77877627073E+01  0.22085768358E+03 -0.56703429859E+03  0.60857758061E+03  0.10100000352E+00 0.  1.
</event>
<event>
 5   0  0.2001811E-05  0.1801017E+04  0.7818609E-02  0.8705759E-01
        1   -1    0    0  501    0  0.00000000000E+00  0.00000000000E+00  0.76217101606E+03  0.76217101608E+03  0.50400001928E-02 0. -1.
       -1   -1    0    0    0  501  0.00000000000E+00  0.00000000000E+00 -0.10639547836E+04  0.10639547836E+04  0.50400001928E-02 0.  1.
    10030    2    1    2    0    0  0.00000000000E+00  0.00000000000E+00 -0.30178376758E+03  0.18261257997E+04  0.18010169333E+04 0.  0.
        2    1    3    3  502    0  0.74081946986E+03  0.60197135173E+02 -0.66638747387E+03  0.99825319802E+03  0.25500000920E-02 0.  1.
       -2    1    3    3    0  502 -0.74081946986E+03 -0.60197135173E+02  0.36460370630E+03  0.82787260171E+03  0.25500000920E-02 0. -1.
</event>
<event>
 5   0  0.4015729E-05  0.1806648E+04  0.7818609E-02  0.8702772E-01
        2   -1    0    0  501    0  0.00000000000E+00  0.00000000000E+00  0.94526229147E+03  0.94526229147E+03  0.25500000920E-02 0.  1.
       -2   -1    0    0    0  501  0.00000000000E+00  0.00000000000E+00 -0.86324649553E+03  0.86324649554E+03  0.25500000920E-02 0. -1.
    10030    2    1    2    0    0  0.00000000000E+00  0.00000000000E+00  0.82015795936E+02  0.18085087870E+04  0.18066481234E+04 0.  0.
        2    1    3    3  502    0  0.68915374321E+03 -0.25861268729E+03 -0.48315429488E+03  0.88048366054E+03  0.25500000920E-02 0. -1.
       -2    1    3    3    0  502 -0.68915374321E+03  0.25861268729E+03  0.56517009081E+03  0.92802512647E+03  0.25500000920E-02 0.  1.
</event>
<event>
 5   0  0.1906857E-05  0.1798523E+04  0.7818609E-02  0.8707085E-01
       -1   -1    0    0    0  501  0.00000000000E+00  0.00000000000E+00  0.77519396842E+03  0.77519396843E+03  0.50400001928E-02 0.  1.
        1   -1    0    0  501    0  0.00000000000E+00  0.00000000000E+00 -0.10431860837E+04  0.10431860837E+04  0.50400001928E-02 0. -1.
    10030    2    1    2    0    0  0.00000000000E+00  0.00000000000E+00 -0.26799211531E+03  0.18183800522E+04  0.17985233499E+04 0.  0.
        4    1    3    3  502    0  0.28154488312E+03 -0.57572185830E+02  0.72751958716E+03  0.78222019943E+03  0.12699999809E+01 0.  1.
       -4    1    3    3    0  502 -0.28154488312E+03  0.57572185830E+02 -0.99551170247E+03  0.10361598527E+04  0.12699999809E+01 0. -1.
</event>
<event>
 5   0  0.1446750E-05  0.1798541E+04  0.7818609E-02  0.8707076E-01
        3   -1    0    0  501    0  0.00000000000E+00  0.00000000000E+00  0.37896373278E+03  0.37896374624E+03  0.10100000352E+00 0.  1.
       -3   -1    0    0    0  501  0.00000000000E+00  0.00000000000E+00 -0.21339440153E+04  0.21339440177E+04  0.10100000352E+00 0. -1.
    10030    2    1    2    0    0  0.00000000000E+00  0.00000000000E+00 -0.17549802825E+04  0.25129077639E+04  0.17985409748E+04 0.  0.
        5    1    3    3  502    0 -0.19456232128E+03  0.65986565125E+03 -0.68338227991E+02  0.69135329461E+03  0.46999998093E+01 0.  1.
       -5    1    3    3    0  502  0.19456232128E+03 -0.65986565125E+03 -0.16866420545E+04  0.18215544693E+04  0.46999998093E+01 0. -1.
</event>
<event>
 5   0  0.3984648E-05  0.1797837E+04  0.7818609E-02  0.8707451E-01
       -2   -1    0    0    0  501  0.00000000000E+00  0.00000000000E+00  0.12823191024E+04  0.12823191024E+04  0.25500000920E-02 0. -1.
        2   -1    0    0  501    0  0.00000000000E+00  0.00000000000E+00 -0.63015086953E+03  0.63015086953E+03  0.25500000920E-02 0.  1.
    10030    2    1    2    0    0  0.00000000000E+00  0.00000000000E+00  0.65216823286E+03  0.19124699719E+04  0.17978370309E+04 0.  0.
        1    1    3    3  502    0  0.24678544340E+03  0.86432640850E+03  0.31591966182E+03  0.95276882205E+03  0.50400001928E-02 0.  1.
       -1    1    3    3    0  502 -0.24678544340E+03 -0.86432640850E+03  0.33624857103E+03  0.95970114987E+03  0.50400001928E-02 0. -1.
</event>
<event>
 5   0  0.1906857E-05  0.1800661E+04  0.7818609E-02  0.8705948E-01
       -1   -1    0    0    0  501  0.00000000000E+00  0.00000000000E+00  0.76117843391E+03  0.76117843393E+03  0.50400001928E-02 0. -1.
        1   -1    0    0  501    0  0.00000000000E+00  0.00000000000E+00 -0.10649209378E+04  0.10649209378E+04  0.50400001928E-02 0.  1.
    10030    2    1    2    0    0  0.00000000000E+00  0.00000000000E+00 -0.30374250390E+03  0.18260993717E+04  0.18006608250E+04 0.  0.
        4    1    3    3  502    0  0.81238946973E+03  0.31556856909E+03  0.77225178945E+02  0.87494314872E+03  0.12699999809E+01 0. -1.
       -4    1    3    3    0  502 -0.81238946973E+03 -0.31556856909E+03 -0.38096768285E+03  0.95115622303E+03  0.12699999809E+01 0.  1.
</event>
<event>
 5   0  0.1960300E-05  0.1801296E+04  0.7818609E-02  0.8705611E-01
       -1   -1    0    0    0  501  0.00000000000E+00  0.00000000000E+00  0.59121556174E+03  0.59121556176E+03  0.50400001928E-02 0. -1.
        1   -1    0    0  501    0  0.00000000000E+00  0.00000000000E+00 -0.13720315185E+04  0.13720315185E+04  0.50400001928E-02 0.  1.
    10030    2    1    2    0    0  0.00000000000E+00  0.00000000000E+00 -0.78081595673E+03  0.19632470802E+04  0.18012955171E+04 0.  0.
        3    1    3    3  502    0  0.89656591706E+03  0.13866413390E+01 -0.29706950539E+03  0.94450127986E+03  0.10100000352E+00 0. -1.
       -3    1    3    3    0  502 -0.89656591706E+03 -0.13866413390E+01 -0.48374645134E+03  0.10187458004E+04  0.10100000352E+00 0.  1.
</event>
<event>
 5   0  0.2001811E-05  0.1798573E+04  0.7818609E-02  0.8707059E-01
       -1   -1    0    0    0  501  0.00000000000E+00  0.00000000000E+00  0.38519213955E+03  0.38519213958E+03  0.50400001928E-02 0.  1.
        1   -1    0    0  501    0  0.00000000000E+00  0.00000000000E+00 -0.20995131087E+04  0.20995131087E+04  0.50400001928E-02 0. -1.
    10030    2    1    2    0    0  0.00000000000E+00  0.00000000000E+00 -0.17143209691E+04  0.24847052483E+04  0.17985727079E+04 0.  0.
        2    1    3    3  502    0 -0.50519214072E+03 -0.54731320449E+03 -0.16098808704E+03  0.76202887545E+03  0.25500000920E-02 0.  1.
       -2    1    3    3    0  502  0.50519214072E+03  0.54731320449E+03 -0.15533328821E+04  0.17226763728E+04  0.25500000920E-02 0. -1.
</event>
<event>
 5   0  0.3984648E-05  0.1798451E+04  0.7818609E-02  0.8707124E-01
       -2   -1    0    0    0  501  0.00000000000E+00  0.00000000000E+00  0.67801059439E+03  0.67801059440E+03  0.25500000920E-02 0. -1.
        2   -1    0    0  501    0  0.00000000000E+00  0.00000000000E+00 -0.11926159898E+04  0.11926159898E+04  0.25500000920E-02 0.  1.
    10030    2    1    2    0    0  0.00000000000E+00  0.00000000000E+00 -0.51460539544E+03  0.18706265842E+04  0.17984507512E+04 0.  0.
        1    1    3    3  502    0  0.51790639442E+03  0.29585934969E+03 -0.95724792144E+03  0.11278667347E+04  0.50400001928E-02 0.  1.
       -1    1    3    3    0  502 -0.51790639442E+03 -0.29585934969E+03  0.44264252600E+03  0.74275984950E+03  0.50400001928E-02 0. -1.
</event>
<event>
 5   0  0.3993393E-05  0.1801099E+04  0.7818609E-02  0.8705715E-01
        2   -1    0    0  501    0  0.00000000000E+00  0.00000000000E+00  0.17452028197E+04  0.17452028197E+04  0.25500000920E-02 0. -1.
       -2   -1    0    0    0  501  0.00000000000E+00  0.00000000000E+00 -0.46469657408E+03  0.46469657409E+03  0.25500000920E-02 0.  1.
    10030    2    1    2    0    0  0.00000000000E+00  0.00000000000E+00  0.12805062456E+04  0.22098993937E+04  0.18010994102E+04 0.  0.
        5    1    3    3  502    0  0.32302237991E+02 -0.85881625087E+03  0.31020233102E+03  0.91370474635E+03  0.46999998093E+01 0.  1.
       -5    1    3    3    0  502 -0.32302237991E+02  0.85881625087E+03  0.97030391456E+03  0.12961946474E+04  0.46999998093E+01 0. -1.
</event>
<event>
 5   0  0.2054876E-05  0.1797970E+04  0.7818609E-02  0.8707379E-01
       -1   -1    0    0    0  501  0.00000000000E+00  0.00000000000E+00  0.10662115584E+04  0.10662115584E+04  0.50400001928E-02 0.  1.
        1   -1    0    0  501    0  0.00000000000E+00  0.00000000000E+00 -0.75798698015E+03  0.75798698017E+03  0.50400001928E-02 0. -1.
    10030    2    1    2    0    0  0.00000000000E+00  0.00000000000E+00  0.30822457826E+03  0.18241985386E+04  0.17979704996E+04 0.  0.
        5    1    3    3  502    0 -0.20445010826E+03 -0.65385255313E+03  0.74469410820E+03  0.10118865612E+04  0.46999998093E+01 0.  1.
       -5    1    3    3    0  502  0.20445010826E+03  0.65385255313E+03 -0.43646952994E+03  0.81231197736E+03  0.46999998093E+01 0. -1.
</event>
<event>
 5   0  0.3909859E-05  0.1801810E+04  0.7818609E-02  0.8705338E-01
        2   -1    0    0  501    0  0.00000000000E+00  0.00000000000E+00  0.20297377837E+04  0.20297377837E+04  0.25500000920E-02 0.  1.
       -2   -1    0    0    0  501  0.00000000000E+00  0.00000000000E+00 -0.39986927154E+03  0.39986927155E+03  0.25500000920E-02 0. -1.
    10030    2    1    2    0    0  0.00000000000E+00  0.00000000000E+00  0.16298685122E+04  0.24296070553E+04  0.18018099445E+04 0.  0.
        4    1    3    3  502    0  0.71591714928E+03  0.31270362039E+02  0.15511709960E+04  0.17086978293E+04  0.12699999809E+01 0.  1.
       -4    1    3    3    0  502 -0.71591714928E+03 -0.31270362039E+02  0.78697516220E+02  0.72090922600E+03  0.12699999809E+01 0. -1.
</event>
<event>
 5   0  0.2038338E-05  0.1800487E+04  0.7818609E-02  0.8706040E-01
       -1   -1    0    0    0  501  0.00000000000E+00  0.00000000000E+00  0.59121126070E+03  0.59121126073E+03  0.50400001928E-02 0. -1.
        1   -1    0    0  501    0  0.00000000000E+00  0.00000000000E+00 -0.13708107581E+04  0.13708107581E+04  0.50400001928E-02 0.  1.
    10030    2    1    2    0    0  0.00000000000E+00  0.00000000000E+00 -0.77959949740E+03  0.19620220188E+04  0.18004874412E+04 0.  0.
        1    1    3    3  502    0 -0.54850648712E+03  0.39169020210E+03 -0.10401319213E+04  0.12394171996E+04  0.50400001928E-02 0.  1.
       -1    1    3    3    0  502  0.54850648712E+03 -0.39169020210E+03  0.26053242395E+03  0.72260481924E+03  0.50400001928E-02 0. -1.
</event>
<event>
 5   0  0.2054876E-05  0.1802456E+04  0.7818609E-02  0.8704995E-01
       -1   -1    0    0    0  501  0.00000000000E+00  0.00000000000E+00  0.14685227002E+04  0.14685227002E+04  0.50400001928E-02 0. -1.
        1   -1    0    0  501    0  0.00000000000E+00  0.00000000000E+00 -0.55308076454E+03  0.55308076456E+03  0.50400001928E-02 0.  1.
    10030    2    1    2    0    0  0.00000000000E+00  0.00000000000E+00  0.91544193568E+03  0.20216034648E+04  0.18024557224E+04 0.  0.
        5    1    3    3  502    0 -0.42984452047E+03  0.79085765826E+03  0.40797247221E+03  0.98827413985E+03  0.46999998093E+01 0. -1.
       -5    1    3    3    0  502  0.42984452047E+03 -0.79085765826E+03  0.50746946347E+03  0.10333293249E+04  0.46999998093E+01 0.  1.
</event>
<event>
 5   0  0.2001811E-05  0.1799137E+04  0.7818609E-02  0.8706758E-01
       -1   -1    0    0    0  501  0.00000000000E+00  0.00000000000E+00  0.31028726998E+03  0.31028727002E+03  0.50400001928E-02 0.  1.
        1   -1    0    0  501    0  0.00000000000E+00  0.00000000000E+00 -0.26079821161E+04  0.26079821161E+04  0.50400001928E-02 0. -1.
    10030    2    1    2    0    0  0.00000000000E+00  0.00000000000E+00 -0.22976948461E+04  0.29182693861E+04  0.17991371832E+04 0.  0.
        2    1    3    3  502    0  0.17090629284E+03  0.47050220828E+02  0.28167720553E+03  0.33281335961E+03  0.25500000920E-02 0.  1.
       -2    1    3    3    0  502 -0.17090629284E+03 -0.47050220828E+02 -0.25793720517E+04  0.25854560265E+04  0.25500000920E-02 0. -1.
</event>
<event>
 5   0  0.2001811E-05  0.1799674E+04  0.7818609E-02  0.8706473E-01
        1   -1    0    0  501    0  0.00000000000E+00  0.00000000000E+00  0.17258240654E+04  0.17258240655E+04  0.50400001928E-02 0.  1.
       -1   -1    0    0    0  501  0.00000000000E+00  0.00000000000E+00 -0.46917099348E+03  0.46917099351E+03  0.50400001928E-02 0. -1.
    10030    2    1    2    0    0  0.00000000000E+00  0.00000000000E+00  0.12566530720E+04  0.21949950590E+04  0.17996739609E+04 0.  0.
        2    1    3    3  502    0  0.42809137265E+03 -0.66163610239E+03  0.11581180419E+04  0.14008076079E+04  0.25500000920E-02 0.  1.
       -2    1    3    3    0  502 -0.42809137265E+03  0.66163610239E+03  0.98535030083E+02  0.79418745110E+03  0.25500000920E-02 0. -1.
</event>
<event>
 5   0  0.2054876E-05  0.1803010E+04  0.7818609E-02  0.8704700E-01
       -1   -1    0    0    0  501  0.00000000000E+00  0.00000000000E+00  0.46932778371E+03  0.46932778373E+03  0.50400001928E-02 0.  1.
        1   -1    0    0  501    0  0.00000000000E+00  0.00000000000E+00 -0.17316500350E+04  0.17316500350E+04  0.50400001928E-02 0. -1.
    10030    2    1    2    0    0  0.00000000000E+00  0.00000000000E+00 -0.12623222513E+04  0.22009778188E+04  0.18030102308E+04 0.  0.
        5    1    3    3  502    0  0.15580239945E+03 -0.21182794027E+02 -0.17147668546E+04  0.17219670595E+04  0.46999998093E+01 0. -1.
       -5    1    3    3    0  502 -0.15580239945E+03  0.21182794027E+02  0.45244460328E+03  0.47901075924E+03  0.46999998093E+01 0.  1.
</event>
<event>
 5   0  0.2054876E-05  0.1800461E+04  0.7818609E-02  0.8706055E-01
        1   -1    0    0  501    0  0.00000000000E+00  0.00000000000E+00  0.16117085202E+04  0.16117085202E+04  0.50400001928E-02 0. -1.
       -1   -1    0    0    0  501  0.00000000000E+00  0.00000000000E+00 -0.50282948067E+03  0.50282948070E+03  0.50400001928E-02 0.  1.
    10030    2    1    2    0    0  0.00000000000E+00  0.00000000000E+00  0.11088790395E+04  0.21145380009E+04  0.18004605613E+04 0.  0.
        5    1    3    3  502    0  0.48559518483E+03  0.74407389586E+03  0.72440465839E+03  0.11463999499E+04  0.46999998093E+01 0. -1.
       -5    1    3    3    0  502 -0.48559518483E+03 -0.74407389586E+03  0.38447438113E+03  0.96813805099E+03  0.46999998093E+01 0.  1.
</event>
<event>
 5   0  0.2001811E-05  0.1801207E+04  0.7818609E-02  0.8705658E-01
        1   -1    0    0  501    0  0.00000000000E+00  0.00000000000E+00  0.16891368221E+04  0.16891368221E+04  0.50400001928E-02 0.  1.
       -1   -1    0    0    0  501  0.00000000000E+00  0.00000000000E+00 -0.48017805447E+03  0.48017805450E+03  0.50400001928E-02 0. -1.
    10030    2    1    2    0    0  0.00000000000E+00  0.00000000000E+00  0.12089587676E+04  0.21693148766E+04  0.18012067433E+04 0.  0.
        2    1    3    3  502    0  0.93337016162E+02  0.67082121187E+01 -0.47430697704E+03  0.48345000483E+03  0.25500000920E-02 0. -1.
       -2    1    3    3    0  502 -0.93337016162E+02 -0.67082121187E+01  0.16832657447E+04  0.16858648718E+04  0.25500000920E-02 0.  1.
</event>
<event>
 5   0  0.2001811E-05  0.1804202E+04  0.7818609E-02  0.8704068E-01
       -1   -1    0    0    0  501  0.00000000000E+00  0.00000000000E+00  0.65237665314E+03  0.65237665316E+03  0.50400001928E-02 0. -1.
        1   -1    0    0  501    0  0.00000000000E+00  0.00000000000E+00 -0.12474184035E+04  0.12474184035E+04  0.50400001928E-02 0.  1.
    10030    2    1    2    0    0  0.00000000000E+00  0.00000000000E+00 -0.59504175031E+03  0.18997950566E+04  0.18042024755E+04 0.  0.
        2    1    3    3  502    0 -0.23462773495E+03 -0.50856817254E+02 -0.12131623842E+04  0.12366889505E+04  0.25500000920E-02 0.  1.
       -2    1    3    3    0  502  0.23462773495E+03  0.50856817254E+02  0.61812063391E+03  0.66310610610E+03  0.25500000920E-02 0. -1.
</event>
<event>
 5   0  0.1446750E-05  0.1783496E+04  0.7818609E-02  0.8715126E-01
       -4   -1    0    0    0  501  0.00000000000E+00  0.00000000000E+00  0.86102772411E+03  0.86102866072E+03  0.12699999809E+01 0. -1.
        4   -1    0    0  501    0  0.00000000000E+00  0.00000000000E+00 -0.92356234368E+03  0.92356321687E+03  0.12699999809E+01 0.  1.
    10030    2    1    2    0    0  0.00000000000E+00  0.00000000000E+00 -0.62534619566E+02  0.17845918776E+04  0.17834958904E+04 0.  0.
        3    1    3    3  502    0 -0.15388172703E+03  0.79157693428E+03 -0.41221212255E+03  0.90564478300E+03  0.10100000352E+00 0. -1.
       -3    1    3    3    0  502  0.15388172703E+03 -0.79157693428E+03  0.34967750298E+03  0.87894709459E+03  0.10100000352E+00 0.  1.
</event>
<event>
 5   0  0.3984648E-05  0.1800385E+04  0.7818609E-02  0.8706095E-01
       -2   -1    0    0    0  501  0.00000000000E+00  0.00000000000E+00  0.13997857598E+04  0.13997857598E+04  0.25500000920E-02 0. -1.
        2   -1    0    0  501    0  0.00000000000E+00  0.00000000000E+00 -0.57890730352E+03  0.57890730352E+03  0.25500000920E-02 0.  1.
    10030    2    1    2    0    0  0.00000000000E+00  0.00000000000E+00  0.82087845630E+03  0.19786930633E+04  0.18003846253E+04 0.  0.
        1    1    3    3  502    0 -0.83156463759E+03  0.24737466598E+03  0.14655029163E+03  0.87986985393E+03  0.50400001928E-02 0.  1.
       -1    1    3    3    0  502  0.83156463759E+03 -0.24737466598E+03  0.67432816467E+03  0.10988232094E+04  0.50400001928E-02 0. -1.
</event>
<event>
 5   0  0.2054876E-05  0.1797369E+04  0.7818609E-02  0.8707700E-01
       -1   -1    0    0    0  501  0.00000000000E+00  0.00000000000E+00  0.51756166227E+03  0.51756166229E+03  0.50400001928E-02 0.  1.
        1   -1    0    0  501    0  0.00000000000E+00  0.00000000000E+00 -0.15604598178E+04  0.15604598178E+04  0.50400001928E-02 0. -1.
    10030    2    1    2    0    0  0.00000000000E+00  0.00000000000E+00 -0.10428981556E+04  0.20780214801E+04  0.17973693858E+04 0.  0.
        5    1    3    3  502    0  0.54622027419E+03 -0.71256835537E+03 -0.47664430576E+03  0.10165245365E+04  0.46999998093E+01 0.  1.
       -5    1    3    3    0  502 -0.54622027419E+03  0.71256835537E+03 -0.56625384980E+03  0.10614969437E+04  0.46999998093E+01 0. -1.
</event>
<event>
 5   0  0.2001811E-05  0.1801119E+04  0.7818609E-02  0.8705705E-01
        1   -1    0    0  501    0  0.00000000000E+00  0.00000000000E+00  0.42134086199E+03  0.42134086202E+03  0.50400001928E-02 0.  1.
       -1   -1    0    0    0  501  0.00000000000E+00  0.00000000000E+00 -0.19248242910E+04  0.19248242911E+04  0.50400001928E-02 0. -1.
    10030    2    1    2    0    0  0.00000000000E+00  0.00000000000E+00 -0.15034834291E+04  0.23461651531E+04  0.18011186813E+04 0.  0.
        2    1    3    3  502    0 -0.62791281076E+03 -0.49336167442E+02  0.86700172567E+02  0.63578728775E+03  0.25500000920E-02 0.  1.
       -2    1    3    3    0  502  0.62791281076E+03  0.49336167442E+02 -0.15901836016E+04  0.17103778653E+04  0.25500000920E-02 0. -1.
</event>
<event>
 5   0  0.2038338E-05  0.1800421E+04  0.7818609E-02  0.8706076E-01
        1   -1    0    0  501    0  0.00000000000E+00  0.00000000000E+00  0.20794567841E+04  0.20794567841E+04  0.50400001928E-02 0.  1.
       -1   -1    0    0    0  501  0.00000000000E+00  0.00000000000E+00 -0.38970694951E+03  0.38970694954E+03  0.50400001928E-02 0. -1.
    10030    2    1    2    0    0  0.00000000000E+00  0.00000000000E+00  0.16897498346E+04  0.24691637336E+04  0.18004207953E+04 0.  0.
        1    1    3    3  502    0 -0.32166356968E+03 -0.65012595705E+03  0.11369503704E+03  0.73420553905E+03  0.50400001928E-02 0. -1.
       -1    1    3    3    0  502  0.32166356968E+03  0.65012595705E+03  0.15760547975E+04  0.17349581946E+04  0.50400001928E-02 0.  1.
</event>
<event>
 5   0  0.3993393E-05  0.1803380E+04  0.7818609E-02  0.8704504E-01
       -2   -1    0    0    0  501  0.00000000000E+00  0.00000000000E+00  0.74944491333E+03  0.74944491334E+03  0.25500000920E-02 0.  1.
        2   -1    0    0  501    0  0.00000000000E+00  0.00000000000E+00 -0.10848627491E+04  0.10848627491E+04  0.25500000920E-02 0. -1.
    10030    2    1    2    0    0  0.00000000000E+00  0.00000000000E+00 -0.33541783581E+03  0.18343076625E+04  0.18033800143E+04 0.  0.
        5    1    3    3  502    0 -0.12735257901E+03  0.86048894748E+03 -0.40918909242E+03  0.96131041369E+03  0.46999998093E+01 0.  1.
       -5    1    3    3    0  502  0.12735257901E+03 -0.86048894748E+03  0.73771256609E+02  0.87299724880E+03  0.46999998093E+01 0. -1.
</event>
<event>
 5   0  0.3993393E-05  0.1805411E+04  0.7818609E-02  0.8703427E-01
       -2   -1    0    0    0  501  0.00000000000E+00  0.00000000000E+00  0.84473921677E+03  0.84473921677E+03  0.25500000920E-02 0.  1.
        2   -1    0    0  501    0  0.00000000000E+00  0.00000000000E+00 -0.96464937164E+03  0.96464937164E+03  0.25500000920E-02 0. -1.
    10030    2    1    2    0    0  0.00000000000E+00  0.00000000000E+00 -0.11991015487E+03  0.18093885884E+04  0.18054109279E+04 0.  0.
        5    1    3    3  502    0  0.36630418311E+03  0.10347370640E+03  0.76036491646E+03  0.85033079367E+03  0.46999998093E+01 0.  1.
       -5    1    3    3    0  502 -0.36630418311E+03 -0.10347370640E+03 -0.88027507132E+03  0.95905779475E+03  0.46999998093E+01 0. -1.
</event>
<event>
 5   0  0.3909859E-05  0.1803357E+04  0.7818609E-02  0.8704516E-01
        2   -1    0    0  501    0  0.00000000000E+00  0.00000000000E+00  0.69547644220E+03  0.69547644220E+03  0.25500000920E-02 0.  1.
       -2   -1    0    0    0  501  0.00000000000E+00  0.00000000000E+00 -0.11690181095E+04  0.11690181095E+04  0.25500000920E-02 0. -1.
    10030    2    1    2    0    0  0.00000000000E+00  0.00000000000E+00 -0.47354166731E+03  0.18644945517E+04  0.18033574861E+04 0.  0.
        4    1    3    3  502    0 -0.34685786696E+03 -0.12879405592E+03  0.61337352585E+03  0.71632882381E+03  0.12699999809E+01 0.  1.
       -4    1    3    3    0  502  0.34685786696E+03  0.12879405592E+03 -0.10869151932E+04  0.11481657279E+04  0.12699999809E+01 0. -1.
</event>
<event>
 5   0  0.2054876E-05  0.1803055E+04  0.7818609E-02  0.8704677E-01
        1   -1    0    0  501    0  0.00000000000E+00  0.00000000000E+00  0.72505993434E+03  0.72505993436E+03  0.50400001928E-02 0. -1.
       -1   -1    0    0    0  501  0.00000000000E+00  0.00000000000E+00 -0.11209437826E+04  0.11209437826E+04  0.50400001928E-02 0.  1.
    10030    2    1    2    0    0  0.00000000000E+00  0.00000000000E+00 -0.39588384825E+03  0.18460037170E+04  0.18030545476E+04 0.  0.
        5    1    3    3  502    0 -0.73317383436E+03 -0.82273009762E+02  0.33248847284E+03  0.80924866023E+03  0.46999998093E+01 0. -1.
       -5    1    3    3    0  502  0.73317383436E+03  0.82273009762E+02 -0.72837232109E+03  0.10367550567E+04  0.46999998093E+01 0.  1.
</event>
<event>
 5   0  0.4015729E-05  0.1798800E+04  0.7818609E-02  0.8706938E-01
        2   -1    0    0  501    0  0.00000000000E+00  0.00000000000E+00  0.12672311609E+04  0.12672311609E+04  0.25500000920E-02 0. -1.
       -2   -1    0    0    0  501  0.00000000000E+00  0.00000000000E+00 -0.63833713204E+03  0.63833713204E+03  0.25500000920E-02 0.  1.
    10030    2    1    2    0    0  0.00000000000E+00  0.00000000000E+00  0.62889402891E+03  0.19055682930E+04  0.17988003835E+04 0.  0.
        2    1    3    3  502    0  0.67705940782E+03 -0.58432143687E+03  0.41539038753E+03  0.98609845216E+03  0.25500000920E-02 0. -1.
       -2    1    3    3    0  502 -0.67705940782E+03  0.58432143687E+03  0.21350364138E+03  0.91946984082E+03  0.25500000920E-02 0.  1.
</event>
<event>
 5   0  0.2001811E-05  0.1798606E+04  0.7818609E-02  0.8707041E-01
        1   -1    0    0  501    0  0.00000000000E+00  0.00000000000E+00  0.15938226519E+04  0.15938226519E+04  0.50400001928E-02 0.  1.
       -1   -1    0    0    0  501  0.00000000000E+00  0.00000000000E+00 -0.50742548736E+03  0.50742548738E+03  0.50400001928E-02 0. -1.
    10030    2    1    2    0    0  0.00000000000E+00  0.00000000000E+00  0.10863971646E+04  0.21012481393E+04  0.17986063893E+04 0.  0.
        2    1    3    3  502    0 -0.55014027213E+03  0.66588393606E+03  0.83570949903E+03  0.12018594353E+04  0.25500000920E-02 0.  1.
       -2    1    3    3    0  502  0.55014027213E+03 -0.66588393606E+03  0.25068766554E+03  0.89938870406E+03  0.25500000920E-02 0. -1.
</event>
<event>
 5   0  0.4015729E-05  0.1799109E+04  0.7818609E-02  0.8706773E-01
       -2   -1    0    0    0  501  0.00000000000E+00  0.00000000000E+00  0.15431769163E+04  0.15431769163E+04  0.25500000920E-02 0. -1.
        2   -1    0    0  501    0  0.00000000000E+00  0.00000000000E+00 -0.52437170847E+03  0.52437170848E+03  0.25500000920E-02 0.  1.
    10030    2    1    2    0    0  0.00000000000E+00  0.00000000000E+00  0.10188052078E+04  0.20675486248E+04  0.17991090196E+04 0.  0.
        2    1    3    3  502    0  0.77085250874E+03 -0.34816039941E+03  0.15749549725E+03  0.86036857544E+03  0.25500000920E-02 0.  1.
       -2    1    3    3    0  502 -0.77085250874E+03  0.34816039941E+03  0.86130971057E+03  0.12071800493E+04  0.25500000920E-02 0. -1.
</event>
<event>
 5   0  0.2054876E-05  0.1758870E+04  0.7818609E-02  0.8728483E-01
       -1   -1    0    0    0  501  0.00000000000E+00  0.00000000000E+00  0.94072568054E+03  0.94072568056E+03  0.50400001928E-02 0.  1.
        1   -1    0    0  501    0  0.00000000000E+00  0.00000000000E+00 -0.82213800427E+03  0.82213800428E+03  0.50400001928E-02 0. -1.
    10030    2    1    2    0    0  0.00000000000E+00  0.00000000000E+00  0.11858767627E+03  0.17628636848E+04  0.17588704712E+04 0.  0.
        5    1    3    3  502    0 -0.10646332872E+02  0.20433689025E+03 -0.79793581267E+03  0.82376608346E+03  0.46999998093E+01 0. -1.
       -5    1    3    3    0  502  0.10646332872E+02 -0.20433689025E+03  0.91652348895E+03  0.93909760138E+03  0.46999998093E+01 0.  1.
</event>
<event>
 5   0  0.3909859E-05  0.1805918E+04  0.7818609E-02  0.8703159E-01
        2   -1    0    0  501    0  0.00000000000E+00  0.00000000000E+00  0.29282877956E+04  0.29282877956E+04  0.25500000920E-02 0.  1.
       -2   -1    0    0    0  501  0.00000000000E+00  0.00000000000E+00 -0.27843404021E+03  0.27843404023E+03  0.25500000920E-02 0. -1.
    10030    2    1    2    0    0  0.00000000000E+00  0.00000000000E+00  0.26498537554E+04  0.32067218358E+04  0.18059180511E+04 0.  0.
        4    1    3    3  502    0  0.66918569467E+03  0.22975069631E+02  0.24006337416E+04  0.24922642962E+04  0.12699999809E+01 0.  1.
       -4    1    3    3    0  502 -0.66918569467E+03 -0.22975069631E+02  0.24922001377E+03  0.71445753964E+03  0.12699999809E+01 0. -1.
</event>
<event>
 5   0  0.2038338E-05  0.1801197E+04  0.7818609E-02  0.8705663E-01
       -1   -1    0    0    0  501  0.00000000000E+00  0.00000000000E+00  0.14147780277E+04  0.14147780277E+04  0.50400001928E-02 0.  1.
        1   -1    0    0  501    0  0.00000000000E+00  0.00000000000E+00 -0.57328949649E+03  0.57328949651E+03  0.50400001928E-02 0. -1.
    10030    2    1    2    0    0  0.00000000000E+00  0.00000000000E+00  0.84148853123E+03  0.19880675242E+04  0.18011966946E+04 0.  0.
        1    1    3    3  502    0 -0.86950325480E+03 -0.69067200215E+02  0.66821827461E+03  0.10987819851E+04  0.50400001928E-02 0. -1.
       -1    1    3    3    0  502  0.86950325480E+03  0.69067200215E+02  0.17327025662E+03  0.88928553913E+03  0.50400001928E-02 0.  1.
</event>
<event>
 5   0  0.2054876E-05  0.1800712E+04  0.7818609E-02  0.8705921E-01
        1   -1    0    0  501    0  0.00000000000E+00  0.00000000000E+00  0.95063141383E+03  0.95063141384E+03  0.50400001928E-02 0. -1.
       -1   -1    0    0    0  501  0.00000000000E+00  0.00000000000E+00 -0.85273975311E+03  0.85273975312E+03  0.50400001928E-02 0.  1.
    10030    2    1    2    0    0  0.00000000000E+00  0.00000000000E+00  0.97891660721E+02  0.18033711670E+04  0.18007123003E+04 0.  0.
        5    1    3    3  502    0 -0.22376874895E+02  0.86365536541E+03  0.30273230706E+03  0.91546177117E+03  0.46999998093E+01 0.  1.
       -5    1    3    3    0  502  0.22376874895E+02 -0.86365536541E+03 -0.20484064634E+03  0.88790939579E+03  0.46999998093E+01 0. -1.
</event>
<event>
 5   0  0.2038338E-05  0.1798412E+04  0.7818609E-02  0.8707145E-01
        1   -1    0    0  501    0  0.00000000000E+00  0.00000000000E+00  0.24451913563E+04  0.24451913563E+04  0.50400001928E-02 0. -1.
       -1   -1    0    0    0  501  0.00000000000E+00  0.00000000000E+00 -0.33067806224E+03  0.33067806228E+03  0.50400001928E-02 0.  1.
    10030    2    1    2    0    0  0.00000000000E+00  0.00000000000E+00  0.21145132941E+04  0.27758694186E+04  0.17984116765E+04 0.  0.
        1    1    3    3  502    0 -0.14845150717E+02 -0.26983038580E+03  0.23810303592E+04  0.23963168378E+04  0.50400001928E-02 0. -1.
       -1    1    3    3    0  502  0.14845150717E+02  0.26983038580E+03 -0.26651706510E+03  0.37955258083E+03  0.50400001928E-02 0.  1.
</event>
<event>
 5   0  0.4015729E-05  0.1786105E+04  0.7818609E-02  0.8713724E-01
        2   -1    0    0  501    0  0.00000000000E+00  0.00000000000E+00  0.13730897434E+04  0.13730897434E+04  0.25500000920E-02 0. -1.
       -2   -1    0    0    0  501  0.00000000000E+00  0.00000000000E+00 -0.58083797731E+03  0.58083797732E+03  0.25500000920E-02 0.  1.
    10030    2    1    2    0    0  0.00000000000E+00  0.00000000000E+00  0.79225176610E+03  0.19539277207E+04  0.17861048897E+04 0.  0.
        2    1    3    3  502    0  0.71295401617E+03 -0.52100329249E+03  0.54205709987E+03  0.10361340451E+04  0.25500000920E-02 0. -1.
       -2    1    3    3    0  502 -0.71295401617E+03  0.52100329249E+03  0.25019466624E+03  0.91779367561E+03  0.25500000920E-02 0.  1.
</event>
<event>
 5   0  0.3983176E-05  0.1806735E+04  0.7818609E-02  0.8702726E-01
        2   -1    0    0  501    0  0.00000000000E+00  0.00000000000E+00  0.16404298039E+04  0.16404298039E+04  0.25500000920E-02 0. -1.
       -2   -1    0    0    0  501  0.00000000000E+00  0.00000000000E+00 -0.49747518360E+03  0.49747518361E+03  0.25500000920E-02 0.  1.
    10030    2    1    2    0    0  0.00000000000E+00  0.00000000000E+00  0.11429546203E+04  0.21379049875E+04  0.18067353075E+04 0.  0.
        3    1    3    3  502    0  0.69876222645E+03 -0.41600853859E+03  0.10600155452E+03  0.82010248936E+03  0.10100000352E+00 0.  1.
       -3    1    3    3    0  502 -0.69876222645E+03  0.41600853859E+03  0.10369530658E+04  0.13178024981E+04  0.10100000352E+00 0. -1.
</event>
<event>
 5   0  0.2054876E-05  0.1803325E+04  0.7818609E-02  0.8704533E-01
        1   -1    0    0  501    0  0.00000000000E+00  0.00000000000E+00  0.15765457016E+04  0.15765457016E+04  0.50400001928E-02 0.  1.
       -1   -1    0    0    0  501  0.00000000000E+00  0.00000000000E+00 -0.51568163422E+03  0.51568163424E+03  0.50400001928E-02 0. -1.
    10030    2    1    2    0    0  0.00000000000E+00  0.00000000000E+00  0.10608640674E+04  0.20922273359E+04  0.18033254436E+04 0.  0.
        5    1    3    3  502    0 -0.37156832919E+03 -0.40407395142E+03  0.13603110752E+04  0.14669039140E+04  0.46999998093E+01 0.  1.
       -5    1    3    3    0  502  0.37156832919E+03  0.40407395142E+03 -0.29944700782E+03  0.62532342189E+03  0.46999998093E+01 0. -1.
</event>
<event>
 5   0  0.3993393E-05  0.1802196E+04  0.7818609E-02  0.8705133E-01
        2   -1    0    0  501    0  0.00000000000E+00  0.00000000000E+00  0.30066038238E+04  0.30066038238E+04  0.25500000920E-02 0. -1.
       -2   -1    0    0    0  501  0.00000000000E+00  0.00000000000E+00 -0.27006463697E+03  0.27006463698E+03  0.25500000920E-02 0.  1.
    10030    2    1    2    0    0  0.00000000000E+00  0.00000000000E+00  0.27365391868E+04  0.32766684608E+04  0.18021957388E+04 0.  0.
        5    1    3    3  502    0 -0.80143864241E+03 -0.23892755222E+03  0.75826620886E+03  0.11288844078E+04  0.46999998093E+01 0.  1.
       -5    1    3    3    0  502  0.80143864241E+03  0.23892755222E+03  0.19782729780E+04  0.21477840530E+04  0.46999998093E+01 0. -1.
</event>
<event>
 5   0  0.3993393E-05  0.1801695E+04  0.7818609E-02  0.8705399E-01
       -2   -1    0    0    0  501  0.00000000000E+00  0.00000000000E+00  0.51426680483E+03  0.51426680483E+03  0.25500000920E-02 0.  1.
        2   -1    0    0  501    0  0.00000000000E+00  0.00000000000E+00 -0.15780250031E+04  0.15780250031E+04  0.25500000920E-02 0. -1.
    10030    2    1    2    0    0  0.00000000000E+00  0.00000000000E+00 -0.10637581982E+04  0.20922918079E+04  0.18016946204E+04 0.  0.
        5    1    3    3  502    0  0.10013511189E+03  0.13116169039E+03 -0.15603092571E+04  0.15690180041E+04  0.46999998093E+01 0. -1.
       -5    1    3    3    0  502 -0.10013511189E+03 -0.13116169039E+03  0.49655105883E+03  0.52327380374E+03  0.46999998093E+01 0.  1.
</event>
<event>
 5   0  0.3993393E-05  0.1796004E+04  0.7818609E-02  0.8708427E-01
        2   -1    0    0  501    0  0.00000000000E+00  0.00000000000E+00  0.74717249056E+03  0.74717249057E+03  0.25500000920E-02 0. -1.
       -2   -1    0    0    0  501  0.00000000000E+00  0.00000000000E+00 -0.10792795565E+04  0.10792795565E+04  0.25500000920E-02 0.  1.
    10030    2    1    2    0    0  0.00000000000E+00  0.00000000000E+00 -0.33210706598E+03  0.18264520471E+04  0.17960044480E+04 0.  0.
        5    1    3    3  502    0  0.85353097684E+02  0.21064093493E+03 -0.10495341054E+04  0.10738708876E+04  0.46999998093E+01 0.  1.
       -5    1    3    3    0  502 -0.85353097684E+02 -0.21064093493E+03  0.71742703945E+03  0.75258115953E+03  0.46999998093E+01 0. -1.
</event>
<event>
 5   0  0.2038338E-05  0.1802768E+04  0.7818609E-02  0.8704829E-01
       -1   -1    0    0    0  501  0.00000000000E+00  0.00000000000E+00  0.12514275252E+04  0.12514275252E+04  0.50400001928E-02 0. -1.
        1   -1    0    0  501    0  0.00000000000E+00  0.00000000000E+00 -0.64925293772E+03  0.64925293774E+03  0.50400001928E-02 0.  1.
    10030    2    1    2    0    0  0.00000000000E+00  0.00000000000E+00  0.60217458750E+03  0.19006804630E+04  0.18027678687E+04 0.  0.
        1    1    3    3  502    0 -0.19802049143E+03 -0.29887872881E+03 -0.57084394349E+03  0.67409451667E+03  0.50400001928E-02 0.  1.
       -1    1    3    3    0  502  0.19802049143E+03  0.29887872881E+03  0.11730185310E+04  0.12265859463E+04  0.50400001928E-02 0. -1.
</event>
<event>
 5   0  0.3909859E-05  0.1800959E+04  0.7818609E-02  0.8705790E-01
        2   -1    0    0  501    0  0.00000000000E+00  0.00000000000E+00  0.19739686667E+04  0.19739686667E+04  0.25500000920E-02 0. -1.
       -2   -1    0    0    0  501  0.00000000000E+00  0.00000000000E+00 -0.41077809366E+03  0.41077809367E+03  0.25500000920E-02 0.  1.
    10030    2    1    2    0    0  0.00000000000E+00  0.00000000000E+00  0.15631905730E+04  0.23847467603E+04  0.18009587289E+04 0.  0.
        4    1    3    3  502    0  0.87921733068E+03  0.98700103414E+02  0.55963986282E+03  0.10468826171E+04  0.12699999809E+01 0. -1.
       -4    1    3    3    0  502 -0.87921733068E+03 -0.98700103414E+02  0.10035507102E+04  0.13378641432E+04  0.12699999809E+01 0.  1.
</event>
<event>
 5   0  0.2038338E-05  0.1811785E+04  0.7818609E-02  0.8700057E-01
       -1   -1    0    0    0  501  0.00000000000E+00  0.00000000000E+00  0.31091488919E+03  0.31091488923E+03  0.50400001928E-02 0.  1.
        1   -1    0    0  501    0  0.00000000000E+00  0.00000000000E+00 -0.26394404319E+04  0.26394404319E+04  0.50400001928E-02 0. -1.
    10030    2    1    2    0    0  0.00000000000E+00  0.00000000000E+00 -0.23285255428E+04  0.29503553212E+04  0.18117851192E+04 0.  0.
        1    1    3    3  502    0  0.12629736858E+03 -0.36599081006E+03  0.16939706190E+03  0.42260580091E+03  0.50400001928E-02 0.  1.
       -1    1    3    3    0  502 -0.12629736858E+03  0.36599081006E+03 -0.24979226047E+04  0.25277495203E+04  0.50400001928E-02 0. -1.
</event>
<event>
 5   0  0.2038338E-05  0.1796279E+04  0.7818609E-02  0.8708281E-01
        1   -1    0    0  501    0  0.00000000000E+00  0.00000000000E+00  0.95890545280E+03  0.95890545281E+03  0.50400001928E-02 0.  1.
       -1   -1    0    0    0  501  0.00000000000E+00  0.00000000000E+00 -0.84122443015E+03  0.84122443016E+03  0.50400001928E-02 0. -1.
    10030    2    1    2    0    0  0.00000000000E+00  0.00000000000E+00  0.11768102265E+03  0.18001298830E+04  0.17962791466E+04 0.  0.
        1    1    3    3  502    0  0.62141743904E+03  0.37288759563E+03 -0.47281529729E+03  0.86530867204E+03  0.50400001928E-02 0. -1.
       -1    1    3    3    0  502 -0.62141743904E+03 -0.37288759563E+03  0.59049631994E+03  0.93482121094E+03  0.50400001928E-02 0.  1.
</event>
<event>
 5   0  0.2001811E-05  0.1793377E+04  0.7818609E-02  0.8709830E-01
       -1   -1    0    0    0  501  0.00000000000E+00  0.00000000000E+00  0.61105881310E+03  0.61105881312E+03  0.50400001928E-02 0. -1.
        1   -1    0    0  501    0  0.00000000000E+00  0.00000000000E+00 -0.13158310612E+04  0.13158310612E+04  0.50400001928E-02 0.  1.
    10030    2    1    2    0    0  0.00000000000E+00  0.00000000000E+00 -0.70477224812E+03  0.19268898744E+04  0.17933768890E+04 0.  0.
        2    1    3    3  502    0 -0.64605882511E+03  0.60809121926E+03 -0.49199502088E+03  0.10145077807E+04  0.25500000920E-02 0.  1.
       -2    1    3    3    0  502  0.64605882511E+03 -0.60809121926E+03 -0.21277722725E+03  0.91238209369E+03  0.25500000920E-02 0. -1.
</event>
<event>
 5   0  0.3909859E-05  0.1817944E+04  0.7818609E-02  0.8696815E-01
        2   -1    0    0  501    0  0.00000000000E+00  0.00000000000E+00  0.18614470602E+04  0.18614470602E+04  0.25500000920E-02 0.  1.
       -2   -1    0    0    0  501  0.00000000000E+00  0.00000000000E+00 -0.44386462945E+03  0.44386462945E+03  0.25500000920E-02 0. -1.
    10030    2    1    2    0    0  0.00000000000E+00  0.00000000000E+00  0.14175824308E+04  0.23053116897E+04  0.18179444542E+04 0.  0.
        4    1    3    3  502    0 -0.30242222619E+03 -0.85670356618E+03  0.74529568280E+03  0.11751031746E+04  0.12699999809E+01 0. -1.
       -4    1    3    3    0  502  0.30242222619E+03  0.85670356618E+03  0.67228674795E+03  0.11302085151E+04  0.12699999809E+01 0.  1.
</event>
<event>
 5   0  0.1906857E-05  0.1803847E+04  0.7818609E-02  0.8704256E-01
        1   -1    0    0  501    0  0.00000000000E+00  0.00000000000E+00  0.23658414717E+04  0.23658414717E+04  0.50400001928E-02 0.  1.
       -1   -1    0    0    0  501  0.00000000000E+00  0.00000000000E+00 -0.34383784060E+03  0.34383784064E+03  0.50400001928E-02 0. -1.
    10030    2    1    2    0    0  0.00000000000E+00  0.00000000000E+00  0.20220036311E+04  0.27096793123E+04  0.18038468038E+04 0.  0.
        4    1    3    3  502    0 -0.68551338321E+03  0.49330594148E+03  0.53553600749E+03  0.10000398885E+04  0.12699999809E+01 0. -1.
       -4    1    3    3    0  502  0.68551338321E+03 -0.49330594148E+03  0.14864676236E+04  0.17096394238E+04  0.12699999809E+01 0.  1.
</event>
<event>
 5   0  0.1960300E-05  0.1797744E+04  0.7818609E-02  0.8707500E-01
        1   -1    0    0  501    0  0.00000000000E+00  0.00000000000E+00  0.13717934838E+04  0.13717934838E+04  0.50400001928E-02 0.  1.
       -1   -1    0    0    0  501  0.00000000000E+00  0.00000000000E+00 -0.58898849963E+03  0.58898849965E+03  0.50400001928E-02 0. -1.
    10030    2    1    2    0    0  0.00000000000E+00  0.00000000000E+00  0.78280498414E+03  0.19607819834E+04  0.17977436812E+04 0.  0.
        3    1    3    3  502    0 -0.42629677058E+03  0.49443752225E+03  0.10653161250E+04  0.12494382164E+04  0.10100000352E+00 0.  1.
       -3    1    3    3    0  502  0.42629677058E+03 -0.49443752225E+03 -0.28251114090E+03  0.71134376707E+03  0.10100000352E+00 0. -1.
</event>
<event>
 5   0  0.3984648E-05  0.1800162E+04  0.7818609E-02  0.8706213E-01
        2   -1    0    0  501    0  0.00000000000E+00  0.00000000000E+00  0.19703038584E+04  0.19703038584E+04  0.25500000920E-02 0. -1.
       -2   -1    0    0    0  501  0.00000000000E+00  0.00000000000E+00 -0.41117807124E+03  0.41117807125E+03  0.25500000920E-02 0.  1.
    10030    2    1    2    0    0  0.00000000000E+00  0.00000000000E+00  0.15591257872E+04  0.23814819297E+04  0.18001619263E+04 0.  0.
        1    1    3    3  502    0 -0.83054596108E+03  0.30488986510E+03  0.99847152434E+03  0.13340576480E+04  0.50400001928E-02 0.  1.
       -1    1    3    3    0  502  0.83054596108E+03 -0.30488986510E+03  0.56065426285E+03  0.10474242816E+04  0.50400001928E-02 0. -1.
</event>
<event>
 5   0  0.3993393E-05  0.1792118E+04  0.7818609E-02  0.8710502E-01
       -2   -1    0    0    0  501  0.00000000000E+00  0.00000000000E+00  0.44902689310E+03  0.44902689311E+03  0.25500000920E-02 0. -1.
        2   -1    0    0  501    0  0.00000000000E+00  0.00000000000E+00 -0.17881377389E+04  0.17881377389E+04  0.25500000920E-02 0.  1.
    10030    2    1    2    0    0  0.00000000000E+00  0.00000000000E+00 -0.13391108458E+04  0.22371646320E+04  0.17921182253E+04 0.  0.
        5    1    3    3  502    0  0.72599010719E+03 -0.52207280201E+03 -0.74102954207E+03  0.11613649377E+04  0.46999998093E+01 0. -1.
       -5    1    3    3    0  502 -0.72599010719E+03  0.52207280201E+03 -0.59808130369E+03  0.10757996943E+04  0.46999998093E+01 0.  1.
</event>
<event>
 5   0  0.1906857E-05  0.1753758E+04  0.7818609E-02  0.8731285E-01
       -1   -1    0    0    0  501  0.00000000000E+00  0.00000000000E+00  0.12260856306E+04  0.12260856306E+04  0.50400001928E-02 0. -1.
        1   -1    0    0  501    0  0.00000000000E+00  0.00000000000E+00 -0.62713106870E+03  0.62713106872E+03  0.50400001928E-02 0.  1.
    10030    2    1    2    0    0  0.00000000000E+00  0.00000000000E+00  0.59895456190E+03  0.18532166993E+04  0.17537575566E+04 0.  0.
        4    1    3    3  502    0  0.60523505661E+03 -0.40769794331E+03 -0.21429311966E+03  0.76055916323E+03  0.12699999809E+01 0.  1.
       -4    1    3    3    0  502 -0.60523505661E+03  0.40769794331E+03  0.81324768156E+03  0.10926575361E+04  0.12699999809E+01 0. -1.
</event>
<event>
 5   0  0.3909859E-05  0.1800286E+04  0.7818609E-02  0.8706147E-01
        2   -1    0    0  501    0  0.00000000000E+00  0.00000000000E+00  0.10218061524E+04  0.10218061524E+04  0.25500000920E-02 0. -1.
       -2   -1    0    0    0  501  0.00000000000E+00  0.00000000000E+00 -0.79296621240E+03  0.79296621240E+03  0.25500000920E-02 0.  1.
    10030    2    1    2    0    0  0.00000000000E+00  0.00000000000E+00  0.22883993998E+03  0.18147723648E+04  0.18002863711E+04 0.  0.
        4    1    3    3  502    0 -0.43139261952E+03  0.25039769045E+03  0.86975395431E+03  0.10026326094E+04  0.12699999809E+01 0. -1.
       -4    1    3    3    0  502  0.43139261952E+03 -0.25039769045E+03 -0.64091401433E+03  0.81213975535E+03  0.12699999809E+01 0.  1.
</event>
<event>
 5   0  0.4015729E-05  0.1800410E+04  0.7818609E-02  0.8706081E-01
        2   -1    0    0  501    0  0.00000000000E+00  0.00000000000E+00  0.21770589370E+04  0.21770589370E+04  0.25500000920E-02 0.  1.
       -2   -1    0    0    0  501  0.00000000000E+00  0.00000000000E+00 -0.37223110814E+03  0.37223110815E+03  0.25500000920E-02 0. -1.
    10030    2    1    2    0    0  0.00000000000E+00  0.00000000000E+00  0.18048278288E+04  0.25492900451E+04  0.18004100206E+04 0.  0.
        2    1    3    3  502    0  0.86773550049E+03  0.12777686097E+03  0.61543602776E+03  0.10714725051E+04  0.25500000920E-02 0. -1.
       -2    1    3    3    0  502 -0.86773550049E+03 -0.12777686097E+03  0.11893918010E+04  0.14778175400E+04  0.25500000920E-02 0.  1.
</event>
<event>
 5   0  0.2038338E-05  0.1798640E+04  0.7818609E-02  0.8707023E-01
       -1   -1    0    0    0  501  0.00000000000E+00  0.00000000000E+00  0.59988044598E+03  0.59988044600E+03  0.50400001928E-02 0.  1.
        1   -1    0    0  501    0  0.00000000000E+00  0.00000000000E+00 -0.13482290231E+04  0.13482290231E+04  0.50400001928E-02 0. -1.
    10030    2    1    2    0    0  0.00000000000E+00  0.00000000000E+00 -0.74834857711E+03  0.19481094691E+04  0.17986397390E+04 0.  0.
        1    1    3    3  502    0 -0.32594456138E+02  0.35455570682E+03 -0.12686378627E+04  0.13176548010E+04  0.50400001928E-02 0. -1.
       -1    1    3    3    0  502  0.32594456138E+02 -0.35455570682E+03  0.52028928561E+03  0.63045466812E+03  0.50400001928E-02 0.  1.
</event>
<event>
 5   0  0.4015729E-05  0.1800462E+04  0.7818609E-02  0.8706054E-01
        2   -1    0    0  501    0  0.00000000000E+00  0.00000000000E+00  0.16451495223E+04  0.16451495223E+04  0.25500000920E-02 0. -1.
       -2   -1    0    0    0  501  0.00000000000E+00  0.00000000000E+00 -0.49260925643E+03  0.49260925644E+03  0.25500000920E-02 0.  1.
    10030    2    1    2    0    0  0.00000000000E+00  0.00000000000E+00  0.11525402658E+04  0.21377587787E+04  0.18004620328E+04 0.  0.
        2    1    3    3  502    0  0.23957387758E+03  0.20030539324E+03  0.15787794692E+04  0.16093671134E+04  0.25500000920E-02 0. -1.
       -2    1    3    3    0  502 -0.23957387758E+03 -0.20030539324E+03 -0.42623920340E+03  0.52839166525E+03  0.25500000920E-02 0.  1.
</event>
<event>
 5   0  0.2001811E-05  0.1798541E+04  0.7818609E-02  0.8707075E-01
       -1   -1    0    0    0  501  0.00000000000E+00  0.00000000000E+00  0.15473181769E+04  0.15473181769E+04  0.50400001928E-02 0.  1.
        1   -1    0    0  501    0  0.00000000000E+00  0.00000000000E+00 -0.52263837465E+03  0.52263837467E+03  0.50400001928E-02 0. -1.
    10030    2    1    2    0    0  0.00000000000E+00  0.00000000000E+00  0.10246798023E+04  0.20699565516E+04  0.17985414725E+04 0.  0.
        2    1    3    3  502    0 -0.81817029442E+03 -0.26394435772E+03  0.81601097371E+03  0.11853029840E+04  0.25500000920E-02 0.  1.
       -2    1    3    3    0  502  0.81817029442E+03  0.26394435772E+03  0.20866882855E+03  0.88465356760E+03  0.25500000920E-02 0. -1.
</event>
<event>
 5   0  0.1906857E-05  0.1800330E+04  0.7818609E-02  0.8706124E-01
       -1   -1    0    0    0  501  0.00000000000E+00  0.00000000000E+00  0.62432649368E+03  0.62432649370E+03  0.50400001928E-02 0.  1.
        1   -1    0    0  501    0  0.00000000000E+00  0.00000000000E+00 -0.12978734815E+04  0.12978734815E+04  0.50400001928E-02 0. -1.
    10030    2    1    2    0    0  0.00000000000E+00  0.00000000000E+00 -0.67354698783E+03  0.19221999752E+04  0.18003297475E+04 0.  0.
        4    1    3    3  502    0  0.21977978527E+03 -0.27341150194E+03 -0.12218894103E+04  0.12712483421E+04  0.12699999809E+01 0. -1.
       -4    1    3    3    0  502 -0.21977978527E+03  0.27341150194E+03  0.54834242249E+03  0.65095163308E+03  0.12699999809E+01 0.  1.
</event>
<event>
 5   0  0.3984648E-05  0.1797881E+04  0.7818609E-02  0.8707427E-01
       -2   -1    0    0    0  501  0.00000000000E+00  0.00000000000E+00  0.83596142881E+03  0.83596142882E+03  0.25500000920E-02 0.  1.
        2   -1    0    0  501    0  0.00000000000E+00  0.00000000000E+00 -0.96666420397E+03  0.96666420397E+03  0.25500000920E-02 0. -1.
    10030    2    1    2    0    0  0.00000000000E+00  0.00000000000E+00 -0.13070277516E+03  0.18026256328E+04  0.17978809628E+04 0.  0.
        1    1    3    3  502    0  0.44952874483E+03  0.25486350954E+03  0.67215930496E+03  0.84783821109E+03  0.50400001928E-02 0.  1.
       -1    1    3    3    0  502 -0.44952874483E+03 -0.25486350954E+03 -0.80286208011E+03  0.95478742170E+03  0.50400001928E-02 0. -1.
</event>
<event>
 5   0  0.4015729E-05  0.1801530E+04  0.7818609E-02  0.8705486E-01
        2   -1    0    0  501    0  0.00000000000E+00  0.00000000000E+00  0.15332212621E+04  0.15332212621E+04  0.25500000920E-02 0. -1.
       -2   -1    0    0    0  501  0.00000000000E+00  0.00000000000E+00 -0.52919806889E+03  0.52919806889E+03  0.25500000920E-02 0.  1.
    10030    2    1    2    0    0  0.00000000000E+00  0.00000000000E+00  0.10040231932E+04  0.20624193310E+04  0.18015301619E+04 0.  0.
        2    1    3    3  502    0 -0.12865670051E+03  0.37839008234E+03  0.14261592035E+04  0.14811015072E+04  0.25500000920E-02 0. -1.
       -2    1    3    3    0  502  0.12865670051E+03 -0.37839008234E+03 -0.42213601030E+03  0.58131782374E+03  0.25500000920E-02 0.  1.
</event>
<event>
 5   0  0.2038338E-05  0.1801645E+04  0.7818609E-02  0.8705425E-01
       -1   -1    0    0    0  501  0.00000000000E+00  0.00000000000E+00  0.10564239254E+04  0.10564239254E+04  0.50400001928E-02 0. -1.
        1   -1    0    0  501    0  0.00000000000E+00  0.00000000000E+00 -0.76813999518E+03  0.76813999520E+03  0.50400001928E-02 0.  1.
    10030    2    1    2    0    0  0.00000000000E+00  0.00000000000E+00  0.28828393025E+03  0.18245639206E+04  0.18016453247E+04 0.  0.
        1    1    3    3  502    0 -0.25541740992E+03  0.19791070319E+03  0.99571608427E+03  0.10468319924E+04  0.50400001928E-02 0. -1.
       -1    1    3    3    0  502  0.25541740992E+03 -0.19791070319E+03 -0.70743215401E+03  0.77773192829E+03  0.50400001928E-02 0.  1.
</event>
<event>
 5   0  0.2001811E-05  0.1803050E+04  0.7818609E-02  0.8704679E-01
       -1   -1    0    0    0  501  0.00000000000E+00  0.00000000000E+00  0.82027914737E+03  0.82027914739E+03  0.50400001928E-02 0. -1.
        1   -1    0    0  501    0  0.00000000000E+00  0.00000000000E+00 -0.99081852313E+03  0.99081852314E+03  0.50400001928E-02 0.  1.
    10030    2    1    2    0    0  0.00000000000E+00  0.00000000000E+00 -0.17053937576E+03  0.18110976705E+04  0.18030504967E+04 0.  0.
        2    1    3    3  502    0 -0.68267381582E+03 -0.27359813010E+02  0.50553537973E+03  0.84991653610E+03  0.25500000920E-02 0.  1.
       -2    1    3    3    0  502  0.68267381582E+03  0.27359813010E+02 -0.67607475549E+03  0.96118113443E+03  0.25500000920E-02 0. -1.
</event>
<event>
 5   0  0.3984648E-05  0.1798091E+04  0.7818609E-02  0.8707315E-01
       -2   -1    0    0    0  501  0.00000000000E+00  0.00000000000E+00  0.56931223206E+03  0.56931223206E+03  0.25500000920E-02 0.  1.
        2   -1    0    0  501    0  0.00000000000E+00  0.00000000000E+00 -0.14197527402E+04  0.14197527402E+04  0.25500000920E-02 0. -1.
    10030    2    1    2    0    0  0.00000000000E+00  0.00000000000E+00 -0.85044050818E+03  0.19890649723E+04  0.17980907669E+04 0.  0.
        1    1    3    3  502    0  0.29446111375E+03 -0.70327101102E+03  0.10181063611E+03  0.76919624811E+03  0.50400001928E-02 0.  1.
       -1    1    3    3    0  502 -0.29446111375E+03  0.70327101102E+03 -0.95225114428E+03  0.12198687242E+04  0.50400001928E-02 0. -1.
</event>
<event>
 5   0  0.2001811E-05  0.1797883E+04  0.7818609E-02  0.8707426E-01
       -1   -1    0    0    0  501  0.00000000000E+00  0.00000000000E+00  0.56700080803E+03  0.56700080805E+03  0.50400001928E-02 0. -1.
        1   -1    0    0  501    0  0.00000000000E+00  0.00000000000E+00 -0.14252110592E+04  0.14252110592E+04  0.50400001928E-02 0.  1.
    10030    2    1    2    0    0  0.00000000000E+00  0.00000000000E+00 -0.85821025113E+03  0.19922118672E+04  0.17978830020E+04 0.  0.
        2    1    3    3  502    0  0.40354063992E+03  0.41225074360E+03  0.33483276040E+03  0.66701476828E+03  0.25500000920E-02 0. -1.
       -2    1    3    3    0  502 -0.40354063992E+03 -0.41225074360E+03 -0.11930430115E+04  0.13251970989E+04  0.25500000920E-02 0.  1.
</event>
<event>
 5   0  0.1960300E-05  0.1798725E+04  0.7818609E-02  0.8706978E-01
        1   -1    0    0  501    0  0.00000000000E+00  0.00000000000E+00  0.98906152066E+03  0.98906152067E+03  0.50400001928E-02 0.  1.
       -1   -1    0    0    0  501  0.00000000000E+00  0.00000000000E+00 -0.81779854733E+03  0.81779854734E+03  0.50400001928E-02 0. -1.
    10030    2    1    2    0    0  0.00000000000E+00  0.00000000000E+00  0.17126297333E+03  0.18068600680E+04  0.17987251873E+04 0.  0.
        3    1    3    3  502    0  0.62450009678E+03 -0.56042910049E+02 -0.56204171054E+03  0.84204042257E+03  0.10100000352E+00 0. -1.
       -3    1    3    3    0  502 -0.62450009678E+03  0.56042910049E+02  0.73330468387E+03  0.96481964545E+03  0.10100000352E+00 0.  1.
</event>
<event>
 5   0  0.3909859E-05  0.1802531E+04  0.7818609E-02  0.8704955E-01
       -2   -1    0    0    0  501  0.00000000000E+00  0.00000000000E+00  0.99619781029E+03  0.99619781030E+03  0.25500000920E-02 0. -1.
        2   -1    0    0  501    0  0.00000000000E+00  0.00000000000E+00 -0.81537990708E+03  0.81537990709E+03  0.25500000920E-02 0.  1.
    10030    2    1    2    0    0  0.00000000000E+00  0.00000000000E+00  0.18081790321E+03  0.18115777174E+04  0.18025311958E+04 0.  0.
        4    1    3    3  502    0 -0.64232094520E+02  0.74549642079E+03  0.59531201597E+03  0.95618444070E+03  0.12699999809E+01 0. -1.
       -4    1    3    3    0  502  0.64232094520E+02 -0.74549642079E+03 -0.41449411276E+03  0.85539327668E+03  0.12699999809E+01 0.  1.
</event>
<event>
 5   0  0.3909859E-05  0.1800814E+04  0.7818609E-02  0.8705866E-01
        2   -1    0    0  501    0  0.00000000000E+00  0.00000000000E+00  0.13622028808E+04  0.13622028808E+04  0.25500000920E-02 0.  1.
       -2   -1    0    0    0  501  0.00000000000E+00  0.00000000000E+00 -0.59516329183E+03  0.59516329183E+03  0.25500000920E-02 0. -1.
    10030    2    1    2    0    0  0.00000000000E+00  0.00000000000E+00  0.76703958900E+03  0.19573661727E+04  0.18008144276E+04 0.  0.
        4    1    3    3  502    0 -0.59141366324E+03 -0.66472911924E+03  0.53372372960E+03  0.10375440017E+04  0.12699999809E+01 0.  1.
       -4    1    3    3    0  502  0.59141366324E+03  0.66472911924E+03  0.23331585940E+03  0.91982217096E+03  0.12699999809E+01 0. -1.
</event>
<event>
 5   0  0.3909859E-05  0.1799100E+04  0.7818609E-02  0.8706778E-01
        2   -1    0    0  501    0  0.00000000000E+00  0.00000000000E+00  0.10996867889E+04  0.10996867889E+04  0.25500000920E-02 0.  1.
       -2   -1    0    0    0  501  0.00000000000E+00  0.00000000000E+00 -0.73583716765E+03  0.73583716765E+03  0.25500000920E-02 0. -1.
    10030    2    1    2    0    0  0.00000000000E+00  0.00000000000E+00  0.36384962125E+03  0.18355239566E+04  0.17991002329E+04 0.  0.
        4    1    3    3  502    0 -0.62086717032E+03 -0.20096583287E+03  0.81359233177E+03  0.10429752655E+04  0.12699999809E+01 0.  1.
       -4    1    3    3    0  502  0.62086717032E+03  0.20096583287E+03 -0.44974271053E+03  0.79254869108E+03  0.12699999809E+01 0. -1.
</event>
<event>
 5   0  0.3983176E-05  0.1799492E+04  0.7818609E-02  0.8706570E-01
       -2   -1    0    0    0  501  0.00000000000E+00  0.00000000000E+00  0.63458548398E+03  0.63458548398E+03  0.25500000920E-02 0. -1.
        2   -1    0    0  501    0  0.00000000000E+00  0.00000000000E+00 -0.12757036048E+04  0.12757036048E+04  0.25500000920E-02 0.  1.
    10030    2    1    2    0    0  0.00000000000E+00  0.00000000000E+00 -0.64111812078E+03  0.19102890887E+04  0.17994921389E+04 0.  0.
        3    1    3    3  502    0  0.37214850340E+03 -0.52248923462E+03 -0.99032005040E+03  0.11799251338E+04  0.10100000352E+00 0.  1.
       -3    1    3    3    0  502 -0.37214850340E+03  0.52248923462E+03  0.34920192962E+03  0.73036395498E+03  0.10100000352E+00 0. -1.
</event>
<event>
 5   0  0.2038338E-05  0.1797742E+04  0.7818609E-02  0.8707501E-01
        1   -1    0    0  501    0  0.00000000000E+00  0.00000000000E+00  0.14597297522E+04  0.14597297522E+04  0.50400001928E-02 0.  1.
       -1   -1    0    0    0  501  0.00000000000E+00  0.00000000000E+00 -0.55350596402E+03  0.55350596404E+03  0.50400001928E-02 0. -1.
    10030    2    1    2    0    0  0.00000000000E+00  0.00000000000E+00  0.90622378815E+03  0.20132357162E+04  0.17977420546E+04 0.  0.
        1    1    3    3  502    0 -0.49520297839E+03 -0.61734326360E+03  0.93037905441E+03  0.12214515462E+04  0.50400001928E-02 0.  1.
       -1    1    3    3    0  502  0.49520297839E+03  0.61734326360E+03 -0.24155266260E+02  0.79178416998E+03  0.50400001928E-02 0. -1.
</event>
<event>
 5   0  0.4015729E-05  0.1802342E+04  0.7818609E-02  0.8705055E-01
       -2   -1    0    0    0  501  0.00000000000E+00  0.00000000000E+00  0.60696472567E+03  0.60696472568E+03  0.25500000920E-02 0.  1.
        2   -1    0    0  501    0  0.00000000000E+00  0.00000000000E+00 -0.13379840508E+04  0.13379840508E+04  0.25500000920E-02 0. -1.
    10030    2    1    2    0    0  0.00000000000E+00  0.00000000000E+00 -0.73101932510E+03  0.19449487765E+04  0.18023419457E+04 0.  0.
        2    1    3    3  502    0 -0.81571500530E+03 -0.80925305935E+02  0.38505206128E+02  0.82062325456E+03  0.25500000920E-02 0.  1.
       -2    1    3    3    0  502  0.81571500530E+03  0.80925305935E+02 -0.76952453123E+03  0.11243255219E+04  0.25500000920E-02 0. -1.
</event>
<event>
 5   0  0.3984648E-05  0.1800888E+04  0.7818609E-02  0.8705827E-01
        2   -1    0    0  501    0  0.00000000000E+00  0.00000000000E+00  0.13980203063E+04  0.13980203063E+04  0.25500000920E-02 0. -1.
       -2   -1    0    0    0  501  0.00000000000E+00  0.00000000000E+00 -0.57996243116E+03  0.57996243116E+03  0.25500000920E-02 0.  1.
    10030    2    1    2    0    0  0.00000000000E+00  0.00000000000E+00  0.81805787514E+03  0.19779827375E+04  0.18008878429E+04 0.  0.
        1    1    3    3  502    0 -0.71110038876E+03  0.34981939472E+03  0.87857547648E+03  0.11831873223E+04  0.50400001928E-02 0. -1.
       -1    1    3    3    0  502  0.71110038876E+03 -0.34981939472E+03 -0.60517601340E+02  0.79479541513E+03  0.50400001928E-02 0.  1.
</event>
<event>
 5   0  0.2001811E-05  0.1800430E+04  0.7818609E-02  0.8706071E-01
       -1   -1    0    0    0  501  0.00000000000E+00  0.00000000000E+00  0.54476346495E+03  0.54476346497E+03  0.50400001928E-02 0. -1.
        1   -1    0    0  501    0  0.00000000000E+00  0.00000000000E+00 -0.14875941182E+04  0.14875941183E+04  0.50400001928E-02 0.  1.
    10030    2    1    2    0    0  0.00000000000E+00  0.00000000000E+00 -0.94283065330E+03  0.20323575832E+04  0.18004298668E+04 0.  0.
        2    1    3    3  502    0  0.77511039058E+03  0.26250604843E+03 -0.89480691795E+03  0.12125943112E+04  0.25500000920E-02 0.  1.
       -2    1    3    3    0  502 -0.77511039058E+03 -0.26250604843E+03 -0.48023735352E+02  0.81976327206E+03  0.25500000920E-02 0. -1.
</event>
<event>
 5   0  0.2001811E-05  0.1852085E+04  0.7818609E-02  0.8679081E-01
        1   -1    0    0  501    0  0.00000000000E+00  0.00000000000E+00  0.88110119954E+03  0.88110119955E+03  0.50400001928E-02 0.  1.
       -1   -1    0    0    0  501  0.00000000000E+00  0.00000000000E+00 -0.97327584600E+03  0.97327584601E+03  0.50400001928E-02 0. -1.
    10030    2    1    2    0    0  0.00000000000E+00  0.00000000000E+00 -0.92174646459E+02  0.18543770456E+04  0.18520847879E+04 0.  0.
        2    1    3    3  502    0  0.45811101417E+03  0.68339082133E+03  0.37948673977E+03  0.90603471326E+03  0.25500000920E-02 0.  1.
       -2    1    3    3    0  502 -0.45811101417E+03 -0.68339082133E+03 -0.47166138623E+03  0.94834233230E+03  0.25500000920E-02 0. -1.
</event>
<event>
 5   0  0.3984648E-05  0.1798581E+04  0.7818609E-02  0.8707054E-01
       -2   -1    0    0    0  501  0.00000000000E+00  0.00000000000E+00  0.45550039832E+03  0.45550039833E+03  0.25500000920E-02 0. -1.
        2   -1    0    0  501    0  0.00000000000E+00  0.00000000000E+00 -0.17754621048E+04  0.17754621048E+04  0.25500000920E-02 0.  1.
    10030    2    1    2    0    0  0.00000000000E+00  0.00000000000E+00 -0.13199617065E+04  0.22309625032E+04  0.17985813253E+04 0.  0.
        1    1    3    3  502    0 -0.87785157239E+03 -0.16223871066E+03 -0.52535923448E+03  0.10358316020E+04  0.50400001928E-02 0. -1.
       -1    1    3    3    0  502  0.87785157239E+03  0.16223871066E+03 -0.79460247203E+03  0.11951309012E+04  0.50400001928E-02 0.  1.
</event>
<event>
 5   0  0.3909859E-05  0.1799866E+04  0.7818609E-02  0.8706371E-01
       -2   -1    0    0    0  501  0.00000000000E+00  0.00000000000E+00  0.49590217297E+03  0.49590217297E+03  0.25500000920E-02 0. -1.
        2   -1    0    0  501    0  0.00000000000E+00  0.00000000000E+00 -0.16331440765E+04  0.16331440765E+04  0.25500000920E-02 0.  1.
    10030    2    1    2    0    0  0.00000000000E+00  0.00000000000E+00 -0.11372419036E+04  0.21290462495E+04  0.17998663243E+04 0.  0.
        4    1    3    3  502    0  0.22092646138E+03 -0.72621093053E+03 -0.11404449380E+04  0.13699660895E+04  0.12699999809E+01 0.  1.
       -4    1    3    3    0  502 -0.22092646138E+03  0.72621093053E+03  0.32030344177E+01  0.75908015999E+03  0.12699999809E+01 0. -1.
</event>
<event>
 5   0  0.3909859E-05  0.1796516E+04  0.7818609E-02  0.8708155E-01
       -2   -1    0    0    0  501  0.00000000000E+00  0.00000000000E+00  0.51540565561E+03  0.51540565561E+03  0.25500000920E-02 0. -1.
        2   -1    0    0  501    0  0.00000000000E+00  0.00000000000E+00 -0.15654993105E+04  0.15654993105E+04  0.25500000920E-02 0.  1.
    10030    2    1    2    0    0  0.00000000000E+00  0.00000000000E+00 -0.10500936549E+04  0.20809049661E+04  0.17965157372E+04 0.  0.
        4    1    3    3  502    0 -0.18443163631E+03 -0.81081374506E+03 -0.91858206989E+03  0.12390434172E+04  0.12699999809E+01 0.  1.
       -4    1    3    3    0  502  0.18443163631E+03  0.81081374506E+03 -0.13151158498E+03  0.84186154891E+03  0.12699999809E+01 0. -1.
</event>
<event>
 5   0  0.1960300E-05  0.1801423E+04  0.7818609E-02  0.8705543E-01
        1   -1    0    0  501    0  0.00000000000E+00  0.00000000000E+00  0.81936167076E+03  0.81936167077E+03  0.50400001928E-02 0.  1.
       -1   -1    0    0    0  501  0.00000000000E+00  0.00000000000E+00 -0.99013770137E+03  0.99013770138E+03  0.50400001928E-02 0. -1.
    10030    2    1    2    0    0  0.00000000000E+00  0.00000000000E+00 -0.17077603061E+03  0.18094993722E+04  0.18014226392E+04 0.  0.
        3    1    3    3  502    0 -0.25382614990E+03  0.85958162799E+03 -0.17507766036E+03  0.91321437073E+03  0.10100000352E+00 0. -1.
       -3    1    3    3    0  502  0.25382614990E+03 -0.85958162799E+03  0.43016297429E+01  0.89628500142E+03  0.10100000352E+00 0.  1.
</event>
<event>
 5   0  0.2054876E-05  0.1803737E+04  0.7818609E-02  0.8704315E-01
        1   -1    0    0  501    0  0.00000000000E+00  0.00000000000E+00  0.10749092033E+04  0.10749092033E+04  0.50400001928E-02 0. -1.
       -1   -1    0    0    0  501  0.00000000000E+00  0.00000000000E+00 -0.75668411304E+03  0.75668411306E+03  0.50400001928E-02 0.  1.
    10030    2    1    2    0    0  0.00000000000E+00  0.00000000000E+00  0.31822509021E+03  0.18315933163E+04  0.18037369177E+04 0.  0.
        5    1    3    3  502    0  0.58915648029E+01 -0.27947368595E+03  0.10297952090E+04  0.10670709977E+04  0.46999998093E+01 0. -1.
       -5    1    3    3    0  502 -0.58915648029E+01  0.27947368595E+03 -0.71157011880E+03  0.76452231860E+03  0.46999998093E+01 0.  1.
</event>
<event>
 5   0  0.4015729E-05  0.1802105E+04  0.7818609E-02  0.8705181E-01
       -2   -1    0    0    0  501  0.00000000000E+00  0.00000000000E+00  0.17221512390E+04  0.17221512390E+04  0.25500000920E-02 0. -1.
        2   -1    0    0  501    0  0.00000000000E+00  0.00000000000E+00 -0.47144258086E+03  0.47144258087E+03  0.25500000920E-02 0.  1.
    10030    2    1    2    0    0  0.00000000000E+00  0.00000000000E+00  0.12507086582E+04  0.21935938199E+04  0.18021047969E+04 0.  0.
        2    1    3    3  502    0  0.55805880251E+03 -0.26297721406E+03 -0.17405704292E+03  0.64100116721E+03  0.25500000920E-02 0.  1.
       -2    1    3    3    0  502 -0.55805880251E+03  0.26297721406E+03  0.14247657011E+04  0.15525926527E+04  0.25500000920E-02 0. -1.
</event>
<event>
 5   0  0.2001811E-05  0.1799754E+04  0.7818609E-02  0.8706430E-01
       -1   -1    0    0    0  501  0.00000000000E+00  0.00000000000E+00  0.41551640472E+03  0.41551640475E+03  0.50400001928E-02 0. -1.
        1   -1    0    0  501    0  0.00000000000E+00  0.00000000000E+00 -0.19488497570E+04  0.19488497570E+04  0.50400001928E-02 0.  1.
    10030    2    1    2    0    0  0.00000000000E+00  0.00000000000E+00 -0.15333333522E+04  0.23643661617E+04  0.17997544770E+04 0.  0.
        2    1    3    3  502    0  0.85318199995E+03 -0.28470482439E+03 -0.80388641472E+03  0.12063207409E+04  0.25500000920E-02 0.  1.
       -2    1    3    3    0  502 -0.85318199995E+03  0.28470482439E+03 -0.72944693752E+03  0.11580454208E+04  0.25500000920E-02 0. -1.
</event>
<event>
 5   0  0.2001811E-05  0.1801101E+04  0.7818609E-02  0.8705714E-01
       -1   -1    0    0    0  501  0.00000000000E+00  0.00000000000E+00  0.34516786432E+03  0.34516786436E+03  0.50400001928E-02 0.  1.
        1   -1    0    0  501    0  0.00000000000E+00  0.00000000000E+00 -0.23495562663E+04  0.23495562663E+04  0.50400001928E-02 0. -1.
    10030    2    1    2    0    0  0.00000000000E+00  0.00000000000E+00 -0.20043884020E+04  0.26947241307E+04  0.18011011283E+04 0.  0.
        2    1    3    3  502    0 -0.69184524934E+03 -0.56615225671E+03 -0.83958017500E+03  0.12264065790E+04  0.25500000920E-02 0. -1.
       -2    1    3    3    0  502  0.69184524934E+03  0.56615225671E+03 -0.11648082270E+04  0.14683175517E+04  0.25500000920E-02 0.  1.
</event>
<event>
 5   0  0.2038338E-05  0.1796743E+04  0.7818609E-02  0.8708034E-01
       -1   -1    0    0    0  501  0.00000000000E+00  0.00000000000E+00  0.54030689208E+03  0.54030689210E+03  0.50400001928E-02 0.  1.
        1   -1    0    0  501    0  0.00000000000E+00  0.00000000000E+00 -0.14937268565E+04  0.14937268565E+04  0.50400001928E-02 0. -1.
    10030    2    1    2    0    0  0.00000000000E+00  0.00000000000E+00 -0.95341996443E+03  0.20340337486E+04  0.17967425141E+04 0.  0.
        1    1    3    3  502    0 -0.82399347318E+03 -0.29729339359E+03 -0.25108376762E+03  0.91125828617E+03  0.50400001928E-02 0.  1.
       -1    1    3    3    0  502  0.82399347318E+03  0.29729339359E+03 -0.70233619681E+03  0.11227754625E+04  0.50400001928E-02 0. -1.
</event>
<event>
 5   0  0.4015729E-05  0.1801361E+04  0.7818609E-02  0.8705576E-01
       -2   -1    0    0    0  501  0.00000000000E+00  0.00000000000E+00  0.95474001405E+03  0.95474001405E+03  0.25500000920E-02 0.  1.
        2   -1    0    0  501    0  0.00000000000E+00  0.00000000000E+00 -0.84968168950E+03  0.84968168951E+03  0.25500000920E-02 0. -1.
    10030    2    1    2    0    0  0.00000000000E+00  0.00000000000E+00  0.10505832454E+03  0.18044217036E+04  0.18013607170E+04 0.  0.
        2    1    3    3  502    0  0.82895254450E+03 -0.31345613921E+03  0.21345094374E+03  0.91158015426E+03  0.25500000920E-02 0.  1.
       -2    1    3    3    0  502 -0.82895254450E+03  0.31345613921E+03 -0.10839261920E+03  0.89284154930E+03  0.25500000920E-02 0. -1.
</event>
<event>
 5   0  0.3909859E-05  0.1801623E+04  0.7818609E-02  0.8705437E-01
       -2   -1    0    0    0  501  0.00000000000E+00  0.00000000000E+00  0.55956532517E+03  0.55956532517E+03  0.25500000920E-02 0. -1.
        2   -1    0    0  501    0  0.00000000000E+00  0.00000000000E+00 -0.14501631294E+04  0.14501631294E+04  0.25500000920E-02 0.  1.
    10030    2    1    2    0    0  0.00000000000E+00  0.00000000000E+00 -0.89059780424E+03  0.20097284546E+04  0.18016226054E+04 0.  0.
        4    1    3    3  502    0 -0.26120005048E+02  0.40703506293E+03 -0.13412554403E+04  0.14019014110E+04  0.12699999809E+01 0.  1.
       -4    1    3    3    0  502  0.26120005048E+02 -0.40703506293E+03  0.45065763604E+03  0.60782704360E+03  0.12699999809E+01 0. -1.
</event>
<event>
 5   0  0.2038338E-05  0.1800093E+04  0.7818609E-02  0.8706250E-01
       -1   -1    0    0    0  501  0.00000000000E+00  0.00000000000E+00  0.77970079609E+03  0.77970079611E+03  0.50400001928E-02 0.  1.
        1   -1    0    0  501    0  0.00000000000E+00  0.00000000000E+00 -0.10389673982E+04  0.10389673982E+04  0.50400001928E-02 0. -1.
    10030    2    1    2    0    0  0.00000000000E+00  0.00000000000E+00 -0.25926660212E+03  0.18186681943E+04  0.18000930060E+04 0.  0.
        1    1    3    3  502    0 -0.28935768831E+03 -0.51604565503E+03 -0.81490426035E+03  0.10070252943E+04  0.50400001928E-02 0. -1.
       -1    1    3    3    0  502  0.28935768831E+03  0.51604565503E+03  0.55563765823E+03  0.81164290000E+03  0.50400001928E-02 0.  1.
</event>
<event>
 5   0  0.3984648E-05  0.1796136E+04  0.7818609E-02  0.8708357E-01
        2   -1    0    0  501    0  0.00000000000E+00  0.00000000000E+00  0.10438082355E+04  0.10438082355E+04  0.25500000920E-02 0.  1.
       -2   -1    0    0    0  501  0.00000000000E+00  0.00000000000E+00 -0.77267640511E+03  0.77267640511E+03  0.25500000920E-02 0. -1.
    10030    2    1    2    0    0  0.00000000000E+00  0.00000000000E+00  0.27113183039E+03  0.18164846406E+04  0.17961358468E+04 0.  0.
        1    1    3    3  502    0  0.27064468398E+03  0.20296317070E+03 -0.70577452862E+03  0.78266230195E+03  0.50400001928E-02 0. -1.
       -1    1    3    3    0  502 -0.27064468398E+03 -0.20296317070E+03  0.97690635901E+03  0.10338223387E+04  0.50400001928E-02 0.  1.
</event>
<event>
 5   0  0.2001811E-05  0.1798555E+04  0.7818609E-02  0.8707068E-01
        1   -1    0    0  501    0  0.00000000000E+00  0.00000000000E+00  0.95154833342E+03  0.95154833344E+03  0.50400001928E-02 0. -1.
       -1   -1    0    0    0  501  0.00000000000E+00  0.00000000000E+00 -0.84987784596E+03  0.84987784597E+03  0.50400001928E-02 0.  1.
    10030    2    1    2    0    0  0.00000000000E+00  0.00000000000E+00  0.10167048747E+03  0.18014261794E+04  0.17985548065E+04 0.  0.
        2    1    3    3  502    0  0.49943169351E+03 -0.70842589400E+02 -0.69483242824E+03  0.85862843669E+03  0.25500000920E-02 0.  1.
       -2    1    3    3    0  502 -0.49943169351E+03  0.70842589400E+02  0.79650291570E+03  0.94279774272E+03  0.25500000920E-02 0. -1.
</event>
<event>
 5   0  0.2038338E-05  0.1802035E+04  0.7818609E-02  0.8705218E-01
       -1   -1    0    0    0  501  0.00000000000E+00  0.00000000000E+00  0.72089193322E+03  0.72089193324E+03  0.50400001928E-02 0. -1.
        1   -1    0    0  501    0  0.00000000000E+00  0.00000000000E+00 -0.11261505625E+04  0.11261505625E+04  0.50400001928E-02 0.  1.
    10030    2    1    2    0    0  0.00000000000E+00  0.00000000000E+00 -0.40525862924E+03  0.18470424957E+04  0.18020353560E+04 0.  0.
        1    1    3    3  502    0  0.73462810291E+02  0.85341209402E+01  0.71777562473E+03  0.72157568085E+03  0.50400001928E-02 0. -1.
       -1    1    3    3    0  502 -0.73462810291E+02 -0.85341209402E+01 -0.11230342540E+04  0.11254668149E+04  0.50400001928E-02 0.  1.
</event>
<event>
 5   0  0.2038338E-05  0.1803709E+04  0.7818609E-02  0.8704329E-01
        1   -1    0    0  501    0  0.00000000000E+00  0.00000000000E+00  0.16691726329E+04  0.16691726329E+04  0.50400001928E-02 0. -1.
       -1   -1    0    0    0  501  0.00000000000E+00  0.00000000000E+00 -0.48727238464E+03  0.48727238466E+03  0.50400001928E-02 0.  1.
    10030    2    1    2    0    0  0.00000000000E+00  0.00000000000E+00  0.11819002482E+04  0.21564450175E+04  0.18037092107E+04 0.  0.
        1    1    3    3  502    0  0.20909350329E+03  0.11130544205E+03  0.16313170962E+04  0.16484248430E+04  0.50400001928E-02 0. -1.
       -1    1    3    3    0  502 -0.20909350329E+03 -0.11130544205E+03 -0.44941684795E+03  0.50802017459E+03  0.50400001928E-02 0.  1.
</event>
<event>
 5   0  0.2038338E-05  0.1800581E+04  0.7818609E-02  0.8705990E-01
       -1   -1    0    0    0  501  0.00000000000E+00  0.00000000000E+00  0.27716324293E+03  0.27716324297E+03  0.50400001928E-02 0. -1.
        1   -1    0    0  501    0  0.00000000000E+00  0.00000000000E+00 -0.29243537275E+04  0.29243537275E+04  0.50400001928E-02 0.  1.
    10030    2    1    2    0    0  0.00000000000E+00  0.00000000000E+00 -0.26471904846E+04  0.32015169705E+04  0.18005814202E+04 0.  0.
        1    1    3    3  502    0  0.76591746064E+03 -0.30721169740E+03 -0.68370909492E+03  0.10716653909E+04  0.50400001928E-02 0. -1.
       -1    1    3    3    0  502 -0.76591746064E+03  0.30721169740E+03 -0.19634813897E+04  0.21298515796E+04  0.50400001928E-02 0.  1.
</event>
<event>
 5   0  0.2038338E-05  0.1799447E+04  0.7818609E-02  0.8706594E-01
        1   -1    0    0  501    0  0.00000000000E+00  0.00000000000E+00  0.13593430929E+04  0.13593430929E+04  0.50400001928E-02 0. -1.
       -1   -1    0    0    0  501  0.00000000000E+00  0.00000000000E+00 -0.59550973585E+03  0.59550973587E+03  0.50400001928E-02 0.  1.
    10030    2    1    2    0    0  0.00000000000E+00  0.00000000000E+00  0.76383335707E+03  0.19548528288E+04  0.17994466330E+04 0.  0.
        1    1    3    3  502    0  0.40409384856E+03  0.38126964860E+03 -0.38690600339E+03  0.67701893539E+03  0.50400001928E-02 0.  1.
       -1    1    3    3    0  502 -0.40409384856E+03 -0.38126964860E+03  0.11507393605E+04  0.12778338934E+04  0.50400001928E-02 0. -1.
</event>
<event>
 5   0  0.2001811E-05  0.1807369E+04  0.7818609E-02  0.8702390E-01
        1   -1    0    0  501    0  0.00000000000E+00  0.00000000000E+00  0.18183689332E+04  0.18183689332E+04  0.50400001928E-02 0.  1.
       -1   -1    0    0    0  501  0.00000000000E+00  0.00000000000E+00 -0.44910898042E+03  0.44910898045E+03  0.50400001928E-02 0. -1.
    10030    2    1    2    0    0  0.00000000000E+00  0.00000000000E+00  0.13692599528E+04  0.22674779136E+04  0.18073691572E+04 0.  0.
        2    1    3    3  502    0 -0.13211462113E+03  0.55455902801E+03 -0.19505423025E+03  0.60252480564E+03  0.25500000920E-02 0. -1.
       -2    1    3    3    0  502  0.13211462113E+03 -0.55455902801E+03  0.15643141830E+04  0.16649531080E+04  0.25500000920E-02 0.  1.
</event>
<event>
 5   0  0.1906857E-05  0.1802137E+04  0.7818609E-02  0.8705164E-01
       -1   -1    0    0    0  501  0.00000000000E+00  0.00000000000E+00  0.89117767005E+03  0.89117767006E+03  0.50400001928E-02 0.  1.
        1   -1    0    0  501    0  0.00000000000E+00  0.00000000000E+00 -0.91106937638E+03  0.91106937640E+03  0.50400001928E-02 0. -1.
    10030    2    1    2    0    0  0.00000000000E+00  0.00000000000E+00 -0.19891706337E+02  0.18022470465E+04  0.18021372690E+04 0.  0.
        4    1    3    3  502    0 -0.52009847326E+03  0.14249745026E+03  0.71198116220E+03  0.89315549231E+03  0.12699999809E+01 0.  1.
       -4    1    3    3    0  502  0.52009847326E+03 -0.14249745026E+03 -0.73187286854E+03  0.90909155415E+03  0.12699999809E+01 0. -1.
</event>
<event>
 5   0  0.4015729E-05  0.1800462E+04  0.7818609E-02  0.8706054E-01
       -2   -1    0    0    0  501  0.00000000000E+00  0.00000000000E+00  0.61954428228E+03  0.61954428229E+03  0.25500000920E-02 0.  1.
        2   -1    0    0  501    0  0.00000000000E+00  0.00000000000E+00 -0.13080835185E+04  0.13080835185E+04  0.25500000920E-02 0. -1.
    10030    2    1    2    0    0  0.00000000000E+00  0.00000000000E+00 -0.68853923618E+03  0.19276278007E+04  0.18004617903E+04 0.  0.
        2    1    3    3  502    0  0.71012376031E+03 -0.40868219516E+03  0.55060568756E+02  0.82117510790E+03  0.25500000920E-02 0.  1.
       -2    1    3    3    0  502 -0.71012376031E+03  0.40868219516E+03 -0.74359980493E+03  0.11064526928E+04  0.25500000920E-02 0. -1.
</event>
<event>
 5   0  0.2001811E-05  0.1800374E+04  0.7818609E-02  0.8706100E-01
        1   -1    0    0  501    0  0.00000000000E+00  0.00000000000E+00  0.78351487814E+03  0.78351487816E+03  0.50400001928E-02 0. -1.
       -1   -1    0    0    0  501  0.00000000000E+00  0.00000000000E+00 -0.10342331781E+04  0.10342331781E+04  0.50400001928E-02 0.  1.
    10030    2    1    2    0    0  0.00000000000E+00  0.00000000000E+00 -0.25071829997E+03  0.18177480563E+04  0.18003744972E+04 0.  0.
        2    1    3    3  502    0  0.37711221455E+03  0.31588389370E+03 -0.88651793381E+03  0.10138591143E+04  0.25500000920E-02 0.  1.
       -2    1    3    3    0  502 -0.37711221455E+03 -0.31588389370E+03  0.63579963384E+03  0.80388894199E+03  0.25500000920E-02 0. -1.
</event>
<event>
 5   0  0.2054876E-05  0.1802443E+04  0.7818609E-02  0.8705002E-01
       -1   -1    0    0    0  501  0.00000000000E+00  0.00000000000E+00  0.73434631557E+03  0.73434631559E+03  0.50400001928E-02 0. -1.
        1   -1    0    0  501    0  0.00000000000E+00  0.00000000000E+00 -0.11060175986E+04  0.11060175986E+04  0.50400001928E-02 0.  1.
    10030    2    1    2    0    0  0.00000000000E+00  0.00000000000E+00 -0.37167128305E+03  0.18403639142E+04  0.18024427298E+04 0.  0.
        5    1    3    3  502    0  0.37822727771E+03  0.26104455081E+03 -0.97737301072E+03  0.10800371397E+04  0.46999998093E+01 0.  1.
       -5    1    3    3    0  502 -0.37822727771E+03 -0.26104455081E+03  0.60570172767E+03  0.76032677449E+03  0.46999998093E+01 0. -1.
</event>
<event>
 5   0  0.3984648E-05  0.1797813E+04  0.7818609E-02  0.8707464E-01
        2   -1    0    0  501    0  0.00000000000E+00  0.00000000000E+00  0.13905917518E+04  0.13905917518E+04  0.25500000920E-02 0.  1.
       -2   -1    0    0    0  501  0.00000000000E+00  0.00000000000E+00 -0.58107094236E+03  0.58107094237E+03  0.25500000920E-02 0. -1.
    10030    2    1    2    0    0  0.00000000000E+00  0.00000000000E+00  0.80952080945E+03  0.19716626942E+04  0.17978125149E+04 0.  0.
        1    1    3    3  502    0  0.31747285658E+03  0.74832573536E+03  0.82560221319E+03  0.11586196249E+04  0.50400001928E-02 0.  1.
       -1    1    3    3    0  502 -0.31747285658E+03 -0.74832573536E+03 -0.16081403736E+02  0.81304306924E+03  0.50400001928E-02 0. -1.
</event>
<event>
 5   0  0.3984648E-05  0.1797346E+04  0.7818609E-02  0.8707712E-01
        2   -1    0    0  501    0  0.00000000000E+00  0.00000000000E+00  0.16762793883E+04  0.16762793883E+04  0.25500000920E-02 0. -1.
       -2   -1    0    0    0  501  0.00000000000E+00  0.00000000000E+00 -0.48178901132E+03  0.48178901132E+03  0.25500000920E-02 0.  1.
    10030    2    1    2    0    0  0.00000000000E+00  0.00000000000E+00  0.11944903770E+04  0.21580683996E+04  0.17973458089E+04 0.  0.
        1    1    3    3  502    0  0.36972803655E+03  0.77848401412E+02  0.15762766270E+04  0.16209278823E+04  0.50400001928E-02 0. -1.
       -1    1    3    3    0  502 -0.36972803655E+03 -0.77848401412E+02 -0.38178625005E+03  0.53714051734E+03  0.50400001928E-02 0.  1.
</event>
<event>
 5   0  0.4015729E-05  0.1801952E+04  0.7818609E-02  0.8705262E-01
       -2   -1    0    0    0  501  0.00000000000E+00  0.00000000000E+00  0.83968407094E+03  0.83968407094E+03  0.25500000920E-02 0. -1.
        2   -1    0    0  501    0  0.00000000000E+00  0.00000000000E+00 -0.96674207825E+03  0.96674207826E+03  0.25500000920E-02 0.  1.
    10030    2    1    2    0    0  0.00000000000E+00  0.00000000000E+00 -0.12705800732E+03  0.18064261492E+04  0.18019521901E+04 0.  0.
        2    1    3    3  502    0  0.35384696487E+03  0.29001866572E+03  0.71456781424E+03  0.84848433231E+03  0.25500000920E-02 0. -1.
       -2    1    3    3    0  502 -0.35384696487E+03 -0.29001866572E+03 -0.84162582156E+03  0.95794181689E+03  0.25500000920E-02 0.  1.
</event>
<event>
 5   0  0.3993393E-05  0.1804022E+04  0.7818609E-02  0.8704164E-01
        2   -1    0    0  501    0  0.00000000000E+00  0.00000000000E+00  0.81618639091E+03  0.81618639092E+03  0.25500000920E-02 0. -1.
       -2   -1    0    0    0  501  0.00000000000E+00  0.00000000000E+00 -0.99685982094E+03  0.99685982094E+03  0.25500000920E-02 0.  1.
    10030    2    1    2    0    0  0.00000000000E+00  0.00000000000E+00 -0.18067343002E+03  0.18130462119E+04  0.18040215293E+04 0.  0.
        5    1    3    3  502    0 -0.66721350813E+03 -0.18037906033E+03  0.49212347819E+03  0.84847986342E+03  0.46999998093E+01 0. -1.
       -5    1    3    3    0  502  0.66721350813E+03  0.18037906033E+03 -0.67279690822E+03  0.96456634844E+03  0.46999998093E+01 0.  1.
</event>
<event>
 5   0  0.1906857E-05  0.1798617E+04  0.7818609E-02  0.8707035E-01
       -1   -1    0    0    0  501  0.00000000000E+00  0.00000000000E+00  0.12593861361E+04  0.12593861361E+04  0.50400001928E-02 0. -1.
        1   -1    0    0  501    0  0.00000000000E+00  0.00000000000E+00 -0.64218242674E+03  0.64218242676E+03  0.50400001928E-02 0.  1.
    10030    2    1    2    0    0  0.00000000000E+00  0.00000000000E+00  0.61720370934E+03  0.19015685629E+04  0.17986168520E+04 0.  0.
        4    1    3    3  502    0  0.10903073147E+02 -0.72296112893E+03 -0.25676164672E+03  0.76728080067E+03  0.12699999809E+01 0.  1.
       -4    1    3    3    0  502 -0.10903073147E+02  0.72296112893E+03  0.87396535606E+03  0.11342877622E+04  0.12699999809E+01 0. -1.
</event>
<event>
 5   0  0.3984648E-05  0.1799241E+04  0.7818609E-02  0.8706703E-01
       -2   -1    0    0    0  501  0.00000000000E+00  0.00000000000E+00  0.81537007428E+03  0.81537007428E+03  0.25500000920E-02 0. -1.
        2   -1    0    0  501    0  0.00000000000E+00  0.00000000000E+00 -0.99257687413E+03  0.99257687413E+03  0.25500000920E-02 0.  1.
    10030    2    1    2    0    0  0.00000000000E+00  0.00000000000E+00 -0.17720679985E+03  0.18079469484E+04  0.17992414842E+04 0.  0.
        1    1    3    3  502    0 -0.17012199788E+03 -0.30268598506E+03 -0.92253282150E+03  0.98571147223E+03  0.50400001928E-02 0.  1.
       -1    1    3    3    0  502  0.17012199788E+03  0.30268598506E+03  0.74532602166E+03  0.82223547618E+03  0.50400001928E-02 0. -1.
</event>
<event>
 5   0  0.2038338E-05  0.1798928E+04  0.7818609E-02  0.8706870E-01
        1   -1    0    0  501    0  0.00000000000E+00  0.00000000000E+00  0.24666606578E+04  0.24666606578E+04  0.50400001928E-02 0. -1.
       -1   -1    0    0    0  501  0.00000000000E+00  0.00000000000E+00 -0.32798820407E+03  0.32798820411E+03  0.50400001928E-02 0.  1.
    10030    2    1    2    0    0  0.00000000000E+00  0.00000000000E+00  0.21386724538E+04  0.27946488619E+04  0.17989281245E+04 0.  0.
        1    1    3    3  502    0  0.75089200486E+03 -0.21938852843E+03  0.17589702877E+04  0.19250835313E+04  0.50400001928E-02 0. -1.
       -1    1    3    3    0  502 -0.75089200486E+03  0.21938852843E+03  0.37970216605E+03  0.86956533067E+03  0.50400001928E-02 0.  1.
</event>
<event>
 5   0  0.2001811E-05  0.1802197E+04  0.7818609E-02  0.8705132E-01
        1   -1    0    0  501    0  0.00000000000E+00  0.00000000000E+00  0.12463911384E+04  0.12463911384E+04  0.50400001928E-02 0. -1.
       -1   -1    0    0    0  501  0.00000000000E+00  0.00000000000E+00 -0.65146379438E+03  0.65146379440E+03  0.50400001928E-02 0.  1.
    10030    2    1    2    0    0  0.00000000000E+00  0.00000000000E+00  0.59492734398E+03  0.18978549328E+04  0.18021972149E+04 0.  0.
        2    1    3    3  502    0  0.26384781983E+02 -0.17348320540E+03  0.12282242019E+04  0.12406962841E+04  0.25500000920E-02 0. -1.
       -2    1    3    3    0  502 -0.26384781983E+02  0.17348320540E+03 -0.63329685791E+03  0.65715864867E+03  0.25500000920E-02 0.  1.
</event>
<event>
 5   0  0.2038338E-05  0.1796335E+04  0.7818609E-02  0.8708251E-01
       -1   -1    0    0    0  501  0.00000000000E+00  0.00000000000E+00  0.12166060229E+04  0.12166060229E+04  0.50400001928E-02 0.  1.
        1   -1    0    0  501    0  0.00000000000E+00  0.00000000000E+00 -0.66307849730E+03  0.66307849732E+03  0.50400001928E-02 0. -1.
    10030    2    1    2    0    0  0.00000000000E+00  0.00000000000E+00  0.55352752560E+03  0.18796845202E+04  0.17963354848E+04 0.  0.
        1    1    3    3  502    0  0.38949981143E+03  0.77601424953E+03  0.51720139748E+03  0.10106460825E+04  0.50400001928E-02 0.  1.
       -1    1    3    3    0  502 -0.38949981143E+03 -0.77601424953E+03  0.36326128125E+02  0.86903843769E+03  0.50400001928E-02 0. -1.
</event>
<event>
 5   0  0.2054876E-05  0.1794309E+04  0.7818609E-02  0.8709332E-01
        1   -1    0    0  501    0  0.00000000000E+00  0.00000000000E+00  0.11846832000E+04  0.11846832000E+04  0.50400001928E-02 0.  1.
       -1   -1    0    0    0  501  0.00000000000E+00  0.00000000000E+00 -0.67941077586E+03  0.67941077588E+03  0.50400001928E-02 0. -1.
    10030    2    1    2    0    0  0.00000000000E+00  0.00000000000E+00  0.50527242411E+03  0.18640939758E+04  0.17943093736E+04 0.  0.
        5    1    3    3  502    0  0.17271112384E+03 -0.38948781452E+03 -0.56758515291E+03  0.70972169599E+03  0.46999998093E+01 0. -1.
       -5    1    3    3    0  502 -0.17271112384E+03  0.38948781452E+03  0.10728575770E+04  0.11543722799E+04  0.46999998093E+01 0.  1.
</event>
<event>
 5   0  0.2001811E-05  0.1799609E+04  0.7818609E-02  0.8706507E-01
        1   -1    0    0  501    0  0.00000000000E+00  0.00000000000E+00  0.17818734593E+04  0.17818734593E+04  0.50400001928E-02 0. -1.
       -1   -1    0    0    0  501  0.00000000000E+00  0.00000000000E+00 -0.45438041587E+03  0.45438041590E+03  0.50400001928E-02 0.  1.
    10030    2    1    2    0    0  0.00000000000E+00  0.00000000000E+00  0.13274930434E+04  0.22362538752E+04  0.17996092948E+04 0.  0.
        2    1    3    3  502    0  0.49674831313E+03  0.72354977442E+03  0.41719974167E+03  0.97177095404E+03  0.25500000920E-02 0.  1.
       -2    1    3    3    0  502 -0.49674831313E+03 -0.72354977442E+03  0.91029330173E+03  0.12644829211E+04  0.25500000920E-02 0. -1.
</event>
<event>
 5   0  0.3984648E-05  0.1801792E+04  0.7818609E-02  0.8705347E-01
       -2   -1    0    0    0  501  0.00000000000E+00  0.00000000000E+00  0.72811381709E+03  0.72811381709E+03  0.25500000920E-02 0.  1.
        2   -1    0    0  501    0  0.00000000000E+00  0.00000000000E+00 -0.11146793873E+04  0.11146793873E+04  0.25500000920E-02 0. -1.
    10030    2    1    2    0    0  0.00000000000E+00  0.00000000000E+00 -0.38656557024E+03  0.18427932044E+04  0.18017918454E+04 0.  0.
        1    1    3    3  502    0 -0.24178120610E+03  0.66173834496E+03  0.38097225948E+03  0.80093423658E+03  0.50400001928E-02 0.  1.
       -1    1    3    3    0  502  0.24178120610E+03 -0.66173834496E+03 -0.76753782972E+03  0.10418589678E+04  0.50400001928E-02 0. -1.
</event>
<event>
 5   0  0.3983176E-05  0.1800528E+04  0.7818609E-02  0.8706019E-01
       -2   -1    0    0    0  501  0.00000000000E+00  0.00000000000E+00  0.76920692602E+03  0.76920692602E+03  0.25500000920E-02 0.  1.
        2   -1    0    0  501    0  0.00000000000E+00  0.00000000000E+00 -0.10536500298E+04  0.10536500298E+04  0.25500000920E-02 0. -1.
    10030    2    1    2    0    0  0.00000000000E+00  0.00000000000E+00 -0.28444310376E+03  0.18228569558E+04  0.18005275899E+04 0.  0.
        3    1    3    3  502    0 -0.17094346237E+03  0.48937816913E+03  0.60295155257E+03  0.79514982532E+03  0.10100000352E+00 0.  1.
       -3    1    3    3    0  502  0.17094346237E+03 -0.48937816913E+03 -0.88739465634E+03  0.10277071305E+04  0.10100000352E+00 0. -1.
</event>
<event>
 5   0  0.2038338E-05  0.1796218E+04  0.7818609E-02  0.8708313E-01
        1   -1    0    0  501    0  0.00000000000E+00  0.00000000000E+00  0.70614900775E+03  0.70614900776E+03  0.50400001928E-02 0. -1.
       -1   -1    0    0    0  501  0.00000000000E+00  0.00000000000E+00 -0.11422513515E+04  0.11422513515E+04  0.50400001928E-02 0.  1.
    10030    2    1    2    0    0  0.00000000000E+00  0.00000000000E+00 -0.43610234375E+03  0.18484003593E+04  0.17962178693E+04 0.  0.
        1    1    3    3  502    0  0.35278476211E+03 -0.87471438955E+02 -0.10631844705E+04  0.11235967067E+04  0.50400001928E-02 0.  1.
       -1    1    3    3    0  502 -0.35278476211E+03  0.87471438955E+02  0.62708212676E+03  0.72480365254E+03  0.50400001928E-02 0. -1.
</event>
<event>
 5   0  0.2001811E-05  0.1798585E+04  0.7818609E-02  0.8707053E-01
        1   -1    0    0  501    0  0.00000000000E+00  0.00000000000E+00  0.67728794222E+03  0.67728794224E+03  0.50400001928E-02 0. -1.
       -1   -1    0    0    0  501  0.00000000000E+00  0.00000000000E+00 -0.11940662193E+04  0.11940662193E+04  0.50400001928E-02 0.  1.
    10030    2    1    2    0    0  0.00000000000E+00  0.00000000000E+00 -0.51677827707E+03  0.18713541615E+04  0.17985846130E+04 0.  0.
        2    1    3    3  502    0 -0.70117032491E+03  0.54647660704E+03 -0.11706217861E+03  0.89664935189E+03  0.25500000920E-02 0.  1.
       -2    1    3    3    0  502  0.70117032491E+03 -0.54647660704E+03 -0.39971609847E+03  0.97470480965E+03  0.25500000920E-02 0. -1.
</event>
<event>
 5   0  0.2038338E-05  0.1792564E+04  0.7818609E-02  0.8710264E-01
        1   -1    0    0  501    0  0.00000000000E+00  0.00000000000E+00  0.12429870463E+04  0.12429870463E+04  0.50400001928E-02 0. -1.
       -1   -1    0    0    0  501  0.00000000000E+00  0.00000000000E+00 -0.64628280861E+03  0.64628280863E+03  0.50400001928E-02 0.  1.
    10030    2    1    2    0    0  0.00000000000E+00  0.00000000000E+00  0.59670423773E+03  0.18892698550E+04  0.17925637053E+04 0.  0.
        1    1    3    3  502    0 -0.87276371702E+03  0.49634201333E+02  0.89837788455E+02  0.87877806524E+03  0.50400001928E-02 0.  1.
       -1    1    3    3    0  502  0.87276371702E+03 -0.49634201333E+02  0.50686644927E+03  0.10104917897E+04  0.50400001928E-02 0. -1.
</event>
<event>
 5   0  0.2001811E-05  0.1800596E+04  0.7818609E-02  0.8705983E-01
        1   -1    0    0  501    0  0.00000000000E+00  0.00000000000E+00  0.10597510460E+04  0.10597510460E+04  0.50400001928E-02 0.  1.
       -1   -1    0    0    0  501  0.00000000000E+00  0.00000000000E+00 -0.76483638421E+03  0.76483638423E+03  0.50400001928E-02 0. -1.
    10030    2    1    2    0    0  0.00000000000E+00  0.00000000000E+00  0.29491466175E+03  0.18245874302E+04  0.18005956328E+04 0.  0.
        2    1    3    3  502    0  0.13901506668E+03  0.70686306108E+03 -0.39969615033E+03  0.82385532011E+03  0.25500000920E-02 0. -1.
       -2    1    3    3    0  502 -0.13901506668E+03 -0.70686306108E+03  0.69461081208E+03  0.10007321101E+04  0.25500000920E-02 0.  1.
</event>
<event>
 5   0  0.1960300E-05  0.1799839E+04  0.7818609E-02  0.8706385E-01
       -1   -1    0    0    0  501  0.00000000000E+00  0.00000000000E+00  0.80776784977E+03  0.80776784979E+03  0.50400001928E-02 0.  1.
        1   -1    0    0  501    0  0.00000000000E+00  0.00000000000E+00 -0.10025842223E+04  0.10025842223E+04  0.50400001928E-02 0. -1.
    10030    2    1    2    0    0  0.00000000000E+00  0.00000000000E+00 -0.19481637248E+03  0.18103520721E+04  0.17998392167E+04 0.  0.
        3    1    3    3  502    0  0.51358484554E+03 -0.21405920048E+03 -0.80883331338E+03  0.98173421755E+03  0.10100000352E+00 0. -1.
       -3    1    3    3    0  502 -0.51358484554E+03  0.21405920048E+03  0.61401694091E+03  0.82861785450E+03  0.10100000352E+00 0.  1.
</event>
<event>
 5   0  0.3984648E-05  0.1798957E+04  0.7818609E-02  0.8706854E-01
       -2   -1    0    0    0  501  0.00000000000E+00  0.00000000000E+00  0.82405328014E+03  0.82405328014E+03  0.25500000920E-02 0.  1.
        2   -1    0    0  501    0  0.00000000000E+00  0.00000000000E+00 -0.98180755193E+03  0.98180755194E+03  0.25500000920E-02 0. -1.
    10030    2    1    2    0    0  0.00000000000E+00  0.00000000000E+00 -0.15775427179E+03  0.18058608321E+04  0.17989571797E+04 0.  0.
        1    1    3    3  502    0  0.53163760484E+03 -0.32518471826E+03  0.57220892718E+03  0.84605360364E+03  0.50400001928E-02 0.  1.
       -1    1    3    3    0  502 -0.53163760484E+03  0.32518471826E+03 -0.72996319898E+03  0.95980722843E+03  0.50400001928E-02 0. -1.
</event>
<event>
 5   0  0.2054876E-05  0.1798699E+04  0.7818609E-02  0.8706991E-01
       -1   -1    0    0    0  501  0.00000000000E+00  0.00000000000E+00  0.12728085568E+04  0.12728085568E+04  0.50400001928E-02 0.  1.
        1   -1    0    0  501    0  0.00000000000E+00  0.00000000000E+00 -0.63546865780E+03  0.63546865782E+03  0.50400001928E-02 0. -1.
    10030    2    1    2    0    0  0.00000000000E+00  0.00000000000E+00  0.63733989901E+03  0.19082772146E+04  0.17986994694E+04 0.  0.
        5    1    3    3  502    0 -0.62506970908E+03 -0.62366875756E+03  0.13758789027E+03  0.89365954251E+03  0.46999998093E+01 0.  1.
       -5    1    3    3    0  502  0.62506970908E+03  0.62366875756E+03  0.49975200873E+03  0.10146176721E+04  0.46999998093E+01 0. -1.
</event>
<event>
 5   0  0.4015729E-05  0.1799860E+04  0.7818609E-02  0.8706374E-01
       -2   -1    0    0    0  501  0.00000000000E+00  0.00000000000E+00  0.14238007417E+04  0.14238007417E+04  0.25500000920E-02 0. -1.
        2   -1    0    0  501    0  0.00000000000E+00  0.00000000000E+00 -0.56881111242E+03  0.56881111243E+03  0.25500000920E-02 0.  1.
    10030    2    1    2    0    0  0.00000000000E+00  0.00000000000E+00  0.85498962930E+03  0.19926118542E+04  0.17998596432E+04 0.  0.
        2    1    3    3  502    0 -0.84613237103E+03  0.85817264332E+02  0.10175900847E+03  0.85653925069E+03  0.25500000920E-02 0. -1.
       -2    1    3    3    0  502  0.84613237103E+03 -0.85817264332E+02  0.75323062084E+03  0.11360726035E+04  0.25500000920E-02 0.  1.
</event>
<event>
 5   0  0.2001811E-05  0.1776035E+04  0.7818609E-02  0.8719149E-01
       -1   -1    0    0    0  501  0.00000000000E+00  0.00000000000E+00  0.67756109256E+03  0.67756109258E+03  0.50400001928E-02 0.  1.
        1   -1    0    0  501    0  0.00000000000E+00  0.00000000000E+00 -0.11638435427E+04  0.11638435427E+04  0.50400001928E-02 0. -1.
    10030    2    1    2    0    0  0.00000000000E+00  0.00000000000E+00 -0.48628245016E+03  0.18414046353E+04  0.17760350249E+04 0.  0.
        2    1    3    3  502    0 -0.97261417358E+02  0.31991046464E+03 -0.10960824273E+04  0.11459490286E+04  0.25500000920E-02 0. -1.
       -2    1    3    3    0  502  0.97261417358E+02 -0.31991046464E+03  0.60979997717E+03  0.69545560668E+03  0.25500000920E-02 0.  1.
</event>
<event>
 5   0  0.3983176E-05  0.1799303E+04  0.7818609E-02  0.8706670E-01
       -2   -1    0    0    0  501  0.00000000000E+00  0.00000000000E+00  0.47809438633E+03  0.47809438633E+03  0.25500000920E-02 0.  1.
        2   -1    0    0  501    0  0.00000000000E+00  0.00000000000E+00 -0.16929151218E+04  0.16929151218E+04  0.25500000920E-02 0. -1.
    10030    2    1    2    0    0  0.00000000000E+00  0.00000000000E+00 -0.12148207355E+04  0.21710095081E+04  0.17993034389E+04 0.  0.
        3    1    3    3  502    0 -0.20479088399E+03  0.64211549750E+03 -0.13264384499E+04  0.14878476366E+04  0.10100000352E+00 0. -1.
       -3    1    3    3    0  502  0.20479088399E+03 -0.64211549750E+03  0.11161771442E+03  0.68316187150E+03  0.10100000352E+00 0.  1.
</event>
<event>
 5   0  0.2038338E-05  0.1799139E+04  0.7818609E-02  0.8706758E-01
       -1   -1    0    0    0  501  0.00000000000E+00  0.00000000000E+00  0.61325702055E+03  0.61325702057E+03  0.50400001928E-02 0. -1.
        1   -1    0    0  501    0  0.00000000000E+00  0.00000000000E+00 -0.13195530070E+04  0.13195530070E+04  0.50400001928E-02 0.  1.
    10030    2    1    2    0    0  0.00000000000E+00  0.00000000000E+00 -0.70629598641E+03  0.19328100275E+04  0.17991388446E+04 0.  0.
        1    1    3    3  502    0  0.23329866139E+03  0.36353239796E+03  0.49455433046E+03  0.65663388244E+03  0.50400001928E-02 0. -1.
       -1    1    3    3    0  502 -0.23329866139E+03 -0.36353239796E+03 -0.12008503169E+04  0.12761761451E+04  0.50400001928E-02 0.  1.
</event>
<event>
 5   0  0.3983176E-05  0.1743167E+04  0.7818609E-02  0.8737120E-01
        2   -1    0    0  501    0  0.00000000000E+00  0.00000000000E+00  0.12027452557E+04  0.12027452557E+04  0.25500000920E-02 0.  1.
       -2   -1    0    0    0  501  0.00000000000E+00  0.00000000000E+00 -0.63160336522E+03  0.63160336523E+03  0.25500000920E-02 0. -1.
    10030    2    1    2    0    0  0.00000000000E+00  0.00000000000E+00  0.57114189052E+03  0.18343486210E+04  0.17431671762E+04 0.  0.
        3    1    3    3  502    0  0.60536179824E+03  0.62699414073E+03  0.29458533476E+03  0.91998102640E+03  0.10100000352E+00 0. -1.
       -3    1    3    3    0  502 -0.60536179824E+03 -0.62699414073E+03  0.27655655576E+03  0.91436759457E+03  0.10100000352E+00 0.  1.
</event>
<event>
 5   0  0.1960300E-05  0.1812549E+04  0.7818609E-02  0.8699654E-01
       -1   -1    0    0    0  501  0.00000000000E+00  0.00000000000E+00  0.43330830035E+03  0.43330830038E+03  0.50400001928E-02 0.  1.
        1   -1    0    0  501    0  0.00000000000E+00  0.00000000000E+00 -0.18954944844E+04  0.18954944844E+04  0.50400001928E-02 0. -1.
    10030    2    1    2    0    0  0.00000000000E+00  0.00000000000E+00 -0.14621861840E+04  0.23288027848E+04  0.18125490265E+04 0.  0.
        3    1    3    3  502    0  0.59254286802E+03 -0.30449035466E+03 -0.15205135237E+04  0.16600550631E+04  0.10100000352E+00 0. -1.
       -3    1    3    3    0  502 -0.59254286802E+03  0.30449035466E+03  0.58327339649E+02  0.66874772170E+03  0.10100000352E+00 0.  1.
</event>
<event>
 5   0  0.2054876E-05  0.1800758E+04  0.7818609E-02  0.8705897E-01
        1   -1    0    0  501    0  0.00000000000E+00  0.00000000000E+00  0.18190311598E+04  0.18190311598E+04  0.50400001928E-02 0. -1.
       -1   -1    0    0    0  501  0.00000000000E+00  0.00000000000E+00 -0.44566698168E+03  0.44566698171E+03  0.50400001928E-02 0.  1.
    10030    2    1    2    0    0  0.00000000000E+00  0.00000000000E+00  0.13733641781E+04  0.22646981415E+04  0.18007577589E+04 0.  0.
        5    1    3    3  502    0 -0.88237723034E+03  0.12240086655E+03  0.52228018390E+03  0.10326520369E+04  0.46999998093E+01 0.  1.
       -5    1    3    3    0  502  0.88237723034E+03 -0.12240086655E+03  0.85108399420E+03  0.12320461046E+04  0.46999998093E+01 0. -1.
</event>
<event>
 5   0  0.1960300E-05  0.1800058E+04  0.7818609E-02  0.8706269E-01
        1   -1    0    0  501    0  0.00000000000E+00  0.00000000000E+00  0.21082000828E+04  0.21082000828E+04  0.50400001928E-02 0.  1.
       -1   -1    0    0    0  501  0.00000000000E+00  0.00000000000E+00 -0.38423877939E+03  0.38423877942E+03  0.50400001928E-02 0. -1.
    10030    2    1    2    0    0  0.00000000000E+00  0.00000000000E+00  0.17239613034E+04  0.24924388623E+04  0.18000580286E+04 0.  0.
        3    1    3    3  502    0 -0.68437036849E+03 -0.58397062504E+03  0.82620096230E+03  0.12214714620E+04  0.10100000352E+00 0. -1.
       -3    1    3    3    0  502  0.68437036849E+03  0.58397062504E+03  0.89776034114E+03  0.12709674003E+04  0.10100000352E+00 0.  1.
</event>
<event>
 5   0  0.3993393E-05  0.1801228E+04  0.7818609E-02  0.8705647E-01
       -2   -1    0    0    0  501  0.00000000000E+00  0.00000000000E+00  0.33161558057E+03  0.33161558058E+03  0.25500000920E-02 0. -1.
        2   -1    0    0  501    0  0.00000000000E+00  0.00000000000E+00 -0.24459221768E+04  0.24459221768E+04  0.25500000920E-02 0.  1.
    10030    2    1    2    0    0  0.00000000000E+00  0.00000000000E+00 -0.21143065963E+04  0.27775377574E+04  0.18012283617E+04 0.  0.
        5    1    3    3  502    0  0.61467711202E+03  0.60692375211E+03 -0.66431700721E+03  0.10897355500E+04  0.46999998093E+01 0.  1.
       -5    1    3    3    0  502 -0.61467711202E+03 -0.60692375211E+03 -0.14499895890E+04  0.16878022074E+04  0.46999998093E+01 0. -1.
</event>
<event>
 5   0  0.3984648E-05  0.1801652E+04  0.7818609E-02  0.8705422E-01
       -2   -1    0    0    0  501  0.00000000000E+00  0.00000000000E+00  0.12705184921E+04  0.12705184921E+04  0.25500000920E-02 0.  1.
        2   -1    0    0  501    0  0.00000000000E+00  0.00000000000E+00 -0.63870552666E+03  0.63870552666E+03  0.25500000920E-02 0. -1.
    10030    2    1    2    0    0  0.00000000000E+00  0.00000000000E+00  0.63181296548E+03  0.19092240188E+04  0.18016516674E+04 0.  0.
        1    1    3    3  502    0 -0.63186391645E+03 -0.47043022496E+02 -0.36265578868E+03  0.73005772099E+03  0.50400001928E-02 0. -1.
       -1    1    3    3    0  502  0.63186391645E+03  0.47043022496E+02  0.99446875416E+03  0.11791662978E+04  0.50400001928E-02 0.  1.
</event>
<event>
 5   0  0.3984648E-05  0.1801049E+04  0.7818609E-02  0.8705742E-01
        2   -1    0    0  501    0  0.00000000000E+00  0.00000000000E+00  0.12900315802E+04  0.12900315802E+04  0.25500000920E-02 0.  1.
       -2   -1    0    0    0  501  0.00000000000E+00  0.00000000000E+00 -0.62862387296E+03  0.62862387296E+03  0.25500000920E-02 0. -1.
    10030    2    1    2    0    0  0.00000000000E+00  0.00000000000E+00  0.66140770720E+03  0.19186554531E+04  0.18010493032E+04 0.  0.
        1    1    3    3  502    0 -0.58539973385E+03  0.10352190518E+03 -0.38987839414E+03  0.71092530936E+03  0.50400001928E-02 0. -1.
       -1    1    3    3    0  502  0.58539973385E+03 -0.10352190518E+03  0.10512861013E+04  0.12077301438E+04  0.50400001928E-02 0.  1.
</event>
<event>
 5   0  0.2001811E-05  0.1798503E+04  0.7818609E-02  0.8707096E-01
       -1   -1    0    0    0  501  0.00000000000E+00  0.00000000000E+00  0.73699212953E+03  0.73699212955E+03  0.50400001928E-02 0. -1.
        1   -1    0    0  501    0  0.00000000000E+00  0.00000000000E+00 -0.10972346818E+04  0.10972346818E+04  0.50400001928E-02 0.  1.
    10030    2    1    2    0    0  0.00000000000E+00  0.00000000000E+00 -0.36024255228E+03  0.18342268114E+04  0.17985030717E+04 0.  0.
        2    1    3    3  502    0 -0.41282255800E+03  0.66504915776E+03  0.27132277569E+03  0.82844969385E+03  0.25500000920E-02 0. -1.
       -2    1    3    3    0  502  0.41282255800E+03 -0.66504915776E+03 -0.63156532796E+03  0.10057771175E+04  0.25500000920E-02 0.  1.
</event>
<event>
 5   0  0.1446750E-05  0.1800660E+04  0.7818609E-02  0.8705949E-01
        4   -1    0    0  501    0  0.00000000000E+00  0.00000000000E+00  0.81063945903E+03  0.81064045386E+03  0.12699999809E+01 0.  1.
       -4   -1    0    0    0  501  0.00000000000E+00  0.00000000000E+00 -0.99994163196E+03  0.99994243845E+03  0.12699999809E+01 0. -1.
    10030    2    1    2    0    0  0.00000000000E+00  0.00000000000E+00 -0.18930217293E+03  0.18105828923E+04  0.18006596284E+04 0.  0.
        1    1    3    3  502    0  0.47749902673E+03  0.67874121082E+03  0.25641311023E+03  0.86858657307E+03  0.50400001928E-02 0.  1.
       -1    1    3    3    0  502 -0.47749902673E+03 -0.67874121082E+03 -0.44571528316E+03  0.94199631924E+03  0.50400001928E-02 0. -1.
</event>
<event>
 5   0  0.4015729E-05  0.1797033E+04  0.7818609E-02  0.8707879E-01
       -2   -1    0    0    0  501  0.00000000000E+00  0.00000000000E+00  0.50021221835E+03  0.50021221836E+03  0.25500000920E-02 0.  1.
        2   -1    0    0  501    0  0.00000000000E+00  0.00000000000E+00 -0.16139787521E+04  0.16139787521E+04  0.25500000920E-02 0. -1.
    10030    2    1    2    0    0  0.00000000000E+00  0.00000000000E+00 -0.11137665338E+04  0.21141909705E+04  0.17970329902E+04 0.  0.
        2    1    3    3  502    0 -0.43768845031E+03 -0.33956128902E+03 -0.13891688035E+04  0.14955477302E+04  0.25500000920E-02 0. -1.
       -2    1    3    3    0  502  0.43768845031E+03  0.33956128902E+03  0.27540226978E+03  0.61864324028E+03  0.25500000920E-02 0.  1.
</event>
<event>
 5   0  0.2054876E-05  0.1807213E+04  0.7818609E-02  0.8702473E-01
        1   -1    0    0  501    0  0.00000000000E+00  0.00000000000E+00  0.37386848856E+03  0.37386848860E+03  0.50400001928E-02 0.  1.
       -1   -1    0    0    0  501  0.00000000000E+00  0.00000000000E+00 -0.21839360547E+04  0.21839360547E+04  0.50400001928E-02 0. -1.
    10030    2    1    2    0    0  0.00000000000E+00  0.00000000000E+00 -0.18100675661E+04  0.25578045433E+04  0.18072131827E+04 0.  0.
        5    1    3    3  502    0  0.38857224172E+03 -0.51595805513E+03 -0.17993634979E+04  0.19117876946E+04  0.46999998093E+01 0. -1.
       -5    1    3    3    0  502 -0.38857224172E+03  0.51595805513E+03 -0.10704068213E+02  0.64601684867E+03  0.46999998093E+01 0.  1.
</event>
<event>
 5   0  0.1906857E-05  0.1800543E+04  0.7818609E-02  0.8706011E-01
        1   -1    0    0  501    0  0.00000000000E+00  0.00000000000E+00  0.92656782517E+03  0.92656782519E+03  0.50400001928E-02 0. -1.
       -1   -1    0    0    0  501  0.00000000000E+00  0.00000000000E+00 -0.87472151083E+03  0.87472151085E+03  0.50400001928E-02 0.  1.
    10030    2    1    2    0    0  0.00000000000E+00  0.00000000000E+00  0.51846314342E+02  0.18012893360E+04  0.18005430380E+04 0.  0.
        4    1    3    3  502    0  0.17705001020E+03 -0.75208917107E+03  0.48817783958E+03  0.91394969408E+03  0.12699999809E+01 0. -1.
       -4    1    3    3    0  502 -0.17705001020E+03  0.75208917107E+03 -0.43633152524E+03  0.88733964195E+03  0.12699999809E+01 0.  1.
</event>
<event>
 5   0  0.1960300E-05  0.1799173E+04  0.7818609E-02  0.8706739E-01
        1   -1    0    0  501    0  0.00000000000E+00  0.00000000000E+00  0.25581411299E+04  0.25581411299E+04  0.50400001928E-02 0.  1.
       -1   -1    0    0    0  501  0.00000000000E+00  0.00000000000E+00 -0.31634530337E+03  0.31634530341E+03  0.50400001928E-02 0. -1.
    10030    2    1    2    0    0  0.00000000000E+00  0.00000000000E+00  0.22417958265E+04  0.28744864333E+04  0.17991730677E+04 0.  0.
        3    1    3    3  502    0  0.69599752068E+03  0.39176777295E+03  0.17822668660E+04  0.19530411487E+04  0.10100000352E+00 0.  1.
       -3    1    3    3    0  502 -0.69599752068E+03 -0.39176777295E+03  0.45952896050E+03  0.92144528457E+03  0.10100000352E+00 0. -1.
</event>
<event>
 5   0  0.2054876E-05  0.1808977E+04  0.7818609E-02  0.8701540E-01
        1   -1    0    0  501    0  0.00000000000E+00  0.00000000000E+00  0.97060127274E+03  0.97060127275E+03  0.50400001928E-02 0. -1.
       -1   -1    0    0    0  501  0.00000000000E+00  0.00000000000E+00 -0.84287858106E+03  0.84287858107E+03  0.50400001928E-02 0.  1.
    10030    2    1    2    0    0  0.00000000000E+00  0.00000000000E+00  0.12772269168E+03  0.18134798538E+04  0.18089765323E+04 0.  0.
        5    1    3    3  502    0  0.44087791338E+03 -0.75601691864E+03  0.29277606532E+03  0.92286230295E+03  0.46999998093E+01 0. -1.
       -5    1    3    3    0  502 -0.44087791338E+03  0.75601691864E+03 -0.16505337363E+03  0.89061755087E+03  0.46999998093E+01 0.  1.
</event>
<event>
 5   0  0.4015729E-05  0.1799566E+04  0.7818609E-02  0.8706530E-01
       -2   -1    0    0    0  501  0.00000000000E+00  0.00000000000E+00  0.30584389307E+03  0.30584389308E+03  0.25500000920E-02 0.  1.
        2   -1    0    0  501    0  0.00000000000E+00  0.00000000000E+00 -0.26471319865E+04  0.26471319865E+04  0.25500000920E-02 0. -1.
    10030    2    1    2    0    0  0.00000000000E+00  0.00000000000E+00 -0.23412880934E+04  0.29529758795E+04  0.17995656723E+04 0.  0.
        2    1    3    3  502    0  0.86887562871E+03 -0.18569150764E+03 -0.14037667702E+04  0.16613209621E+04  0.25500000920E-02 0. -1.
       -2    1    3    3    0  502 -0.86887562871E+03  0.18569150764E+03 -0.93752132325E+03  0.12916549174E+04  0.25500000920E-02 0.  1.
</event>
<event>
 5   0  0.4015729E-05  0.1795526E+04  0.7818609E-02  0.8708682E-01
        2   -1    0    0  501    0  0.00000000000E+00  0.00000000000E+00  0.73713300507E+03  0.73713300507E+03  0.25500000920E-02 0.  1.
       -2   -1    0    0    0  501  0.00000000000E+00  0.00000000000E+00 -0.10933963918E+04  0.10933963918E+04  0.25500000920E-02 0. -1.
    10030    2    1    2    0    0  0.00000000000E+00  0.00000000000E+00 -0.35626338673E+03  0.18305293969E+04  0.17955261825E+04 0.  0.
        2    1    3    3  502    0  0.68248486771E+03  0.43188156180E+03  0.22151970204E+03  0.83748328728E+03  0.25500000920E-02 0.  1.
       -2    1    3    3    0  502 -0.68248486771E+03 -0.43188156180E+03 -0.57778308877E+03  0.99304610958E+03  0.25500000920E-02 0. -1.
</event>
<event>
 5   0  0.1906857E-05  0.1800362E+04  0.7818609E-02  0.8706107E-01
        1   -1    0    0  501    0  0.00000000000E+00  0.00000000000E+00  0.10407785500E+04  0.10407785500E+04  0.50400001928E-02 0.  1.
       -1   -1    0    0    0  501  0.00000000000E+00  0.00000000000E+00 -0.77857645458E+03  0.77857645459E+03  0.50400001928E-02 0. -1.
    10030    2    1    2    0    0  0.00000000000E+00  0.00000000000E+00  0.26220209538E+03  0.18193550046E+04  0.18003618230E+04 0.  0.
        4    1    3    3  502    0 -0.43000363212E+03 -0.12182424838E+03  0.92074055170E+03  0.10234788945E+04  0.12699999809E+01 0.  1.
       -4    1    3    3    0  502  0.43000363212E+03  0.12182424838E+03 -0.65853845633E+03  0.79587611001E+03  0.12699999809E+01 0. -1.
</event>
<event>
 5   0  0.2038338E-05  0.1796762E+04  0.7818609E-02  0.8708023E-01
        1   -1    0    0  501    0  0.00000000000E+00  0.00000000000E+00  0.78718811697E+03  0.78718811699E+03  0.50400001928E-02 0. -1.
       -1   -1    0    0    0  501  0.00000000000E+00  0.00000000000E+00 -0.10252803557E+04  0.10252803557E+04  0.50400001928E-02 0.  1.
    10030    2    1    2    0    0  0.00000000000E+00  0.00000000000E+00 -0.23809223875E+03  0.18124684727E+04  0.17967621018E+04 0.  0.
        1    1    3    3  502    0  0.39395175280E+02  0.89318603075E+03 -0.30212428662E+02  0.89456473004E+03  0.50400001928E-02 0. -1.
       -1    1    3    3    0  502 -0.39395175280E+02 -0.89318603075E+03 -0.20787981009E+03  0.91790374269E+03  0.50400001928E-02 0.  1.
</event>
<event>
 5   0  0.2038338E-05  0.1795683E+04  0.7818609E-02  0.8708599E-01
        1   -1    0    0  501    0  0.00000000000E+00  0.00000000000E+00  0.38117508798E+03  0.38117508802E+03  0.50400001928E-02 0.  1.
       -1   -1    0    0    0  501  0.00000000000E+00  0.00000000000E+00 -0.21148272611E+04  0.21148272611E+04  0.50400001928E-02 0. -1.
    10030    2    1    2    0    0  0.00000000000E+00  0.00000000000E+00 -0.17336521731E+04  0.24960023491E+04  0.17956831206E+04 0.  0.
        1    1    3    3  502    0 -0.22888833482E+03  0.34186555000E+03 -0.19760939673E+04  0.20184670649E+04  0.50400001928E-02 0. -1.
       -1    1    3    3    0  502  0.22888833482E+03 -0.34186555000E+03  0.24244179424E+03  0.47753528426E+03  0.50400001928E-02 0.  1.
</event>
<event>
 5   0  0.2054876E-05  0.1808069E+04  0.7818609E-02  0.8702020E-01
        1   -1    0    0  501    0  0.00000000000E+00  0.00000000000E+00  0.43234755326E+03  0.43234755329E+03  0.50400001928E-02 0. -1.
       -1   -1    0    0    0  501  0.00000000000E+00  0.00000000000E+00 -0.18903271920E+04  0.18903271920E+04  0.50400001928E-02 0.  1.
    10030    2    1    2    0    0  0.00000000000E+00  0.00000000000E+00 -0.14579796388E+04  0.23226747453E+04  0.18080689549E+04 0.  0.
        5    1    3    3  502    0 -0.68644402310E+03  0.57719501130E+03 -0.58310373765E+03  0.10697623740E+04  0.46999998093E+01 0.  1.
       -5    1    3    3    0  502  0.68644402310E+03 -0.57719501130E+03 -0.87487590110E+03  0.12529123713E+04  0.46999998093E+01 0. -1.
</event>
<event>
 5   0  0.3909859E-05  0.1800304E+04  0.7818609E-02  0.8706138E-01
        2   -1    0    0  501    0  0.00000000000E+00  0.00000000000E+00  0.22613612064E+04  0.22613612064E+04  0.25500000920E-02 0.  1.
       -2   -1    0    0    0  501  0.00000000000E+00  0.00000000000E+00 -0.35831216910E+03  0.35831216911E+03  0.25500000920E-02 0. -1.
    10030    2    1    2    0    0  0.00000000000E+00  0.00000000000E+00  0.19030490373E+04  0.26196733755E+04  0.18003035733E+04 0.  0.
        4    1    3    3  502    0 -0.47045926171E+03 -0.72508245326E+03  0.13173241475E+04  0.15755700566E+04  0.12699999809E+01 0.  1.
       -4    1    3    3    0  502  0.47045926171E+03  0.72508245326E+03  0.58572488978E+03  0.10441033188E+04  0.12699999809E+01 0. -1.
</event>
<event>
 5   0  0.3983176E-05  0.1797877E+04  0.7818609E-02  0.8707429E-01
       -2   -1    0    0    0  501  0.00000000000E+00  0.00000000000E+00  0.44871344391E+03  0.44871344392E+03  0.25500000920E-02 0.  1.
        2   -1    0    0  501    0  0.00000000000E+00  0.00000000000E+00 -0.18009058490E+04  0.18009058490E+04  0.25500000920E-02 0. -1.
    10030    2    1    2    0    0  0.00000000000E+00  0.00000000000E+00 -0.13521924051E+04  0.22496192929E+04  0.17978772657E+04 0.  0.
        3    1    3    3  502    0 -0.70916898747E+03 -0.23420543129E+03 -0.13021258052E+04  0.15011010824E+04  0.10100000352E+00 0. -1.
       -3    1    3    3    0  502  0.70916898747E+03  0.23420543129E+03 -0.50066599876E+02  0.74851821050E+03  0.10100000352E+00 0.  1.
</event>
<event>
 5   0  0.3984648E-05  0.1801056E+04  0.7818609E-02  0.8705738E-01
        2   -1    0    0  501    0  0.00000000000E+00  0.00000000000E+00  0.11323423623E+04  0.11323423623E+04  0.25500000920E-02 0.  1.
       -2   -1    0    0    0  501  0.00000000000E+00  0.00000000000E+00 -0.71617106268E+03  0.71617106268E+03  0.25500000920E-02 0. -1.
    10030    2    1    2    0    0  0.00000000000E+00  0.00000000000E+00  0.41617129962E+03  0.18485134250E+04  0.18010561712E+04 0.  0.
        1    1    3    3  502    0  0.39781371762E+03 -0.35222108302E+03 -0.53814566071E+03  0.75625141152E+03  0.50400001928E-02 0. -1.
       -1    1    3    3    0  502 -0.39781371762E+03  0.35222108302E+03  0.95431696034E+03  0.10922620135E+04  0.50400001928E-02 0.  1.
</event>
<event>
 5   0  0.3983176E-05  0.1797328E+04  0.7818609E-02  0.8707722E-01
       -2   -1    0    0    0  501  0.00000000000E+00  0.00000000000E+00  0.66729095500E+03  0.66729095500E+03  0.25500000920E-02 0.  1.
        2   -1    0    0  501    0  0.00000000000E+00  0.00000000000E+00 -0.12102620681E+04  0.12102620681E+04  0.25500000920E-02 0. -1.
    10030    2    1    2    0    0  0.00000000000E+00  0.00000000000E+00 -0.54297111306E+03  0.18775530231E+04  0.17973279402E+04 0.  0.
        3    1    3    3  502    0 -0.44694411930E+03 -0.28770100699E+03 -0.10284436481E+04  0.11576818487E+04  0.10100000352E+00 0. -1.
       -3    1    3    3    0  502  0.44694411930E+03  0.28770100699E+03  0.48547253506E+03  0.71987117438E+03  0.10100000352E+00 0.  1.
</event>
<event>
 5   0  0.3993393E-05  0.1824514E+04  0.7818609E-02  0.8693371E-01
       -2   -1    0    0    0  501  0.00000000000E+00  0.00000000000E+00  0.61064786441E+03  0.61064786442E+03  0.25500000920E-02 0.  1.
        2   -1    0    0  501    0  0.00000000000E+00  0.00000000000E+00 -0.13628363683E+04  0.13628363683E+04  0.25500000920E-02 0. -1.
    10030    2    1    2    0    0  0.00000000000E+00  0.00000000000E+00 -0.75218850393E+03  0.19734842328E+04  0.18245143111E+04 0.  0.
        5    1    3    3  502    0 -0.82283126287E+03 -0.25389919640E+03 -0.70180344926E+03  0.11108853498E+04  0.46999998093E+01 0. -1.
       -5    1    3    3    0  502  0.82283126287E+03  0.25389919640E+03 -0.50385054666E+02  0.86259888292E+03  0.46999998093E+01 0.  1.
</event>
<event>
 5   0  0.1446750E-05  0.1807364E+04  0.7818609E-02  0.8702393E-01
       -4   -1    0    0    0  501  0.00000000000E+00  0.00000000000E+00  0.84539437795E+03  0.84539533189E+03  0.12699999809E+01 0.  1.
        4   -1    0    0  501    0  0.00000000000E+00  0.00000000000E+00 -0.96598652052E+03  0.96598735536E+03  0.12699999809E+01 0. -1.
    10030    2    1    2    0    0  0.00000000000E+00  0.00000000000E+00 -0.12059214256E+03  0.18113826872E+04  0.18073640405E+04 0.  0.
        4    1    3    3  502    0 -0.43898565609E+03 -0.58816448550E+03  0.46812735420E+03  0.87051174656E+03  0.12699999809E+01 0.  1.
       -4    1    3    3    0  502  0.43898565609E+03  0.58816448550E+03 -0.58871949676E+03  0.94087094068E+03  0.12699999809E+01 0. -1.
</event>
<event>
 5   0  0.1960300E-05  0.1801873E+04  0.7818609E-02  0.8705304E-01
        1   -1    0    0  501    0  0.00000000000E+00  0.00000000000E+00  0.21639415088E+04  0.21639415088E+04  0.50400001928E-02 0.  1.
       -1   -1    0    0    0  501  0.00000000000E+00  0.00000000000E+00 -0.37509616055E+03  0.37509616058E+03  0.50400001928E-02 0. -1.
    10030    2    1    2    0    0  0.00000000000E+00  0.00000000000E+00  0.17888453482E+04  0.25390376694E+04  0.18018725278E+04 0.  0.
        3    1    3    3  502    0  0.78642000211E+02 -0.86439387733E+03  0.55411502010E+03  0.10297595860E+04  0.10100000352E+00 0.  1.
       -3    1    3    3    0  502 -0.78642000211E+02  0.86439387733E+03  0.12347303281E+04  0.15092780833E+04  0.10100000352E+00 0. -1.
</event>
<event>
 5   0  0.3984648E-05  0.1799824E+04  0.7818609E-02  0.8706393E-01
        2   -1    0    0  501    0  0.00000000000E+00  0.00000000000E+00  0.14441963817E+04  0.14441963817E+04  0.25500000920E-02 0. -1.
       -2   -1    0    0    0  501  0.00000000000E+00  0.00000000000E+00 -0.56075596460E+03  0.56075596460E+03  0.25500000920E-02 0.  1.
    10030    2    1    2    0    0  0.00000000000E+00  0.00000000000E+00  0.88344041712E+03  0.20049523463E+04  0.17998241415E+04 0.  0.
        1    1    3    3  502    0 -0.44802484927E+03 -0.67727451076E+03  0.87375540863E+03  0.11928434695E+04  0.50400001928E-02 0. -1.
       -1    1    3    3    0  502  0.44802484927E+03  0.67727451076E+03  0.96850084891E+01  0.81210887687E+03  0.50400001928E-02 0.  1.
</event>
<event>
 5   0  0.1960300E-05  0.1798974E+04  0.7818609E-02  0.8706845E-01
       -1   -1    0    0    0  501  0.00000000000E+00  0.00000000000E+00  0.48450645569E+03  0.48450645571E+03  0.50400001928E-02 0. -1.
        1   -1    0    0  501    0  0.00000000000E+00  0.00000000000E+00 -0.16698986286E+04  0.16698986287E+04  0.50400001928E-02 0.  1.
    10030    2    1    2    0    0  0.00000000000E+00  0.00000000000E+00 -0.11853921730E+04  0.21544050844E+04  0.17989737808E+04 0.  0.
        3    1    3    3  502    0 -0.55910335443E+03 -0.68811441899E+03 -0.41115927482E+03  0.97731774466E+03  0.10100000352E+00 0.  1.
       -3    1    3    3    0  502  0.55910335443E+03  0.68811441899E+03 -0.77423289814E+03  0.11770873397E+04  0.10100000352E+00 0. -1.
</event>
<event>
 5   0  0.2001811E-05  0.1755604E+04  0.7818609E-02  0.8730272E-01
        1   -1    0    0  501    0  0.00000000000E+00  0.00000000000E+00  0.62698536360E+03  0.62698536362E+03  0.50400001928E-02 0. -1.
       -1   -1    0    0    0  501  0.00000000000E+00  0.00000000000E+00 -0.12289540963E+04  0.12289540963E+04  0.50400001928E-02 0.  1.
    10030    2    1    2    0    0  0.00000000000E+00  0.00000000000E+00 -0.60196873267E+03  0.18559394599E+04  0.17556038630E+04 0.  0.
        2    1    3    3  502    0  0.73253674271E+03  0.48252815727E+03 -0.33593004676E+03  0.93930426290E+03  0.25500000920E-02 0. -1.
       -2    1    3    3    0  502 -0.73253674271E+03 -0.48252815727E+03 -0.26603868591E+03  0.91663519700E+03  0.25500000920E-02 0.  1.
</event>
<event>
 5   0  0.1906857E-05  0.1799574E+04  0.7818609E-02  0.8706526E-01
        1   -1    0    0  501    0  0.00000000000E+00  0.00000000000E+00  0.17596129338E+04  0.17596129338E+04  0.50400001928E-02 0. -1.
       -1   -1    0    0    0  501  0.00000000000E+00  0.00000000000E+00 -0.46011048308E+03  0.46011048311E+03  0.50400001928E-02 0.  1.
    10030    2    1    2    0    0  0.00000000000E+00  0.00000000000E+00  0.12995024507E+04  0.22197234169E+04  0.17995736795E+04 0.  0.
        4    1    3    3  502    0  0.17629800568E+03  0.33373887537E+03  0.16572433647E+04  0.16996822664E+04  0.12699999809E+01 0. -1.
       -4    1    3    3    0  502 -0.17629800568E+03 -0.33373887537E+03 -0.35774091405E+03  0.52004115051E+03  0.12699999809E+01 0.  1.
</event>
<event>
 5   0  0.3909859E-05  0.1798433E+04  0.7818609E-02  0.8707133E-01
        2   -1    0    0  501    0  0.00000000000E+00  0.00000000000E+00  0.95234914681E+03  0.95234914681E+03  0.25500000920E-02 0. -1.
       -2   -1    0    0    0  501  0.00000000000E+00  0.00000000000E+00 -0.84904859798E+03  0.84904859799E+03  0.25500000920E-02 0.  1.
    10030    2    1    2    0    0  0.00000000000E+00  0.00000000000E+00  0.10330054882E+03  0.18013977448E+04  0.17984334382E+04 0.  0.
        4    1    3    3  502    0  0.12388064227E+02  0.89912691745E+03  0.49112884354E+02  0.90055336662E+03  0.12699999809E+01 0. -1.
       -4    1    3    3    0  502 -0.12388064227E+02 -0.89912691745E+03  0.54187664469E+02  0.90084437818E+03  0.12699999809E+01 0.  1.
</event>
<event>
 5   0  0.2054876E-05  0.1792137E+04  0.7818609E-02  0.8710492E-01
        1   -1    0    0  501    0  0.00000000000E+00  0.00000000000E+00  0.80772151767E+03  0.80772151768E+03  0.50400001928E-02 0.  1.
       -1   -1    0    0    0  501  0.00000000000E+00  0.00000000000E+00 -0.99407910897E+03  0.99407910898E+03  0.50400001928E-02 0. -1.
    10030    2    1    2    0    0  0.00000000000E+00  0.00000000000E+00 -0.18635759130E+03  0.18018006267E+04  0.17921373682E+04 0.  0.
        5    1    3    3  502    0 -0.45338406200E+03 -0.11111431946E+03  0.67580711208E+03  0.82136523082E+03  0.46999998093E+01 0.  1.
       -5    1    3    3    0  502  0.45338406200E+03  0.11111431946E+03 -0.86216470339E+03  0.98043539585E+03  0.46999998093E+01 0. -1.
</event>
<event>
 5   0  0.2054876E-05  0.1800371E+04  0.7818609E-02  0.8706102E-01
       -1   -1    0    0    0  501  0.00000000000E+00  0.00000000000E+00  0.43749373907E+03  0.43749373910E+03  0.50400001928E-02 0.  1.
        1   -1    0    0  501    0  0.00000000000E+00  0.00000000000E+00 -0.18522190091E+04  0.18522190091E+04  0.50400001928E-02 0. -1.
    10030    2    1    2    0    0  0.00000000000E+00  0.00000000000E+00 -0.14147252700E+04  0.22897127482E+04  0.18003713172E+04 0.  0.
        5    1    3    3  502    0  0.35230423956E+03  0.25749234254E+03 -0.17086915877E+04  0.17635389465E+04  0.46999998093E+01 0. -1.
       -5    1    3    3    0  502 -0.35230423956E+03 -0.25749234254E+03  0.29396631772E+03  0.52617380173E+03  0.46999998093E+01 0.  1.
</event>
<event>
 5   0  0.2054876E-05  0.1799246E+04  0.7818609E-02  0.8706700E-01
        1   -1    0    0  501    0  0.00000000000E+00  0.00000000000E+00  0.12027393075E+04  0.12027393075E+04  0.50400001928E-02 0.  1.
       -1   -1    0    0    0  501  0.00000000000E+00  0.00000000000E+00 -0.67289882614E+03  0.67289882616E+03  0.50400001928E-02 0. -1.
    10030    2    1    2    0    0  0.00000000000E+00  0.00000000000E+00  0.52984048138E+03  0.18756381337E+04  0.17992463625E+04 0.  0.
        5    1    3    3  502    0  0.45804314092E+03  0.30939822469E+03  0.10048221349E+04  0.11468305860E+04  0.46999998093E+01 0.  1.
       -5    1    3    3    0  502 -0.45804314092E+03 -0.30939822469E+03 -0.47498165347E+03  0.72880754765E+03  0.46999998093E+01 0. -1.
</event>
<event>
 5   0  0.3993393E-05  0.1796710E+04  0.7818609E-02  0.8708051E-01
       -2   -1    0    0    0  501  0.00000000000E+00  0.00000000000E+00  0.98234133777E+03  0.98234133778E+03  0.25500000920E-02 0.  1.
        2   -1    0    0  501    0  0.00000000000E+00  0.00000000000E+00 -0.82154874894E+03  0.82154874894E+03  0.25500000920E-02 0. -1.
    10030    2    1    2    0    0  0.00000000000E+00  0.00000000000E+00  0.16079258883E+03  0.18038900867E+04  0.17967095448E+04 0.  0.
        5    1    3    3  502    0 -0.23773915810E+03  0.51833408205E+03  0.77730951040E+03  0.96406550237E+03  0.46999998093E+01 0.  1.
       -5    1    3    3    0  502  0.23773915810E+03 -0.51833408205E+03 -0.61651692156E+03  0.83982458435E+03  0.46999998093E+01 0. -1.
</event>
<event>
 5   0  0.3984648E-05  0.1798690E+04  0.7818609E-02  0.8706996E-01
        2   -1    0    0  501    0  0.00000000000E+00  0.00000000000E+00  0.16530613573E+04  0.16530613573E+04  0.25500000920E-02 0.  1.
       -2   -1    0    0    0  501  0.00000000000E+00  0.00000000000E+00 -0.48928723883E+03  0.48928723883E+03  0.25500000920E-02 0. -1.
    10030    2    1    2    0    0  0.00000000000E+00  0.00000000000E+00  0.11637741185E+04  0.21423485961E+04  0.17986904427E+04 0.  0.
        1    1    3    3  502    0  0.24801773954E+03  0.52523980054E+03 -0.23590581917E+03  0.62692998233E+03  0.50400001928E-02 0. -1.
       -1    1    3    3    0  502 -0.24801773954E+03 -0.52523980054E+03  0.13996799376E+04  0.15154186138E+04  0.50400001928E-02 0.  1.
</event>
<event>
 5   0  0.2001811E-05  0.1770641E+04  0.7818609E-02  0.8722070E-01
       -1   -1    0    0    0  501  0.00000000000E+00  0.00000000000E+00  0.90790368418E+03  0.90790368420E+03  0.50400001928E-02 0.  1.
        1   -1    0    0  501    0  0.00000000000E+00  0.00000000000E+00 -0.86329944260E+03  0.86329944262E+03  0.50400001928E-02 0. -1.
    10030    2    1    2    0    0  0.00000000000E+00  0.00000000000E+00  0.44604241580E+02  0.17712031268E+04  0.17706414030E+04 0.  0.
        2    1    3    3  502    0  0.57271486695E+03  0.19041764039E+03 -0.62561591194E+03  0.86928503143E+03  0.25500000920E-02 0. -1.
       -2    1    3    3    0  502 -0.57271486695E+03 -0.19041764039E+03  0.67022015352E+03  0.90191809539E+03  0.25500000920E-02 0.  1.
</event>
<event>
 5   0  0.1446750E-05  0.1800240E+04  0.7818609E-02  0.8706172E-01
        4   -1    0    0  501    0  0.00000000000E+00  0.00000000000E+00  0.11654167015E+04  0.11654173935E+04  0.12699999809E+01 0. -1.
       -4   -1    0    0    0  501  0.00000000000E+00  0.00000000000E+00 -0.69521432894E+03  0.69521548894E+03  0.12699999809E+01 0.  1.
    10030    2    1    2    0    0  0.00000000000E+00  0.00000000000E+00  0.47020237257E+03  0.18606328824E+04  0.18002401095E+04 0.  0.
        2    1    3    3  502    0  0.71217910057E+03  0.52394525408E+02 -0.33125229189E+03  0.78719269463E+03  0.25500000920E-02 0.  1.
       -2    1    3    3    0  502 -0.71217910057E+03 -0.52394525408E+02  0.80145466445E+03  0.10734401878E+04  0.25500000920E-02 0. -1.
</event>
<event>
 5   0  0.3984648E-05  0.1798773E+04  0.7818609E-02  0.8706952E-01
        2   -1    0    0  501    0  0.00000000000E+00  0.00000000000E+00  0.61083032403E+03  0.61083032404E+03  0.25500000920E-02 0.  1.
       -2   -1    0    0    0  501  0.00000000000E+00  0.00000000000E+00 -0.13242565924E+04  0.13242565924E+04  0.25500000920E-02 0. -1.
    10030    2    1    2    0    0  0.00000000000E+00  0.00000000000E+00 -0.71342626833E+03  0.19350869164E+04  0.17987730078E+04 0.  0.
        1    1    3    3  502    0  0.47298707160E+03  0.54321012300E+03  0.22271493888E+03  0.75392038814E+03  0.50400001928E-02 0.  1.
       -1    1    3    3    0  502 -0.47298707160E+03 -0.54321012300E+03 -0.93614120721E+03  0.11811665283E+04  0.50400001928E-02 0. -1.
</event>
<event>
 5   0  0.1446750E-05  0.1792716E+04  0.7818609E-02  0.8710182E-01
        3   -1    0    0  501    0  0.00000000000E+00  0.00000000000E+00  0.65334619268E+03  0.65334620048E+03  0.10100000352E+00 0.  1.
       -3   -1    0    0    0  501  0.00000000000E+00  0.00000000000E+00 -0.12297583139E+04  0.12297583181E+04  0.10100000352E+00 0. -1.
    10030    2    1    2    0    0  0.00000000000E+00  0.00000000000E+00 -0.57641212123E+03  0.18831045185E+04  0.17927162894E+04 0.  0.
        3    1    3    3  502    0  0.79557897655E+03  0.40706409073E+03 -0.36106333699E+03  0.96385363278E+03  0.10100000352E+00 0. -1.
       -3    1    3    3    0  502 -0.79557897655E+03 -0.40706409073E+03 -0.21534878424E+03  0.91925088576E+03  0.10100000352E+00 0.  1.
</event>
<event>
 5   0  0.3984648E-05  0.1803077E+04  0.7818609E-02  0.8704665E-01
       -2   -1    0    0    0  501  0.00000000000E+00  0.00000000000E+00  0.58865647185E+03  0.58865647186E+03  0.25500000920E-02 0.  1.
        2   -1    0    0  501    0  0.00000000000E+00  0.00000000000E+00 -0.13807225354E+04  0.13807225354E+04  0.25500000920E-02 0. -1.
    10030    2    1    2    0    0  0.00000000000E+00  0.00000000000E+00 -0.79206606359E+03  0.19693790073E+04  0.18030765445E+04 0.  0.
        1    1    3    3  502    0  0.28567908393E+02 -0.87840134236E+03 -0.17658881385E+03  0.89643106420E+03  0.50400001928E-02 0.  1.
       -1    1    3    3    0  502 -0.28567908393E+02  0.87840134236E+03 -0.61547724974E+03  0.10729479431E+04  0.50400001928E-02 0. -1.
</event>
<event>
 5   0  0.3983176E-05  0.1802095E+04  0.7818609E-02  0.8705186E-01
        2   -1    0    0  501    0  0.00000000000E+00  0.00000000000E+00  0.11232244332E+04  0.11232244332E+04  0.25500000920E-02 0.  1.
       -2   -1    0    0    0  501  0.00000000000E+00  0.00000000000E+00 -0.72281751727E+03  0.72281751727E+03  0.25500000920E-02 0. -1.
    10030    2    1    2    0    0  0.00000000000E+00  0.00000000000E+00  0.40040691595E+03  0.18460419505E+04  0.18020946658E+04 0.  0.
        3    1    3    3  502    0 -0.26312002111E+03 -0.39171120504E+03  0.98652722853E+03  0.10935747787E+04  0.10100000352E+00 0.  1.
       -3    1    3    3    0  502  0.26312002111E+03  0.39171120504E+03 -0.58612031258E+03  0.75246717184E+03  0.10100000352E+00 0. -1.
</event>
<event>
 5   0  0.1906857E-05  0.1796806E+04  0.7818609E-02  0.8708000E-01
        1   -1    0    0  501    0  0.00000000000E+00  0.00000000000E+00  0.10004724269E+04  0.10004724270E+04  0.50400001928E-02 0.  1.
       -1   -1    0    0    0  501  0.00000000000E+00  0.00000000000E+00 -0.80674689744E+03  0.80674689746E+03  0.50400001928E-02 0. -1.
    10030    2    1    2    0    0  0.00000000000E+00  0.00000000000E+00  0.19372552951E+03  0.18072193244E+04  0.17968060846E+04 0.  0.
        4    1    3    3  502    0 -0.10463103837E+02 -0.52657725228E+03 -0.63518311985E+03  0.82513773868E+03  0.12699999809E+01 0. -1.
       -4    1    3    3    0  502  0.10463103837E+02  0.52657725228E+03  0.82890864936E+03  0.98208158573E+03  0.12699999809E+01 0.  1.
</event>
<event>
 5   0  0.1906857E-05  0.1805856E+04  0.7818609E-02  0.8703191E-01
       -1   -1    0    0    0  501  0.00000000000E+00  0.00000000000E+00  0.98670970666E+03  0.98670970668E+03  0.50400001928E-02 0.  1.
        1   -1    0    0  501    0  0.00000000000E+00  0.00000000000E+00 -0.82626023317E+03  0.82626023319E+03  0.50400001928E-02 0. -1.
    10030    2    1    2    0    0  0.00000000000E+00  0.00000000000E+00  0.16044947349E+03  0.18129699399E+04  0.18058560212E+04 0.  0.
        4    1    3    3  502    0  0.35910041443E+03  0.62084720597E+03 -0.47045500917E+03  0.85774931615E+03  0.12699999809E+01 0. -1.
       -4    1    3    3    0  502 -0.35910041443E+03 -0.62084720597E+03  0.63090448267E+03  0.95522062371E+03  0.12699999809E+01 0.  1.
</event>
<event>
 5   0  0.2038338E-05  0.1790922E+04  0.7818609E-02  0.8711142E-01
       -1   -1    0    0    0  501  0.00000000000E+00  0.00000000000E+00  0.11783442643E+04  0.11783442643E+04  0.50400001928E-02 0.  1.
        1   -1    0    0  501    0  0.00000000000E+00  0.00000000000E+00 -0.68048933540E+03  0.68048933542E+03  0.50400001928E-02 0. -1.
    10030    2    1    2    0    0  0.00000000000E+00  0.00000000000E+00  0.49785492889E+03  0.18588335997E+04  0.17909223381E+04 0.  0.
        1    1    3    3  502    0 -0.53945448603E+03  0.54447553218E+03  0.72950329851E+03  0.10581303371E+04  0.50400001928E-02 0.  1.
       -1    1    3    3    0  502  0.53945448603E+03 -0.54447553218E+03 -0.23164836963E+03  0.80070326265E+03  0.50400001928E-02 0. -1.
</event>
<event>
 5   0  0.3993393E-05  0.1798580E+04  0.7818609E-02  0.8707055E-01
        2   -1    0    0  501    0  0.00000000000E+00  0.00000000000E+00  0.19316957151E+04  0.19316957151E+04  0.25500000920E-02 0. -1.
       -2   -1    0    0    0  501  0.00000000000E+00  0.00000000000E+00 -0.41865951504E+03  0.41865951505E+03  0.25500000920E-02 0.  1.
    10030    2    1    2    0    0  0.00000000000E+00  0.00000000000E+00  0.15130362001E+04  0.23503552302E+04  0.17985803194E+04 0.  0.
        5    1    3    3  502    0  0.21976355599E+03 -0.18834929337E+03  0.18691499125E+04  0.18914319872E+04  0.46999998093E+01 0. -1.
       -5    1    3    3    0  502 -0.21976355599E+03  0.18834929337E+03 -0.35611371236E+03  0.45892324302E+03  0.46999998093E+01 0.  1.
</event>
<event>
 5   0  0.2038338E-05  0.1794883E+04  0.7818609E-02  0.8709025E-01
        1   -1    0    0  501    0  0.00000000000E+00  0.00000000000E+00  0.61399300432E+03  0.61399300434E+03  0.50400001928E-02 0. -1.
       -1   -1    0    0    0  501  0.00000000000E+00  0.00000000000E+00 -0.13117437962E+04  0.13117437962E+04  0.50400001928E-02 0.  1.
    10030    2    1    2    0    0  0.00000000000E+00  0.00000000000E+00 -0.69775079184E+03  0.19257368005E+04  0.17948832991E+04 0.  0.
        1    1    3    3  502    0 -0.81616105872E+03  0.35946509633E+03 -0.45652717461E+03  0.10018737897E+04  0.50400001928E-02 0. -1.
       -1    1    3    3    0  502  0.81616105872E+03 -0.35946509633E+03 -0.24122361723E+03  0.92386301083E+03  0.50400001928E-02 0.  1.
</event>
<event>
 5   0  0.3993393E-05  0.1801379E+04  0.7818609E-02  0.8705566E-01
       -2   -1    0    0    0  501  0.00000000000E+00  0.00000000000E+00  0.10249028986E+04  0.10249028986E+04  0.25500000920E-02 0. -1.
        2   -1    0    0  501    0  0.00000000000E+00  0.00000000000E+00 -0.79153032882E+03  0.79153032882E+03  0.25500000920E-02 0.  1.
    10030    2    1    2    0    0  0.00000000000E+00  0.00000000000E+00  0.23337256974E+03  0.18164332274E+04  0.18013791698E+04 0.  0.
        5    1    3    3  502    0 -0.56542008041E+03 -0.29893624676E+03  0.75614433463E+03  0.99037320831E+03  0.46999998093E+01 0. -1.
       -5    1    3    3    0  502  0.56542008041E+03  0.29893624676E+03 -0.52277176489E+03  0.82606001908E+03  0.46999998093E+01 0.  1.
</event>
<event>
 5   0  0.3984648E-05  0.1799981E+04  0.7818609E-02  0.8706310E-01
       -2   -1    0    0    0  501  0.00000000000E+00  0.00000000000E+00  0.74578170021E+03  0.74578170021E+03  0.25500000920E-02 0.  1.
        2   -1    0    0  501    0  0.00000000000E+00  0.00000000000E+00 -0.10860854031E+04  0.10860854031E+04  0.25500000920E-02 0. -1.
    10030    2    1    2    0    0  0.00000000000E+00  0.00000000000E+00 -0.34030370288E+03  0.18318671033E+04  0.17999806871E+04 0.  0.
        1    1    3    3  502    0 -0.66252731194E+03 -0.59496807339E+03 -0.30305298716E+03  0.94062243248E+03  0.50400001928E-02 0. -1.
       -1    1    3    3    0  502  0.66252731194E+03  0.59496807339E+03 -0.37250715724E+02  0.89124467083E+03  0.50400001928E-02 0.  1.
</event>
<event>
 5   0  0.3909859E-05  0.1796986E+04  0.7818609E-02  0.8707904E-01
       -2   -1    0    0    0  501  0.00000000000E+00  0.00000000000E+00  0.53929724177E+03  0.53929724177E+03  0.25500000920E-02 0.  1.
        2   -1    0    0  501    0  0.00000000000E+00  0.00000000000E+00 -0.14969287222E+04  0.14969287222E+04  0.25500000920E-02 0. -1.
    10030    2    1    2    0    0  0.00000000000E+00  0.00000000000E+00 -0.95763148040E+03  0.20362259639E+04  0.17969858441E+04 0.  0.
        4    1    3    3  502    0 -0.41028473751E+03  0.20900274647E+03  0.39544125696E+03  0.60695231647E+03  0.12699999809E+01 0.  1.
       -4    1    3    3    0  502  0.41028473751E+03 -0.20900274647E+03 -0.13530727374E+04  0.14292736475E+04  0.12699999809E+01 0. -1.
</event>
<event>
 5   0  0.3993393E-05  0.1827037E+04  0.7818609E-02  0.8692052E-01
        2   -1    0    0  501    0  0.00000000000E+00  0.00000000000E+00  0.12828605935E+04  0.12828605935E+04  0.25500000920E-02 0. -1.
       -2   -1    0    0    0  501  0.00000000000E+00  0.00000000000E+00 -0.65051205984E+03  0.65051205984E+03  0.25500000920E-02 0.  1.
    10030    2    1    2    0    0  0.00000000000E+00  0.00000000000E+00  0.63234853366E+03  0.19333726533E+04  0.18270372598E+04 0.  0.
        5    1    3    3  502    0  0.42333117421E+03 -0.57169483984E+03 -0.29028655505E+03  0.76833107903E+03  0.46999998093E+01 0.  1.
       -5    1    3    3    0  502 -0.42333117421E+03  0.57169483984E+03  0.92263508870E+03  0.11650415743E+04  0.46999998093E+01 0. -1.
</event>
<event>
 5   0  0.1906857E-05  0.1800538E+04  0.7818609E-02  0.8706013E-01
        1   -1    0    0  501    0  0.00000000000E+00  0.00000000000E+00  0.85955993619E+03  0.85955993621E+03  0.50400001928E-02 0.  1.
       -1   -1    0    0    0  501  0.00000000000E+00  0.00000000000E+00 -0.94290653439E+03  0.94290653441E+03  0.50400001928E-02 0. -1.
    10030    2    1    2    0    0  0.00000000000E+00  0.00000000000E+00 -0.83346598202E+02  0.18024664706E+04  0.18005384534E+04 0.  0.
        4    1    3    3  502    0  0.72288971149E+03  0.21245843411E+03  0.45157628460E+03  0.87842522443E+03  0.12699999809E+01 0.  1.
       -4    1    3    3    0  502 -0.72288971149E+03 -0.21245843411E+03 -0.53492288280E+03  0.92404124618E+03  0.12699999809E+01 0. -1.
</event>
<event>
 5   0  0.3984648E-05  0.1796461E+04  0.7818609E-02  0.8708184E-01
        2   -1    0    0  501    0  0.00000000000E+00  0.00000000000E+00  0.18211077649E+04  0.18211077649E+04  0.25500000920E-02 0. -1.
       -2   -1    0    0    0  501  0.00000000000E+00  0.00000000000E+00 -0.44303674770E+03  0.44303674771E+03  0.25500000920E-02 0.  1.
    10030    2    1    2    0    0  0.00000000000E+00  0.00000000000E+00  0.13780710172E+04  0.22641445126E+04  0.17964605884E+04 0.  0.
        1    1    3    3  502    0  0.89273428830E+03 -0.98174524774E+02  0.67099400027E+03  0.11210912966E+04  0.50400001928E-02 0.  1.
       -1    1    3    3    0  502 -0.89273428830E+03  0.98174524774E+02  0.70707701696E+03  0.11430532161E+04  0.50400001928E-02 0. -1.
</event>
<event>
 5   0  0.1906857E-05  0.1800106E+04  0.7818609E-02  0.8706243E-01
        1   -1    0    0  501    0  0.00000000000E+00  0.00000000000E+00  0.20584639559E+04  0.20584639559E+04  0.50400001928E-02 0.  1.
       -1   -1    0    0    0  501  0.00000000000E+00  0.00000000000E+00 -0.39354373127E+03  0.39354373130E+03  0.50400001928E-02 0. -1.
    10030    2    1    2    0    0  0.00000000000E+00  0.00000000000E+00  0.16649202246E+04  0.24520076872E+04  0.18001062035E+04 0.  0.
        4    1    3    3  502    0  0.58511653702E+03 -0.53866772967E+03  0.25846510506E+03  0.83625959386E+03  0.12699999809E+01 0. -1.
       -4    1    3    3    0  502 -0.58511653702E+03  0.53866772967E+03  0.14064551196E+04  0.16157480934E+04  0.12699999809E+01 0.  1.
</event>
<event>
 5   0  0.2001811E-05  0.1798853E+04  0.7818609E-02  0.8706910E-01
       -1   -1    0    0    0  501  0.00000000000E+00  0.00000000000E+00  0.72765959853E+03  0.72765959855E+03  0.50400001928E-02 0. -1.
        1   -1    0    0  501    0  0.00000000000E+00  0.00000000000E+00 -0.11117396818E+04  0.11117396818E+04  0.50400001928E-02 0.  1.
    10030    2    1    2    0    0  0.00000000000E+00  0.00000000000E+00 -0.38408008323E+03  0.18393992803E+04  0.17988530241E+04 0.  0.
        2    1    3    3  502    0 -0.16946257653E+03 -0.75956129077E+03 -0.65311052250E+03  0.10159745439E+04  0.25500000920E-02 0.  1.
       -2    1    3    3    0  502  0.16946257653E+03  0.75956129077E+03  0.26903043927E+03  0.82342473641E+03  0.25500000920E-02 0. -1.
</event>
<event>
 5   0  0.2001811E-05  0.1807796E+04  0.7818609E-02  0.8702165E-01
       -1   -1    0    0    0  501  0.00000000000E+00  0.00000000000E+00  0.12578661480E+04  0.12578661480E+04  0.50400001928E-02 0.  1.
        1   -1    0    0  501    0  0.00000000000E+00  0.00000000000E+00 -0.64953779308E+03  0.64953779310E+03  0.50400001928E-02 0. -1.
    10030    2    1    2    0    0  0.00000000000E+00  0.00000000000E+00  0.60832835495E+03  0.19074039411E+04  0.18077960082E+04 0.  0.
        2    1    3    3  502    0 -0.85071588901E+03  0.25573325399E+03  0.12788183711E+03  0.89748024228E+03  0.25500000920E-02 0. -1.
       -2    1    3    3    0  502  0.85071588901E+03 -0.25573325399E+03  0.48044651784E+03  0.10099236989E+04  0.25500000920E-02 0.  1.
</event>
<event>
 5   0  0.2038338E-05  0.1779061E+04  0.7818609E-02  0.8717515E-01
        1   -1    0    0  501    0  0.00000000000E+00  0.00000000000E+00  0.14165494883E+04  0.14165494883E+04  0.50400001928E-02 0. -1.
       -1   -1    0    0    0  501  0.00000000000E+00  0.00000000000E+00 -0.55858576130E+03  0.55858576132E+03  0.50400001928E-02 0.  1.
    10030    2    1    2    0    0  0.00000000000E+00  0.00000000000E+00  0.85796372699E+03  0.19751352496E+04  0.17790608470E+04 0.  0.
        1    1    3    3  502    0  0.55355264116E+03  0.45399366898E+03  0.10151209686E+04  0.12421760580E+04  0.50400001928E-02 0. -1.
       -1    1    3    3    0  502 -0.55355264116E+03 -0.45399366898E+03 -0.15715724163E+03  0.73295919166E+03  0.50400001928E-02 0.  1.
</event>
<event>
 5   0  0.1906857E-05  0.1800537E+04  0.7818609E-02  0.8706014E-01
       -1   -1    0    0    0  501  0.00000000000E+00  0.00000000000E+00  0.81311895329E+03  0.81311895330E+03  0.50400001928E-02 0. -1.
        1   -1    0    0  501    0  0.00000000000E+00  0.00000000000E+00 -0.99675846278E+03  0.99675846279E+03  0.50400001928E-02 0.  1.
    10030    2    1    2    0    0  0.00000000000E+00  0.00000000000E+00 -0.18363950949E+03  0.18098774161E+04  0.18005368066E+04 0.  0.
        4    1    3    3  502    0  0.27990858731E+03 -0.37925517055E+03 -0.86280478876E+03  0.98316683124E+03  0.12699999809E+01 0.  1.
       -4    1    3    3    0  502 -0.27990858731E+03  0.37925517055E+03  0.67916527927E+03  0.82671058485E+03  0.12699999809E+01 0. -1.
</event>
<event>
 5   0  0.3909859E-05  0.1795496E+04  0.7818609E-02  0.8708698E-01
        2   -1    0    0  501    0  0.00000000000E+00  0.00000000000E+00  0.16185979156E+04  0.16185979156E+04  0.25500000920E-02 0. -1.
       -2   -1    0    0    0  501  0.00000000000E+00  0.00000000000E+00 -0.49793189154E+03  0.49793189154E+03  0.25500000920E-02 0.  1.
    10030    2    1    2    0    0  0.00000000000E+00  0.00000000000E+00  0.11206660241E+04  0.21165298071E+04  0.17954960560E+04 0.  0.
        4    1    3    3  502    0 -0.63794288748E+03  0.33571686740E+03  0.11910435720E+04  0.13922152657E+04  0.12699999809E+01 0. -1.
       -4    1    3    3    0  502  0.63794288748E+03 -0.33571686740E+03 -0.70377547972E+02  0.72431454142E+03  0.12699999809E+01 0.  1.
</event>
<event>
 5   0  0.3909859E-05  0.1802925E+04  0.7818609E-02  0.8704746E-01
        2   -1    0    0  501    0  0.00000000000E+00  0.00000000000E+00  0.14152659709E+04  0.14152659709E+04  0.25500000920E-02 0.  1.
       -2   -1    0    0    0  501  0.00000000000E+00  0.00000000000E+00 -0.57419193323E+03  0.57419193324E+03  0.25500000920E-02 0. -1.
    10030    2    1    2    0    0  0.00000000000E+00  0.00000000000E+00  0.84107403763E+03  0.19894579041E+04  0.18029246283E+04 0.  0.
        4    1    3    3  502    0  0.14668231603E+03 -0.87996652094E+03  0.27761463827E+03  0.93430630956E+03  0.12699999809E+01 0. -1.
       -4    1    3    3    0  502 -0.14668231603E+03  0.87996652094E+03  0.56345939936E+03  0.10551515945E+04  0.12699999809E+01 0.  1.
</event>
<event>
 5   0  0.2054876E-05  0.1799473E+04  0.7818609E-02  0.8706580E-01
       -1   -1    0    0    0  501  0.00000000000E+00  0.00000000000E+00  0.12765039277E+04  0.12765039277E+04  0.50400001928E-02 0. -1.
        1   -1    0    0  501    0  0.00000000000E+00  0.00000000000E+00 -0.63417400814E+03  0.63417400816E+03  0.50400001928E-02 0.  1.
    10030    2    1    2    0    0  0.00000000000E+00  0.00000000000E+00  0.64232991953E+03  0.19106779358E+04  0.17994728253E+04 0.  0.
        5    1    3    3  502    0 -0.73044492378E+03  0.31877850800E+03 -0.12217128817E+03  0.80629860318E+03  0.46999998093E+01 0.  1.
       -5    1    3    3    0  502  0.73044492378E+03 -0.31877850800E+03  0.76450120769E+03  0.11043793327E+04  0.46999998093E+01 0. -1.
</event>
<event>
 5   0  0.4015729E-05  0.1800162E+04  0.7818609E-02  0.8706213E-01
       -2   -1    0    0    0  501  0.00000000000E+00  0.00000000000E+00  0.10493159521E+04  0.10493159521E+04  0.25500000920E-02 0. -1.
        2   -1    0    0  501    0  0.00000000000E+00  0.00000000000E+00 -0.77207031576E+03  0.77207031576E+03  0.25500000920E-02 0.  1.
    10030    2    1    2    0    0  0.00000000000E+00  0.00000000000E+00  0.27724563634E+03  0.18213862679E+04  0.18001618799E+04 0.  0.
        2    1    3    3  502    0 -0.53005596778E+03  0.49499244137E+03  0.67798281650E+03  0.99279280087E+03  0.25500000920E-02 0. -1.
       -2    1    3    3    0  502  0.53005596778E+03 -0.49499244137E+03 -0.40073718015E+03  0.82859346700E+03  0.25500000920E-02 0.  1.
</event>
<event>
 5   0  0.2054876E-05  0.1786675E+04  0.7818609E-02  0.8713418E-01
        1   -1    0    0  501    0  0.00000000000E+00  0.00000000000E+00  0.54483873263E+03  0.54483873265E+03  0.50400001928E-02 0. -1.
       -1   -1    0    0    0  501  0.00000000000E+00  0.00000000000E+00 -0.14647494986E+04  0.14647494986E+04  0.50400001928E-02 0.  1.
    10030    2    1    2    0    0  0.00000000000E+00  0.00000000000E+00 -0.91991076594E+03  0.20095882312E+04  0.17866754159E+04 0.  0.
        5    1    3    3  502    0 -0.34669396472E+02 -0.42996715157E+03 -0.13398317967E+04  0.14075670684E+04  0.46999998093E+01 0.  1.
       -5    1    3    3    0  502  0.34669396472E+02  0.42996715157E+03  0.41992103075E+03  0.60202116287E+03  0.46999998093E+01 0. -1.
</event>
<event>
 5   0  0.3984648E-05  0.1798782E+04  0.7818609E-02  0.8706948E-01
       -2   -1    0    0    0  501  0.00000000000E+00  0.00000000000E+00  0.92838487843E+03  0.92838487843E+03  0.25500000920E-02 0. -1.
        2   -1    0    0  501    0  0.00000000000E+00  0.00000000000E+00 -0.87130220912E+03  0.87130220912E+03  0.25500000920E-02 0.  1.
    10030    2    1    2    0    0  0.00000000000E+00  0.00000000000E+00  0.57082669308E+02  0.17996870876E+04  0.17987815826E+04 0.  0.
        1    1    3    3  502    0 -0.42490285155E+03 -0.79190625302E+03  0.63855684106E+02  0.90096364812E+03  0.50400001928E-02 0.  1.
       -1    1    3    3    0  502  0.42490285155E+03  0.79190625302E+03 -0.67730147978E+01  0.89872343943E+03  0.50400001928E-02 0. -1.
</event>
<event>
 5   0  0.3909859E-05  0.1784043E+04  0.7818609E-02  0.8714832E-01
        2   -1    0    0  501    0  0.00000000000E+00  0.00000000000E+00  0.11544046236E+04  0.11544046236E+04  0.25500000920E-02 0.  1.
       -2   -1    0    0    0  501  0.00000000000E+00  0.00000000000E+00 -0.68927497245E+03  0.68927497245E+03  0.25500000920E-02 0. -1.
    10030    2    1    2    0    0  0.00000000000E+00  0.00000000000E+00  0.46512965111E+03  0.18436795960E+04  0.17840428415E+04 0.  0.
        4    1    3    3  502    0  0.18708291894E+03  0.60821122061E+02 -0.66657762936E+03  0.69500113403E+03  0.12699999809E+01 0. -1.
       -4    1    3    3    0  502 -0.18708291894E+03 -0.60821122061E+02  0.11317072805E+04  0.11486784620E+04  0.12699999809E+01 0.  1.
</event>
<event>
 5   0  0.1960300E-05  0.1779936E+04  0.7818609E-02  0.8717043E-01
        1   -1    0    0  501    0  0.00000000000E+00  0.00000000000E+00  0.14673065252E+04  0.14673065252E+04  0.50400001928E-02 0. -1.
       -1   -1    0    0    0  501  0.00000000000E+00  0.00000000000E+00 -0.53979358410E+03  0.53979358412E+03  0.50400001928E-02 0.  1.
    10030    2    1    2    0    0  0.00000000000E+00  0.00000000000E+00  0.92751294111E+03  0.20071001093E+04  0.17799355587E+04 0.  0.
        3    1    3    3  502    0  0.27947492881E+01 -0.21085920065E+03 -0.51121436433E+03  0.55300049695E+03  0.10100000352E+00 0.  1.
       -3    1    3    3    0  502 -0.27947492881E+01  0.21085920065E+03  0.14387273054E+04  0.14540996124E+04  0.10100000352E+00 0. -1.
</event>
<event>
 5   0  0.3909859E-05  0.1800441E+04  0.7818609E-02  0.8706065E-01
       -2   -1    0    0    0  501  0.00000000000E+00  0.00000000000E+00  0.88593287105E+03  0.88593287105E+03  0.25500000920E-02 0.  1.
        2   -1    0    0  501    0  0.00000000000E+00  0.00000000000E+00 -0.91473876948E+03  0.91473876949E+03  0.25500000920E-02 0. -1.
    10030    2    1    2    0    0  0.00000000000E+00  0.00000000000E+00 -0.28805898433E+02  0.18006716405E+04  0.18004412174E+04 0.  0.
        4    1    3    3  502    0 -0.23376882611E+03  0.23355943405E+03 -0.85188557606E+03  0.91373328761E+03  0.12699999809E+01 0. -1.
       -4    1    3    3    0  502  0.23376882611E+03 -0.23355943405E+03  0.82307967762E+03  0.88693835293E+03  0.12699999809E+01 0.  1.
</event>
<event>
 5   0  0.3993393E-05  0.1807136E+04  0.7818609E-02  0.8702514E-01
       -2   -1    0    0    0  501  0.00000000000E+00  0.00000000000E+00  0.39707584043E+03  0.39707584044E+03  0.25500000920E-02 0.  1.
        2   -1    0    0  501    0  0.00000000000E+00  0.00000000000E+00 -0.20561194995E+04  0.20561194995E+04  0.25500000920E-02 0. -1.
    10030    2    1    2    0    0  0.00000000000E+00  0.00000000000E+00 -0.16590436591E+04  0.24531953400E+04  0.18071362741E+04 0.  0.
        5    1    3    3  502    0 -0.84202436317E+02 -0.82498448299E+03 -0.34247499795E+03  0.89721829098E+03  0.46999998093E+01 0.  1.
       -5    1    3    3    0  502  0.84202436317E+02  0.82498448299E+03 -0.13165686612E+04  0.15559770490E+04  0.46999998093E+01 0. -1.
</event>
<event>
 5   0  0.3984648E-05  0.1807613E+04  0.7818609E-02  0.8702261E-01
        2   -1    0    0  501    0  0.00000000000E+00  0.00000000000E+00  0.10642832999E+04  0.10642832999E+04  0.25500000920E-02 0. -1.
       -2   -1    0    0    0  501  0.00000000000E+00  0.00000000000E+00 -0.76752704140E+03  0.76752704140E+03  0.25500000920E-02 0.  1.
    10030    2    1    2    0    0  0.00000000000E+00  0.00000000000E+00  0.29675625849E+03  0.18318103413E+04  0.18076130254E+04 0.  0.
        1    1    3    3  502    0  0.39698116716E+03 -0.81045095170E+03  0.19845028706E+03  0.92401694176E+03  0.50400001928E-02 0.  1.
       -1    1    3    3    0  502 -0.39698116716E+03  0.81045095170E+03  0.98305971431E+02  0.90779339954E+03  0.50400001928E-02 0. -1.
</event>
<event>
 5   0  0.1906857E-05  0.1798587E+04  0.7818609E-02  0.8707051E-01
        1   -1    0    0  501    0  0.00000000000E+00  0.00000000000E+00  0.55923497917E+03  0.55923497919E+03  0.50400001928E-02 0. -1.
       -1   -1    0    0    0  501  0.00000000000E+00  0.00000000000E+00 -0.14461344634E+04  0.14461344634E+04  0.50400001928E-02 0.  1.
    10030    2    1    2    0    0  0.00000000000E+00  0.00000000000E+00 -0.88689948425E+03  0.20053694426E+04  0.17985871973E+04 0.  0.
        4    1    3    3  502    0 -0.40040554763E+02 -0.47982736508E+03 -0.12903052801E+04  0.13772170763E+04  0.12699999809E+01 0.  1.
       -4    1    3    3    0  502  0.40040554763E+02  0.47982736508E+03  0.40340579589E+03  0.62815236636E+03  0.12699999809E+01 0. -1.
</event>
<event>
 5   0  0.3984648E-05  0.1801213E+04  0.7818609E-02  0.8705655E-01
        2   -1    0    0  501    0  0.00000000000E+00  0.00000000000E+00  0.10564710096E+04  0.10564710096E+04  0.25500000920E-02 0.  1.
       -2   -1    0    0    0  501  0.00000000000E+00  0.00000000000E+00 -0.76773735444E+03  0.76773735444E+03  0.25500000920E-02 0. -1.
    10030    2    1    2    0    0  0.00000000000E+00  0.00000000000E+00  0.28873365511E+03  0.18242083640E+04  0.18012132111E+04 0.  0.
        1    1    3    3  502    0  0.72061642884E+03  0.52904987616E+03  0.25489510061E+03  0.92959847317E+03  0.50400001928E-02 0.  1.
       -1    1    3    3    0  502 -0.72061642884E+03 -0.52904987616E+03  0.33838554506E+02  0.89460989083E+03  0.50400001928E-02 0. -1.
</event>
<event>
 5   0  0.2001811E-05  0.1796907E+04  0.7818609E-02  0.8707946E-01
        1   -1    0    0  501    0  0.00000000000E+00  0.00000000000E+00  0.13444489141E+04  0.13444489141E+04  0.50400001928E-02 0.  1.
       -1   -1    0    0    0  501  0.00000000000E+00  0.00000000000E+00 -0.60040882120E+03  0.60040882123E+03  0.50400001928E-02 0. -1.
    10030    2    1    2    0    0  0.00000000000E+00  0.00000000000E+00  0.74404009290E+03  0.19448577353E+04  0.17969073295E+04 0.  0.
        2    1    3    3  502    0 -0.85754272489E+03  0.26376531281E+03  0.42355700717E+03  0.99214525327E+03  0.25500000920E-02 0.  1.
       -2    1    3    3    0  502  0.85754272489E+03 -0.26376531281E+03  0.32048308573E+03  0.95271248207E+03  0.25500000920E-02 0. -1.
</event>
<event>
 5   0  0.3983176E-05  0.1802234E+04  0.7818609E-02  0.8705112E-01
       -2   -1    0    0    0  501  0.00000000000E+00  0.00000000000E+00  0.57829314318E+03  0.57829314318E+03  0.25500000920E-02 0.  1.
        2   -1    0    0  501    0  0.00000000000E+00  0.00000000000E+00 -0.14041533945E+04  0.14041533945E+04  0.25500000920E-02 0. -1.
    10030    2    1    2    0    0  0.00000000000E+00  0.00000000000E+00 -0.82586025134E+03  0.19824465377E+04  0.18022344798E+04 0.  0.
        3    1    3    3  502    0 -0.50010558575E+03  0.70689609516E+03 -0.13858238787E+03  0.87693373448E+03  0.10100000352E+00 0. -1.
       -3    1    3    3    0  502  0.50010558575E+03 -0.70689609516E+03 -0.68727786347E+03  0.11055128032E+04  0.10100000352E+00 0.  1.
</event>
<event>
 5   0  0.1906857E-05  0.1804005E+04  0.7818609E-02  0.8704172E-01
        1   -1    0    0  501    0  0.00000000000E+00  0.00000000000E+00  0.10021680727E+04  0.10021680727E+04  0.50400001928E-02 0. -1.
       -1   -1    0    0    0  501  0.00000000000E+00  0.00000000000E+00 -0.81184855093E+03  0.81184855094E+03  0.50400001928E-02 0.  1.
    10030    2    1    2    0    0  0.00000000000E+00  0.00000000000E+00  0.19031952176E+03  0.18140166236E+04  0.18040052080E+04 0.  0.
        4    1    3    3  502    0 -0.68525632726E+03  0.12932973676E+03  0.67044015926E+03  0.96736447883E+03  0.12699999809E+01 0. -1.
       -4    1    3    3    0  502  0.68525632726E+03 -0.12932973676E+03 -0.48012063750E+03  0.84665214481E+03  0.12699999809E+01 0.  1.
</event>
<event>
 5   0  0.1906857E-05  0.1802614E+04  0.7818609E-02  0.8704911E-01
       -1   -1    0    0    0  501  0.00000000000E+00  0.00000000000E+00  0.29205392051E+03  0.29205392055E+03  0.50400001928E-02 0. -1.
        1   -1    0    0  501    0  0.00000000000E+00  0.00000000000E+00 -0.27815205702E+04  0.27815205702E+04  0.50400001928E-02 0.  1.
    10030    2    1    2    0    0  0.00000000000E+00  0.00000000000E+00 -0.24894666497E+04  0.30735744908E+04  0.18026136442E+04 0.  0.
        4    1    3    3  502    0  0.13010269899E+03  0.22095719931E+03 -0.27180161385E+04  0.27300846394E+04  0.12699999809E+01 0.  1.
       -4    1    3    3    0  502 -0.13010269899E+03 -0.22095719931E+03  0.22854948884E+03  0.34348985132E+03  0.12699999809E+01 0. -1.
</event>
<event>
 5   0  0.3984648E-05  0.1805244E+04  0.7818609E-02  0.8703516E-01
        2   -1    0    0  501    0  0.00000000000E+00  0.00000000000E+00  0.18606308138E+04  0.18606308138E+04  0.25500000920E-02 0.  1.
       -2   -1    0    0    0  501  0.00000000000E+00  0.00000000000E+00 -0.43787635867E+03  0.43787635868E+03  0.25500000920E-02 0. -1.
    10030    2    1    2    0    0  0.00000000000E+00  0.00000000000E+00  0.14227544551E+04  0.22985071724E+04  0.18052437460E+04 0.  0.
        1    1    3    3  502    0  0.73035885854E+03 -0.64553066139E+02  0.41097986278E+02  0.73435700113E+03  0.50400001928E-02 0. -1.
       -1    1    3    3    0  502 -0.73035885854E+03  0.64553066139E+02  0.13816564688E+04  0.15641501713E+04  0.50400001928E-02 0.  1.
</event>
<event>
 5   0  0.3909859E-05  0.1801794E+04  0.7818609E-02  0.8705346E-01
       -2   -1    0    0    0  501  0.00000000000E+00  0.00000000000E+00  0.69695701170E+03  0.69695701171E+03  0.25500000920E-02 0.  1.
        2   -1    0    0  501    0  0.00000000000E+00  0.00000000000E+00 -0.11645128832E+04  0.11645128832E+04  0.25500000920E-02 0. -1.
    10030    2    1    2    0    0  0.00000000000E+00  0.00000000000E+00 -0.46755587150E+03  0.18614698949E+04  0.18017940162E+04 0.  0.
        4    1    3    3  502    0  0.34492229843E+03 -0.82433517344E+03 -0.11546903775E+03  0.90101863560E+03  0.12699999809E+01 0.  1.
       -4    1    3    3    0  502 -0.34492229843E+03  0.82433517344E+03 -0.35208683375E+03  0.96045125931E+03  0.12699999809E+01 0. -1.
</event>
<event>
 5   0  0.2054876E-05  0.1804517E+04  0.7818609E-02  0.8703901E-01
       -1   -1    0    0    0  501  0.00000000000E+00  0.00000000000E+00  0.49090073726E+03  0.49090073729E+03  0.50400001928E-02 0. -1.
        1   -1    0    0  501    0  0.00000000000E+00  0.00000000000E+00 -0.16583193893E+04  0.16583193893E+04  0.50400001928E-02 0.  1.
    10030    2    1    2    0    0  0.00000000000E+00  0.00000000000E+00 -0.11674186521E+04  0.21492201266E+04  0.18045167895E+04 0.  0.
        5    1    3    3  502    0 -0.33725183213E+03  0.62680718113E+03  0.76660924641E+02  0.71590853323E+03  0.46999998093E+01 0. -1.
       -5    1    3    3    0  502  0.33725183213E+03 -0.62680718113E+03 -0.12440795767E+04  0.14333115934E+04  0.46999998093E+01 0.  1.
</event>
<event>
 5   0  0.3984648E-05  0.1802457E+04  0.7818609E-02  0.8704994E-01
        2   -1    0    0  501    0  0.00000000000E+00  0.00000000000E+00  0.10383310594E+04  0.10383310594E+04  0.25500000920E-02 0.  1.
       -2   -1    0    0    0  501  0.00000000000E+00  0.00000000000E+00 -0.78222937100E+03  0.78222937100E+03  0.25500000920E-02 0. -1.
    10030    2    1    2    0    0  0.00000000000E+00  0.00000000000E+00  0.25610168841E+03  0.18205604304E+04  0.18024572688E+04 0.  0.
        1    1    3    3  502    0  0.86526349755E+02  0.51587581732E+03  0.86931439274E+03  0.10145551644E+04  0.50400001928E-02 0.  1.
       -1    1    3    3    0  502 -0.86526349755E+02 -0.51587581732E+03 -0.61321270433E+03  0.80600526604E+03  0.50400001928E-02 0. -1.
</event>
<event>
 5   0  0.3983176E-05  0.1798477E+04  0.7818609E-02  0.8707110E-01
        2   -1    0    0  501    0  0.00000000000E+00  0.00000000000E+00  0.12153104147E+04  0.12153104147E+04  0.25500000920E-02 0.  1.
       -2   -1    0    0    0  501  0.00000000000E+00  0.00000000000E+00 -0.66536876890E+03  0.66536876891E+03  0.25500000920E-02 0. -1.
    10030    2    1    2    0    0  0.00000000000E+00  0.00000000000E+00  0.54994164578E+03  0.18806791836E+04  0.17984766826E+04 0.  0.
        3    1    3    3  502    0 -0.23208807852E+03  0.13412778777E+03  0.11725591228E+04  0.12028092311E+04  0.10100000352E+00 0.  1.
       -3    1    3    3    0  502  0.23208807852E+03 -0.13412778777E+03 -0.62261747703E+03  0.67786995253E+03  0.10100000352E+00 0. -1.
</event>
<event>
 5   0  0.2038338E-05  0.1792171E+04  0.7818609E-02  0.8710474E-01
        1   -1    0    0  501    0  0.00000000000E+00  0.00000000000E+00  0.14368132640E+04  0.14368132640E+04  0.50400001928E-02 0. -1.
       -1   -1    0    0    0  501  0.00000000000E+00  0.00000000000E+00 -0.55885451681E+03  0.55885451683E+03  0.50400001928E-02 0.  1.
    10030    2    1    2    0    0  0.00000000000E+00  0.00000000000E+00  0.87795874716E+03  0.19956677808E+04  0.17921714007E+04 0.  0.
        1    1    3    3  502    0 -0.51745468578E+03  0.45163980848E+03  0.10798563344E+04  0.12797763755E+04  0.50400001928E-02 0. -1.
       -1    1    3    3    0  502  0.51745468578E+03 -0.45163980848E+03 -0.20189758720E+03  0.71589140530E+03  0.50400001928E-02 0.  1.
</event>
<event>
 5   0  0.1906857E-05  0.1798673E+04  0.7818609E-02  0.8707005E-01
        1   -1    0    0  501    0  0.00000000000E+00  0.00000000000E+00  0.16514791999E+04  0.16514791999E+04  0.50400001928E-02 0.  1.
       -1   -1    0    0    0  501  0.00000000000E+00  0.00000000000E+00 -0.48974659755E+03  0.48974659758E+03  0.50400001928E-02 0. -1.
    10030    2    1    2    0    0  0.00000000000E+00  0.00000000000E+00  0.11617326023E+04  0.21412257974E+04  0.17986731989E+04 0.  0.
        4    1    3    3  502    0  0.29109631285E+03 -0.39236851033E+03 -0.31799210259E+03  0.58293284473E+03  0.12699999809E+01 0.  1.
       -4    1    3    3    0  502 -0.29109631285E+03  0.39236851033E+03  0.14797247049E+04  0.15582929527E+04  0.12699999809E+01 0. -1.
</event>
<event>
 5   0  0.1960300E-05  0.1804064E+04  0.7818609E-02  0.8704141E-01
        1   -1    0    0  501    0  0.00000000000E+00  0.00000000000E+00  0.90100761586E+03  0.90100761588E+03  0.50400001928E-02 0.  1.
       -1   -1    0    0    0  501  0.00000000000E+00  0.00000000000E+00 -0.90305726159E+03  0.90305726160E+03  0.50400001928E-02 0. -1.
    10030    2    1    2    0    0  0.00000000000E+00  0.00000000000E+00 -0.20496457239E+01  0.18040648775E+04  0.18040637132E+04 0.  0.
        3    1    3    3  502    0  0.43122126736E+03  0.66257331776E+03  0.43337881527E+03  0.90153890130E+03  0.10100000352E+00 0.  1.
       -3    1    3    3    0  502 -0.43122126736E+03 -0.66257331776E+03 -0.43542846099E+03  0.90252597618E+03  0.10100000352E+00 0. -1.
</event>
<event>
 5   0  0.2054876E-05  0.1800645E+04  0.7818609E-02  0.8705957E-01
        1   -1    0    0  501    0  0.00000000000E+00  0.00000000000E+00  0.62892292684E+03  0.62892292686E+03  0.50400001928E-02 0.  1.
       -1   -1    0    0    0  501  0.00000000000E+00  0.00000000000E+00 -0.12888393412E+04  0.12888393412E+04  0.50400001928E-02 0. -1.
    10030    2    1    2    0    0  0.00000000000E+00  0.00000000000E+00 -0.65991641432E+03  0.19177622680E+04  0.18006450074E+04 0.  0.
        5    1    3    3  502    0  0.65171717167E+03 -0.98865797769E+01  0.33150523452E+03  0.73126659080E+03  0.46999998093E+01 0.  1.
       -5    1    3    3    0  502 -0.65171717167E+03  0.98865797769E+01 -0.99142164884E+03  0.11864956772E+04  0.46999998093E+01 0. -1.
</event>
<event>
 5   0  0.1960300E-05  0.1802053E+04  0.7818609E-02  0.8705209E-01
       -1   -1    0    0    0  501  0.00000000000E+00  0.00000000000E+00  0.72728194355E+03  0.72728194357E+03  0.50400001928E-02 0. -1.
        1   -1    0    0  501    0  0.00000000000E+00  0.00000000000E+00 -0.11162777920E+04  0.11162777920E+04  0.50400001928E-02 0.  1.
    10030    2    1    2    0    0  0.00000000000E+00  0.00000000000E+00 -0.38899584843E+03  0.18435597356E+04  0.18020529206E+04 0.  0.
        3    1    3    3  502    0 -0.81967976268E+03  0.24600941357E+03  0.93868817803E+02  0.86093374313E+03  0.10100000352E+00 0. -1.
       -3    1    3    3    0  502  0.81967976268E+03 -0.24600941357E+03 -0.48286466623E+03  0.98262599243E+03  0.10100000352E+00 0.  1.
</event>
<event>
 5   0  0.3909859E-05  0.1801133E+04  0.7818609E-02  0.8705697E-01
       -2   -1    0    0    0  501  0.00000000000E+00  0.00000000000E+00  0.50299480701E+03  0.50299480702E+03  0.25500000920E-02 0.  1.
        2   -1    0    0  501    0  0.00000000000E+00  0.00000000000E+00 -0.16123818368E+04  0.16123818368E+04  0.25500000920E-02 0. -1.
    10030    2    1    2    0    0  0.00000000000E+00  0.00000000000E+00 -0.11093870298E+04  0.21153766438E+04  0.18011326335E+04 0.  0.
        4    1    3    3  502    0  0.77657215371E+03 -0.10122223447E+03 -0.10769140454E+04  0.13315613861E+04  0.12699999809E+01 0. -1.
       -4    1    3    3    0  502 -0.77657215371E+03  0.10122223447E+03 -0.32472984323E+02  0.78381525775E+03  0.12699999809E+01 0.  1.
</event>
<event>
 5   0  0.3984648E-05  0.1796781E+04  0.7818609E-02  0.8708013E-01
       -2   -1    0    0    0  501  0.00000000000E+00  0.00000000000E+00  0.54798702059E+03  0.54798702060E+03  0.25500000920E-02 0. -1.
        2   -1    0    0  501    0  0.00000000000E+00  0.00000000000E+00 -0.14728556604E+04  0.14728556604E+04  0.25500000920E-02 0.  1.
    10030    2    1    2    0    0  0.00000000000E+00  0.00000000000E+00 -0.92486863984E+03  0.20208426810E+04  0.17967813280E+04 0.  0.
        1    1    3    3  502    0 -0.82069551294E+03  0.35908490546E+03 -0.53890319537E+03  0.10454184561E+04  0.50400001928E-02 0.  1.
       -1    1    3    3    0  502  0.82069551294E+03 -0.35908490546E+03 -0.38596544447E+03  0.97542422496E+03  0.50400001928E-02 0. -1.
</event>
<event>
 5   0  0.2001811E-05  0.1800071E+04  0.7818609E-02  0.8706262E-01
       -1   -1    0    0    0  501  0.00000000000E+00  0.00000000000E+00  0.96211777437E+03  0.96211777438E+03  0.50400001928E-02 0.  1.
        1   -1    0    0  501    0  0.00000000000E+00  0.00000000000E+00 -0.84195928702E+03  0.84195928704E+03  0.50400001928E-02 0. -1.
    10030    2    1    2    0    0  0.00000000000E+00  0.00000000000E+00  0.12015848734E+03  0.18040770614E+04  0.18000711046E+04 0.  0.
        2    1    3    3  502    0 -0.39167216471E+02 -0.48242304970E+03  0.82058143896E+03  0.95269090879E+03  0.25500000920E-02 0.  1.
       -2    1    3    3    0  502  0.39167216471E+02  0.48242304970E+03 -0.70042295161E+03  0.85138615263E+03  0.25500000920E-02 0. -1.
</event>
<event>
 5   0  0.3993393E-05  0.1799501E+04  0.7818609E-02  0.8706565E-01
       -2   -1    0    0    0  501  0.00000000000E+00  0.00000000000E+00  0.79826055075E+03  0.79826055076E+03  0.25500000920E-02 0.  1.
        2   -1    0    0  501    0  0.00000000000E+00  0.00000000000E+00 -0.10141436703E+04  0.10141436703E+04  0.25500000920E-02 0. -1.
    10030    2    1    2    0    0  0.00000000000E+00  0.00000000000E+00 -0.21588311958E+03  0.18124042211E+04  0.17995009140E+04 0.  0.
        5    1    3    3  502    0  0.18126707359E+03 -0.56327017006E+03 -0.79059051407E+03  0.98751530995E+03  0.46999998093E+01 0.  1.
       -5    1    3    3    0  502 -0.18126707359E+03  0.56327017006E+03  0.57470739449E+03  0.82488891114E+03  0.46999998093E+01 0. -1.
</event>
<event>
 5   0  0.2001811E-05  0.1802291E+04  0.7818609E-02  0.8705082E-01
        1   -1    0    0  501    0  0.00000000000E+00  0.00000000000E+00  0.10882810266E+04  0.10882810266E+04  0.50400001928E-02 0. -1.
       -1   -1    0    0    0  501  0.00000000000E+00  0.00000000000E+00 -0.74618905040E+03  0.74618905041E+03  0.50400001928E-02 0.  1.
    10030    2    1    2    0    0  0.00000000000E+00  0.00000000000E+00  0.34209197622E+03  0.18344700770E+04  0.18022911927E+04 0.  0.
        2    1    3    3  502    0 -0.54985871773E+03  0.66499583149E+02  0.89457983449E+03  0.10521596287E+04  0.25500000920E-02 0. -1.
       -2    1    3    3    0  502  0.54985871773E+03 -0.66499583149E+02 -0.55248785827E+03  0.78231044833E+03  0.25500000920E-02 0.  1.
</event>
<event>
 5   0  0.4015729E-05  0.1806059E+04  0.7818609E-02  0.8703084E-01
       -2   -1    0    0    0  501  0.00000000000E+00  0.00000000000E+00  0.13311631239E+04  0.13311631239E+04  0.25500000920E-02 0.  1.
        2   -1    0    0  501    0  0.00000000000E+00  0.00000000000E+00 -0.61259392907E+03  0.61259392908E+03  0.25500000920E-02 0. -1.
    10030    2    1    2    0    0  0.00000000000E+00  0.00000000000E+00  0.71856919486E+03  0.19437570530E+04  0.18060591888E+04 0.  0.
        2    1    3    3  502    0 -0.49814581393E+03  0.35111213032E+03  0.10764475656E+04  0.12369997338E+04  0.25500000920E-02 0.  1.
       -2    1    3    3    0  502  0.49814581393E+03 -0.35111213032E+03 -0.35787837074E+03  0.70675731920E+03  0.25500000920E-02 0. -1.
</event>
<event>
 5   0  0.3983176E-05  0.1799450E+04  0.7818609E-02  0.8706592E-01
        2   -1    0    0  501    0  0.00000000000E+00  0.00000000000E+00  0.21104154859E+04  0.21104154859E+04  0.25500000920E-02 0. -1.
       -2   -1    0    0    0  501  0.00000000000E+00  0.00000000000E+00 -0.38357616182E+03  0.38357616183E+03  0.25500000920E-02 0.  1.
    10030    2    1    2    0    0  0.00000000000E+00  0.00000000000E+00  0.17268393241E+04  0.24939916478E+04  0.17994499959E+04 0.  0.
        3    1    3    3  502    0 -0.12350013581E+02  0.52069481252E+03 -0.15338830635E+03  0.54295818747E+03  0.10100000352E+00 0.  1.
       -3    1    3    3    0  502  0.12350013581E+02 -0.52069481252E+03  0.18802276305E+04  0.19510334603E+04  0.10100000352E+00 0. -1.
</event>
<event>
 5   0  0.1446750E-05  0.1798747E+04  0.7818609E-02  0.8706966E-01
       -3   -1    0    0    0  501  0.00000000000E+00  0.00000000000E+00  0.11403337997E+04  0.11403338042E+04  0.10100000352E+00 0. -1.
        3   -1    0    0  501    0  0.00000000000E+00  0.00000000000E+00 -0.70932948864E+03  0.70932949583E+03  0.10100000352E+00 0.  1.
    10030    2    1    2    0    0  0.00000000000E+00  0.00000000000E+00  0.43100431107E+03  0.18496633000E+04  0.17987466768E+04 0.  0.
        5    1    3    3  502    0  0.86822465123E+02 -0.19323627280E+03 -0.68329434232E+03  0.71539614607E+03  0.46999998093E+01 0.  1.
       -5    1    3    3    0  502 -0.86822465123E+02  0.19323627280E+03  0.11142986534E+04  0.11342671539E+04  0.46999998093E+01 0. -1.
</event>
<event>
 5   0  0.3984648E-05  0.1797383E+04  0.7818609E-02  0.8707692E-01
        2   -1    0    0  501    0  0.00000000000E+00  0.00000000000E+00  0.87324705628E+03  0.87324705628E+03  0.25500000920E-02 0.  1.
       -2   -1    0    0    0  501  0.00000000000E+00  0.00000000000E+00 -0.92487737738E+03  0.92487737739E+03  0.25500000920E-02 0. -1.
    10030    2    1    2    0    0  0.00000000000E+00  0.00000000000E+00 -0.51630321109E+02  0.17981244337E+04  0.17973830390E+04 0.  0.
        1    1    3    3  502    0 -0.47434116227E+02  0.63029778325E+02 -0.92140713614E+03  0.92477773486E+03  0.50400001928E-02 0. -1.
       -1    1    3    3    0  502  0.47434116227E+02 -0.63029778325E+02  0.86977681503E+03  0.87334669881E+03  0.50400001928E-02 0.  1.
</event>
<event>
 5   0  0.3909859E-05  0.1784710E+04  0.7818609E-02  0.8714473E-01
        2   -1    0    0  501    0  0.00000000000E+00  0.00000000000E+00  0.81343093721E+03  0.81343093721E+03  0.25500000920E-02 0.  1.
       -2   -1    0    0    0  501  0.00000000000E+00  0.00000000000E+00 -0.97893671448E+03  0.97893671448E+03  0.25500000920E-02 0. -1.
    10030    2    1    2    0    0  0.00000000000E+00  0.00000000000E+00 -0.16550577727E+03  0.17923676517E+04  0.17847099587E+04 0.  0.
        4    1    3    3  502    0  0.26205464368E+03 -0.21028362982E+03 -0.91298245235E+03  0.97284655134E+03  0.12699999809E+01 0. -1.
       -4    1    3    3    0  502 -0.26205464368E+03  0.21028362982E+03  0.74747667508E+03  0.81952110036E+03  0.12699999809E+01 0.  1.
</event>
<event>
 5   0  0.2054876E-05  0.1798312E+04  0.7818609E-02  0.8707198E-01
        1   -1    0    0  501    0  0.00000000000E+00  0.00000000000E+00  0.76644296782E+03  0.76644296783E+03  0.50400001928E-02 0.  1.
       -1   -1    0    0    0  501  0.00000000000E+00  0.00000000000E+00 -0.10548490838E+04  0.10548490838E+04  0.50400001928E-02 0. -1.
    10030    2    1    2    0    0  0.00000000000E+00  0.00000000000E+00 -0.28840611601E+03  0.18212920517E+04  0.17983121669E+04 0.  0.
        5    1    3    3  502    0 -0.17831140069E+03 -0.86086907538E+03 -0.33521066081E+03  0.94089255374E+03  0.46999998093E+01 0. -1.
       -5    1    3    3    0  502  0.17831140069E+03  0.86086907538E+03  0.46804544807E+02  0.88039949794E+03  0.46999998093E+01 0.  1.
</event>
<event>
 5   0  0.1906857E-05  0.1811599E+04  0.7818609E-02  0.8700156E-01
        1   -1    0    0  501    0  0.00000000000E+00  0.00000000000E+00  0.82788691126E+03  0.82788691127E+03  0.50400001928E-02 0. -1.
       -1   -1    0    0    0  501  0.00000000000E+00  0.00000000000E+00 -0.99104402817E+03  0.99104402818E+03  0.50400001928E-02 0.  1.
    10030    2    1    2    0    0  0.00000000000E+00  0.00000000000E+00 -0.16315711691E+03  0.18189309395E+04  0.18115986083E+04 0.  0.
        4    1    3    3  502    0 -0.50158054954E+03 -0.26569467506E+03 -0.79033510974E+03  0.97304054726E+03  0.12699999809E+01 0.  1.
       -4    1    3    3    0  502  0.50158054954E+03  0.26569467506E+03  0.62717799282E+03  0.84589039220E+03  0.12699999809E+01 0. -1.
</event>
<event>
 5   0  0.2054876E-05  0.1804456E+04  0.7818609E-02  0.8703934E-01
       -1   -1    0    0    0  501  0.00000000000E+00  0.00000000000E+00  0.69991634043E+03  0.69991634045E+03  0.50400001928E-02 0. -1.
        1   -1    0    0  501    0  0.00000000000E+00  0.00000000000E+00 -0.11630177031E+04  0.11630177031E+04  0.50400001928E-02 0.  1.
    10030    2    1    2    0    0  0.00000000000E+00  0.00000000000E+00 -0.46310136268E+03  0.18629340436E+04  0.18044557015E+04 0.  0.
        5    1    3    3  502    0  0.36692541972E+03 -0.78717862612E+03  0.20721592917E+02  0.86875538989E+03  0.46999998093E+01 0. -1.
       -5    1    3    3    0  502 -0.36692541972E+03  0.78717862612E+03 -0.48382295559E+03  0.99417865367E+03  0.46999998093E+01 0.  1.
</event>
<event>
 5   0  0.3983176E-05  0.1800070E+04  0.7818609E-02  0.8706262E-01
        2   -1    0    0  501    0  0.00000000000E+00  0.00000000000E+00  0.12605717274E+04  0.12605717274E+04  0.25500000920E-02 0.  1.
       -2   -1    0    0    0  501  0.00000000000E+00  0.00000000000E+00 -0.64261589748E+03  0.64261589748E+03  0.25500000920E-02 0. -1.
    10030    2    1    2    0    0  0.00000000000E+00  0.00000000000E+00  0.61795582992E+03  0.19031876249E+04  0.18000704786E+04 0.  0.
        3    1    3    3  502    0 -0.86974223828E+02 -0.18885865715E+03 -0.61687503616E+03  0.65097383083E+03  0.10100000352E+00 0. -1.
       -3    1    3    3    0  502  0.86974223828E+02  0.18885865715E+03  0.12348308661E+04  0.12522137940E+04  0.10100000352E+00 0.  1.
</event>
<event>
 5   0  0.4015729E-05  0.1800861E+04  0.7818609E-02  0.8705842E-01
       -2   -1    0    0    0  501  0.00000000000E+00  0.00000000000E+00  0.61712653437E+03  0.61712653437E+03  0.25500000920E-02 0.  1.
        2   -1    0    0  501    0  0.00000000000E+00  0.00000000000E+00 -0.13137903608E+04  0.13137903608E+04  0.25500000920E-02 0. -1.
    10030    2    1    2    0    0  0.00000000000E+00  0.00000000000E+00 -0.69666382645E+03  0.19309168952E+04  0.18008607856E+04 0.  0.
        2    1    3    3  502    0  0.84401359433E+03  0.30560113633E+03 -0.27233367661E+03  0.93803871635E+03  0.25500000920E-02 0.  1.
       -2    1    3    3    0  502 -0.84401359433E+03 -0.30560113633E+03 -0.42433014985E+03  0.99287817884E+03  0.25500000920E-02 0. -1.
</event>
<event>
 5   0  0.3993393E-05  0.1806240E+04  0.7818609E-02  0.8702988E-01
       -2   -1    0    0    0  501  0.00000000000E+00  0.00000000000E+00  0.17682854101E+04  0.17682854101E+04  0.25500000920E-02 0. -1.
        2   -1    0    0  501    0  0.00000000000E+00  0.00000000000E+00 -0.46125246202E+03  0.46125246203E+03  0.25500000920E-02 0.  1.
    10030    2    1    2    0    0  0.00000000000E+00  0.00000000000E+00  0.13070329481E+04  0.22295378722E+04  0.18062402930E+04 0.  0.
        5    1    3    3  502    0  0.75992995197E+03 -0.34871401746E+03  0.23218985392E+03  0.86777256014E+03  0.46999998093E+01 0.  1.
       -5    1    3    3    0  502 -0.75992995197E+03  0.34871401746E+03  0.10748430942E+04  0.13617653120E+04  0.46999998093E+01 0. -1.
</event>
<event>
 5   0  0.1906857E-05  0.1797925E+04  0.7818609E-02  0.8707404E-01
        1   -1    0    0  501    0  0.00000000000E+00  0.00000000000E+00  0.17777382419E+04  0.17777382419E+04  0.50400001928E-02 0. -1.
       -1   -1    0    0    0  501  0.00000000000E+00  0.00000000000E+00 -0.45458512384E+03  0.45458512386E+03  0.50400001928E-02 0.  1.
    10030    2    1    2    0    0  0.00000000000E+00  0.00000000000E+00  0.13231531181E+04  0.22323233658E+04  0.17979247580E+04 0.  0.
        4    1    3    3  502    0 -0.53736290794E+03  0.71475389271E+03  0.54710752869E+03  0.10483130653E+04  0.12699999809E+01 0.  1.
       -4    1    3    3    0  502  0.53736290794E+03 -0.71475389271E+03  0.77604558937E+03  0.11840103005E+04  0.12699999809E+01 0. -1.
</event>
<event>
 5   0  0.2038338E-05  0.1804348E+04  0.7818609E-02  0.8703991E-01
       -1   -1    0    0    0  501  0.00000000000E+00  0.00000000000E+00  0.42778482857E+03  0.42778482860E+03  0.50400001928E-02 0. -1.
        1   -1    0    0  501    0  0.00000000000E+00  0.00000000000E+00 -0.19026341731E+04  0.19026341731E+04  0.50400001928E-02 0.  1.
    10030    2    1    2    0    0  0.00000000000E+00  0.00000000000E+00 -0.14748493446E+04  0.23304190017E+04  0.18043481190E+04 0.  0.
        1    1    3    3  502    0  0.38141890621E+03 -0.77874578019E+03 -0.41584852898E+03  0.96169401124E+03  0.50400001928E-02 0. -1.
       -1    1    3    3    0  502 -0.38141890621E+03  0.77874578019E+03 -0.10590008156E+04  0.13687249905E+04  0.50400001928E-02 0.  1.
</event>
<event>
 5   0  0.4015729E-05  0.1804730E+04  0.7818609E-02  0.8703788E-01
       -2   -1    0    0    0  501  0.00000000000E+00  0.00000000000E+00  0.27132035477E+03  0.27132035478E+03  0.25500000920E-02 0. -1.
        2   -1    0    0  501    0  0.00000000000E+00  0.00000000000E+00 -0.30011100961E+04  0.30011100961E+04  0.25500000920E-02 0.  1.
    10030    2    1    2    0    0  0.00000000000E+00  0.00000000000E+00 -0.27297897414E+04  0.32724304509E+04  0.18047296263E+04 0.  0.
        2    1    3    3  502    0  0.25629331556E+03  0.41798991815E+03 -0.27384984496E+04  0.27820452178E+04  0.25500000920E-02 0.  1.
       -2    1    3    3    0  502 -0.25629331556E+03 -0.41798991815E+03  0.87087082427E+01  0.49038523313E+03  0.25500000920E-02 0. -1.
</event>
<event>
 5   0  0.1446750E-05  0.1799984E+04  0.7818609E-02  0.8706308E-01
        3   -1    0    0  501    0  0.00000000000E+00  0.00000000000E+00  0.54859251093E+03  0.54859252022E+03  0.10100000352E+00 0. -1.
       -3   -1    0    0    0  501  0.00000000000E+00  0.00000000000E+00 -0.14764796286E+04  0.14764796320E+04  0.10100000352E+00 0.  1.
    10030    2    1    2    0    0  0.00000000000E+00  0.00000000000E+00 -0.92788711766E+03  0.20250721523E+04  0.17999840885E+04 0.  0.
        3    1    3    3  502    0  0.55468666439E+03  0.70570420910E+03 -0.53763169998E+03  0.10462999481E+04  0.10100000352E+00 0.  1.
       -3    1    3    3    0  502 -0.55468666439E+03 -0.70570420910E+03 -0.39025541768E+03  0.97877220415E+03  0.10100000352E+00 0. -1.
</event>
<event>
 5   0  0.1906857E-05  0.1800174E+04  0.7818609E-02  0.8706207E-01
       -1   -1    0    0    0  501  0.00000000000E+00  0.00000000000E+00  0.96464360984E+03  0.96464360985E+03  0.50400001928E-02 0.  1.
        1   -1    0    0  501    0  0.00000000000E+00  0.00000000000E+00 -0.83985109803E+03  0.83985109804E+03  0.50400001928E-02 0. -1.
    10030    2    1    2    0    0  0.00000000000E+00  0.00000000000E+00  0.12479251181E+03  0.18044947079E+04  0.18001744304E+04 0.  0.
        4    1    3    3  502    0 -0.45881642600E+03 -0.18903945869E+03 -0.69034331738E+03  0.85019053068E+03  0.12699999809E+01 0. -1.
       -4    1    3    3    0  502  0.45881642600E+03  0.18903945869E+03  0.81513582919E+03  0.95430417721E+03  0.12699999809E+01 0.  1.
</event>
<event>
 5   0  0.3909859E-05  0.1801173E+04  0.7818609E-02  0.8705676E-01
       -2   -1    0    0    0  501  0.00000000000E+00  0.00000000000E+00  0.44251820079E+03  0.44251820080E+03  0.25500000920E-02 0.  1.
        2   -1    0    0  501    0  0.00000000000E+00  0.00000000000E+00 -0.18328202982E+04  0.18328202982E+04  0.25500000920E-02 0. -1.
    10030    2    1    2    0    0  0.00000000000E+00  0.00000000000E+00 -0.13903020974E+04  0.22753384990E+04  0.18011733295E+04 0.  0.
        4    1    3    3  502    0  0.62777039158E+03  0.38320484249E+03 -0.13516942989E+04  0.15388374529E+04  0.12699999809E+01 0. -1.
       -4    1    3    3    0  502 -0.62777039158E+03 -0.38320484249E+03 -0.38607798472E+02  0.73650104607E+03  0.12699999809E+01 0.  1.
</event>
<event>
 5   0  0.2054876E-05  0.1796188E+04  0.7818609E-02  0.8708329E-01
       -1   -1    0    0    0  501  0.00000000000E+00  0.00000000000E+00  0.56684408360E+03  0.56684408363E+03  0.50400001928E-02 0. -1.
        1   -1    0    0  501    0  0.00000000000E+00  0.00000000000E+00 -0.14229177495E+04  0.14229177496E+04  0.50400001928E-02 0.  1.
    10030    2    1    2    0    0  0.00000000000E+00  0.00000000000E+00 -0.85607366595E+03  0.19897618332E+04  0.17961876381E+04 0.  0.
        5    1    3    3  502    0 -0.53252324751E+03  0.69768199417E+03 -0.63883125760E+03  0.10855729546E+04  0.46999998093E+01 0.  1.
       -5    1    3    3    0  502  0.53252324751E+03 -0.69768199417E+03 -0.21724240834E+03  0.90418887856E+03  0.46999998093E+01 0. -1.
</event>
<event>
 5   0  0.3983176E-05  0.1795976E+04  0.7818609E-02  0.8708442E-01
        2   -1    0    0  501    0  0.00000000000E+00  0.00000000000E+00  0.22281950319E+04  0.22281950319E+04  0.25500000920E-02 0.  1.
       -2   -1    0    0    0  501  0.00000000000E+00  0.00000000000E+00 -0.36189931934E+03  0.36189931935E+03  0.25500000920E-02 0. -1.
    10030    2    1    2    0    0  0.00000000000E+00  0.00000000000E+00  0.18662957126E+04  0.25900943513E+04  0.17959757965E+04 0.  0.
        3    1    3    3  502    0 -0.16527202760E+03  0.86034851687E+03  0.64882595316E+03  0.10901786740E+04  0.10100000352E+00 0. -1.
       -3    1    3    3    0  502  0.16527202760E+03 -0.86034851687E+03  0.12174697594E+04  0.14999156773E+04  0.10100000352E+00 0.  1.
</event>
<event>
 5   0  0.3984648E-05  0.1800914E+04  0.7818609E-02  0.8705814E-01
       -2   -1    0    0    0  501  0.00000000000E+00  0.00000000000E+00  0.88441085340E+03  0.88441085341E+03  0.25500000920E-02 0.  1.
        2   -1    0    0  501    0  0.00000000000E+00  0.00000000000E+00 -0.91679433302E+03  0.91679433302E+03  0.25500000920E-02 0. -1.
    10030    2    1    2    0    0  0.00000000000E+00  0.00000000000E+00 -0.32383479617E+02  0.18012051864E+04  0.18009140551E+04 0.  0.
        1    1    3    3  502    0 -0.77101642118E+03  0.25247356362E+03  0.37452936618E+03  0.89357790271E+03  0.50400001928E-02 0. -1.
       -1    1    3    3    0  502  0.77101642118E+03 -0.25247356362E+03 -0.40691284579E+03  0.90762728372E+03  0.50400001928E-02 0.  1.
</event>
<event>
 5   0  0.1960300E-05  0.1799825E+04  0.7818609E-02  0.8706392E-01
       -1   -1    0    0    0  501  0.00000000000E+00  0.00000000000E+00  0.54924751022E+03  0.54924751024E+03  0.50400001928E-02 0. -1.
        1   -1    0    0  501    0  0.00000000000E+00  0.00000000000E+00 -0.14744588618E+04  0.14744588618E+04  0.50400001928E-02 0.  1.
    10030    2    1    2    0    0  0.00000000000E+00  0.00000000000E+00 -0.92521135160E+03  0.20237063721E+04  0.17998253902E+04 0.  0.
        3    1    3    3  502    0  0.58044300034E+03 -0.53665350988E+03  0.20923743172E+02  0.79079003505E+03  0.10100000352E+00 0. -1.
       -3    1    3    3    0  502 -0.58044300034E+03  0.53665350988E+03 -0.94613509477E+03  0.12329163370E+04  0.10100000352E+00 0.  1.
</event>
<event>
 5   0  0.1906857E-05  0.1801665E+04  0.7818609E-02  0.8705414E-01
       -1   -1    0    0    0  501  0.00000000000E+00  0.00000000000E+00  0.26704813396E+03  0.26704813401E+03  0.50400001928E-02 0.  1.
        1   -1    0    0  501    0  0.00000000000E+00  0.00000000000E+00 -0.30387760227E+04  0.30387760227E+04  0.50400001928E-02 0. -1.
    10030    2    1    2    0    0  0.00000000000E+00  0.00000000000E+00 -0.27717278887E+04  0.33058241567E+04  0.18016653035E+04 0.  0.
        4    1    3    3  502    0  0.65564627830E+03 -0.42229164486E+02 -0.25167202314E+04  0.26010647206E+04  0.12699999809E+01 0. -1.
       -4    1    3    3    0  502 -0.65564627830E+03  0.42229164486E+02 -0.25500765728E+03  0.70475943609E+03  0.12699999809E+01 0.  1.
</event>
<event>
 5   0  0.1906857E-05  0.1801465E+04  0.7818609E-02  0.8705521E-01
       -1   -1    0    0    0  501  0.00000000000E+00  0.00000000000E+00  0.66348068873E+03  0.66348068875E+03  0.50400001928E-02 0. -1.
        1   -1    0    0  501    0  0.00000000000E+00  0.00000000000E+00 -0.12228229867E+04  0.12228229867E+04  0.50400001928E-02 0.  1.
    10030    2    1    2    0    0  0.00000000000E+00  0.00000000000E+00 -0.55934229800E+03  0.18863036755E+04  0.18014654451E+04 0.  0.
        4    1    3    3  502    0  0.31227032591E+03  0.27439051956E+03 -0.11163738995E+04  0.11912578269E+04  0.12699999809E+01 0.  1.
       -4    1    3    3    0  502 -0.31227032591E+03 -0.27439051956E+03  0.55703160152E+03  0.69504584861E+03  0.12699999809E+01 0. -1.
</event>
<event>
 5   0  0.1906857E-05  0.1801704E+04  0.7818609E-02  0.8705394E-01
        1   -1    0    0  501    0  0.00000000000E+00  0.00000000000E+00  0.19233944414E+04  0.19233944415E+04  0.50400001928E-02 0. -1.
       -1   -1    0    0    0  501  0.00000000000E+00  0.00000000000E+00 -0.42192832433E+03  0.42192832436E+03  0.50400001928E-02 0.  1.
    10030    2    1    2    0    0  0.00000000000E+00  0.00000000000E+00  0.15014661171E+04  0.23453227658E+04  0.18017042973E+04 0.  0.
        4    1    3    3  502    0  0.41628622731E+03 -0.72576721002E+01  0.17906359118E+04  0.18384029695E+04  0.12699999809E+01 0. -1.
       -4    1    3    3    0  502 -0.41628622731E+03  0.72576721002E+01 -0.28916979465E+03  0.50691979631E+03  0.12699999809E+01 0.  1.
</event>
<event>
 5   0  0.2038338E-05  0.1800545E+04  0.7818609E-02  0.8706010E-01
        1   -1    0    0  501    0  0.00000000000E+00  0.00000000000E+00  0.18857270338E+04  0.18857270338E+04  0.50400001928E-02 0. -1.
       -1   -1    0    0    0  501  0.00000000000E+00  0.00000000000E+00 -0.42980287103E+03  0.42980287106E+03  0.50400001928E-02 0.  1.
    10030    2    1    2    0    0  0.00000000000E+00  0.00000000000E+00  0.14559241628E+04  0.23155299048E+04  0.18005453542E+04 0.  0.
        1    1    3    3  502    0 -0.96961930537E+02 -0.55417115214E+03  0.16318250616E+04  0.17260823600E+04  0.50400001928E-02 0. -1.
       -1    1    3    3    0  502  0.96961930537E+02  0.55417115214E+03 -0.17590089887E+03  0.58944754481E+03  0.50400001928E-02 0.  1.
</event>
<event>
 5   0  0.3993393E-05  0.1782686E+04  0.7818609E-02  0.8715561E-01
        2   -1    0    0  501    0  0.00000000000E+00  0.00000000000E+00  0.12695174360E+04  0.12695174360E+04  0.25500000920E-02 0.  1.
       -2   -1    0    0    0  501  0.00000000000E+00  0.00000000000E+00 -0.62582255001E+03  0.62582255002E+03  0.25500000920E-02 0. -1.
    10030    2    1    2    0    0  0.00000000000E+00  0.00000000000E+00  0.64369488595E+03  0.18953399860E+04  0.17826863314E+04 0.  0.
        5    1    3    3  502    0  0.52328724408E+03  0.63720571639E+03 -0.38086850890E+02  0.82542919928E+03  0.46999998093E+01 0. -1.
       -5    1    3    3    0  502 -0.52328724408E+03 -0.63720571639E+03  0.68178173684E+03  0.10699107867E+04  0.46999998093E+01 0.  1.
</event>
<event>
 5   0  0.4015729E-05  0.1800514E+04  0.7818609E-02  0.8706026E-01
        2   -1    0    0  501    0  0.00000000000E+00  0.00000000000E+00  0.13684399615E+04  0.13684399615E+04  0.25500000920E-02 0. -1.
       -2   -1    0    0    0  501  0.00000000000E+00  0.00000000000E+00 -0.59225288481E+03  0.59225288482E+03  0.25500000920E-02 0.  1.
    10030    2    1    2    0    0  0.00000000000E+00  0.00000000000E+00  0.77618707664E+03  0.19606928463E+04  0.18005138321E+04 0.  0.
        2    1    3    3  502    0 -0.29958030215E+03  0.81205568993E+03  0.11852359541E+03  0.87363072499E+03  0.25500000920E-02 0.  1.
       -2    1    3    3    0  502  0.29958030215E+03 -0.81205568993E+03  0.65766348122E+03  0.10870621213E+04  0.25500000920E-02 0. -1.
</event>
<event>
 5   0  0.2001811E-05  0.1794520E+04  0.7818609E-02  0.8709219E-01
        1   -1    0    0  501    0  0.00000000000E+00  0.00000000000E+00  0.58665709628E+03  0.58665709630E+03  0.50400001928E-02 0.  1.
       -1   -1    0    0    0  501  0.00000000000E+00  0.00000000000E+00 -0.13723095332E+04  0.13723095332E+04  0.50400001928E-02 0. -1.
    10030    2    1    2    0    0  0.00000000000E+00  0.00000000000E+00 -0.78565243695E+03  0.19589666295E+04  0.17945195747E+04 0.  0.
        2    1    3    3  502    0 -0.16575143991E+03  0.58793612842E+03  0.32461591413E+03  0.69174989892E+03  0.25500000920E-02 0.  1.
       -2    1    3    3    0  502  0.16575143991E+03 -0.58793612842E+03 -0.11102683511E+04  0.12672167306E+04  0.25500000920E-02 0. -1.
</event>
<event>
 5   0  0.2038338E-05  0.1802825E+04  0.7818609E-02  0.8704799E-01
        1   -1    0    0  501    0  0.00000000000E+00  0.00000000000E+00  0.11877449740E+04  0.11877449740E+04  0.50400001928E-02 0.  1.
       -1   -1    0    0    0  501  0.00000000000E+00  0.00000000000E+00 -0.68410702028E+03  0.68410702030E+03  0.50400001928E-02 0. -1.
    10030    2    1    2    0    0  0.00000000000E+00  0.00000000000E+00  0.50363795373E+03  0.18718519943E+04  0.18028251996E+04 0.  0.
        1    1    3    3  502    0 -0.39827239467E+03 -0.10503248696E+02  0.10913655899E+04  0.11618132679E+04  0.50400001928E-02 0.  1.
       -1    1    3    3    0  502  0.39827239467E+03  0.10503248696E+02 -0.58772763621E+03  0.71003872639E+03  0.50400001928E-02 0. -1.
</event>
<event>
 5   0  0.1960300E-05  0.1798528E+04  0.7818609E-02  0.8707083E-01
        1   -1    0    0  501    0  0.00000000000E+00  0.00000000000E+00  0.13716219816E+04  0.13716219816E+04  0.50400001928E-02 0.  1.
       -1   -1    0    0    0  501  0.00000000000E+00  0.00000000000E+00 -0.58957598757E+03  0.58957598760E+03  0.50400001928E-02 0. -1.
    10030    2    1    2    0    0  0.00000000000E+00  0.00000000000E+00  0.78204599406E+03  0.19611979692E+04  0.17985276027E+04 0.  0.
        3    1    3    3  502    0 -0.38865358653E+03 -0.80638414958E+03  0.29741995606E+03  0.94327389844E+03  0.10100000352E+00 0. -1.
       -3    1    3    3    0  502  0.38865358653E+03  0.80638414958E+03  0.48462603800E+03  0.10179240708E+04  0.10100000352E+00 0.  1.
</event>
<event>
 5   0  0.2038338E-05  0.1802568E+04  0.7818609E-02  0.8704935E-01
       -1   -1    0    0    0  501  0.00000000000E+00  0.00000000000E+00  0.10111121941E+04  0.10111121941E+04  0.50400001928E-02 0. -1.
        1   -1    0    0  501    0  0.00000000000E+00  0.00000000000E+00 -0.80338529917E+03  0.80338529918E+03  0.50400001928E-02 0.  1.
    10030    2    1    2    0    0  0.00000000000E+00  0.00000000000E+00  0.20772689495E+03  0.18144974933E+04  0.18025678046E+04 0.  0.
        1    1    3    3  502    0 -0.78931651351E+01 -0.41859016248E+03 -0.69956204442E+03  0.81527116974E+03  0.50400001928E-02 0.  1.
       -1    1    3    3    0  502  0.78931651351E+01  0.41859016248E+03  0.90728893937E+03  0.99922632357E+03  0.50400001928E-02 0. -1.
</event>
<event>
 5   0  0.1906857E-05  0.1798381E+04  0.7818609E-02  0.8707161E-01
        1   -1    0    0  501    0  0.00000000000E+00  0.00000000000E+00  0.88663472945E+03  0.88663472947E+03  0.50400001928E-02 0. -1.
       -1   -1    0    0    0  501  0.00000000000E+00  0.00000000000E+00 -0.91192357015E+03  0.91192357017E+03  0.50400001928E-02 0.  1.
    10030    2    1    2    0    0  0.00000000000E+00  0.00000000000E+00 -0.25288840704E+02  0.17985582996E+04  0.17983805025E+04 0.  0.
        4    1    3    3  502    0 -0.86262280117E+03  0.22348731173E+03  0.10768713029E+03  0.89758721388E+03  0.12699999809E+01 0. -1.
       -4    1    3    3    0  502  0.86262280117E+03 -0.22348731173E+03 -0.13297597099E+03  0.90097108575E+03  0.12699999809E+01 0.  1.
</event>
<event>
 5   0  0.1906857E-05  0.1798275E+04  0.7818609E-02  0.8707217E-01
       -1   -1    0    0    0  501  0.00000000000E+00  0.00000000000E+00  0.15080496866E+04  0.15080496866E+04  0.50400001928E-02 0. -1.
        1   -1    0    0  501    0  0.00000000000E+00  0.00000000000E+00 -0.53608847325E+03  0.53608847327E+03  0.50400001928E-02 0.  1.
    10030    2    1    2    0    0  0.00000000000E+00  0.00000000000E+00  0.97196121333E+03  0.20441381599E+04  0.17982747889E+04 0.  0.
        4    1    3    3  502    0 -0.11038417535E+03 -0.38620743806E+03  0.14003922886E+04  0.14568599885E+04  0.12699999809E+01 0. -1.
       -4    1    3    3    0  502  0.11038417535E+03  0.38620743806E+03 -0.42843107525E+03  0.58727817133E+03  0.12699999809E+01 0.  1.
</event>
<event>
 5   0  0.1960300E-05  0.1805964E+04  0.7818609E-02  0.8703134E-01
       -1   -1    0    0    0  501  0.00000000000E+00  0.00000000000E+00  0.92849759389E+03  0.92849759391E+03  0.50400001928E-02 0.  1.
        1   -1    0    0  501    0  0.00000000000E+00  0.00000000000E+00 -0.87816743890E+03  0.87816743892E+03  0.50400001928E-02 0. -1.
    10030    2    1    2    0    0  0.00000000000E+00  0.00000000000E+00  0.50330154993E+02  0.18066650328E+04  0.18059638469E+04 0.  0.
        3    1    3    3  502    0  0.22907795863E+03 -0.38067058149E+03 -0.76126325184E+03  0.88142416097E+03  0.10100000352E+00 0. -1.
       -3    1    3    3    0  502 -0.22907795863E+03  0.38067058149E+03  0.81159340683E+03  0.92524087186E+03  0.10100000352E+00 0.  1.
</event>
<event>
 5   0  0.4015729E-05  0.1791932E+04  0.7818609E-02  0.8710602E-01
       -2   -1    0    0    0  501  0.00000000000E+00  0.00000000000E+00  0.95984098628E+03  0.95984098629E+03  0.25500000920E-02 0.  1.
        2   -1    0    0  501    0  0.00000000000E+00  0.00000000000E+00 -0.83634205840E+03  0.83634205840E+03  0.25500000920E-02 0. -1.
    10030    2    1    2    0    0  0.00000000000E+00  0.00000000000E+00  0.12349892788E+03  0.17961830447E+04  0.17919323494E+04 0.  0.
        2    1    3    3  502    0 -0.62307137107E+03  0.30906161335E+03  0.62790639686E+03  0.93701838697E+03  0.25500000920E-02 0.  1.
       -2    1    3    3    0  502  0.62307137107E+03 -0.30906161335E+03 -0.50440746898E+03  0.85916465772E+03  0.25500000920E-02 0. -1.
</event>
<event>
 5   0  0.2054876E-05  0.1799996E+04  0.7818609E-02  0.8706302E-01
       -1   -1    0    0    0  501  0.00000000000E+00  0.00000000000E+00  0.35015556018E+03  0.35015556022E+03  0.50400001928E-02 0.  1.
        1   -1    0    0  501    0  0.00000000000E+00  0.00000000000E+00 -0.23132468099E+04  0.23132468099E+04  0.50400001928E-02 0. -1.
    10030    2    1    2    0    0  0.00000000000E+00  0.00000000000E+00 -0.19630912497E+04  0.26634023701E+04  0.17999958140E+04 0.  0.
        5    1    3    3  502    0 -0.48880945751E+03  0.56231502716E+03 -0.17285104731E+04  0.18822601896E+04  0.46999998093E+01 0. -1.
       -5    1    3    3    0  502  0.48880945751E+03 -0.56231502716E+03 -0.23458077661E+03  0.78114218057E+03  0.46999998093E+01 0.  1.
</event>
<event>
 5   0  0.3984648E-05  0.1809408E+04  0.7818609E-02  0.8701312E-01
        2   -1    0    0  501    0  0.00000000000E+00  0.00000000000E+00  0.49782530580E+03  0.49782530581E+03  0.25500000920E-02 0. -1.
       -2   -1    0    0    0  501  0.00000000000E+00  0.00000000000E+00 -0.16441296907E+04  0.16441296907E+04  0.25500000920E-02 0.  1.
    10030    2    1    2    0    0  0.00000000000E+00  0.00000000000E+00 -0.11463043849E+04  0.21419549965E+04  0.18094080425E+04 0.  0.
        1    1    3    3  502    0  0.32059910783E+03 -0.84598274128E+03 -0.57828217744E+03  0.10737228987E+04  0.50400001928E-02 0. -1.
       -1    1    3    3    0  502 -0.32059910783E+03  0.84598274128E+03 -0.56802220742E+03  0.10682320977E+04  0.50400001928E-02 0.  1.
</event>
<event>
 5   0  0.1960300E-05  0.1799062E+04  0.7818609E-02  0.8706799E-01
       -1   -1    0    0    0  501  0.00000000000E+00  0.00000000000E+00  0.60368152427E+03  0.60368152429E+03  0.50400001928E-02 0.  1.
        1   -1    0    0  501    0  0.00000000000E+00  0.00000000000E+00 -0.13403688782E+04  0.13403688782E+04  0.50400001928E-02 0. -1.
    10030    2    1    2    0    0  0.00000000000E+00  0.00000000000E+00 -0.73668735393E+03  0.19440504025E+04  0.17990618972E+04 0.  0.
        3    1    3    3  502    0 -0.65766425014E+03  0.57594077465E+03 -0.13930454482E+03  0.88523206461E+03  0.10100000352E+00 0.  1.
       -3    1    3    3    0  502  0.65766425014E+03 -0.57594077465E+03 -0.59738280911E+03  0.10588183379E+04  0.10100000352E+00 0. -1.
</event>
<event>
 5   0  0.3984648E-05  0.1790194E+04  0.7818609E-02  0.8711532E-01
        2   -1    0    0  501    0  0.00000000000E+00  0.00000000000E+00  0.16027215970E+04  0.16027215970E+04  0.25500000920E-02 0. -1.
       -2   -1    0    0    0  501  0.00000000000E+00  0.00000000000E+00 -0.49989893303E+03  0.49989893303E+03  0.25500000920E-02 0.  1.
    10030    2    1    2    0    0  0.00000000000E+00  0.00000000000E+00  0.11028226640E+04  0.21026205301E+04  0.17901941976E+04 0.  0.
        1    1    3    3  502    0  0.59020804751E+03  0.41840657897E+03  0.11704509480E+04  0.13759960125E+04  0.50400001928E-02 0. -1.
       -1    1    3    3    0  502 -0.59020804751E+03 -0.41840657897E+03 -0.67628284040E+02  0.72662451754E+03  0.50400001928E-02 0.  1.
</event>
<event>
 5   0  0.2038338E-05  0.1800819E+04  0.7818609E-02  0.8705864E-01
       -1   -1    0    0    0  501  0.00000000000E+00  0.00000000000E+00  0.99688294748E+03  0.99688294750E+03  0.50400001928E-02 0. -1.
        1   -1    0    0  501    0  0.00000000000E+00  0.00000000000E+00 -0.81327254684E+03  0.81327254686E+03  0.50400001928E-02 0.  1.
    10030    2    1    2    0    0  0.00000000000E+00  0.00000000000E+00  0.18361040064E+03  0.18101554944E+04  0.18008192954E+04 0.  0.
        1    1    3    3  502    0  0.37817447994E+03  0.65496104849E+03 -0.39934607277E+03  0.85525855633E+03  0.50400001928E-02 0. -1.
       -1    1    3    3    0  502 -0.37817447994E+03 -0.65496104849E+03  0.58295647341E+03  0.95489693802E+03  0.50400001928E-02 0.  1.
</event>
<event>
 5   0  0.3993393E-05  0.1798982E+04  0.7818609E-02  0.8706841E-01
        2   -1    0    0  501    0  0.00000000000E+00  0.00000000000E+00  0.16528563559E+04  0.16528563559E+04  0.25500000920E-02 0.  1.
       -2   -1    0    0    0  501  0.00000000000E+00  0.00000000000E+00 -0.48950663065E+03  0.48950663066E+03  0.25500000920E-02 0. -1.
    10030    2    1    2    0    0  0.00000000000E+00  0.00000000000E+00  0.11633497252E+04  0.21423629865E+04  0.17989820963E+04 0.  0.
        5    1    3    3  502    0  0.29729282421E+03  0.81147035312E+03  0.87866607321E+03  0.12324541839E+04  0.46999998093E+01 0.  1.
       -5    1    3    3    0  502 -0.29729282421E+03 -0.81147035312E+03  0.28468365202E+03  0.90990880260E+03  0.46999998093E+01 0. -1.
</event>
<event>
 5   0  0.2001811E-05  0.1803784E+04  0.7818609E-02  0.8704290E-01
       -1   -1    0    0    0  501  0.00000000000E+00  0.00000000000E+00  0.14632889292E+04  0.14632889292E+04  0.50400001928E-02 0.  1.
        1   -1    0    0  501    0  0.00000000000E+00  0.00000000000E+00 -0.55587715384E+03  0.55587715387E+03  0.50400001928E-02 0. -1.
    10030    2    1    2    0    0  0.00000000000E+00  0.00000000000E+00  0.90741177538E+03  0.20191660831E+04  0.18037836736E+04 0.  0.
        2    1    3    3  502    0  0.54470660501E+03 -0.91087567061E+02 -0.34446007605E+03  0.65088783551E+03  0.25500000920E-02 0. -1.
       -2    1    3    3    0  502 -0.54470660501E+03  0.91087567061E+02  0.12518718514E+04  0.13682782476E+04  0.25500000920E-02 0.  1.
</event>
<event>
 5   0  0.3983176E-05  0.1790649E+04  0.7818609E-02  0.8711288E-01
        2   -1    0    0  501    0  0.00000000000E+00  0.00000000000E+00  0.31453890200E+03  0.31453890201E+03  0.25500000920E-02 0.  1.
       -2   -1    0    0    0  501  0.00000000000E+00  0.00000000000E+00 -0.25485120996E+04  0.25485120996E+04  0.25500000920E-02 0. -1.
    10030    2    1    2    0    0  0.00000000000E+00  0.00000000000E+00 -0.22339731976E+04  0.28630510016E+04  0.17906492650E+04 0.  0.
        3    1    3    3  502    0  0.30504423697E+03  0.45938010740E+03  0.10796611582E+02  0.55154206240E+03  0.10100000352E+00 0.  1.
       -3    1    3    3    0  502 -0.30504423697E+03 -0.45938010740E+03 -0.22447698092E+04  0.23115089392E+04  0.10100000352E+00 0. -1.
</event>
<event>
 5   0  0.4015729E-05  0.1796853E+04  0.7818609E-02  0.8707975E-01
       -2   -1    0    0    0  501  0.00000000000E+00  0.00000000000E+00  0.82323927245E+03  0.82323927246E+03  0.25500000920E-02 0. -1.
        2   -1    0    0  501    0  0.00000000000E+00  0.00000000000E+00 -0.98048109152E+03  0.98048109152E+03  0.25500000920E-02 0.  1.
    10030    2    1    2    0    0  0.00000000000E+00  0.00000000000E+00 -0.15724181907E+03  0.18037203640E+04  0.17968534058E+04 0.  0.
        2    1    3    3  502    0  0.36532963381E+03  0.60813519970E+03  0.47473561114E+03  0.85362056146E+03  0.25500000920E-02 0. -1.
       -2    1    3    3    0  502 -0.36532963381E+03 -0.60813519970E+03 -0.63197743021E+03  0.95009980252E+03  0.25500000920E-02 0.  1.
</event>
<event>
 5   0  0.2001811E-05  0.1797364E+04  0.7818609E-02  0.8707702E-01
       -1   -1    0    0    0  501  0.00000000000E+00  0.00000000000E+00  0.11685744712E+04  0.11685744712E+04  0.50400001928E-02 0. -1.
        1   -1    0    0  501    0  0.00000000000E+00  0.00000000000E+00 -0.69112390028E+03  0.69112390030E+03  0.50400001928E-02 0.  1.
    10030    2    1    2    0    0  0.00000000000E+00  0.00000000000E+00  0.47745057089E+03  0.18596983715E+04  0.17973644553E+04 0.  0.
        2    1    3    3  502    0 -0.66023939995E+03  0.60911453629E+03  0.26596634307E+03  0.93684293199E+03  0.25500000920E-02 0. -1.
       -2    1    3    3    0  502  0.66023939995E+03 -0.60911453629E+03  0.21148422782E+03  0.92285543948E+03  0.25500000920E-02 0.  1.
</event>
<event>
 5   0  0.3993393E-05  0.1796610E+04  0.7818609E-02  0.8708104E-01
        2   -1    0    0  501    0  0.00000000000E+00  0.00000000000E+00  0.12547065333E+04  0.12547065333E+04  0.25500000920E-02 0.  1.
       -2   -1    0    0    0  501  0.00000000000E+00  0.00000000000E+00 -0.64314014648E+03  0.64314014648E+03  0.25500000920E-02 0. -1.
    10030    2    1    2    0    0  0.00000000000E+00  0.00000000000E+00  0.61156638683E+03  0.18978466798E+04  0.17966103012E+04 0.  0.
        5    1    3    3  502    0  0.48761787261E+03  0.73834340671E+03  0.14210752463E+03  0.89618012390E+03  0.46999998093E+01 0. -1.
       -5    1    3    3    0  502 -0.48761787261E+03 -0.73834340671E+03  0.46945886220E+03  0.10016665559E+04  0.46999998093E+01 0.  1.
</event>
<event>
 5   0  0.3993393E-05  0.1800353E+04  0.7818609E-02  0.8706112E-01
       -2   -1    0    0    0  501  0.00000000000E+00  0.00000000000E+00  0.34451634397E+03  0.34451634398E+03  0.25500000920E-02 0.  1.
        2   -1    0    0  501    0  0.00000000000E+00  0.00000000000E+00 -0.23520450386E+04  0.23520450386E+04  0.25500000920E-02 0. -1.
    10030    2    1    2    0    0  0.00000000000E+00  0.00000000000E+00 -0.20075286946E+04  0.26965613826E+04  0.18003532515E+04 0.  0.
        5    1    3    3  502    0 -0.66940511143E+03  0.53508253205E+03 -0.59117844985E+03  0.10411198629E+04  0.46999998093E+01 0.  1.
       -5    1    3    3    0  502  0.66940511143E+03 -0.53508253205E+03 -0.14163502448E+04  0.16554415197E+04  0.46999998093E+01 0. -1.
</event>
<event>
 5   0  0.3983176E-05  0.1801444E+04  0.7818609E-02  0.8705532E-01
       -2   -1    0    0    0  501  0.00000000000E+00  0.00000000000E+00  0.41293584705E+03  0.41293584706E+03  0.25500000920E-02 0. -1.
        2   -1    0    0  501    0  0.00000000000E+00  0.00000000000E+00 -0.19647113864E+04  0.19647113864E+04  0.25500000920E-02 0.  1.
    10030    2    1    2    0    0  0.00000000000E+00  0.00000000000E+00 -0.15517755394E+04  0.23776472335E+04  0.18014435995E+04 0.  0.
        3    1    3    3  502    0  0.47715332185E+03 -0.49786179045E+03 -0.15406738881E+04  0.16879625868E+04  0.10100000352E+00 0.  1.
       -3    1    3    3    0  502 -0.47715332185E+03  0.49786179045E+03 -0.11101651282E+02  0.68968464664E+03  0.10100000352E+00 0. -1.
</event>
<event>
 5   0  0.3984648E-05  0.1799606E+04  0.7818609E-02  0.8706509E-01
       -2   -1    0    0    0  501  0.00000000000E+00  0.00000000000E+00  0.34651644424E+03  0.34651644425E+03  0.25500000920E-02 0.  1.
        2   -1    0    0  501    0  0.00000000000E+00  0.00000000000E+00 -0.23365271182E+04  0.23365271182E+04  0.25500000920E-02 0. -1.
    10030    2    1    2    0    0  0.00000000000E+00  0.00000000000E+00 -0.19900106740E+04  0.26830435625E+04  0.17996055889E+04 0.  0.
        1    1    3    3  502    0 -0.20345556671E+03 -0.64897532062E+03 -0.11665778455E+03  0.69005229738E+03  0.50400001928E-02 0.  1.
       -1    1    3    3    0  502  0.20345556671E+03  0.64897532062E+03 -0.18733528895E+04  0.19929912651E+04  0.50400001928E-02 0. -1.
</event>
<event>
 5   0  0.2054876E-05  0.1799192E+04  0.7818609E-02  0.8706729E-01
        1   -1    0    0  501    0  0.00000000000E+00  0.00000000000E+00  0.24110363343E+03  0.24110363349E+03  0.50400001928E-02 0. -1.
       -1   -1    0    0    0  501  0.00000000000E+00  0.00000000000E+00 -0.33565349445E+04  0.33565349445E+04  0.50400001928E-02 0.  1.
    10030    2    1    2    0    0  0.00000000000E+00  0.00000000000E+00 -0.31154313111E+04  0.35976385780E+04  0.17991917863E+04 0.  0.
        5    1    3    3  502    0 -0.30567566618E+03  0.36728998150E+03 -0.33680716911E+02  0.47905743298E+03  0.46999998093E+01 0. -1.
       -5    1    3    3    0  502  0.30567566618E+03 -0.36728998150E+03 -0.30817505942E+04  0.31185811450E+04  0.46999998093E+01 0.  1.
</event>
<event>
 5   0  0.2038338E-05  0.1799981E+04  0.7818609E-02  0.8706309E-01
        1   -1    0    0  501    0  0.00000000000E+00  0.00000000000E+00  0.83114737152E+03  0.83114737153E+03  0.50400001928E-02 0.  1.
       -1   -1    0    0    0  501  0.00000000000E+00  0.00000000000E+00 -0.97453625587E+03  0.97453625589E+03  0.50400001928E-02 0. -1.
    10030    2    1    2    0    0  0.00000000000E+00  0.00000000000E+00 -0.14338888435E+03  0.18056836274E+04  0.17999813861E+04 0.  0.
        1    1    3    3  502    0  0.55473538287E+03 -0.42594949233E+03  0.49650871288E+03  0.85772094356E+03  0.50400001928E-02 0.  1.
       -1    1    3    3    0  502 -0.55473538287E+03  0.42594949233E+03 -0.63989759724E+03  0.94796268386E+03  0.50400001928E-02 0. -1.
</event>
<event>
 5   0  0.4015729E-05  0.1806754E+04  0.7818609E-02  0.8702716E-01
        2   -1    0    0  501    0  0.00000000000E+00  0.00000000000E+00  0.13891329722E+04  0.13891329722E+04  0.25500000920E-02 0.  1.
       -2   -1    0    0    0  501  0.00000000000E+00  0.00000000000E+00 -0.58748155383E+03  0.58748155383E+03  0.25500000920E-02 0. -1.
    10030    2    1    2    0    0  0.00000000000E+00  0.00000000000E+00  0.80165141834E+03  0.19766145260E+04  0.18067539921E+04 0.  0.
        2    1    3    3  502    0  0.59414077104E+03 -0.18071937075E+03 -0.31692369218E+03  0.69721113979E+03  0.25500000920E-02 0. -1.
       -2    1    3    3    0  502 -0.59414077104E+03  0.18071937075E+03  0.11185751105E+04  0.12794033862E+04  0.25500000920E-02 0.  1.
</event>
<event>
 5   0  0.2001811E-05  0.1796234E+04  0.7818609E-02  0.8708305E-01
        1   -1    0    0  501    0  0.00000000000E+00  0.00000000000E+00  0.10643107602E+04  0.10643107602E+04  0.50400001928E-02 0.  1.
       -1   -1    0    0    0  501  0.00000000000E+00  0.00000000000E+00 -0.75787499867E+03  0.75787499869E+03  0.50400001928E-02 0. -1.
    10030    2    1    2    0    0  0.00000000000E+00  0.00000000000E+00  0.30643576152E+03  0.18221857589E+04  0.17962344123E+04 0.  0.
        2    1    3    3  502    0 -0.17318960171E+03  0.72917470656E+03  0.65526608559E+03  0.99552199059E+03  0.25500000920E-02 0.  1.
       -2    1    3    3    0  502  0.17318960171E+03 -0.72917470656E+03 -0.34883032407E+03  0.82666376830E+03  0.25500000920E-02 0. -1.
</event>
<event>
 5   0  0.3984648E-05  0.1799844E+04  0.7818609E-02  0.8706382E-01
       -2   -1    0    0    0  501  0.00000000000E+00  0.00000000000E+00  0.42063039998E+03  0.42063039998E+03  0.25500000920E-02 0.  1.
        2   -1    0    0  501    0  0.00000000000E+00  0.00000000000E+00 -0.19253479356E+04  0.19253479356E+04  0.25500000920E-02 0. -1.
    10030    2    1    2    0    0  0.00000000000E+00  0.00000000000E+00 -0.15047175356E+04  0.23459783356E+04  0.17998442958E+04 0.  0.
        1    1    3    3  502    0  0.67702752065E+02  0.89377498251E+03 -0.64773847155E+03  0.11058853962E+04  0.50400001928E-02 0.  1.
       -1    1    3    3    0  502 -0.67702752065E+02 -0.89377498251E+03 -0.85697906406E+03  0.12400929394E+04  0.50400001928E-02 0. -1.
</event>
<event>
 5   0  0.3993393E-05  0.1802159E+04  0.7818609E-02  0.8705152E-01
       -2   -1    0    0    0  501  0.00000000000E+00  0.00000000000E+00  0.90566644296E+03  0.90566644296E+03  0.25500000920E-02 0.  1.
        2   -1    0    0  501    0  0.00000000000E+00  0.00000000000E+00 -0.89651620034E+03  0.89651620035E+03  0.25500000920E-02 0. -1.
    10030    2    1    2    0    0  0.00000000000E+00  0.00000000000E+00  0.91502426153E+01  0.18021826433E+04  0.18021594138E+04 0.  0.
        5    1    3    3  502    0 -0.19790882216E+03  0.39599741971E+03 -0.78025388473E+03  0.89710650034E+03  0.46999998093E+01 0. -1.
       -5    1    3    3    0  502  0.19790882216E+03 -0.39599741971E+03  0.78940412735E+03  0.90507614297E+03  0.46999998093E+01 0.  1.
</event>
<event>
 5   0  0.1960300E-05  0.1800561E+04  0.7818609E-02  0.8706001E-01
       -1   -1    0    0    0  501  0.00000000000E+00  0.00000000000E+00  0.13039512735E+04  0.13039512735E+04  0.50400001928E-02 0.  1.
        1   -1    0    0  501    0  0.00000000000E+00  0.00000000000E+00 -0.62157619381E+03  0.62157619383E+03  0.50400001928E-02 0. -1.
    10030    2    1    2    0    0  0.00000000000E+00  0.00000000000E+00  0.68237507969E+03  0.19255274673E+04  0.18005611009E+04 0.  0.
        3    1    3    3  502    0  0.49577981084E+03  0.31333417983E+03  0.10716219729E+04  0.12216176129E+04  0.10100000352E+00 0.  1.
       -3    1    3    3    0  502 -0.49577981084E+03 -0.31333417983E+03 -0.38924689323E+03  0.70390985444E+03  0.10100000352E+00 0. -1.
</event>
<event>
 5   0  0.2054876E-05  0.1795359E+04  0.7818609E-02  0.8708771E-01
       -1   -1    0    0    0  501  0.00000000000E+00  0.00000000000E+00  0.57036891940E+03  0.57036891942E+03  0.50400001928E-02 0.  1.
        1   -1    0    0  501    0  0.00000000000E+00  0.00000000000E+00 -0.14128203369E+04  0.14128203369E+04  0.50400001928E-02 0. -1.
    10030    2    1    2    0    0  0.00000000000E+00  0.00000000000E+00 -0.84245141746E+03  0.19831892563E+04  0.17953593611E+04 0.  0.
        5    1    3    3  502    0 -0.35966846536E+03 -0.57379506732E+03  0.22966109234E+03  0.71510033673E+03  0.46999998093E+01 0.  1.
       -5    1    3    3    0  502  0.35966846536E+03  0.57379506732E+03 -0.10721125098E+04  0.12680889196E+04  0.46999998093E+01 0. -1.
</event>
<event>
 5   0  0.3984648E-05  0.1796332E+04  0.7818609E-02  0.8708253E-01
       -2   -1    0    0    0  501  0.00000000000E+00  0.00000000000E+00  0.63069065747E+03  0.63069065747E+03  0.25500000920E-02 0.  1.
        2   -1    0    0  501    0  0.00000000000E+00  0.00000000000E+00 -0.12790767855E+04  0.12790767855E+04  0.25500000920E-02 0. -1.
    10030    2    1    2    0    0  0.00000000000E+00  0.00000000000E+00 -0.64838612801E+03  0.19097674430E+04  0.17963315716E+04 0.  0.
        1    1    3    3  502    0  0.51192991585E+03  0.53424586318E+03  0.21708522855E+03  0.77111404964E+03  0.50400001928E-02 0.  1.
       -1    1    3    3    0  502 -0.51192991585E+03 -0.53424586318E+03 -0.86547135656E+03  0.11386533933E+04  0.50400001928E-02 0. -1.
</event>
<event>
 5   0  0.3909859E-05  0.1802558E+04  0.7818609E-02  0.8704940E-01
       -2   -1    0    0    0  501  0.00000000000E+00  0.00000000000E+00  0.32599862073E+03  0.32599862074E+03  0.25500000920E-02 0.  1.
        2   -1    0    0  501    0  0.00000000000E+00  0.00000000000E+00 -0.24917405950E+04  0.24917405950E+04  0.25500000920E-02 0. -1.
    10030    2    1    2    0    0  0.00000000000E+00  0.00000000000E+00 -0.21657419743E+04  0.28177392158E+04  0.18025581790E+04 0.  0.
        4    1    3    3  502    0  0.29793488857E+02  0.69435224923E+03 -0.19798877722E+04  0.20983254994E+04  0.12699999809E+01 0. -1.
       -4    1    3    3    0  502 -0.29793488857E+02 -0.69435224923E+03 -0.18585420213E+03  0.71941371640E+03  0.12699999809E+01 0.  1.
</event>
<event>
 5   0  0.1446750E-05  0.1802244E+04  0.7818609E-02  0.8705107E-01
        4   -1    0    0  501    0  0.00000000000E+00  0.00000000000E+00  0.11224289836E+04  0.11224297021E+04  0.12699999809E+01 0. -1.
       -4   -1    0    0    0  501  0.00000000000E+00  0.00000000000E+00 -0.72344818517E+03  0.72344929990E+03  0.12699999809E+01 0.  1.
    10030    2    1    2    0    0  0.00000000000E+00  0.00000000000E+00  0.39898079845E+03  0.18458790020E+04  0.18022440491E+04 0.  0.
        5    1    3    3  502    0 -0.29087634219E+03  0.30720410899E+03 -0.61539543432E+03  0.74680455382E+03  0.46999998093E+01 0.  1.
       -5    1    3    3    0  502  0.29087634219E+03 -0.30720410899E+03  0.10143762328E+04  0.10990744482E+04  0.46999998093E+01 0. -1.
</event>
<event>
 5   0  0.1906857E-05  0.1800769E+04  0.7818609E-02  0.8705891E-01
       -1   -1    0    0    0  501  0.00000000000E+00  0.00000000000E+00  0.84100416802E+03  0.84100416803E+03  0.50400001928E-02 0. -1.
        1   -1    0    0  501    0  0.00000000000E+00  0.00000000000E+00 -0.96395768811E+03  0.96395768812E+03  0.50400001928E-02 0.  1.
    10030    2    1    2    0    0  0.00000000000E+00  0.00000000000E+00 -0.12295352009E+03  0.18049618562E+04  0.18007692062E+04 0.  0.
        4    1    3    3  502    0 -0.35859372641E+03  0.31225981279E+03  0.70489163149E+03  0.85027611771E+03  0.12699999809E+01 0. -1.
       -4    1    3    3    0  502  0.35859372641E+03 -0.31225981279E+03 -0.82784515158E+03  0.95468573845E+03  0.12699999809E+01 0.  1.
</event>
<event>
 5   0  0.3983176E-05  0.1797121E+04  0.7818609E-02  0.8707832E-01
        2   -1    0    0  501    0  0.00000000000E+00  0.00000000000E+00  0.14358242458E+04  0.14358242458E+04  0.25500000920E-02 0. -1.
       -2   -1    0    0    0  501  0.00000000000E+00  0.00000000000E+00 -0.56233271298E+03  0.56233271299E+03  0.25500000920E-02 0.  1.
    10030    2    1    2    0    0  0.00000000000E+00  0.00000000000E+00  0.87349153279E+03  0.19981569588E+04  0.17971209681E+04 0.  0.
        3    1    3    3  502    0  0.30239013031E+03  0.60035926673E+03 -0.22622817309E+03  0.70926034470E+03  0.10100000352E+00 0.  1.
       -3    1    3    3    0  502 -0.30239013031E+03 -0.60035926673E+03  0.10997197059E+04  0.12888966141E+04  0.10100000352E+00 0. -1.
</event>
<event>
 5   0  0.2038338E-05  0.1799306E+04  0.7818609E-02  0.8706669E-01
        1   -1    0    0  501    0  0.00000000000E+00  0.00000000000E+00  0.14562706337E+04  0.14562706337E+04  0.50400001928E-02 0. -1.
       -1   -1    0    0    0  501  0.00000000000E+00  0.00000000000E+00 -0.55578635273E+03  0.55578635276E+03  0.50400001928E-02 0.  1.
    10030    2    1    2    0    0  0.00000000000E+00  0.00000000000E+00  0.90048428100E+03  0.20120569865E+04  0.17993058041E+04 0.  0.
        1    1    3    3  502    0  0.59933042619E+03  0.56368164094E+03  0.85719786730E+03  0.11881591374E+04  0.50400001928E-02 0. -1.
       -1    1    3    3    0  502 -0.59933042619E+03 -0.56368164094E+03  0.43286413701E+02  0.82389784908E+03  0.50400001928E-02 0.  1.
</event>
<event>
 5   0  0.3993393E-05  0.1790121E+04  0.7818609E-02  0.8711571E-01
        2   -1    0    0  501    0  0.00000000000E+00  0.00000000000E+00  0.16747681264E+04  0.16747681264E+04  0.25500000920E-02 0.  1.
       -2   -1    0    0    0  501  0.00000000000E+00  0.00000000000E+00 -0.47835492682E+03  0.47835492683E+03  0.25500000920E-02 0. -1.
    10030    2    1    2    0    0  0.00000000000E+00  0.00000000000E+00  0.11964131996E+04  0.21531230532E+04  0.17901213194E+04 0.  0.
        5    1    3    3  502    0 -0.54296621082E+03 -0.71001266837E+03  0.54203276760E+03  0.10453477443E+04  0.46999998093E+01 0. -1.
       -5    1    3    3    0  502  0.54296621082E+03  0.71001266837E+03  0.65438043197E+03  0.11077753089E+04  0.46999998093E+01 0.  1.
</event>
<event>
 5   0  0.2001811E-05  0.1788968E+04  0.7818609E-02  0.8712188E-01
       -1   -1    0    0    0  501  0.00000000000E+00  0.00000000000E+00  0.11605729669E+04  0.11605729669E+04  0.50400001928E-02 0.  1.
        1   -1    0    0  501    0  0.00000000000E+00  0.00000000000E+00 -0.68940242211E+03  0.68940242213E+03  0.50400001928E-02 0. -1.
    10030    2    1    2    0    0  0.00000000000E+00  0.00000000000E+00  0.47117054481E+03  0.18499753891E+04  0.17889682104E+04 0.  0.
        2    1    3    3  502    0  0.81146254137E+03  0.13145793247E+03  0.60024245621E+03  0.10178622944E+04  0.25500000920E-02 0.  1.
       -2    1    3    3    0  502 -0.81146254137E+03 -0.13145793247E+03 -0.12907191140E+03  0.83211309470E+03  0.25500000920E-02 0. -1.
</event>
<event>
 5   0  0.3984648E-05  0.1795521E+04  0.7818609E-02  0.8708685E-01
       -2   -1    0    0    0  501  0.00000000000E+00  0.00000000000E+00  0.67618858514E+03  0.67618858515E+03  0.25500000920E-02 0. -1.
        2   -1    0    0  501    0  0.00000000000E+00  0.00000000000E+00 -0.11919363236E+04  0.11919363236E+04  0.25500000920E-02 0.  1.
    10030    2    1    2    0    0  0.00000000000E+00  0.00000000000E+00 -0.51574773846E+03  0.18681249088E+04  0.17955208005E+04 0.  0.
        1    1    3    3  502    0 -0.55982407943E+03  0.11314532071E+03 -0.97853567296E+03  0.11330211502E+04  0.50400001928E-02 0.  1.
       -1    1    3    3    0  502  0.55982407943E+03 -0.11314532071E+03  0.46278793450E+03  0.73510375856E+03  0.50400001928E-02 0. -1.
</event>
<event>
 5   0  0.4015729E-05  0.1799784E+04  0.7818609E-02  0.8706414E-01
       -2   -1    0    0    0  501  0.00000000000E+00  0.00000000000E+00  0.36262375680E+03  0.36262375680E+03  0.25500000920E-02 0. -1.
        2   -1    0    0  501    0  0.00000000000E+00  0.00000000000E+00 -0.22331853460E+04  0.22331853460E+04  0.25500000920E-02 0.  1.
    10030    2    1    2    0    0  0.00000000000E+00  0.00000000000E+00 -0.18705615892E+04  0.25958091028E+04  0.17997844980E+04 0.  0.
        2    1    3    3  502    0  0.74320309589E+03 -0.50589312727E+03 -0.87891401629E+03  0.12572861830E+04  0.25500000920E-02 0. -1.
       -2    1    3    3    0  502 -0.74320309589E+03  0.50589312727E+03 -0.99164757292E+03  0.13385229198E+04  0.25500000920E-02 0.  1.
</event>
<event>
 5   0  0.1446750E-05  0.1832990E+04  0.7818609E-02  0.8688950E-01
        3   -1    0    0  501    0  0.00000000000E+00  0.00000000000E+00  0.80781522128E+03  0.80781522759E+03  0.10100000352E+00 0. -1.
       -3   -1    0    0    0  501  0.00000000000E+00  0.00000000000E+00 -0.10397964614E+04  0.10397964663E+04  0.10100000352E+00 0.  1.
    10030    2    1    2    0    0  0.00000000000E+00  0.00000000000E+00 -0.23198124014E+03  0.18476116939E+04  0.18329903643E+04 0.  0.
        4    1    3    3  502    0  0.22081584482E+03 -0.48071080251E+02  0.77928985805E+03  0.81139679679E+03  0.12699999809E+01 0. -1.
       -4    1    3    3    0  502 -0.22081584482E+03  0.48071080251E+02 -0.10112710982E+04  0.10362148971E+04  0.12699999809E+01 0.  1.
</event>
<event>
 5   0  0.1906857E-05  0.1799285E+04  0.7818609E-02  0.8706680E-01
       -1   -1    0    0    0  501  0.00000000000E+00  0.00000000000E+00  0.29872845913E+03  0.29872845917E+03  0.50400001928E-02 0. -1.
        1   -1    0    0  501    0  0.00000000000E+00  0.00000000000E+00 -0.27093378858E+04  0.27093378858E+04  0.50400001928E-02 0.  1.
    10030    2    1    2    0    0  0.00000000000E+00  0.00000000000E+00 -0.24106094266E+04  0.30080663450E+04  0.17992846711E+04 0.  0.
        4    1    3    3  502    0  0.30577972000E+03 -0.76485683196E+03 -0.60056253575E+03  0.10194038370E+04  0.12699999809E+01 0. -1.
       -4    1    3    3    0  502 -0.30577972000E+03  0.76485683196E+03 -0.18100468909E+04  0.19886625080E+04  0.12699999809E+01 0.  1.
</event>
<event>
 5   0  0.1446750E-05  0.1797237E+04  0.7818609E-02  0.8707770E-01
        3   -1    0    0  501    0  0.00000000000E+00  0.00000000000E+00  0.48851788811E+03  0.48851789855E+03  0.10100000352E+00 0. -1.
       -3   -1    0    0    0  501  0.00000000000E+00  0.00000000000E+00 -0.16529908553E+04  0.16529908584E+04  0.10100000352E+00 0.  1.
    10030    2    1    2    0    0  0.00000000000E+00  0.00000000000E+00 -0.11644729672E+04  0.21415087570E+04  0.17972374537E+04 0.  0.
        5    1    3    3  502    0 -0.72562062962E+03  0.27129596737E+03 -0.39631310777E+02  0.77570582752E+03  0.46999998093E+01 0. -1.
       -5    1    3    3    0  502  0.72562062962E+03 -0.27129596737E+03 -0.11248416565E+04  0.13658029295E+04  0.46999998093E+01 0.  1.
</event>
<event>
 5   0  0.3909859E-05  0.1800464E+04  0.7818609E-02  0.8706053E-01
        2   -1    0    0  501    0  0.00000000000E+00  0.00000000000E+00  0.55773165748E+03  0.55773165749E+03  0.25500000920E-02 0. -1.
       -2   -1    0    0    0  501  0.00000000000E+00  0.00000000000E+00 -0.14530599071E+04  0.14530599071E+04  0.25500000920E-02 0.  1.
    10030    2    1    2    0    0  0.00000000000E+00  0.00000000000E+00 -0.89532824957E+03  0.20107915645E+04  0.18004638407E+04 0.  0.
        4    1    3    3  502    0 -0.41264965872E+03  0.51313463347E+03  0.23791062289E+03  0.70013567992E+03  0.12699999809E+01 0. -1.
       -4    1    3    3    0  502  0.41264965872E+03 -0.51313463347E+03 -0.11332388725E+04  0.13106558846E+04  0.12699999809E+01 0.  1.
</event>
<event>
 5   0  0.3993393E-05  0.1798171E+04  0.7818609E-02  0.8707273E-01
        2   -1    0    0  501    0  0.00000000000E+00  0.00000000000E+00  0.14820210508E+04  0.14820210508E+04  0.25500000920E-02 0. -1.
       -2   -1    0    0    0  501  0.00000000000E+00  0.00000000000E+00 -0.54544057418E+03  0.54544057419E+03  0.25500000920E-02 0.  1.
    10030    2    1    2    0    0  0.00000000000E+00  0.00000000000E+00  0.93658047660E+03  0.20274616250E+04  0.17981706403E+04 0.  0.
        5    1    3    3  502    0  0.47548851399E+03  0.22709654058E+03 -0.35307075276E+03  0.63430529884E+03  0.46999998093E+01 0.  1.
       -5    1    3    3    0  502 -0.47548851399E+03 -0.22709654058E+03  0.12896512294E+04  0.13931563261E+04  0.46999998093E+01 0. -1.
</event>
<event>
 5   0  0.2038338E-05  0.1797322E+04  0.7818609E-02  0.8707725E-01
        1   -1    0    0  501    0  0.00000000000E+00  0.00000000000E+00  0.18877102912E+04  0.18877102912E+04  0.50400001928E-02 0.  1.
       -1   -1    0    0    0  501  0.00000000000E+00  0.00000000000E+00 -0.42781539339E+03  0.42781539342E+03  0.50400001928E-02 0. -1.
    10030    2    1    2    0    0  0.00000000000E+00  0.00000000000E+00  0.14598948978E+04  0.23155256846E+04  0.17973219198E+04 0.  0.
        1    1    3    3  502    0 -0.78330334118E+03  0.43959693625E+03  0.69392213926E+03  0.11350495699E+04  0.50400001928E-02 0.  1.
       -1    1    3    3    0  502  0.78330334118E+03 -0.43959693625E+03  0.76597275856E+03  0.11804761148E+04  0.50400001928E-02 0. -1.
</event>
<event>
 5   0  0.3909859E-05  0.1798503E+04  0.7818609E-02  0.8707096E-01
        2   -1    0    0  501    0  0.00000000000E+00  0.00000000000E+00  0.23037367671E+04  0.23037367671E+04  0.25500000920E-02 0. -1.
       -2   -1    0    0    0  501  0.00000000000E+00  0.00000000000E+00 -0.35101793070E+03  0.35101793071E+03  0.25500000920E-02 0.  1.
    10030    2    1    2    0    0  0.00000000000E+00  0.00000000000E+00  0.19527188364E+04  0.26547546978E+04  0.17985026137E+04 0.  0.
        4    1    3    3  502    0  0.61863405875E+03 -0.30889160946E+03  0.18249891134E+04  0.19515914024E+04  0.12699999809E+01 0. -1.
       -4    1    3    3    0  502 -0.61863405875E+03  0.30889160946E+03  0.12772972306E+03  0.70316329546E+03  0.12699999809E+01 0.  1.
</event>
<event>
 5   0  0.1446750E-05  0.1800383E+04  0.7818609E-02  0.8706096E-01
       -3   -1    0    0    0  501  0.00000000000E+00  0.00000000000E+00  0.99533458381E+03  0.99533458893E+03  0.10100000352E+00 0.  1.
        3   -1    0    0  501    0  0.00000000000E+00  0.00000000000E+00 -0.81414323329E+03  0.81414323955E+03  0.10100000352E+00 0. -1.
    10030    2    1    2    0    0  0.00000000000E+00  0.00000000000E+00  0.18119135052E+03  0.18094778285E+04  0.18003832109E+04 0.  0.
        5    1    3    3  502    0  0.59220818769E+02 -0.27776493565E+02  0.99293054328E+03  0.99509386128E+03  0.46999998093E+01 0.  1.
       -5    1    3    3    0  502 -0.59220818769E+02  0.27776493565E+02 -0.81173919277E+03  0.81438396720E+03  0.46999998093E+01 0. -1.
</event>
<event>
 5   0  0.1960300E-05  0.1809593E+04  0.7818609E-02  0.8701215E-01
        1   -1    0    0  501    0  0.00000000000E+00  0.00000000000E+00  0.56833885385E+03  0.56833885388E+03  0.50400001928E-02 0. -1.
       -1   -1    0    0    0  501  0.00000000000E+00  0.00000000000E+00 -0.14404373901E+04  0.14404373901E+04  0.50400001928E-02 0.  1.
    10030    2    1    2    0    0  0.00000000000E+00  0.00000000000E+00 -0.87209853626E+03  0.20087762440E+04  0.18095928110E+04 0.  0.
        3    1    3    3  502    0 -0.29426166178E+03 -0.58254672241E+03  0.25959053463E+03  0.70238014298E+03  0.10100000352E+00 0. -1.
       -3    1    3    3    0  502  0.29426166178E+03  0.58254672241E+03 -0.11316890709E+04  0.13063961010E+04  0.10100000352E+00 0.  1.
</event>
<event>
 5   0  0.2001811E-05  0.1802960E+04  0.7818609E-02  0.8704727E-01
       -1   -1    0    0    0  501  0.00000000000E+00  0.00000000000E+00  0.65292115914E+03  0.65292115916E+03  0.50400001928E-02 0. -1.
        1   -1    0    0  501    0  0.00000000000E+00  0.00000000000E+00 -0.12446621207E+04  0.12446621207E+04  0.50400001928E-02 0.  1.
    10030    2    1    2    0    0  0.00000000000E+00  0.00000000000E+00 -0.59174096152E+03  0.18975832798E+04  0.18029600490E+04 0.  0.
        2    1    3    3  502    0  0.12535032064E+03 -0.56904479833E+03 -0.10198233360E+04  0.11745485609E+04  0.25500000920E-02 0.  1.
       -2    1    3    3    0  502 -0.12535032064E+03  0.56904479833E+03  0.42808237446E+03  0.72303471889E+03  0.25500000920E-02 0. -1.
</event>
<event>
 5   0  0.2001811E-05  0.1800985E+04  0.7818609E-02  0.8705776E-01
       -1   -1    0    0    0  501  0.00000000000E+00  0.00000000000E+00  0.95390661822E+03  0.95390661823E+03  0.50400001928E-02 0.  1.
        1   -1    0    0  501    0  0.00000000000E+00  0.00000000000E+00 -0.85006901821E+03  0.85006901823E+03  0.50400001928E-02 0. -1.
    10030    2    1    2    0    0  0.00000000000E+00  0.00000000000E+00  0.10383760001E+03  0.18039756365E+04  0.18009846889E+04 0.  0.
        2    1    3    3  502    0  0.11035244178E+03  0.87035040034E+03  0.25523120979E+03  0.91369056646E+03  0.25500000920E-02 0. -1.
       -2    1    3    3    0  502 -0.11035244178E+03 -0.87035040034E+03 -0.15139360978E+03  0.89028507000E+03  0.25500000920E-02 0.  1.
</event>
<event>
 5   0  0.2038338E-05  0.1800817E+04  0.7818609E-02  0.8705865E-01
        1   -1    0    0  501    0  0.00000000000E+00  0.00000000000E+00  0.15994134030E+04  0.15994134030E+04  0.50400001928E-02 0. -1.
       -1   -1    0    0    0  501  0.00000000000E+00  0.00000000000E+00 -0.50689553494E+03  0.50689553496E+03  0.50400001928E-02 0.  1.
    10030    2    1    2    0    0  0.00000000000E+00  0.00000000000E+00  0.10925178680E+04  0.21063089380E+04  0.18008170507E+04 0.  0.
        1    1    3    3  502    0  0.15133829731E+03 -0.10878460505E+03  0.15766042884E+04  0.15875825814E+04  0.50400001928E-02 0. -1.
       -1    1    3    3    0  502 -0.15133829731E+03  0.10878460505E+03 -0.48408642038E+03  0.51872635653E+03  0.50400001928E-02 0.  1.
</event>
<event>
 5   0  0.2054876E-05  0.1789659E+04  0.7818609E-02  0.8711818E-01
        1   -1    0    0  501    0  0.00000000000E+00  0.00000000000E+00  0.54278388831E+03  0.54278388834E+03  0.50400001928E-02 0.  1.
       -1   -1    0    0    0  501  0.00000000000E+00  0.00000000000E+00 -0.14752096329E+04  0.14752096329E+04  0.50400001928E-02 0. -1.
    10030    2    1    2    0    0  0.00000000000E+00  0.00000000000E+00 -0.93242574457E+03  0.20179935212E+04  0.17896592085E+04 0.  0.
        5    1    3    3  502    0 -0.53081871511E+03 -0.16030227887E+03 -0.12581219396E+04  0.13749029907E+04  0.46999998093E+01 0. -1.
       -5    1    3    3    0  502  0.53081871511E+03  0.16030227887E+03  0.32569619508E+03  0.64309053049E+03  0.46999998093E+01 0.  1.
</event>
<event>
 5   0  0.2001811E-05  0.1799179E+04  0.7818609E-02  0.8706736E-01
        1   -1    0    0  501    0  0.00000000000E+00  0.00000000000E+00  0.80868770660E+03  0.80868770661E+03  0.50400001928E-02 0.  1.
       -1   -1    0    0    0  501  0.00000000000E+00  0.00000000000E+00 -0.10007091875E+04  0.10007091875E+04  0.50400001928E-02 0. -1.
    10030    2    1    2    0    0  0.00000000000E+00  0.00000000000E+00 -0.19202148090E+03  0.18093968941E+04  0.17991789437E+04 0.  0.
        2    1    3    3  502    0 -0.76896746195E+03  0.24722838575E+03 -0.49427544226E+03  0.94696412027E+03  0.25500000920E-02 0. -1.
       -2    1    3    3    0  502  0.76896746195E+03 -0.24722838575E+03  0.30225396136E+03  0.86243277385E+03  0.25500000920E-02 0.  1.
</event>
<event>
 5   0  0.3909859E-05  0.1801173E+04  0.7818609E-02  0.8705676E-01
       -2   -1    0    0    0  501  0.00000000000E+00  0.00000000000E+00  0.40518765390E+03  0.40518765391E+03  0.25500000920E-02 0.  1.
        2   -1    0    0  501    0  0.00000000000E+00  0.00000000000E+00 -0.20016792735E+04  0.20016792735E+04  0.25500000920E-02 0. -1.
    10030    2    1    2    0    0  0.00000000000E+00  0.00000000000E+00 -0.15964916196E+04  0.24068669274E+04  0.18011726499E+04 0.  0.
        4    1    3    3  502    0 -0.30875766467E+03 -0.40175673759E+03  0.19664356824E+03  0.54351640042E+03  0.12699999809E+01 0.  1.
       -4    1    3    3    0  502  0.30875766467E+03  0.40175673759E+03 -0.17931351878E+04  0.18633505270E+04  0.12699999809E+01 0. -1.
</event>
<event>
 5   0  0.3909859E-05  0.1788021E+04  0.7818609E-02  0.8712696E-01
       -2   -1    0    0    0  501  0.00000000000E+00  0.00000000000E+00  0.10905394596E+04  0.10905394596E+04  0.25500000920E-02 0.  1.
        2   -1    0    0  501    0  0.00000000000E+00  0.00000000000E+00 -0.73289887033E+03  0.73289887033E+03  0.25500000920E-02 0. -1.
    10030    2    1    2    0    0  0.00000000000E+00  0.00000000000E+00  0.35764058925E+03  0.18234383299E+04  0.17880214070E+04 0.  0.
        4    1    3    3  502    0  0.66651446810E+03  0.15678563284E+03 -0.40739651547E+03  0.79674136617E+03  0.12699999809E+01 0. -1.
       -4    1    3    3    0  502 -0.66651446810E+03 -0.15678563284E+03  0.76503710472E+03  0.10266969637E+04  0.12699999809E+01 0.  1.
</event>
<event>
 5   0  0.3984648E-05  0.1783011E+04  0.7818609E-02  0.8715387E-01
       -2   -1    0    0    0  501  0.00000000000E+00  0.00000000000E+00  0.15425453799E+04  0.15425453799E+04  0.25500000920E-02 0. -1.
        2   -1    0    0  501    0  0.00000000000E+00  0.00000000000E+00 -0.51524054705E+03  0.51524054706E+03  0.25500000920E-02 0.  1.
    10030    2    1    2    0    0  0.00000000000E+00  0.00000000000E+00  0.10273048329E+04  0.20577859270E+04  0.17830108529E+04 0.  0.
        1    1    3    3  502    0 -0.52715994391E+03 -0.71329006422E+03  0.61753235656E+03  0.10807527625E+04  0.50400001928E-02 0. -1.
       -1    1    3    3    0  502  0.52715994391E+03  0.71329006422E+03  0.40977247633E+03  0.97703316452E+03  0.50400001928E-02 0.  1.
</event>
<event>
 5   0  0.1906857E-05  0.1816451E+04  0.7818609E-02  0.8697600E-01
        1   -1    0    0  501    0  0.00000000000E+00  0.00000000000E+00  0.63767045929E+03  0.63767045931E+03  0.50400001928E-02 0.  1.
       -1   -1    0    0    0  501  0.00000000000E+00  0.00000000000E+00 -0.12935733299E+04  0.12935733299E+04  0.50400001928E-02 0. -1.
    10030    2    1    2    0    0  0.00000000000E+00  0.00000000000E+00 -0.65590287056E+03  0.19312437892E+04  0.18164509345E+04 0.  0.
        4    1    3    3  502    0  0.23877166357E+03  0.82484707158E+03 -0.64242627544E+03  0.10724260959E+04  0.12699999809E+01 0. -1.
       -4    1    3    3    0  502 -0.23877166357E+03 -0.82484707158E+03 -0.13476595123E+02  0.85881769331E+03  0.12699999809E+01 0.  1.
</event>
<event>
 5   0  0.1906857E-05  0.1801505E+04  0.7818609E-02  0.8705500E-01
       -1   -1    0    0    0  501  0.00000000000E+00  0.00000000000E+00  0.65770478654E+03  0.65770478656E+03  0.50400001928E-02 0. -1.
        1   -1    0    0  501    0  0.00000000000E+00  0.00000000000E+00 -0.12336152210E+04  0.12336152210E+04  0.50400001928E-02 0.  1.
    10030    2    1    2    0    0  0.00000000000E+00  0.00000000000E+00 -0.57591043450E+03  0.18913200076E+04  0.18015045219E+04 0.  0.
        4    1    3    3  502    0 -0.54479937696E+03  0.48288180895E+03  0.26893547631E+03  0.77608575935E+03  0.12699999809E+01 0. -1.
       -4    1    3    3    0  502  0.54479937696E+03 -0.48288180895E+03 -0.84484591080E+03  0.11152342482E+04  0.12699999809E+01 0.  1.
</event>
<event>
 5   0  0.3993393E-05  0.1798103E+04  0.7818609E-02  0.8707309E-01
        2   -1    0    0  501    0  0.00000000000E+00  0.00000000000E+00  0.13348713427E+04  0.13348713427E+04  0.25500000920E-02 0.  1.
       -2   -1    0    0    0  501  0.00000000000E+00  0.00000000000E+00 -0.60552185363E+03  0.60552185363E+03  0.25500000920E-02 0. -1.
    10030    2    1    2    0    0  0.00000000000E+00  0.00000000000E+00  0.72934948907E+03  0.19403931963E+04  0.17981031892E+04 0.  0.
        5    1    3    3  502    0 -0.54272534496E+03  0.71331307425E+03  0.28909427360E+03  0.94178762520E+03  0.46999998093E+01 0. -1.
       -5    1    3    3    0  502  0.54272534496E+03 -0.71331307425E+03  0.44025521547E+03  0.99860557113E+03  0.46999998093E+01 0.  1.
</event>
<event>
 5   0  0.2054876E-05  0.1794798E+04  0.7818609E-02  0.8709071E-01
       -1   -1    0    0    0  501  0.00000000000E+00  0.00000000000E+00  0.84498767867E+03  0.84498767869E+03  0.50400001928E-02 0. -1.
        1   -1    0    0  501    0  0.00000000000E+00  0.00000000000E+00 -0.95306132746E+03  0.95306132748E+03  0.50400001928E-02 0.  1.
    10030    2    1    2    0    0  0.00000000000E+00  0.00000000000E+00 -0.10807364879E+03  0.17980490062E+04  0.17947981265E+04 0.  0.
        5    1    3    3  502    0 -0.12206586491E+03 -0.15301934670E+03  0.82332796133E+03  0.84628955905E+03  0.46999998093E+01 0. -1.
       -5    1    3    3    0  502  0.12206586491E+03  0.15301934670E+03 -0.93140161012E+03  0.95175944712E+03  0.46999998093E+01 0.  1.
</event>
<event>
 5   0  0.2054876E-05  0.1793271E+04  0.7818609E-02  0.8709886E-01
        1   -1    0    0  501    0  0.00000000000E+00  0.00000000000E+00  0.20985698488E+04  0.20985698488E+04  0.50400001928E-02 0. -1.
       -1   -1    0    0    0  501  0.00000000000E+00  0.00000000000E+00 -0.38309680111E+03  0.38309680114E+03  0.50400001928E-02 0.  1.
    10030    2    1    2    0    0  0.00000000000E+00  0.00000000000E+00  0.17154730477E+04  0.24816666500E+04  0.17932711965E+04 0.  0.
        5    1    3    3  502    0  0.83146534764E+03  0.85278809314E+02  0.40861311395E+03  0.93037297174E+03  0.46999998093E+01 0.  1.
       -5    1    3    3    0  502 -0.83146534764E+03 -0.85278809314E+02  0.13068599338E+04  0.15512936782E+04  0.46999998093E+01 0. -1.
</event>
<event>
 5   0  0.4015729E-05  0.1798887E+04  0.7818609E-02  0.8706892E-01
        2   -1    0    0  501    0  0.00000000000E+00  0.00000000000E+00  0.12089857624E+04  0.12089857624E+04  0.25500000920E-02 0. -1.
       -2   -1    0    0    0  501  0.00000000000E+00  0.00000000000E+00 -0.66915468695E+03  0.66915468695E+03  0.25500000920E-02 0.  1.
    10030    2    1    2    0    0  0.00000000000E+00  0.00000000000E+00  0.53983107549E+03  0.18781404494E+04  0.17988868663E+04 0.  0.
        2    1    3    3  502    0  0.13308461936E+03 -0.40063569896E+03 -0.55929056086E+03  0.70073276694E+03  0.25500000920E-02 0.  1.
       -2    1    3    3    0  502 -0.13308461936E+03  0.40063569896E+03  0.10991216364E+04  0.11774076825E+04  0.25500000920E-02 0. -1.
</event>
<event>
 5   0  0.1960300E-05  0.1811432E+04  0.7818609E-02  0.8700243E-01
       -1   -1    0    0    0  501  0.00000000000E+00  0.00000000000E+00  0.10244812588E+04  0.10244812588E+04  0.50400001928E-02 0.  1.
        1   -1    0    0  501    0  0.00000000000E+00  0.00000000000E+00 -0.80071911876E+03  0.80071911878E+03  0.50400001928E-02 0. -1.
    10030    2    1    2    0    0  0.00000000000E+00  0.00000000000E+00  0.22376214003E+03  0.18252003776E+04  0.18114322850E+04 0.  0.
        3    1    3    3  502    0  0.44133607039E+02 -0.90022368879E+03  0.20184155926E+03  0.92362897875E+03  0.10100000352E+00 0.  1.
       -3    1    3    3    0  502 -0.44133607039E+02  0.90022368879E+03  0.21920580766E+02  0.90157139883E+03  0.10100000352E+00 0. -1.
</event>
<event>
 5   0  0.3983176E-05  0.1798704E+04  0.7818609E-02  0.8706989E-01
        2   -1    0    0  501    0  0.00000000000E+00  0.00000000000E+00  0.77348185353E+03  0.77348185353E+03  0.25500000920E-02 0.  1.
       -2   -1    0    0    0  501  0.00000000000E+00  0.00000000000E+00 -0.10457055048E+04  0.10457055049E+04  0.25500000920E-02 0. -1.
    10030    2    1    2    0    0  0.00000000000E+00  0.00000000000E+00 -0.27222365132E+03  0.18191873584E+04  0.17987042360E+04 0.  0.
        3    1    3    3  502    0 -0.18243526986E+03 -0.79807246567E+03 -0.51268494222E+03  0.96594417454E+03  0.10100000352E+00 0. -1.
       -3    1    3    3    0  502  0.18243526986E+03  0.79807246567E+03  0.24046129090E+03  0.85324318384E+03  0.10100000352E+00 0.  1.
</event>
<event>
 5   0  0.3909859E-05  0.1801994E+04  0.7818609E-02  0.8705240E-01
       -2   -1    0    0    0  501  0.00000000000E+00  0.00000000000E+00  0.73013364972E+03  0.73013364972E+03  0.25500000920E-02 0. -1.
        2   -1    0    0  501    0  0.00000000000E+00  0.00000000000E+00 -0.11118449090E+04  0.11118449090E+04  0.25500000920E-02 0.  1.
    10030    2    1    2    0    0  0.00000000000E+00  0.00000000000E+00 -0.38171125929E+03  0.18419785587E+04  0.18019937640E+04 0.  0.
        4    1    3    3  502    0 -0.30798499336E+03 -0.42001975893E+03  0.56066021386E+03  0.76525344974E+03  0.12699999809E+01 0. -1.
       -4    1    3    3    0  502  0.30798499336E+03  0.42001975893E+03 -0.94237147315E+03  0.10767251090E+04  0.12699999809E+01 0.  1.
</event>
<event>
 5   0  0.3909859E-05  0.1745035E+04  0.7818609E-02  0.8736088E-01
        2   -1    0    0  501    0  0.00000000000E+00  0.00000000000E+00  0.50558450445E+03  0.50558450446E+03  0.25500000920E-02 0.  1.
       -2   -1    0    0    0  501  0.00000000000E+00  0.00000000000E+00 -0.15057560096E+04  0.15057560096E+04  0.25500000920E-02 0. -1.
    10030    2    1    2    0    0  0.00000000000E+00  0.00000000000E+00 -0.10001715052E+04  0.20113405141E+04  0.17450351354E+04 0.  0.
        4    1    3    3  502    0 -0.73955213877E+03 -0.86789637184E+02  0.24085203486E+02  0.74501779644E+03  0.12699999809E+01 0.  1.
       -4    1    3    3    0  502  0.73955213877E+03  0.86789637184E+02 -0.10242567087E+04  0.12663227176E+04  0.12699999809E+01 0. -1.
</event>
<event>
 5   0  0.2001811E-05  0.1799004E+04  0.7818609E-02  0.8706829E-01
       -1   -1    0    0    0  501  0.00000000000E+00  0.00000000000E+00  0.29841990872E+03  0.29841990877E+03  0.50400001928E-02 0. -1.
        1   -1    0    0  501    0  0.00000000000E+00  0.00000000000E+00 -0.27112940056E+04  0.27112940056E+04  0.50400001928E-02 0.  1.
    10030    2    1    2    0    0  0.00000000000E+00  0.00000000000E+00 -0.24128740969E+04  0.30097139144E+04  0.17990042910E+04 0.  0.
        2    1    3    3  502    0 -0.53907283310E+02 -0.83410277988E+03 -0.17624904544E+04  0.19506424696E+04  0.25500000920E-02 0.  1.
       -2    1    3    3    0  502  0.53907283310E+02  0.83410277988E+03 -0.65038364249E+03  0.10590714447E+04  0.25500000920E-02 0. -1.
</event>
<event>
 5   0  0.3984648E-05  0.1791007E+04  0.7818609E-02  0.8711097E-01
        2   -1    0    0  501    0  0.00000000000E+00  0.00000000000E+00  0.10479063286E+04  0.10479063286E+04  0.25500000920E-02 0.  1.
       -2   -1    0    0    0  501  0.00000000000E+00  0.00000000000E+00 -0.76526511453E+03  0.76526511453E+03  0.25500000920E-02 0. -1.
    10030    2    1    2    0    0  0.00000000000E+00  0.00000000000E+00  0.28264121409E+03  0.18131714432E+04  0.17910065958E+04 0.  0.
        1    1    3    3  502    0 -0.10284330853E+03 -0.57612199957E+02 -0.75737605428E+03  0.76649487886E+03  0.50400001928E-02 0. -1.
       -1    1    3    3    0  502  0.10284330853E+03  0.57612199957E+02  0.10400172684E+04  0.10466765643E+04  0.50400001928E-02 0.  1.
</event>
<event>
 5   0  0.2038338E-05  0.1798996E+04  0.7818609E-02  0.8706834E-01
       -1   -1    0    0    0  501  0.00000000000E+00  0.00000000000E+00  0.46070171633E+03  0.46070171636E+03  0.50400001928E-02 0.  1.
        1   -1    0    0  501    0  0.00000000000E+00  0.00000000000E+00 -0.17562267342E+04  0.17562267342E+04  0.50400001928E-02 0. -1.
    10030    2    1    2    0    0  0.00000000000E+00  0.00000000000E+00 -0.12955250179E+04  0.22169284506E+04  0.17989960208E+04 0.  0.
        1    1    3    3  502    0  0.66512939178E+02 -0.76569191763E+03 -0.12236484061E+04  0.14449994829E+04  0.50400001928E-02 0. -1.
       -1    1    3    3    0  502 -0.66512939178E+02  0.76569191763E+03 -0.71876611783E+02  0.77192896768E+03  0.50400001928E-02 0.  1.
</event>
<event>
 5   0  0.2054876E-05  0.1795876E+04  0.7818609E-02  0.8708496E-01
        1   -1    0    0  501    0  0.00000000000E+00  0.00000000000E+00  0.16686119386E+04  0.16686119386E+04  0.50400001928E-02 0.  1.
       -1   -1    0    0    0  501  0.00000000000E+00  0.00000000000E+00 -0.48321172237E+03  0.48321172239E+03  0.50400001928E-02 0. -1.
    10030    2    1    2    0    0  0.00000000000E+00  0.00000000000E+00  0.11854002162E+04  0.21518236610E+04  0.17958762194E+04 0.  0.
        5    1    3    3  502    0 -0.51984662662E+03 -0.55008896191E+03  0.11716098071E+04  0.13948225734E+04  0.46999998093E+01 0.  1.
       -5    1    3    3    0  502  0.51984662662E+03  0.55008896191E+03  0.13790409148E+02  0.75700108759E+03  0.46999998093E+01 0. -1.
</event>
<event>
 5   0  0.3984648E-05  0.1802326E+04  0.7818609E-02  0.8705063E-01
       -2   -1    0    0    0  501  0.00000000000E+00  0.00000000000E+00  0.11074179243E+04  0.11074179244E+04  0.25500000920E-02 0. -1.
        2   -1    0    0  501    0  0.00000000000E+00  0.00000000000E+00 -0.73332314303E+03  0.73332314303E+03  0.25500000920E-02 0.  1.
    10030    2    1    2    0    0  0.00000000000E+00  0.00000000000E+00  0.37409478132E+03  0.18407410674E+04  0.18023264887E+04 0.  0.
        1    1    3    3  502    0  0.63810708774E+03 -0.60041938759E+03  0.40227847019E+03  0.96411205989E+03  0.50400001928E-02 0. -1.
       -1    1    3    3    0  502 -0.63810708774E+03  0.60041938759E+03 -0.28183688867E+02  0.87662900749E+03  0.50400001928E-02 0.  1.
</event>
<event>
 5   0  0.2054876E-05  0.1802966E+04  0.7818609E-02  0.8704724E-01
        1   -1    0    0  501    0  0.00000000000E+00  0.00000000000E+00  0.20877142680E+04  0.20877142680E+04  0.50400001928E-02 0. -1.
       -1   -1    0    0    0  501  0.00000000000E+00  0.00000000000E+00 -0.38926395800E+03  0.38926395803E+03  0.50400001928E-02 0.  1.
    10030    2    1    2    0    0  0.00000000000E+00  0.00000000000E+00  0.16984503100E+04  0.24769782260E+04  0.18029663548E+04 0.  0.
        5    1    3    3  502    0  0.67714503832E+03  0.58891948165E+03  0.96659175956E+03  0.13189667465E+04  0.46999998093E+01 0. -1.
       -5    1    3    3    0  502 -0.67714503832E+03 -0.58891948165E+03  0.73185855042E+03  0.11580114795E+04  0.46999998093E+01 0.  1.
</event>
<event>
 5   0  0.1960300E-05  0.1798085E+04  0.7818609E-02  0.8707319E-01
       -1   -1    0    0    0  501  0.00000000000E+00  0.00000000000E+00  0.96853458511E+03  0.96853458512E+03  0.50400001928E-02 0.  1.
        1   -1    0    0  501    0  0.00000000000E+00  0.00000000000E+00 -0.83453639428E+03  0.83453639429E+03  0.50400001928E-02 0. -1.
    10030    2    1    2    0    0  0.00000000000E+00  0.00000000000E+00  0.13399819083E+03  0.18030709794E+04  0.17980849373E+04 0.  0.
        3    1    3    3  502    0  0.76009615478E+02  0.31906546083E+03  0.90639681848E+03  0.96391671461E+03  0.10100000352E+00 0.  1.
       -3    1    3    3    0  502 -0.76009615478E+02 -0.31906546083E+03 -0.77239862766E+03  0.83915426481E+03  0.10100000352E+00 0. -1.
</event>
<event>
 5   0  0.1906857E-05  0.1798301E+04  0.7818609E-02  0.8707203E-01
       -1   -1    0    0    0  501  0.00000000000E+00  0.00000000000E+00  0.71534331600E+03  0.71534331601E+03  0.50400001928E-02 0. -1.
        1   -1    0    0  501    0  0.00000000000E+00  0.00000000000E+00 -0.11301870354E+04  0.11301870354E+04  0.50400001928E-02 0.  1.
    10030    2    1    2    0    0  0.00000000000E+00  0.00000000000E+00 -0.41484371936E+03  0.18455303514E+04  0.17983011334E+04 0.  0.
        4    1    3    3  502    0 -0.31639660851E+03 -0.55070880469E+03  0.44575509108E+03  0.77594214704E+03  0.12699999809E+01 0. -1.
       -4    1    3    3    0  502  0.31639660851E+03  0.55070880469E+03 -0.86059881044E+03  0.10695882043E+04  0.12699999809E+01 0.  1.
</event>
<event>
 5   0  0.3993393E-05  0.1807130E+04  0.7818609E-02  0.8702517E-01
        2   -1    0    0  501    0  0.00000000000E+00  0.00000000000E+00  0.11956066105E+04  0.11956066105E+04  0.25500000920E-02 0.  1.
       -2   -1    0    0    0  501  0.00000000000E+00  0.00000000000E+00 -0.68285799002E+03  0.68285799003E+03  0.25500000920E-02 0. -1.
    10030    2    1    2    0    0  0.00000000000E+00  0.00000000000E+00  0.51274862052E+03  0.18784646006E+04  0.18071297983E+04 0.  0.
        5    1    3    3  502    0 -0.24648088448E+03 -0.65067236666E+03  0.85556605655E+03  0.11027886118E+04  0.46999998093E+01 0.  1.
       -5    1    3    3    0  502  0.24648088448E+03  0.65067236666E+03 -0.34281743602E+03  0.77567598880E+03  0.46999998093E+01 0. -1.
</event>
<event>
 5   0  0.3984648E-05  0.1803943E+04  0.7818609E-02  0.8704205E-01
       -2   -1    0    0    0  501  0.00000000000E+00  0.00000000000E+00  0.44409160343E+03  0.44409160344E+03  0.25500000920E-02 0.  1.
        2   -1    0    0  501    0  0.00000000000E+00  0.00000000000E+00 -0.18319483020E+04  0.18319483020E+04  0.25500000920E-02 0. -1.
    10030    2    1    2    0    0  0.00000000000E+00  0.00000000000E+00 -0.13878566985E+04  0.22760399054E+04  0.18039433016E+04 0.  0.
        1    1    3    3  502    0 -0.51590985232E+03 -0.73985796720E+03 -0.69426562967E+03  0.11382256156E+04  0.50400001928E-02 0.  1.
       -1    1    3    3    0  502  0.51590985232E+03  0.73985796720E+03 -0.69359106888E+03  0.11378142899E+04  0.50400001928E-02 0. -1.
</event>
<event>
 5   0  0.2001811E-05  0.1796922E+04  0.7818609E-02  0.8707938E-01
       -1   -1    0    0    0  501  0.00000000000E+00  0.00000000000E+00  0.74688241197E+03  0.74688241198E+03  0.50400001928E-02 0.  1.
        1   -1    0    0  501    0  0.00000000000E+00  0.00000000000E+00 -0.10808025886E+04  0.10808025887E+04  0.50400001928E-02 0. -1.
    10030    2    1    2    0    0  0.00000000000E+00  0.00000000000E+00 -0.33392017667E+03  0.18276850006E+04  0.17969223069E+04 0.  0.
        2    1    3    3  502    0 -0.48633164552E+03 -0.73799495882E+03 -0.27104878269E+01  0.88383390715E+03  0.25500000920E-02 0.  1.
       -2    1    3    3    0  502  0.48633164552E+03  0.73799495882E+03 -0.33120968885E+03  0.94385109348E+03  0.25500000920E-02 0. -1.
</event>
<event>
 5   0  0.2054876E-05  0.1800302E+04  0.7818609E-02  0.8706139E-01
        1   -1    0    0  501    0  0.00000000000E+00  0.00000000000E+00  0.10893375978E+04  0.10893375978E+04  0.50400001928E-02 0.  1.
       -1   -1    0    0    0  501  0.00000000000E+00  0.00000000000E+00 -0.74382071676E+03  0.74382071677E+03  0.50400001928E-02 0. -1.
    10030    2    1    2    0    0  0.00000000000E+00  0.00000000000E+00  0.34551688101E+03  0.18331583146E+04  0.18003020555E+04 0.  0.
        5    1    3    3  502    0  0.33309511879E+03 -0.67388051911E+03  0.67695433389E+03  0.10116108799E+04  0.46999998093E+01 0.  1.
       -5    1    3    3    0  502 -0.33309511879E+03  0.67388051911E+03 -0.33143745287E+03  0.82154743464E+03  0.46999998093E+01 0. -1.
</event>
<event>
 5   0  0.3983176E-05  0.1799461E+04  0.7818609E-02  0.8706586E-01
        2   -1    0    0  501    0  0.00000000000E+00  0.00000000000E+00  0.25619654170E+04  0.25619654170E+04  0.25500000920E-02 0.  1.
       -2   -1    0    0    0  501  0.00000000000E+00  0.00000000000E+00 -0.31597409028E+03  0.31597409029E+03  0.25500000920E-02 0. -1.
    10030    2    1    2    0    0  0.00000000000E+00  0.00000000000E+00  0.22459913267E+04  0.28779395073E+04  0.17994606881E+04 0.  0.
        3    1    3    3  502    0 -0.97680492059E+02 -0.10592956266E+03  0.25433920885E+04  0.25474704860E+04  0.10100000352E+00 0.  1.
       -3    1    3    3    0  502  0.97680492059E+02  0.10592956266E+03 -0.29740076177E+03  0.33046902135E+03  0.10100000352E+00 0. -1.
</event>
<event>
 5   0  0.3984648E-05  0.1798484E+04  0.7818609E-02  0.8707106E-01
       -2   -1    0    0    0  501  0.00000000000E+00  0.00000000000E+00  0.72632239841E+03  0.72632239842E+03  0.25500000920E-02 0.  1.
        2   -1    0    0  501    0  0.00000000000E+00  0.00000000000E+00 -0.11133293391E+04  0.11133293391E+04  0.25500000920E-02 0. -1.
    10030    2    1    2    0    0  0.00000000000E+00  0.00000000000E+00 -0.38700694065E+03  0.18396517375E+04  0.17984838457E+04 0.  0.
        1    1    3    3  502    0 -0.11904216850E+03 -0.62875328054E+03 -0.83973568627E+03  0.10557735309E+04  0.50400001928E-02 0. -1.
       -1    1    3    3    0  502  0.11904216850E+03  0.62875328054E+03  0.45272874562E+03  0.78387820661E+03  0.50400001928E-02 0.  1.
</event>
<event>
 5   0  0.1446750E-05  0.1799580E+04  0.7818609E-02  0.8706523E-01
        3   -1    0    0  501    0  0.00000000000E+00  0.00000000000E+00  0.13652533217E+04  0.13652533255E+04  0.10100000352E+00 0.  1.
       -3   -1    0    0    0  501  0.00000000000E+00  0.00000000000E+00 -0.59301993757E+03  0.59301994617E+03  0.10100000352E+00 0. -1.
    10030    2    1    2    0    0  0.00000000000E+00  0.00000000000E+00  0.77223338416E+03  0.19582732716E+04  0.17995804530E+04 0.  0.
        2    1    3    3  502    0  0.69996483075E+03 -0.49788383362E+03  0.94566073165E+02  0.86416538826E+03  0.25500000920E-02 0.  1.
       -2    1    3    3    0  502 -0.69996483075E+03  0.49788383362E+03  0.67766731100E+03  0.10941078834E+04  0.25500000920E-02 0. -1.
</event>
<event>
 5   0  0.2001811E-05  0.1799987E+04  0.7818609E-02  0.8706306E-01
        1   -1    0    0  501    0  0.00000000000E+00  0.00000000000E+00  0.81463859260E+03  0.81463859261E+03  0.50400001928E-02 0.  1.
       -1   -1    0    0    0  501  0.00000000000E+00  0.00000000000E+00 -0.99429152714E+03  0.99429152716E+03  0.50400001928E-02 0. -1.
    10030    2    1    2    0    0  0.00000000000E+00  0.00000000000E+00 -0.17965293455E+03  0.18089301198E+04  0.17999869448E+04 0.  0.
        2    1    3    3  502    0 -0.23644971072E+03 -0.86831335495E+03 -0.79205028157E+02  0.90341019730E+03  0.25500000920E-02 0. -1.
       -2    1    3    3    0  502  0.23644971072E+03  0.86831335495E+03 -0.10044790639E+03  0.90551992247E+03  0.25500000920E-02 0.  1.
</event>
<event>
 5   0  0.2054876E-05  0.1799328E+04  0.7818609E-02  0.8706657E-01
       -1   -1    0    0    0  501  0.00000000000E+00  0.00000000000E+00  0.44064154158E+03  0.44064154161E+03  0.50400001928E-02 0. -1.
        1   -1    0    0  501    0  0.00000000000E+00  0.00000000000E+00 -0.18368573380E+04  0.18368573380E+04  0.50400001928E-02 0.  1.
    10030    2    1    2    0    0  0.00000000000E+00  0.00000000000E+00 -0.13962157964E+04  0.22774988796E+04  0.17993283737E+04 0.  0.
        5    1    3    3  502    0 -0.54722514107E+03 -0.71216562763E+03 -0.63187251184E+03  0.10981439785E+04  0.46999998093E+01 0.  1.
       -5    1    3    3    0  502  0.54722514107E+03  0.71216562763E+03 -0.76434328455E+03  0.11793549011E+04  0.46999998093E+01 0. -1.
</event>
<event>
 5   0  0.2001811E-05  0.1799201E+04  0.7818609E-02  0.8706725E-01
       -1   -1    0    0    0  501  0.00000000000E+00  0.00000000000E+00  0.12238977758E+04  0.12238977758E+04  0.50400001928E-02 0.  1.
        1   -1    0    0  501    0  0.00000000000E+00  0.00000000000E+00 -0.66123244194E+03  0.66123244196E+03  0.50400001928E-02 0. -1.
    10030    2    1    2    0    0  0.00000000000E+00  0.00000000000E+00  0.56266533382E+03  0.18851302177E+04  0.17992008392E+04 0.  0.
        2    1    3    3  502    0 -0.67339675505E+03 -0.39385802156E+03 -0.18805151991E+03  0.80246539178E+03  0.25500000920E-02 0. -1.
       -2    1    3    3    0  502  0.67339675505E+03  0.39385802156E+03  0.75071685373E+03  0.10826648259E+04  0.25500000920E-02 0.  1.
</event>
<event>
 5   0  0.2054876E-05  0.1798189E+04  0.7818609E-02  0.8707263E-01
        1   -1    0    0  501    0  0.00000000000E+00  0.00000000000E+00  0.16882380874E+04  0.16882380874E+04  0.50400001928E-02 0.  1.
       -1   -1    0    0    0  501  0.00000000000E+00  0.00000000000E+00 -0.47882499540E+03  0.47882499543E+03  0.50400001928E-02 0. -1.
    10030    2    1    2    0    0  0.00000000000E+00  0.00000000000E+00  0.12094130920E+04  0.21670630828E+04  0.17981886380E+04 0.  0.
        5    1    3    3  502    0  0.71531093962E+03 -0.57085125723E+02  0.12575081304E+04  0.14478526306E+04  0.46999998093E+01 0.  1.
       -5    1    3    3    0  502 -0.71531093962E+03  0.57085125723E+02 -0.48095038383E+02  0.71921045225E+03  0.46999998093E+01 0. -1.
</event>
<event>
 5   0  0.2001811E-05  0.1746490E+04  0.7818609E-02  0.8735285E-01
       -1   -1    0    0    0  501  0.00000000000E+00  0.00000000000E+00  0.71610133846E+03  0.71610133847E+03  0.50400001928E-02 0.  1.
        1   -1    0    0  501    0  0.00000000000E+00  0.00000000000E+00 -0.10648726216E+04  0.10648726216E+04  0.50400001928E-02 0. -1.
    10030    2    1    2    0    0  0.00000000000E+00  0.00000000000E+00 -0.34877128316E+03  0.17809739601E+04  0.17464898622E+04 0.  0.
        2    1    3    3  502    0 -0.40970160553E+03 -0.34277504241E+03  0.53005549595E+03  0.75253502514E+03  0.25500000920E-02 0.  1.
       -2    1    3    3    0  502  0.40970160553E+03  0.34277504241E+03 -0.87882677911E+03  0.10284389350E+04  0.25500000920E-02 0. -1.
</event>
<event>
 5   0  0.3983176E-05  0.1798806E+04  0.7818609E-02  0.8706935E-01
        2   -1    0    0  501    0  0.00000000000E+00  0.00000000000E+00  0.24620807996E+04  0.24620807996E+04  0.25500000920E-02 0. -1.
       -2   -1    0    0    0  501  0.00000000000E+00  0.00000000000E+00 -0.32855376877E+03  0.32855376878E+03  0.25500000920E-02 0.  1.
    10030    2    1    2    0    0  0.00000000000E+00  0.00000000000E+00  0.21335270309E+04  0.27906345684E+04  0.17988061883E+04 0.  0.
        3    1    3    3  502    0 -0.55822748741E+03 -0.25171365558E+03  0.44794911267E+02  0.61399046115E+03  0.10100000352E+00 0.  1.
       -3    1    3    3    0  502  0.55822748741E+03  0.25171365558E+03  0.20887321196E+04  0.21766441073E+04  0.10100000352E+00 0. -1.
</event>
<event>
 5   0  0.4015729E-05  0.1804434E+04  0.7818609E-02  0.8703945E-01
       -2   -1    0    0    0  501  0.00000000000E+00  0.00000000000E+00  0.87323833023E+03  0.87323833023E+03  0.25500000920E-02 0.  1.
        2   -1    0    0  501    0  0.00000000000E+00  0.00000000000E+00 -0.93215712300E+03  0.93215712300E+03  0.25500000920E-02 0. -1.
    10030    2    1    2    0    0  0.00000000000E+00  0.00000000000E+00 -0.58918792774E+02  0.18053954532E+04  0.18044337944E+04 0.  0.
        2    1    3    3  502    0  0.76911610822E+03 -0.21909778926E+03 -0.44735638789E+03  0.91633572831E+03  0.25500000920E-02 0. -1.
       -2    1    3    3    0  502 -0.76911610822E+03  0.21909778926E+03  0.38843759512E+03  0.88905972493E+03  0.25500000920E-02 0.  1.
</event>
<event>
 5   0  0.3984648E-05  0.1797567E+04  0.7818609E-02  0.8707594E-01
       -2   -1    0    0    0  501  0.00000000000E+00  0.00000000000E+00  0.54453644258E+03  0.54453644259E+03  0.25500000920E-02 0. -1.
        2   -1    0    0  501    0  0.00000000000E+00  0.00000000000E+00 -0.14834852749E+04  0.14834852749E+04  0.25500000920E-02 0.  1.
    10030    2    1    2    0    0  0.00000000000E+00  0.00000000000E+00 -0.93894883236E+03  0.20280217175E+04  0.17975670160E+04 0.  0.
        1    1    3    3  502    0 -0.49112517615E+03  0.38649259317E+03  0.25927122068E+03  0.67661069244E+03  0.50400001928E-02 0. -1.
       -1    1    3    3    0  502  0.49112517615E+03 -0.38649259317E+03 -0.11982200530E+04  0.13514110251E+04  0.50400001928E-02 0.  1.
</event>
<event>
 5   0  0.2001811E-05  0.1800439E+04  0.7818609E-02  0.8706066E-01
       -1   -1    0    0    0  501  0.00000000000E+00  0.00000000000E+00  0.51978800087E+03  0.51978800090E+03  0.50400001928E-02 0. -1.
        1   -1    0    0  501    0  0.00000000000E+00  0.00000000000E+00 -0.15590873457E+04  0.15590873457E+04  0.50400001928E-02 0.  1.
    10030    2    1    2    0    0  0.00000000000E+00  0.00000000000E+00 -0.10392993448E+04  0.20788753466E+04  0.18004387183E+04 0.  0.
        2    1    3    3  502    0 -0.64722049799E+02  0.74766649416E+03 -0.10937330997E+04  0.13264411874E+04  0.25500000920E-02 0.  1.
       -2    1    3    3    0  502  0.64722049799E+02 -0.74766649416E+03  0.54433754902E+02  0.75243415918E+03  0.25500000920E-02 0. -1.
</event>
<event>
 5   0  0.3909859E-05  0.1801876E+04  0.7818609E-02  0.8705302E-01
        2   -1    0    0  501    0  0.00000000000E+00  0.00000000000E+00  0.13375976514E+04  0.13375976514E+04  0.25500000920E-02 0.  1.
       -2   -1    0    0    0  501  0.00000000000E+00  0.00000000000E+00 -0.60682646866E+03  0.60682646866E+03  0.25500000920E-02 0. -1.
    10030    2    1    2    0    0  0.00000000000E+00  0.00000000000E+00  0.73077118273E+03  0.19444241200E+04  0.18018764212E+04 0.  0.
        4    1    3    3  502    0  0.59062957037E+03 -0.22786454485E+03  0.10571304844E+04  0.12321899262E+04  0.12699999809E+01 0.  1.
       -4    1    3    3    0  502 -0.59062957037E+03  0.22786454485E+03 -0.32635930170E+03  0.71223419386E+03  0.12699999809E+01 0. -1.
</event>
<event>
 5   0  0.2038338E-05  0.1801566E+04  0.7818609E-02  0.8705467E-01
        1   -1    0    0  501    0  0.00000000000E+00  0.00000000000E+00  0.96514485966E+03  0.96514485968E+03  0.50400001928E-02 0.  1.
       -1   -1    0    0    0  501  0.00000000000E+00  0.00000000000E+00 -0.84071350232E+03  0.84071350233E+03  0.50400001928E-02 0. -1.
    10030    2    1    2    0    0  0.00000000000E+00  0.00000000000E+00  0.12443135735E+03  0.18058583620E+04  0.18015663354E+04 0.  0.
        1    1    3    3  502    0  0.83150699247E+03 -0.16010767018E+03 -0.24571640347E+03  0.88171134479E+03  0.50400001928E-02 0. -1.
       -1    1    3    3    0  502 -0.83150699247E+03  0.16010767018E+03  0.37014776082E+03  0.92414701722E+03  0.50400001928E-02 0.  1.
</event>
<event>
 5   0  0.1906857E-05  0.1807701E+04  0.7818609E-02  0.8702215E-01
       -1   -1    0    0    0  501  0.00000000000E+00  0.00000000000E+00  0.88659175618E+03  0.88659175620E+03  0.50400001928E-02 0. -1.
        1   -1    0    0  501    0  0.00000000000E+00  0.00000000000E+00 -0.92144515194E+03  0.92144515196E+03  0.50400001928E-02 0.  1.
    10030    2    1    2    0    0  0.00000000000E+00  0.00000000000E+00 -0.34853395757E+02  0.18080369082E+04  0.18077009438E+04 0.  0.
        4    1    3    3  502    0  0.34173329094E+03  0.54998850522E+03  0.61330533362E+03  0.89185987866E+03  0.12699999809E+01 0. -1.
       -4    1    3    3    0  502 -0.34173329094E+03 -0.54998850522E+03 -0.64815872937E+03  0.91617702950E+03  0.12699999809E+01 0.  1.
</event>
<event>
 5   0  0.3983176E-05  0.1798537E+04  0.7818609E-02  0.8707078E-01
        2   -1    0    0  501    0  0.00000000000E+00  0.00000000000E+00  0.21065010399E+04  0.21065010399E+04  0.25500000920E-02 0. -1.
       -2   -1    0    0    0  501  0.00000000000E+00  0.00000000000E+00 -0.38389929950E+03  0.38389929951E+03  0.25500000920E-02 0.  1.
    10030    2    1    2    0    0  0.00000000000E+00  0.00000000000E+00  0.17226017404E+04  0.24904003394E+04  0.17985374877E+04 0.  0.
        3    1    3    3  502    0 -0.23034004804E+03  0.18042244502E+03 -0.31614645057E+03  0.43076372272E+03  0.10100000352E+00 0.  1.
       -3    1    3    3    0  502  0.23034004804E+03 -0.18042244502E+03  0.20387481910E+04  0.20596366167E+04  0.10100000352E+00 0. -1.
</event>
<event>
 5   0  0.2054876E-05  0.1800138E+04  0.7818609E-02  0.8706226E-01
        1   -1    0    0  501    0  0.00000000000E+00  0.00000000000E+00  0.43218106510E+03  0.43218106513E+03  0.50400001928E-02 0.  1.
       -1   -1    0    0    0  501  0.00000000000E+00  0.00000000000E+00 -0.18745013940E+04  0.18745013940E+04  0.50400001928E-02 0. -1.
    10030    2    1    2    0    0  0.00000000000E+00  0.00000000000E+00 -0.14423203289E+04  0.23066824592E+04  0.18001377826E+04 0.  0.
        5    1    3    3  502    0 -0.57704683978E+03 -0.39975441549E+03 -0.14429779062E+04  0.16046787765E+04  0.46999998093E+01 0. -1.
       -5    1    3    3    0  502  0.57704683978E+03  0.39975441549E+03  0.65757731609E+00  0.70200368262E+03  0.46999998093E+01 0.  1.
</event>
<event>
 5   0  0.3983176E-05  0.1792191E+04  0.7818609E-02  0.8710463E-01
        2   -1    0    0  501    0  0.00000000000E+00  0.00000000000E+00  0.16336346333E+04  0.16336346333E+04  0.25500000920E-02 0.  1.
       -2   -1    0    0    0  501  0.00000000000E+00  0.00000000000E+00 -0.49153414623E+03  0.49153414624E+03  0.25500000920E-02 0. -1.
    10030    2    1    2    0    0  0.00000000000E+00  0.00000000000E+00  0.11421004871E+04  0.21251687796E+04  0.17921910666E+04 0.  0.
        3    1    3    3  502    0  0.49118224900E+03 -0.74756387192E+03  0.50746416428E+03  0.10284121900E+04  0.10100000352E+00 0.  1.
       -3    1    3    3    0  502 -0.49118224900E+03  0.74756387192E+03  0.63463632283E+03  0.10967565896E+04  0.10100000352E+00 0. -1.
</event>
<event>
 5   0  0.1906857E-05  0.1802952E+04  0.7818609E-02  0.8704731E-01
        1   -1    0    0  501    0  0.00000000000E+00  0.00000000000E+00  0.12471693279E+04  0.12471693279E+04  0.50400001928E-02 0.  1.
       -1   -1    0    0    0  501  0.00000000000E+00  0.00000000000E+00 -0.65160277633E+03  0.65160277635E+03  0.50400001928E-02 0. -1.
    10030    2    1    2    0    0  0.00000000000E+00  0.00000000000E+00  0.59556655157E+03  0.18987721043E+04  0.18029520200E+04 0.  0.
        4    1    3    3  502    0  0.18318517542E+02 -0.66543620548E+03 -0.34240184295E+03  0.74858636549E+03  0.12699999809E+01 0. -1.
       -4    1    3    3    0  502 -0.18318517542E+02  0.66543620548E+03  0.93796839452E+03  0.11501857388E+04  0.12699999809E+01 0.  1.
</event>
<event>
 5   0  0.2054876E-05  0.1795314E+04  0.7818609E-02  0.8708796E-01
       -1   -1    0    0    0  501  0.00000000000E+00  0.00000000000E+00  0.40945813163E+03  0.40945813166E+03  0.50400001928E-02 0. -1.
        1   -1    0    0  501    0  0.00000000000E+00  0.00000000000E+00 -0.19679372428E+04  0.19679372428E+04  0.50400001928E-02 0.  1.
    10030    2    1    2    0    0  0.00000000000E+00  0.00000000000E+00 -0.15584791112E+04  0.23773953745E+04  0.17953137961E+04 0.  0.
        5    1    3    3  502    0 -0.88464291223E+03  0.14152132131E+03 -0.85349587172E+03  0.12373757148E+04  0.46999998093E+01 0.  1.
       -5    1    3    3    0  502  0.88464291223E+03 -0.14152132131E+03 -0.70498323948E+03  0.11400196597E+04  0.46999998093E+01 0. -1.
</event>
<event>
 5   0  0.3993393E-05  0.1798272E+04  0.7818609E-02  0.8707219E-01
        2   -1    0    0  501    0  0.00000000000E+00  0.00000000000E+00  0.11034593087E+04  0.11034593087E+04  0.25500000920E-02 0. -1.
       -2   -1    0    0    0  501  0.00000000000E+00  0.00000000000E+00 -0.73264626638E+03  0.73264626638E+03  0.25500000920E-02 0.  1.
    10030    2    1    2    0    0  0.00000000000E+00  0.00000000000E+00  0.37081304231E+03  0.18361055751E+04  0.17982717733E+04 0.  0.
        5    1    3    3  502    0 -0.89574741061E+03 -0.76899952168E+02  0.19775334239E+03  0.92054630556E+03  0.46999998093E+01 0.  1.
       -5    1    3    3    0  502  0.89574741061E+03  0.76899952168E+02  0.17305969992E+03  0.91555926951E+03  0.46999998093E+01 0. -1.
</event>
<event>
 5   0  0.2038338E-05  0.1799738E+04  0.7818609E-02  0.8706439E-01
        1   -1    0    0  501    0  0.00000000000E+00  0.00000000000E+00  0.10785845550E+04  0.10785845551E+04  0.50400001928E-02 0.  1.
       -1   -1    0    0    0  501  0.00000000000E+00  0.00000000000E+00 -0.75076559342E+03  0.75076559344E+03  0.50400001928E-02 0. -1.
    10030    2    1    2    0    0  0.00000000000E+00  0.00000000000E+00  0.32781896162E+03  0.18293501485E+04  0.17997379515E+04 0.  0.
        1    1    3    3  502    0  0.18483592112E+03 -0.26770382168E+03  0.10167222541E+04  0.10674988505E+04  0.50400001928E-02 0.  1.
       -1    1    3    3    0  502 -0.18483592112E+03  0.26770382168E+03 -0.68890329245E+03  0.76185129799E+03  0.50400001928E-02 0. -1.
</event>
<event>
 5   0  0.3993393E-05  0.1804393E+04  0.7818609E-02  0.8703967E-01
        2   -1    0    0  501    0  0.00000000000E+00  0.00000000000E+00  0.53991225576E+03  0.53991225576E+03  0.25500000920E-02 0.  1.
       -2   -1    0    0    0  501  0.00000000000E+00  0.00000000000E+00 -0.15075752177E+04  0.15075752177E+04  0.25500000920E-02 0. -1.
    10030    2    1    2    0    0  0.00000000000E+00  0.00000000000E+00 -0.96766296193E+03  0.20474874735E+04  0.18043927915E+04 0.  0.
        5    1    3    3  502    0 -0.49671428918E+03  0.68905642469E+03 -0.82878081153E+03  0.11867702242E+04  0.46999998093E+01 0. -1.
       -5    1    3    3    0  502  0.49671428918E+03 -0.68905642469E+03 -0.13888215040E+03  0.86071724926E+03  0.46999998093E+01 0.  1.
</event>
<event>
 5   0  0.2001811E-05  0.1799330E+04  0.7818609E-02  0.8706656E-01
       -1   -1    0    0    0  501  0.00000000000E+00  0.00000000000E+00  0.94438444138E+03  0.94438444139E+03  0.50400001928E-02 0. -1.
        1   -1    0    0  501    0  0.00000000000E+00  0.00000000000E+00 -0.85706305918E+03  0.85706305919E+03  0.50400001928E-02 0.  1.
    10030    2    1    2    0    0  0.00000000000E+00  0.00000000000E+00  0.87321382201E+02  0.18014475006E+04  0.17993298957E+04 0.  0.
        2    1    3    3  502    0  0.52312458031E+03 -0.51643912915E+03  0.56295051510E+03  0.92589523332E+03  0.25500000920E-02 0. -1.
       -2    1    3    3    0  502 -0.52312458031E+03  0.51643912915E+03 -0.47562913290E+03  0.87555226726E+03  0.25500000920E-02 0.  1.
</event>
<event>
 5   0  0.1960300E-05  0.1799865E+04  0.7818609E-02  0.8706371E-01
        1   -1    0    0  501    0  0.00000000000E+00  0.00000000000E+00  0.29216150059E+03  0.29216150063E+03  0.50400001928E-02 0.  1.
       -1   -1    0    0    0  501  0.00000000000E+00  0.00000000000E+00 -0.27720242655E+04  0.27720242655E+04  0.50400001928E-02 0. -1.
    10030    2    1    2    0    0  0.00000000000E+00  0.00000000000E+00 -0.24798627649E+04  0.30641857662E+04  0.17998652940E+04 0.  0.
        3    1    3    3  502    0 -0.18707756577E+03 -0.20661091048E+03  0.21682784605E+03  0.35312945072E+03  0.10100000352E+00 0.  1.
       -3    1    3    3    0  502  0.18707756577E+03  0.20661091048E+03 -0.26966906110E+04  0.27110563155E+04  0.10100000352E+00 0. -1.
</event>
<event>
 5   0  0.2054876E-05  0.1790267E+04  0.7818609E-02  0.8711493E-01
        1   -1    0    0  501    0  0.00000000000E+00  0.00000000000E+00  0.10812264127E+04  0.10812264127E+04  0.50400001928E-02 0.  1.
       -1   -1    0    0    0  501  0.00000000000E+00  0.00000000000E+00 -0.74106923610E+03  0.74106923612E+03  0.50400001928E-02 0. -1.
    10030    2    1    2    0    0  0.00000000000E+00  0.00000000000E+00  0.34015717656E+03  0.18222956488E+04  0.17902666078E+04 0.  0.
        5    1    3    3  502    0  0.23251567460E+03 -0.13270063095E+03 -0.69935052307E+03  0.74885662213E+03  0.46999998093E+01 0. -1.
       -5    1    3    3    0  502 -0.23251567460E+03  0.13270063095E+03  0.10395076996E+04  0.10734390267E+04  0.46999998093E+01 0.  1.
</event>
<event>
 5   0  0.4015729E-05  0.1803278E+04  0.7818609E-02  0.8704558E-01
        2   -1    0    0  501    0  0.00000000000E+00  0.00000000000E+00  0.22937249364E+04  0.22937249364E+04  0.25500000920E-02 0.  1.
       -2   -1    0    0    0  501  0.00000000000E+00  0.00000000000E+00 -0.35442490413E+03  0.35442490414E+03  0.25500000920E-02 0. -1.
    10030    2    1    2    0    0  0.00000000000E+00  0.00000000000E+00  0.19393000323E+04  0.26481498406E+04  0.18032783931E+04 0.  0.
        2    1    3    3  502    0 -0.36013358125E+01  0.10338303383E+03  0.22849815736E+04  0.22873219740E+04  0.25500000920E-02 0.  1.
       -2    1    3    3    0  502  0.36013358125E+01 -0.10338303383E+03 -0.34568154126E+03  0.36082786655E+03  0.25500000920E-02 0. -1.
</event>
<event>
 5   0  0.3984648E-05  0.1799566E+04  0.7818609E-02  0.8706530E-01
       -2   -1    0    0    0  501  0.00000000000E+00  0.00000000000E+00  0.81810159747E+03  0.81810159748E+03  0.25500000920E-02 0.  1.
        2   -1    0    0  501    0  0.00000000000E+00  0.00000000000E+00 -0.98961978836E+03  0.98961978836E+03  0.25500000920E-02 0. -1.
    10030    2    1    2    0    0  0.00000000000E+00  0.00000000000E+00 -0.17151819089E+03  0.18077213858E+04  0.17995660919E+04 0.  0.
        1    1    3    3  502    0 -0.37475566436E+03  0.41185984041E+03  0.62422476884E+03  0.83649680105E+03  0.50400001928E-02 0.  1.
       -1    1    3    3    0  502  0.37475566436E+03 -0.41185984041E+03 -0.79574295973E+03  0.97122458479E+03  0.50400001928E-02 0. -1.
</event>
<event>
 5   0  0.2038338E-05  0.1808033E+04  0.7818609E-02  0.8702039E-01
        1   -1    0    0  501    0  0.00000000000E+00  0.00000000000E+00  0.17595183966E+04  0.17595183966E+04  0.50400001928E-02 0.  1.
       -1   -1    0    0    0  501  0.00000000000E+00  0.00000000000E+00 -0.46447153551E+03  0.46447153554E+03  0.50400001928E-02 0. -1.
    10030    2    1    2    0    0  0.00000000000E+00  0.00000000000E+00  0.12950468611E+04  0.22239899321E+04  0.18080334194E+04 0.  0.
        1    1    3    3  502    0 -0.50154017390E+03  0.20954623584E+03  0.15360612557E+04  0.16293975428E+04  0.50400001928E-02 0.  1.
       -1    1    3    3    0  502  0.50154017390E+03 -0.20954623584E+03 -0.24101439468E+03  0.59459238934E+03  0.50400001928E-02 0. -1.
</event>
<event>
 5   0  0.1960300E-05  0.1800867E+04  0.7818609E-02  0.8705839E-01
       -1   -1    0    0    0  501  0.00000000000E+00  0.00000000000E+00  0.40968685618E+03  0.40968685621E+03  0.50400001928E-02 0.  1.
        1   -1    0    0  501    0  0.00000000000E+00  0.00000000000E+00 -0.19790249526E+04  0.19790249526E+04  0.50400001928E-02 0. -1.
    10030    2    1    2    0    0  0.00000000000E+00  0.00000000000E+00 -0.15693380964E+04  0.23887118088E+04  0.18008670258E+04 0.  0.
        3    1    3    3  502    0  0.73346304876E+03  0.21546896095E+03 -0.15355696629E+03  0.77972730433E+03  0.10100000352E+00 0.  1.
       -3    1    3    3    0  502 -0.73346304876E+03 -0.21546896095E+03 -0.14157811301E+04  0.16089845045E+04  0.10100000352E+00 0. -1.
</event>
<event>
 5   0  0.1960300E-05  0.1798805E+04  0.7818609E-02  0.8706935E-01
        1   -1    0    0  501    0  0.00000000000E+00  0.00000000000E+00  0.17167783999E+04  0.17167783999E+04  0.50400001928E-02 0. -1.
       -1   -1    0    0    0  501  0.00000000000E+00  0.00000000000E+00 -0.47118746186E+03  0.47118746189E+03  0.50400001928E-02 0.  1.
    10030    2    1    2    0    0  0.00000000000E+00  0.00000000000E+00  0.12455909381E+04  0.21879658618E+04  0.17988045551E+04 0.  0.
        3    1    3    3  502    0  0.10195975762E+03 -0.83373320968E+03  0.10139548665E+04  0.13166667530E+04  0.10100000352E+00 0. -1.
       -3    1    3    3    0  502 -0.10195975762E+03  0.83373320968E+03  0.23163607158E+03  0.87129910877E+03  0.10100000352E+00 0.  1.
</event>
<event>
 5   0  0.2001811E-05  0.1799456E+04  0.7818609E-02  0.8706589E-01
       -1   -1    0    0    0  501  0.00000000000E+00  0.00000000000E+00  0.79086581912E+03  0.79086581913E+03  0.50400001928E-02 0. -1.
        1   -1    0    0  501    0  0.00000000000E+00  0.00000000000E+00 -0.10235747379E+04  0.10235747379E+04  0.50400001928E-02 0.  1.
    10030    2    1    2    0    0  0.00000000000E+00  0.00000000000E+00 -0.23270891878E+03  0.18144405570E+04  0.17994557772E+04 0.  0.
        2    1    3    3  502    0 -0.53819758624E+03 -0.52060190507E+03 -0.61933428964E+03  0.97172935930E+03  0.25500000920E-02 0.  1.
       -2    1    3    3    0  502  0.53819758624E+03  0.52060190507E+03  0.38662537086E+03  0.84271119774E+03  0.25500000920E-02 0. -1.
</event>
<event>
 5   0  0.3984648E-05  0.1799714E+04  0.7818609E-02  0.8706452E-01
        2   -1    0    0  501    0  0.00000000000E+00  0.00000000000E+00  0.90960577001E+03  0.90960577002E+03  0.25500000920E-02 0.  1.
       -2   -1    0    0    0  501  0.00000000000E+00  0.00000000000E+00 -0.89021237209E+03  0.89021237209E+03  0.25500000920E-02 0. -1.
    10030    2    1    2    0    0  0.00000000000E+00  0.00000000000E+00  0.19393397924E+02  0.17998181421E+04  0.17997136552E+04 0.  0.
        1    1    3    3  502    0  0.35981718543E+03  0.82477870863E+03  0.13436573048E+02  0.89994936894E+03  0.50400001928E-02 0. -1.
       -1    1    3    3    0  502 -0.35981718543E+03 -0.82477870863E+03  0.59568248761E+01  0.89986877317E+03  0.50400001928E-02 0.  1.
</event>
<event>
 5   0  0.3983176E-05  0.1797220E+04  0.7818609E-02  0.8707779E-01
       -2   -1    0    0    0  501  0.00000000000E+00  0.00000000000E+00  0.82446219919E+03  0.82446219919E+03  0.25500000920E-02 0.  1.
        2   -1    0    0  501    0  0.00000000000E+00  0.00000000000E+00 -0.97942579506E+03  0.97942579507E+03  0.25500000920E-02 0. -1.
    10030    2    1    2    0    0  0.00000000000E+00  0.00000000000E+00 -0.15496359588E+03  0.18038879943E+04  0.17972195692E+04 0.  0.
        3    1    3    3  502    0 -0.15188806492E+03  0.71697268123E+03  0.44442804827E+03  0.85710915885E+03  0.10100000352E+00 0. -1.
       -3    1    3    3    0  502  0.15188806492E+03 -0.71697268123E+03 -0.59939164414E+03  0.94677883541E+03  0.10100000352E+00 0.  1.
</event>
<event>
 5   0  0.1960300E-05  0.1809110E+04  0.7818609E-02  0.8701470E-01
        1   -1    0    0  501    0  0.00000000000E+00  0.00000000000E+00  0.14815253106E+04  0.14815253106E+04  0.50400001928E-02 0.  1.
       -1   -1    0    0    0  501  0.00000000000E+00  0.00000000000E+00 -0.55228209210E+03  0.55228209212E+03  0.50400001928E-02 0. -1.
    10030    2    1    2    0    0  0.00000000000E+00  0.00000000000E+00  0.92924321845E+03  0.20338074027E+04  0.18091101658E+04 0.  0.
        3    1    3    3  502    0 -0.41025521575E+02 -0.20432067867E+03  0.14541693973E+04  0.14690264393E+04  0.10100000352E+00 0.  1.
       -3    1    3    3    0  502  0.41025521575E+02  0.20432067867E+03 -0.52492617885E+03  0.56478096337E+03  0.10100000352E+00 0. -1.
</event>
<event>
 5   0  0.3909859E-05  0.1799603E+04  0.7818609E-02  0.8706511E-01
        2   -1    0    0  501    0  0.00000000000E+00  0.00000000000E+00  0.17306066100E+04  0.17306066100E+04  0.25500000920E-02 0.  1.
       -2   -1    0    0    0  501  0.00000000000E+00  0.00000000000E+00 -0.46783748907E+03  0.46783748907E+03  0.25500000920E-02 0. -1.
    10030    2    1    2    0    0  0.00000000000E+00  0.00000000000E+00  0.12627691210E+04  0.21984440991E+04  0.17996029018E+04 0.  0.
        4    1    3    3  502    0  0.83929955430E+03  0.79690084196E+02  0.10155019352E+04  0.13198560697E+04  0.12699999809E+01 0.  1.
       -4    1    3    3    0  502 -0.83929955430E+03 -0.79690084196E+02  0.24726718573E+03  0.87858802940E+03  0.12699999809E+01 0. -1.
</event>
<event>
 5   0  0.1960300E-05  0.1801133E+04  0.7818609E-02  0.8705697E-01
       -1   -1    0    0    0  501  0.00000000000E+00  0.00000000000E+00  0.74482809102E+03  0.74482809103E+03  0.50400001928E-02 0. -1.
        1   -1    0    0  501    0  0.00000000000E+00  0.00000000000E+00 -0.10888690831E+04  0.10888690831E+04  0.50400001928E-02 0.  1.
    10030    2    1    2    0    0  0.00000000000E+00  0.00000000000E+00 -0.34404099208E+03  0.18336971741E+04  0.18011332883E+04 0.  0.
        3    1    3    3  502    0 -0.11599698218E+03  0.83121295889E+03  0.16045693266E+03  0.85446867722E+03  0.10100000352E+00 0. -1.
       -3    1    3    3    0  502  0.11599698218E+03 -0.83121295889E+03 -0.50449792473E+03  0.97922849692E+03  0.10100000352E+00 0.  1.
</event>
<event>
 5   0  0.1960300E-05  0.1803251E+04  0.7818609E-02  0.8704573E-01
        1   -1    0    0  501    0  0.00000000000E+00  0.00000000000E+00  0.73965533975E+03  0.73965533977E+03  0.50400001928E-02 0.  1.
       -1   -1    0    0    0  501  0.00000000000E+00  0.00000000000E+00 -0.10990637159E+04  0.10990637159E+04  0.50400001928E-02 0. -1.
    10030    2    1    2    0    0  0.00000000000E+00  0.00000000000E+00 -0.35940837613E+03  0.18387190557E+04  0.18032507826E+04 0.  0.
        3    1    3    3  502    0 -0.66961056333E+03  0.42863058777E+03 -0.61330441783E+03  0.10041139410E+04  0.10100000352E+00 0. -1.
       -3    1    3    3    0  502  0.66961056333E+03 -0.42863058777E+03  0.25389604170E+03  0.83460511470E+03  0.10100000352E+00 0.  1.
</event>
<event>
 5   0  0.3983176E-05  0.1771982E+04  0.7818609E-02  0.8721342E-01
        2   -1    0    0  501    0  0.00000000000E+00  0.00000000000E+00  0.72202353269E+03  0.72202353270E+03  0.25500000920E-02 0.  1.
       -2   -1    0    0    0  501  0.00000000000E+00  0.00000000000E+00 -0.10871950885E+04  0.10871950885E+04  0.25500000920E-02 0. -1.
    10030    2    1    2    0    0  0.00000000000E+00  0.00000000000E+00 -0.36517155577E+03  0.18092186212E+04  0.17719824361E+04 0.  0.
        3    1    3    3  502    0  0.62829746582E+03 -0.48541045276E+03 -0.58403956521E+03  0.98563849211E+03  0.10100000352E+00 0. -1.
       -3    1    3    3    0  502 -0.62829746582E+03  0.48541045276E+03  0.21886800944E+03  0.82358012905E+03  0.10100000352E+00 0.  1.
</event>
<event>
 5   0  0.1906857E-05  0.1802906E+04  0.7818609E-02  0.8704756E-01
        1   -1    0    0  501    0  0.00000000000E+00  0.00000000000E+00  0.10714132320E+04  0.10714132320E+04  0.50400001928E-02 0.  1.
       -1   -1    0    0    0  501  0.00000000000E+00  0.00000000000E+00 -0.75845347894E+03  0.75845347896E+03  0.50400001928E-02 0. -1.
    10030    2    1    2    0    0  0.00000000000E+00  0.00000000000E+00  0.31295975303E+03  0.18298667109E+04  0.18029055363E+04 0.  0.
        4    1    3    3  502    0 -0.20098838958E+03 -0.47485450012E+03  0.90695080015E+03  0.10432854335E+04  0.12699999809E+01 0.  1.
       -4    1    3    3    0  502  0.20098838958E+03  0.47485450012E+03 -0.59399104711E+03  0.78658127742E+03  0.12699999809E+01 0. -1.
</event>
<event>
 5   0  0.1960300E-05  0.1801055E+04  0.7818609E-02  0.8705739E-01
       -1   -1    0    0    0  501  0.00000000000E+00  0.00000000000E+00  0.89102122833E+03  0.89102122834E+03  0.50400001928E-02 0.  1.
        1   -1    0    0  501    0  0.00000000000E+00  0.00000000000E+00 -0.91013482047E+03  0.91013482048E+03  0.50400001928E-02 0. -1.
    10030    2    1    2    0    0  0.00000000000E+00  0.00000000000E+00 -0.19113592140E+02  0.18011560488E+04  0.18010546307E+04 0.  0.
        3    1    3    3  502    0  0.68962371510E+03  0.37501774952E+03 -0.45086415598E+03  0.90526111053E+03  0.10100000352E+00 0. -1.
       -3    1    3    3    0  502 -0.68962371510E+03 -0.37501774952E+03  0.43175056384E+03  0.89589493829E+03  0.10100000352E+00 0.  1.
</event>
<event>
 5   0  0.4015729E-05  0.1800613E+04  0.7818609E-02  0.8705973E-01
        2   -1    0    0  501    0  0.00000000000E+00  0.00000000000E+00  0.71613577065E+03  0.71613577066E+03  0.25500000920E-02 0. -1.
       -2   -1    0    0    0  501  0.00000000000E+00  0.00000000000E+00 -0.11318415064E+04  0.11318415064E+04  0.25500000920E-02 0.  1.
    10030    2    1    2    0    0  0.00000000000E+00  0.00000000000E+00 -0.41570573571E+03  0.18479772770E+04  0.18006134393E+04 0.  0.
        2    1    3    3  502    0  0.20287070798E+03 -0.73244890744E+03 -0.70315954411E+03  0.10354087457E+04  0.25500000920E-02 0.  1.
       -2    1    3    3    0  502 -0.20287070798E+03  0.73244890744E+03  0.28745380840E+03  0.81256853134E+03  0.25500000920E-02 0. -1.
</event>
<event>
 5   0  0.1906857E-05  0.1801128E+04  0.7818609E-02  0.8705700E-01
       -1   -1    0    0    0  501  0.00000000000E+00  0.00000000000E+00  0.99550958757E+03  0.99550958758E+03  0.50400001928E-02 0. -1.
        1   -1    0    0  501    0  0.00000000000E+00  0.00000000000E+00 -0.81467363518E+03  0.81467363520E+03  0.50400001928E-02 0.  1.
    10030    2    1    2    0    0  0.00000000000E+00  0.00000000000E+00  0.18083595238E+03  0.18101832228E+04  0.18011278851E+04 0.  0.
        4    1    3    3  502    0  0.19025736452E+03 -0.87861069303E+03  0.36677777555E+02  0.89972300567E+03  0.12699999809E+01 0.  1.
       -4    1    3    3    0  502 -0.19025736452E+03  0.87861069303E+03  0.14415817483E+03  0.91046021711E+03  0.12699999809E+01 0. -1.
</event>
<event>
 5   0  0.3984648E-05  0.1811076E+04  0.7818609E-02  0.8700431E-01
        2   -1    0    0  501    0  0.00000000000E+00  0.00000000000E+00  0.14079030110E+04  0.14079030110E+04  0.25500000920E-02 0. -1.
       -2   -1    0    0    0  501  0.00000000000E+00  0.00000000000E+00 -0.58242584159E+03  0.58242584159E+03  0.25500000920E-02 0.  1.
    10030    2    1    2    0    0  0.00000000000E+00  0.00000000000E+00  0.82547716943E+03  0.19903288526E+04  0.18110760294E+04 0.  0.
        1    1    3    3  502    0 -0.51025398572E+03  0.73189008918E+03  0.58290911075E+03  0.10657416497E+04  0.50400001928E-02 0.  1.
       -1    1    3    3    0  502  0.51025398572E+03 -0.73189008918E+03  0.24256805868E+03  0.92458720287E+03  0.50400001928E-02 0. -1.
</event>
<event>
 5   0  0.2001811E-05  0.1808699E+04  0.7818609E-02  0.8701687E-01
        1   -1    0    0  501    0  0.00000000000E+00  0.00000000000E+00  0.59184521291E+03  0.59184521293E+03  0.50400001928E-02 0. -1.
       -1   -1    0    0    0  501  0.00000000000E+00  0.00000000000E+00 -0.13818615720E+04  0.13818615720E+04  0.50400001928E-02 0.  1.
    10030    2    1    2    0    0  0.00000000000E+00  0.00000000000E+00 -0.79001635906E+03  0.19737067849E+04  0.18086991528E+04 0.  0.
        2    1    3    3  502    0 -0.70127192133E+03  0.25141914651E+02 -0.10175199719E+04  0.12360264223E+04  0.25500000920E-02 0.  1.
       -2    1    3    3    0  502  0.70127192133E+03 -0.25141914651E+02  0.22750361279E+03  0.73768036260E+03  0.25500000920E-02 0. -1.
</event>
<event>
 5   0  0.1906857E-05  0.1800328E+04  0.7818609E-02  0.8706125E-01
       -1   -1    0    0    0  501  0.00000000000E+00  0.00000000000E+00  0.11763988539E+04  0.11763988540E+04  0.50400001928E-02 0.  1.
        1   -1    0    0  501    0  0.00000000000E+00  0.00000000000E+00 -0.68879284776E+03  0.68879284778E+03  0.50400001928E-02 0. -1.
    10030    2    1    2    0    0  0.00000000000E+00  0.00000000000E+00  0.48760600618E+03  0.18651917017E+04  0.18003278776E+04 0.  0.
        4    1    3    3  502    0  0.21177433984E+00  0.86140172931E+03  0.51452296312E+03  0.10033685647E+04  0.12699999809E+01 0.  1.
       -4    1    3    3    0  502 -0.21177433984E+00 -0.86140172931E+03 -0.26916956934E+02  0.86182313706E+03  0.12699999809E+01 0. -1.
</event>
<event>
 5   0  0.3983176E-05  0.1799071E+04  0.7818609E-02  0.8706794E-01
        2   -1    0    0  501    0  0.00000000000E+00  0.00000000000E+00  0.10136014008E+04  0.10136014008E+04  0.25500000920E-02 0. -1.
       -2   -1    0    0    0  501  0.00000000000E+00  0.00000000000E+00 -0.79830586903E+03  0.79830586903E+03  0.25500000920E-02 0.  1.
    10030    2    1    2    0    0  0.00000000000E+00  0.00000000000E+00  0.21529553174E+03  0.18119072698E+04  0.17990708125E+04 0.  0.
        3    1    3    3  502    0 -0.46372400419E+03 -0.20876664973E+03 -0.63963047148E+03  0.81716009224E+03  0.10100000352E+00 0.  1.
       -3    1    3    3    0  502  0.46372400419E+03  0.20876664973E+03  0.85492600322E+03  0.99474717757E+03  0.10100000352E+00 0. -1.
</event>
<event>
 5   0  0.1960300E-05  0.1793789E+04  0.7818609E-02  0.8709609E-01
       -1   -1    0    0    0  501  0.00000000000E+00  0.00000000000E+00  0.62384611219E+03  0.62384611221E+03  0.50400001928E-02 0. -1.
        1   -1    0    0  501    0  0.00000000000E+00  0.00000000000E+00 -0.12894526678E+04  0.12894526678E+04  0.50400001928E-02 0.  1.
    10030    2    1    2    0    0  0.00000000000E+00  0.00000000000E+00 -0.66560655560E+03  0.19132987800E+04  0.17937893228E+04 0.  0.
        3    1    3    3  502    0 -0.30379791201E+03  0.64532939868E+03 -0.91279260094E+03  0.11584185542E+04  0.10100000352E+00 0.  1.
       -3    1    3    3    0  502  0.30379791201E+03 -0.64532939868E+03  0.24718604534E+03  0.75488022583E+03  0.10100000352E+00 0. -1.
</event>
<event>
 5   0  0.4015729E-05  0.1803581E+04  0.7818609E-02  0.8704398E-01
       -2   -1    0    0    0  501  0.00000000000E+00  0.00000000000E+00  0.48236406944E+03  0.48236406945E+03  0.25500000920E-02 0. -1.
        2   -1    0    0  501    0  0.00000000000E+00  0.00000000000E+00 -0.16859173191E+04  0.16859173191E+04  0.25500000920E-02 0.  1.
    10030    2    1    2    0    0  0.00000000000E+00  0.00000000000E+00 -0.12035532497E+04  0.21682813886E+04  0.18035808147E+04 0.  0.
        2    1    3    3  502    0  0.59150848813E+03  0.58358297131E+03 -0.10230211150E+04  0.13179619030E+04  0.25500000920E-02 0.  1.
       -2    1    3    3    0  502 -0.59150848813E+03 -0.58358297131E+03 -0.18053213468E+03  0.85031948560E+03  0.25500000920E-02 0. -1.
</event>
<event>
 5   0  0.3983176E-05  0.1801420E+04  0.7818609E-02  0.8705545E-01
       -2   -1    0    0    0  501  0.00000000000E+00  0.00000000000E+00  0.55520415476E+03  0.55520415477E+03  0.25500000920E-02 0. -1.
        2   -1    0    0  501    0  0.00000000000E+00  0.00000000000E+00 -0.14612248318E+04  0.14612248318E+04  0.25500000920E-02 0.  1.
    10030    2    1    2    0    0  0.00000000000E+00  0.00000000000E+00 -0.90602067701E+03  0.20164289865E+04  0.18014195487E+04 0.  0.
        3    1    3    3  502    0 -0.50150681658E+03 -0.61267745994E+03 -0.93367591429E+03  0.12241868649E+04  0.10100000352E+00 0.  1.
       -3    1    3    3    0  502  0.50150681658E+03  0.61267745994E+03  0.27655237285E+02  0.79224212167E+03  0.10100000352E+00 0. -1.
</event>
<event>
 5   0  0.4015729E-05  0.1796442E+04  0.7818609E-02  0.8708194E-01
        2   -1    0    0  501    0  0.00000000000E+00  0.00000000000E+00  0.11176443831E+04  0.11176443831E+04  0.25500000920E-02 0.  1.
       -2   -1    0    0    0  501  0.00000000000E+00  0.00000000000E+00 -0.72187615588E+03  0.72187615588E+03  0.25500000920E-02 0. -1.
    10030    2    1    2    0    0  0.00000000000E+00  0.00000000000E+00  0.39576822724E+03  0.18395205390E+04  0.17964418509E+04 0.  0.
        2    1    3    3  502    0 -0.38400740410E+03  0.63787948583E+03 -0.31660740966E+03  0.80906870951E+03  0.25500000920E-02 0. -1.
       -2    1    3    3    0  502  0.38400740410E+03 -0.63787948583E+03  0.71237563690E+03  0.10304518295E+04  0.25500000920E-02 0.  1.
</event>
<event>
 5   0  0.4015729E-05  0.1799294E+04  0.7818609E-02  0.8706675E-01
       -2   -1    0    0    0  501  0.00000000000E+00  0.00000000000E+00  0.45893257285E+03  0.45893257286E+03  0.25500000920E-02 0. -1.
        2   -1    0    0  501    0  0.00000000000E+00  0.00000000000E+00 -0.17635802124E+04  0.17635802124E+04  0.25500000920E-02 0.  1.
    10030    2    1    2    0    0  0.00000000000E+00  0.00000000000E+00 -0.13046476395E+04  0.22225127852E+04  0.17992936440E+04 0.  0.
        2    1    3    3  502    0 -0.46207247655E+03  0.70319609165E+03 -0.10455968220E+04  0.13421134196E+04  0.25500000920E-02 0.  1.
       -2    1    3    3    0  502  0.46207247655E+03 -0.70319609165E+03 -0.25905081746E+03  0.88039936559E+03  0.25500000920E-02 0. -1.
</event>
<event>
 5   0  0.2054876E-05  0.1797241E+04  0.7818609E-02  0.8707768E-01
        1   -1    0    0  501    0  0.00000000000E+00  0.00000000000E+00  0.16067228100E+04  0.16067228100E+04  0.50400001928E-02 0.  1.
       -1   -1    0    0    0  501  0.00000000000E+00  0.00000000000E+00 -0.50258752727E+03  0.50258752729E+03  0.50400001928E-02 0. -1.
    10030    2    1    2    0    0  0.00000000000E+00  0.00000000000E+00  0.11041352827E+04  0.21093103373E+04  0.17972410457E+04 0.  0.
        5    1    3    3  502    0  0.86811892260E+03 -0.25439578612E+01  0.27969304744E+03  0.91207851980E+03  0.46999998093E+01 0. -1.
       -5    1    3    3    0  502 -0.86811892260E+03  0.25439578612E+01  0.82444223528E+03  0.11972318175E+04  0.46999998093E+01 0.  1.
</event>
<event>
 5   0  0.1906857E-05  0.1801847E+04  0.7818609E-02  0.8705318E-01
        1   -1    0    0  501    0  0.00000000000E+00  0.00000000000E+00  0.11135562364E+04  0.11135562364E+04  0.50400001928E-02 0. -1.
       -1   -1    0    0    0  501  0.00000000000E+00  0.00000000000E+00 -0.72889252590E+03  0.72889252591E+03  0.50400001928E-02 0.  1.
    10030    2    1    2    0    0  0.00000000000E+00  0.00000000000E+00  0.38466371048E+03  0.18424487623E+04  0.18018466282E+04 0.  0.
        4    1    3    3  502    0  0.28469673571E+03  0.64145636013E+03 -0.38532517499E+03  0.80062200610E+03  0.12699999809E+01 0.  1.
       -4    1    3    3    0  502 -0.28469673571E+03 -0.64145636013E+03  0.76998888546E+03  0.10418267562E+04  0.12699999809E+01 0. -1.
</event>
<event>
 5   0  0.4015729E-05  0.1791510E+04  0.7818609E-02  0.8710827E-01
       -2   -1    0    0    0  501  0.00000000000E+00  0.00000000000E+00  0.15498555565E+04  0.15498555565E+04  0.25500000920E-02 0.  1.
        2   -1    0    0  501    0  0.00000000000E+00  0.00000000000E+00 -0.51771108592E+03  0.51771108593E+03  0.25500000920E-02 0. -1.
    10030    2    1    2    0    0  0.00000000000E+00  0.00000000000E+00  0.10321444706E+04  0.20675666424E+04  0.17915104277E+04 0.  0.
        2    1    3    3  502    0 -0.30881593560E+03 -0.17139325052E+03 -0.43395908398E+03  0.55952070112E+03  0.25500000920E-02 0. -1.
       -2    1    3    3    0  502  0.30881593560E+03  0.17139325052E+03  0.14661035545E+04  0.15080459413E+04  0.25500000920E-02 0.  1.
</event>
<event>
 5   0  0.4015729E-05  0.1823076E+04  0.7818609E-02  0.8694123E-01
        2   -1    0    0  501    0  0.00000000000E+00  0.00000000000E+00  0.18542871839E+04  0.18542871839E+04  0.25500000920E-02 0. -1.
       -2   -1    0    0    0  501  0.00000000000E+00  0.00000000000E+00 -0.44809775791E+03  0.44809775792E+03  0.25500000920E-02 0.  1.
    10030    2    1    2    0    0  0.00000000000E+00  0.00000000000E+00  0.14061894260E+04  0.23023849419E+04  0.18230764434E+04 0.  0.
        2    1    3    3  502    0 -0.84622112877E+03  0.23615383192E+03  0.39622245622E+03  0.96376919744E+03  0.25500000920E-02 0. -1.
       -2    1    3    3    0  502  0.84622112877E+03 -0.23615383192E+03  0.10099669698E+04  0.13386157444E+04  0.25500000920E-02 0.  1.
</event>
<event>
 5   0  0.1446750E-05  0.1802769E+04  0.7818609E-02  0.8704829E-01
        3   -1    0    0  501    0  0.00000000000E+00  0.00000000000E+00  0.75428819468E+03  0.75428820144E+03  0.10100000352E+00 0. -1.
       -3   -1    0    0    0  501  0.00000000000E+00  0.00000000000E+00 -0.10771660621E+04  0.10771660668E+04  0.10100000352E+00 0.  1.
    10030    2    1    2    0    0  0.00000000000E+00  0.00000000000E+00 -0.32287786743E+03  0.18314542683E+04  0.18027685984E+04 0.  0.
        3    1    3    3  502    0  0.77579542627E+02  0.84982555380E+03 -0.45635381081E+03  0.96771941603E+03  0.10100000352E+00 0.  1.
       -3    1    3    3    0  502 -0.77579542627E+02 -0.84982555380E+03  0.13347594338E+03  0.86373485225E+03  0.10100000352E+00 0. -1.
</event>
<event>
 5   0  0.3983176E-05  0.1800160E+04  0.7818609E-02  0.8706214E-01
       -2   -1    0    0    0  501  0.00000000000E+00  0.00000000000E+00  0.66108788622E+03  0.66108788622E+03  0.25500000920E-02 0.  1.
        2   -1    0    0  501    0  0.00000000000E+00  0.00000000000E+00 -0.12254710869E+04  0.12254710869E+04  0.25500000920E-02 0. -1.
    10030    2    1    2    0    0  0.00000000000E+00  0.00000000000E+00 -0.56438320066E+03  0.18865589731E+04  0.18001600934E+04 0.  0.
        3    1    3    3  502    0 -0.66841016618E+03 -0.11051122238E+02  0.34943723638E+03  0.75432133068E+03  0.10100000352E+00 0. -1.
       -3    1    3    3    0  502  0.66841016618E+03  0.11051122238E+02 -0.91382043704E+03  0.11322376424E+04  0.10100000352E+00 0.  1.
</event>
<event>
 5   0  0.1446750E-05  0.1809764E+04  0.7818609E-02  0.8701125E-01
        4   -1    0    0  501    0  0.00000000000E+00  0.00000000000E+00  0.98815193039E+03  0.98815274651E+03  0.12699999809E+01 0.  1.
       -4   -1    0    0    0  501  0.00000000000E+00  0.00000000000E+00 -0.82862700179E+03  0.82862797503E+03  0.12699999809E+01 0. -1.
    10030    2    1    2    0    0  0.00000000000E+00  0.00000000000E+00  0.15952492859E+03  0.18167807215E+04  0.18097635170E+04 0.  0.
        5    1    3    3  502    0  0.31641282534E+03  0.84568856367E+03  0.13900555709E+03  0.91359228197E+03  0.46999998093E+01 0.  1.
       -5    1    3    3    0  502 -0.31641282534E+03 -0.84568856367E+03  0.20519371506E+02  0.90318843957E+03  0.46999998093E+01 0. -1.
</event>
<event>
 5   0  0.2038338E-05  0.1801286E+04  0.7818609E-02  0.8705616E-01
       -1   -1    0    0    0  501  0.00000000000E+00  0.00000000000E+00  0.85968261868E+03  0.85968261869E+03  0.50400001928E-02 0. -1.
        1   -1    0    0  501    0  0.00000000000E+00  0.00000000000E+00 -0.94355527663E+03  0.94355527664E+03  0.50400001928E-02 0.  1.
    10030    2    1    2    0    0  0.00000000000E+00  0.00000000000E+00 -0.83872657949E+02  0.18032378953E+04  0.18012862861E+04 0.  0.
        1    1    3    3  502    0  0.88875563315E+02 -0.50820478315E+02  0.85383842791E+03  0.85995444517E+03  0.50400001928E-02 0. -1.
       -1    1    3    3    0  502 -0.88875563315E+02  0.50820478315E+02 -0.93771108586E+03  0.94328345016E+03  0.50400001928E-02 0.  1.
</event>
<event>
 5   0  0.4015729E-05  0.1800743E+04  0.7818609E-02  0.8705905E-01
        2   -1    0    0  501    0  0.00000000000E+00  0.00000000000E+00  0.14913709256E+04  0.14913709256E+04  0.25500000920E-02 0.  1.
       -2   -1    0    0    0  501  0.00000000000E+00  0.00000000000E+00 -0.54357282304E+03  0.54357282304E+03  0.25500000920E-02 0. -1.
    10030    2    1    2    0    0  0.00000000000E+00  0.00000000000E+00  0.94779810257E+03  0.20349437486E+04  0.18007428514E+04 0.  0.
        2    1    3    3  502    0 -0.37109335056E+03  0.69381337017E+03  0.96852559904E+03  0.12478497920E+04  0.25500000920E-02 0.  1.
       -2    1    3    3    0  502  0.37109335056E+03 -0.69381337017E+03 -0.20727496469E+02  0.78709395663E+03  0.25500000920E-02 0. -1.
</event>
<event>
 5   0  0.3993393E-05  0.1800295E+04  0.7818609E-02  0.8706143E-01
       -2   -1    0    0    0  501  0.00000000000E+00  0.00000000000E+00  0.71715853662E+03  0.71715853663E+03  0.25500000920E-02 0.  1.
        2   -1    0    0  501    0  0.00000000000E+00  0.00000000000E+00 -0.11298277004E+04  0.11298277004E+04  0.25500000920E-02 0. -1.
    10030    2    1    2    0    0  0.00000000000E+00  0.00000000000E+00 -0.41266916381E+03  0.18469862371E+04  0.18002950650E+04 0.  0.
        5    1    3    3  502    0 -0.59714279716E+03  0.42588520809E+03  0.32900879313E+03  0.80388220942E+03  0.46999998093E+01 0.  1.
       -5    1    3    3    0  502  0.59714279716E+03 -0.42588520809E+03 -0.74167795694E+03  0.10431040276E+04  0.46999998093E+01 0. -1.
</event>
<event>
 5   0  0.1446750E-05  0.1800044E+04  0.7818609E-02  0.8706276E-01
        4   -1    0    0  501    0  0.00000000000E+00  0.00000000000E+00  0.10862014893E+04  0.10862022317E+04  0.12699999809E+01 0.  1.
       -4   -1    0    0    0  501  0.00000000000E+00  0.00000000000E+00 -0.74575332408E+03  0.74575440547E+03  0.12699999809E+01 0. -1.
    10030    2    1    2    0    0  0.00000000000E+00  0.00000000000E+00  0.34044816521E+03  0.18319566372E+04  0.18000444904E+04 0.  0.
        5    1    3    3  502    0  0.18030585449E+03 -0.64862403328E+03  0.77813661304E+03  0.10289519018E+04  0.46999998093E+01 0.  1.
       -5    1    3    3    0  502 -0.18030585449E+03  0.64862403328E+03 -0.43768844783E+03  0.80300473540E+03  0.46999998093E+01 0. -1.
</event>
<event>
 5   0  0.2054876E-05  0.1794128E+04  0.7818609E-02  0.8709428E-01
       -1   -1    0    0    0  501  0.00000000000E+00  0.00000000000E+00  0.78218347436E+03  0.78218347438E+03  0.50400001928E-02 0.  1.
        1   -1    0    0  501    0  0.00000000000E+00  0.00000000000E+00 -0.10288171913E+04  0.10288171913E+04  0.50400001928E-02 0. -1.
    10030    2    1    2    0    0  0.00000000000E+00  0.00000000000E+00 -0.24663371690E+03  0.18110006656E+04  0.17941279834E+04 0.  0.
        5    1    3    3  502    0 -0.22771498966E+03 -0.13478482151E+03 -0.98851283440E+03  0.10233282848E+04  0.46999998093E+01 0. -1.
       -5    1    3    3    0  502  0.22771498966E+03  0.13478482151E+03  0.74187911750E+03  0.78767238088E+03  0.46999998093E+01 0.  1.
</event>
<event>
 5   0  0.3909859E-05  0.1774862E+04  0.7818609E-02  0.8719783E-01
        2   -1    0    0  501    0  0.00000000000E+00  0.00000000000E+00  0.21988492222E+04  0.21988492222E+04  0.25500000920E-02 0. -1.
       -2   -1    0    0    0  501  0.00000000000E+00  0.00000000000E+00 -0.35815712436E+03  0.35815712437E+03  0.25500000920E-02 0.  1.
    10030    2    1    2    0    0  0.00000000000E+00  0.00000000000E+00  0.18406920978E+04  0.25570063466E+04  0.17748617009E+04 0.  0.
        4    1    3    3  502    0  0.36679528325E+03  0.34519926645E+03  0.19729597422E+04  0.20362399344E+04  0.12699999809E+01 0. -1.
       -4    1    3    3    0  502 -0.36679528325E+03 -0.34519926645E+03 -0.13226764435E+03  0.52076641214E+03  0.12699999809E+01 0.  1.
</event>
<event>
 5   0  0.1960300E-05  0.1798726E+04  0.7818609E-02  0.8706977E-01
        1   -1    0    0  501    0  0.00000000000E+00  0.00000000000E+00  0.39982519032E+03  0.39982519035E+03  0.50400001928E-02 0. -1.
       -1   -1    0    0    0  501  0.00000000000E+00  0.00000000000E+00 -0.20230176658E+04  0.20230176658E+04  0.50400001928E-02 0.  1.
    10030    2    1    2    0    0  0.00000000000E+00  0.00000000000E+00 -0.16231924755E+04  0.24228428562E+04  0.17987255747E+04 0.  0.
        3    1    3    3  502    0  0.61066171003E+03  0.10958870315E+03  0.65425764673E+02  0.62385731449E+03  0.10100000352E+00 0. -1.
       -3    1    3    3    0  502 -0.61066171003E+03 -0.10958870315E+03 -0.16886182402E+04  0.17989855417E+04  0.10100000352E+00 0.  1.
</event>
<event>
 5   0  0.2001811E-05  0.1799686E+04  0.7818609E-02  0.8706467E-01
        1   -1    0    0  501    0  0.00000000000E+00  0.00000000000E+00  0.18228054918E+04  0.18228054918E+04  0.50400001928E-02 0.  1.
       -1   -1    0    0    0  501  0.00000000000E+00  0.00000000000E+00 -0.44421483647E+03  0.44421483649E+03  0.50400001928E-02 0. -1.
    10030    2    1    2    0    0  0.00000000000E+00  0.00000000000E+00  0.13785906554E+04  0.22670203283E+04  0.17996857987E+04 0.  0.
        2    1    3    3  502    0 -0.70677063298E+03  0.34521617230E+02 -0.10931117044E+02  0.70769764662E+03  0.25500000920E-02 0. -1.
       -2    1    3    3    0  502  0.70677063298E+03 -0.34521617230E+02  0.13895217724E+04  0.15593226817E+04  0.25500000920E-02 0.  1.
</event>
<event>
 5   0  0.4015729E-05  0.1795467E+04  0.7818609E-02  0.8708714E-01
        2   -1    0    0  501    0  0.00000000000E+00  0.00000000000E+00  0.13780476289E+04  0.13780476289E+04  0.25500000920E-02 0. -1.
       -2   -1    0    0    0  501  0.00000000000E+00  0.00000000000E+00 -0.58483139146E+03  0.58483139146E+03  0.25500000920E-02 0.  1.
    10030    2    1    2    0    0  0.00000000000E+00  0.00000000000E+00  0.79321623747E+03  0.19628790204E+04  0.17954670839E+04 0.  0.
        2    1    3    3  502    0  0.32031290619E+03 -0.69009373579E+02  0.13103401128E+04  0.13506864413E+04  0.25500000920E-02 0. -1.
       -2    1    3    3    0  502 -0.32031290619E+03  0.69009373579E+02 -0.51712387530E+03  0.61219257911E+03  0.25500000920E-02 0.  1.
</event>
<event>
 5   0  0.3993393E-05  0.1785130E+04  0.7818609E-02  0.8714247E-01
        2   -1    0    0  501    0  0.00000000000E+00  0.00000000000E+00  0.94753845043E+03  0.94753845044E+03  0.25500000920E-02 0.  1.
       -2   -1    0    0    0  501  0.00000000000E+00  0.00000000000E+00 -0.84078070901E+03  0.84078070901E+03  0.25500000920E-02 0. -1.
    10030    2    1    2    0    0  0.00000000000E+00  0.00000000000E+00  0.10675774143E+03  0.17883191594E+04  0.17851297434E+04 0.  0.
        5    1    3    3  502    0  0.12072162713E+03  0.87687314939E+03  0.16834334539E+03  0.90102264306E+03  0.46999998093E+01 0.  1.
       -5    1    3    3    0  502 -0.12072162713E+03 -0.87687314939E+03 -0.61585603961E+02  0.88729651638E+03  0.46999998093E+01 0. -1.
</event>
<event>
 5   0  0.1906857E-05  0.1797906E+04  0.7818609E-02  0.8707414E-01
        1   -1    0    0  501    0  0.00000000000E+00  0.00000000000E+00  0.20153519906E+04  0.20153519906E+04  0.50400001928E-02 0.  1.
       -1   -1    0    0    0  501  0.00000000000E+00  0.00000000000E+00 -0.40098018947E+03  0.40098018950E+03  0.50400001928E-02 0. -1.
    10030    2    1    2    0    0  0.00000000000E+00  0.00000000000E+00  0.16143718012E+04  0.24163321801E+04  0.17979056962E+04 0.  0.
        4    1    3    3  502    0 -0.93950268157E+02  0.63551092020E+03  0.16523006001E+04  0.17727943108E+04  0.12699999809E+01 0.  1.
       -4    1    3    3    0  502  0.93950268157E+02 -0.63551092020E+03 -0.37928798895E+02  0.64353786934E+03  0.12699999809E+01 0. -1.
</event>
<event>
 5   0  0.3993393E-05  0.1803555E+04  0.7818609E-02  0.8704411E-01
       -2   -1    0    0    0  501  0.00000000000E+00  0.00000000000E+00  0.65888872141E+03  0.65888872142E+03  0.25500000920E-02 0.  1.
        2   -1    0    0  501    0  0.00000000000E+00  0.00000000000E+00 -0.12342033084E+04  0.12342033084E+04  0.25500000920E-02 0. -1.
    10030    2    1    2    0    0  0.00000000000E+00  0.00000000000E+00 -0.57531458703E+03  0.18930920299E+04  0.18035549782E+04 0.  0.
        5    1    3    3  502    0  0.71722193352E+02 -0.13165035414E+03  0.64570336433E+03  0.66289577873E+03  0.46999998093E+01 0.  1.
       -5    1    3    3    0  502 -0.71722193352E+02  0.13165035414E+03 -0.12210179514E+04  0.12301962511E+04  0.46999998093E+01 0. -1.
</event>
<event>
 5   0  0.1960300E-05  0.1801879E+04  0.7818609E-02  0.8705301E-01
        1   -1    0    0  501    0  0.00000000000E+00  0.00000000000E+00  0.11983826272E+04  0.11983826272E+04  0.50400001928E-02 0. -1.
       -1   -1    0    0    0  501  0.00000000000E+00  0.00000000000E+00 -0.67732309618E+03  0.67732309620E+03  0.50400001928E-02 0.  1.
    10030    2    1    2    0    0  0.00000000000E+00  0.00000000000E+00  0.52105953104E+03  0.18757057234E+04  0.18018792762E+04 0.  0.
        3    1    3    3  502    0  0.63609712430E+03 -0.59517660469E+02  0.92179714285E+03  0.11215488782E+04  0.10100000352E+00 0. -1.
       -3    1    3    3    0  502 -0.63609712430E+03  0.59517660469E+02 -0.40073761181E+03  0.75415684521E+03  0.10100000352E+00 0.  1.
</event>
<event>
 5   0  0.4015729E-05  0.1800478E+04  0.7818609E-02  0.8706046E-01
       -2   -1    0    0    0  501  0.00000000000E+00  0.00000000000E+00  0.30255241854E+03  0.30255241855E+03  0.25500000920E-02 0. -1.
        2   -1    0    0  501    0  0.00000000000E+00  0.00000000000E+00 -0.26786426983E+04  0.26786426983E+04  0.25500000920E-02 0.  1.
    10030    2    1    2    0    0  0.00000000000E+00  0.00000000000E+00 -0.23760902797E+04  0.29811951168E+04  0.18004775220E+04 0.  0.
        2    1    3    3  502    0 -0.38113356424E+02  0.46760854865E+03  0.84128057803E+02  0.47664233218E+03  0.25500000920E-02 0. -1.
       -2    1    3    3    0  502  0.38113356424E+02 -0.46760854865E+03 -0.24602183375E+04  0.25045527847E+04  0.25500000920E-02 0.  1.
</event>
<event>
 5   0  0.3983176E-05  0.1797064E+04  0.7818609E-02  0.8707862E-01
       -2   -1    0    0    0  501  0.00000000000E+00  0.00000000000E+00  0.71615732510E+03  0.71615732510E+03  0.25500000920E-02 0. -1.
        2   -1    0    0  501    0  0.00000000000E+00  0.00000000000E+00 -0.11273503247E+04  0.11273503247E+04  0.25500000920E-02 0.  1.
    10030    2    1    2    0    0  0.00000000000E+00  0.00000000000E+00 -0.41119299963E+03  0.18435076498E+04  0.17970644874E+04 0.  0.
        3    1    3    3  502    0  0.76851466605E+03 -0.20390658015E+03 -0.63494311636E+03  0.10175192660E+04  0.10100000352E+00 0.  1.
       -3    1    3    3    0  502 -0.76851466605E+03  0.20390658015E+03  0.22375011673E+03  0.82598838388E+03  0.10100000352E+00 0. -1.
</event>
<event>
 5   0  0.3984648E-05  0.1803932E+04  0.7818609E-02  0.8704211E-01
        2   -1    0    0  501    0  0.00000000000E+00  0.00000000000E+00  0.15391683163E+04  0.15391683163E+04  0.25500000920E-02 0.  1.
       -2   -1    0    0    0  501  0.00000000000E+00  0.00000000000E+00 -0.52856014223E+03  0.52856014224E+03  0.25500000920E-02 0. -1.
    10030    2    1    2    0    0  0.00000000000E+00  0.00000000000E+00  0.10106081741E+04  0.20677284586E+04  0.18039323981E+04 0.  0.
        1    1    3    3  502    0  0.52422298109E+03  0.23729314678E+03 -0.29083374742E+03  0.64474959487E+03  0.50400001928E-02 0. -1.
       -1    1    3    3    0  502 -0.52422298109E+03 -0.23729314678E+03  0.13014419215E+04  0.14229788637E+04  0.50400001928E-02 0.  1.
</event>
<event>
 5   0  0.2038338E-05  0.1799723E+04  0.7818609E-02  0.8706447E-01
        1   -1    0    0  501    0  0.00000000000E+00  0.00000000000E+00  0.20473540937E+04  0.20473540937E+04  0.50400001928E-02 0. -1.
       -1   -1    0    0    0  501  0.00000000000E+00  0.00000000000E+00 -0.39551066154E+03  0.39551066157E+03  0.50400001928E-02 0.  1.
    10030    2    1    2    0    0  0.00000000000E+00  0.00000000000E+00  0.16518434321E+04  0.24428647552E+04  0.17997226142E+04 0.  0.
        1    1    3    3  502    0  0.62508419928E+03  0.64459237091E+03  0.90646215357E+03  0.12758931055E+04  0.50400001928E-02 0.  1.
       -1    1    3    3    0  502 -0.62508419928E+03 -0.64459237091E+03  0.74538127857E+03  0.11669716497E+04  0.50400001928E-02 0. -1.
</event>
<event>
 5   0  0.3983176E-05  0.1799771E+04  0.7818609E-02  0.8706421E-01
        2   -1    0    0  501    0  0.00000000000E+00  0.00000000000E+00  0.11554078488E+04  0.11554078488E+04  0.25500000920E-02 0.  1.
       -2   -1    0    0    0  501  0.00000000000E+00  0.00000000000E+00 -0.70087316314E+03  0.70087316314E+03  0.25500000920E-02 0. -1.
    10030    2    1    2    0    0  0.00000000000E+00  0.00000000000E+00  0.45453468563E+03  0.18562810119E+04  0.17997714896E+04 0.  0.
        3    1    3    3  502    0  0.84474549264E+03 -0.24791329020E+03  0.41950180169E+03  0.97521162760E+03  0.10100000352E+00 0.  1.
       -3    1    3    3    0  502 -0.84474549264E+03  0.24791329020E+03  0.35032883940E+02  0.88106938430E+03  0.10100000352E+00 0. -1.
</event>
<event>
 5   0  0.1906857E-05  0.1800321E+04  0.7818609E-02  0.8706129E-01
        1   -1    0    0  501    0  0.00000000000E+00  0.00000000000E+00  0.83740193862E+03  0.83740193864E+03  0.50400001928E-02 0. -1.
       -1   -1    0    0    0  501  0.00000000000E+00  0.00000000000E+00 -0.96762192478E+03  0.96762192479E+03  0.50400001928E-02 0.  1.
    10030    2    1    2    0    0  0.00000000000E+00  0.00000000000E+00 -0.13021998615E+03  0.18050238634E+04  0.18003205000E+04 0.  0.
        4    1    3    3  502    0  0.13117299925E+03  0.81312469307E+03 -0.42925126770E+03  0.92878220587E+03  0.12699999809E+01 0.  1.
       -4    1    3    3    0  502 -0.13117299925E+03 -0.81312469307E+03  0.29903128155E+03  0.87624165757E+03  0.12699999809E+01 0. -1.
</event>
<event>
 5   0  0.3993393E-05  0.1795100E+04  0.7818609E-02  0.8708910E-01
       -2   -1    0    0    0  501  0.00000000000E+00  0.00000000000E+00  0.11422907689E+04  0.11422907689E+04  0.25500000920E-02 0.  1.
        2   -1    0    0  501    0  0.00000000000E+00  0.00000000000E+00 -0.70524583061E+03  0.70524583062E+03  0.25500000920E-02 0. -1.
    10030    2    1    2    0    0  0.00000000000E+00  0.00000000000E+00  0.43704493826E+03  0.18475365995E+04  0.17950997767E+04 0.  0.
        5    1    3    3  502    0 -0.58978616552E+03  0.23761213648E+02  0.91441028497E+03  0.10883843878E+04  0.46999998093E+01 0.  1.
       -5    1    3    3    0  502  0.58978616552E+03 -0.23761213648E+02 -0.47736534671E+03  0.75915221171E+03  0.46999998093E+01 0. -1.
</event>
<event>
 5   0  0.1906857E-05  0.1803949E+04  0.7818609E-02  0.8704202E-01
       -1   -1    0    0    0  501  0.00000000000E+00  0.00000000000E+00  0.86464629869E+03  0.86464629871E+03  0.50400001928E-02 0.  1.
        1   -1    0    0  501    0  0.00000000000E+00  0.00000000000E+00 -0.94091394731E+03  0.94091394732E+03  0.50400001928E-02 0. -1.
    10030    2    1    2    0    0  0.00000000000E+00  0.00000000000E+00 -0.76267648613E+02  0.18055602460E+04  0.18039487376E+04 0.  0.
        4    1    3    3  502    0  0.19769890807E+03  0.70200608022E+03  0.49305559882E+03  0.88034245118E+03  0.12699999809E+01 0.  1.
       -4    1    3    3    0  502 -0.19769890807E+03 -0.70200608022E+03 -0.56932324744E+03  0.92521779484E+03  0.12699999809E+01 0. -1.
</event>
<event>
 5   0  0.1960300E-05  0.1800836E+04  0.7818609E-02  0.8705855E-01
        1   -1    0    0  501    0  0.00000000000E+00  0.00000000000E+00  0.48549687819E+03  0.48549687822E+03  0.50400001928E-02 0.  1.
       -1   -1    0    0    0  501  0.00000000000E+00  0.00000000000E+00 -0.16699432447E+04  0.16699432447E+04  0.50400001928E-02 0. -1.
    10030    2    1    2    0    0  0.00000000000E+00  0.00000000000E+00 -0.11844463665E+04  0.21554401229E+04  0.18008356195E+04 0.  0.
        3    1    3    3  502    0  0.67291461730E+03 -0.28195140169E+03  0.39357602964E+02  0.73065703733E+03  0.10100000352E+00 0.  1.
       -3    1    3    3    0  502 -0.67291461730E+03  0.28195140169E+03 -0.12238039695E+04  0.14247830856E+04  0.10100000352E+00 0. -1.
</event>
<event>
 5   0  0.3984648E-05  0.1800660E+04  0.7818609E-02  0.8705949E-01
        2   -1    0    0  501    0  0.00000000000E+00  0.00000000000E+00  0.90359230545E+03  0.90359230545E+03  0.25500000920E-02 0.  1.
       -2   -1    0    0    0  501  0.00000000000E+00  0.00000000000E+00 -0.89707918506E+03  0.89707918506E+03  0.25500000920E-02 0. -1.
    10030    2    1    2    0    0  0.00000000000E+00  0.00000000000E+00  0.65131203870E+01  0.18006714905E+04  0.18006597113E+04 0.  0.
        1    1    3    3  502    0  0.51507543956E+03  0.17349406195E+03  0.72102928981E+03  0.90293196574E+03  0.50400001928E-02 0.  1.
       -1    1    3    3    0  502 -0.51507543956E+03 -0.17349406195E+03 -0.71451616942E+03  0.89773952478E+03  0.50400001928E-02 0. -1.
</event>
<event>
 5   0  0.3909859E-05  0.1799918E+04  0.7818609E-02  0.8706343E-01
        2   -1    0    0  501    0  0.00000000000E+00  0.00000000000E+00  0.18805722134E+04  0.18805722134E+04  0.25500000920E-02 0.  1.
       -2   -1    0    0    0  501  0.00000000000E+00  0.00000000000E+00 -0.43068054694E+03  0.43068054695E+03  0.25500000920E-02 0. -1.
    10030    2    1    2    0    0  0.00000000000E+00  0.00000000000E+00  0.14498916665E+04  0.23112527604E+04  0.17999176308E+04 0.  0.
        4    1    3    3  502    0  0.37277825335E+03 -0.78783857428E+03  0.43703790618E+03  0.97501640481E+03  0.12699999809E+01 0. -1.
       -4    1    3    3    0  502 -0.37277825335E+03  0.78783857428E+03  0.10128537603E+04  0.13362363556E+04  0.12699999809E+01 0.  1.
</event>
<event>
 5   0  0.3983176E-05  0.1805671E+04  0.7818609E-02  0.8703290E-01
        2   -1    0    0  501    0  0.00000000000E+00  0.00000000000E+00  0.99095528020E+03  0.99095528020E+03  0.25500000920E-02 0.  1.
       -2   -1    0    0    0  501  0.00000000000E+00  0.00000000000E+00 -0.82255163467E+03  0.82255163467E+03  0.25500000920E-02 0. -1.
    10030    2    1    2    0    0  0.00000000000E+00  0.00000000000E+00  0.16840364553E+03  0.18135069149E+04  0.18056709397E+04 0.  0.
        3    1    3    3  502    0  0.22012697201E+03 -0.17933852187E+03 -0.77654343907E+03  0.82682399107E+03  0.10100000352E+00 0. -1.
       -3    1    3    3    0  502 -0.22012697201E+03  0.17933852187E+03  0.94494708460E+03  0.98668292381E+03  0.10100000352E+00 0.  1.
</event>
<event>
 5   0  0.2001811E-05  0.1801901E+04  0.7818609E-02  0.8705289E-01
        1   -1    0    0  501    0  0.00000000000E+00  0.00000000000E+00  0.55648221017E+03  0.55648221019E+03  0.50400001928E-02 0.  1.
       -1   -1    0    0    0  501  0.00000000000E+00  0.00000000000E+00 -0.14586485142E+04  0.14586485142E+04  0.50400001928E-02 0. -1.
    10030    2    1    2    0    0  0.00000000000E+00  0.00000000000E+00 -0.90216630402E+03  0.20151307244E+04  0.18019011616E+04 0.  0.
        2    1    3    3  502    0 -0.50177099593E+03 -0.40769103592E+03 -0.11528118152E+04  0.13217265959E+04  0.25500000920E-02 0. -1.
       -2    1    3    3    0  502  0.50177099593E+03  0.40769103592E+03  0.25064551115E+03  0.69340412848E+03  0.25500000920E-02 0.  1.
</event>
<event>
 5   0  0.2001811E-05  0.1796725E+04  0.7818609E-02  0.8708043E-01
       -1   -1    0    0    0  501  0.00000000000E+00  0.00000000000E+00  0.55228875006E+03  0.55228875009E+03  0.50400001928E-02 0. -1.
        1   -1    0    0  501    0  0.00000000000E+00  0.00000000000E+00 -0.14612914202E+04  0.14612914202E+04  0.50400001928E-02 0.  1.
    10030    2    1    2    0    0  0.00000000000E+00  0.00000000000E+00 -0.90900267011E+03  0.20135801703E+04  0.17967245888E+04 0.  0.
        2    1    3    3  502    0 -0.16515966404E+03 -0.42235016679E+03 -0.13235982327E+04  0.13991317521E+04  0.25500000920E-02 0.  1.
       -2    1    3    3    0  502  0.16515966404E+03  0.42235016679E+03  0.41459556264E+03  0.61444841816E+03  0.25500000920E-02 0. -1.
</event>
<event>
 5   0  0.3993393E-05  0.1800716E+04  0.7818609E-02  0.8705919E-01
        2   -1    0    0  501    0  0.00000000000E+00  0.00000000000E+00  0.10963240238E+04  0.10963240238E+04  0.25500000920E-02 0. -1.
       -2   -1    0    0    0  501  0.00000000000E+00  0.00000000000E+00 -0.73942056337E+03  0.73942056338E+03  0.25500000920E-02 0.  1.
    10030    2    1    2    0    0  0.00000000000E+00  0.00000000000E+00  0.35690346044E+03  0.18357445872E+04  0.18007159991E+04 0.  0.
        5    1    3    3  502    0  0.73768087150E+03 -0.10454265776E+03 -0.33687142125E+03  0.81768372854E+03  0.46999998093E+01 0.  1.
       -5    1    3    3    0  502 -0.73768087150E+03  0.10454265776E+03  0.69377488169E+03  0.10180608587E+04  0.46999998093E+01 0. -1.
</event>
<event>
 5   0  0.2038338E-05  0.1800186E+04  0.7818609E-02  0.8706201E-01
       -1   -1    0    0    0  501  0.00000000000E+00  0.00000000000E+00  0.45402772073E+03  0.45402772075E+03  0.50400001928E-02 0.  1.
        1   -1    0    0  501    0  0.00000000000E+00  0.00000000000E+00 -0.17843998378E+04  0.17843998378E+04  0.50400001928E-02 0. -1.
    10030    2    1    2    0    0  0.00000000000E+00  0.00000000000E+00 -0.13303721170E+04  0.22384275585E+04  0.18001855363E+04 0.  0.
        1    1    3    3  502    0 -0.15245659973E+03 -0.10255251401E+03  0.43046051656E+03  0.46803449582E+03  0.50400001928E-02 0.  1.
       -1    1    3    3    0  502  0.15245659973E+03  0.10255251401E+03 -0.17608326336E+04  0.17703930627E+04  0.50400001928E-02 0. -1.
</event>
<event>
 5   0  0.3983176E-05  0.1789884E+04  0.7818609E-02  0.8711698E-01
        2   -1    0    0  501    0  0.00000000000E+00  0.00000000000E+00  0.73712063782E+03  0.73712063783E+03  0.25500000920E-02 0.  1.
       -2   -1    0    0    0  501  0.00000000000E+00  0.00000000000E+00 -0.10865535330E+04  0.10865535330E+04  0.25500000920E-02 0. -1.
    10030    2    1    2    0    0  0.00000000000E+00  0.00000000000E+00 -0.34943289516E+03  0.18236741708E+04  0.17898838323E+04 0.  0.
        3    1    3    3  502    0  0.73388604565E+02 -0.29845182346E+03 -0.10310968023E+04  0.10759275087E+04  0.10100000352E+00 0. -1.
       -3    1    3    3    0  502 -0.73388604565E+02  0.29845182346E+03  0.68166390710E+03  0.74774666208E+03  0.10100000352E+00 0.  1.
</event>
<event>
 5   0  0.2001811E-05  0.1800708E+04  0.7818609E-02  0.8705923E-01
        1   -1    0    0  501    0  0.00000000000E+00  0.00000000000E+00  0.72476791352E+03  0.72476791353E+03  0.50400001928E-02 0. -1.
       -1   -1    0    0    0  501  0.00000000000E+00  0.00000000000E+00 -0.11184781733E+04  0.11184781733E+04  0.50400001928E-02 0.  1.
    10030    2    1    2    0    0  0.00000000000E+00  0.00000000000E+00 -0.39371025981E+03  0.18432460869E+04  0.18007077409E+04 0.  0.
        2    1    3    3  502    0  0.18367003926E+03  0.64006308399E+03  0.42344837083E+03  0.78912860649E+03  0.25500000920E-02 0. -1.
       -2    1    3    3    0  502 -0.18367003926E+03 -0.64006308399E+03 -0.81715863064E+03  0.10541174804E+04  0.25500000920E-02 0.  1.
</event>
<event>
 5   0  0.1906857E-05  0.1789142E+04  0.7818609E-02  0.8712095E-01
        1   -1    0    0  501    0  0.00000000000E+00  0.00000000000E+00  0.94043472131E+03  0.94043472132E+03  0.50400001928E-02 0.  1.
       -1   -1    0    0    0  501  0.00000000000E+00  0.00000000000E+00 -0.85094382627E+03  0.85094382628E+03  0.50400001928E-02 0. -1.
    10030    2    1    2    0    0  0.00000000000E+00  0.00000000000E+00  0.89490895043E+02  0.17913785476E+04  0.17891418280E+04 0.  0.
        4    1    3    3  502    0  0.35742301998E+03 -0.75359930205E+03  0.36855721783E+03  0.91186575710E+03  0.12699999809E+01 0.  1.
       -4    1    3    3    0  502 -0.35742301998E+03  0.75359930205E+03 -0.27906632279E+03  0.87951279051E+03  0.12699999809E+01 0. -1.
</event>
<event>
 5   0  0.1446750E-05  0.1797371E+04  0.7818609E-02  0.8707699E-01
       -3   -1    0    0    0  501  0.00000000000E+00  0.00000000000E+00  0.53255513772E+03  0.53255514730E+03  0.10100000352E+00 0.  1.
        3   -1    0    0  501    0  0.00000000000E+00  0.00000000000E+00 -0.15165300441E+04  0.15165300475E+04  0.10100000352E+00 0. -1.
    10030    2    1    2    0    0  0.00000000000E+00  0.00000000000E+00 -0.98397490638E+03  0.20490851948E+04  0.17973712802E+04 0.  0.
        2    1    3    3  502    0 -0.44428945728E+03 -0.25771632191E+03  0.34873340791E+03  0.62082671836E+03  0.25500000920E-02 0.  1.
       -2    1    3    3    0  502  0.44428945728E+03  0.25771632191E+03 -0.13327083143E+04  0.14282584764E+04  0.25500000920E-02 0. -1.
</event>
<event>
 5   0  0.3909859E-05  0.1794228E+04  0.7818609E-02  0.8709375E-01
       -2   -1    0    0    0  501  0.00000000000E+00  0.00000000000E+00  0.97454395136E+03  0.97454395136E+03  0.25500000920E-02 0.  1.
        2   -1    0    0  501    0  0.00000000000E+00  0.00000000000E+00 -0.82583575385E+03  0.82583575386E+03  0.25500000920E-02 0. -1.
    10030    2    1    2    0    0  0.00000000000E+00  0.00000000000E+00  0.14870819751E+03  0.18003797052E+04  0.17942276765E+04 0.  0.
        4    1    3    3  502    0 -0.47732224792E+03  0.50316524198E+03 -0.49663112558E+03  0.85302747721E+03  0.12699999809E+01 0. -1.
       -4    1    3    3    0  502  0.47732224792E+03 -0.50316524198E+03  0.64533932308E+03  0.94735222800E+03  0.12699999809E+01 0.  1.
</event>
<event>
 5   0  0.2054876E-05  0.1794228E+04  0.7818609E-02  0.8709375E-01
        1   -1    0    0  501    0  0.00000000000E+00  0.00000000000E+00  0.78197539019E+03  0.78197539021E+03  0.50400001928E-02 0.  1.
       -1   -1    0    0    0  501  0.00000000000E+00  0.00000000000E+00 -0.10292054727E+04  0.10292054727E+04  0.50400001928E-02 0. -1.
    10030    2    1    2    0    0  0.00000000000E+00  0.00000000000E+00 -0.24723008251E+03  0.18111808629E+04  0.17942278017E+04 0.  0.
        5    1    3    3  502    0  0.36341068280E+03 -0.82019667792E+03 -0.12478630371E+03  0.90575031130E+03  0.46999998093E+01 0. -1.
       -5    1    3    3    0  502 -0.36341068280E+03  0.82019667792E+03 -0.12244377880E+03  0.90543055162E+03  0.46999998093E+01 0.  1.
</event>
<event>
 5   0  0.4015729E-05  0.1803343E+04  0.7818609E-02  0.8704524E-01
        2   -1    0    0  501    0  0.00000000000E+00  0.00000000000E+00  0.21963718949E+04  0.21963718950E+04  0.25500000920E-02 0.  1.
       -2   -1    0    0    0  501  0.00000000000E+00  0.00000000000E+00 -0.37016113660E+03  0.37016113661E+03  0.25500000920E-02 0. -1.
    10030    2    1    2    0    0  0.00000000000E+00  0.00000000000E+00  0.18262107583E+04  0.25665330316E+04  0.18033430257E+04 0.  0.
        2    1    3    3  502    0 -0.66760342275E+03 -0.51303329881E+03  0.13723278426E+04  0.16100252182E+04  0.25500000920E-02 0.  1.
       -2    1    3    3    0  502  0.66760342275E+03  0.51303329881E+03  0.45388291575E+03  0.95650781334E+03  0.25500000920E-02 0. -1.
</event>
<event>
 5   0  0.2001811E-05  0.1793219E+04  0.7818609E-02  0.8709914E-01
       -1   -1    0    0    0  501  0.00000000000E+00  0.00000000000E+00  0.70834183303E+03  0.70834183305E+03  0.50400001928E-02 0. -1.
        1   -1    0    0  501    0  0.00000000000E+00  0.00000000000E+00 -0.11349156505E+04  0.11349156505E+04  0.50400001928E-02 0.  1.
    10030    2    1    2    0    0  0.00000000000E+00  0.00000000000E+00 -0.42657381745E+03  0.18432574835E+04  0.17932185948E+04 0.  0.
        2    1    3    3  502    0  0.64670656168E+03 -0.39031342646E+03  0.28323915434E+03  0.80672074868E+03  0.25500000920E-02 0. -1.
       -2    1    3    3    0  502 -0.64670656168E+03  0.39031342646E+03 -0.70981297179E+03  0.10365367349E+04  0.25500000920E-02 0.  1.
</event>
<event>
 5   0  0.2038338E-05  0.1800802E+04  0.7818609E-02  0.8705873E-01
       -1   -1    0    0    0  501  0.00000000000E+00  0.00000000000E+00  0.11133460453E+04  0.11133460453E+04  0.50400001928E-02 0. -1.
        1   -1    0    0  501    0  0.00000000000E+00  0.00000000000E+00 -0.72818523314E+03  0.72818523315E+03  0.50400001928E-02 0.  1.
    10030    2    1    2    0    0  0.00000000000E+00  0.00000000000E+00  0.38516081216E+03  0.18415312785E+04  0.18008022097E+04 0.  0.
        1    1    3    3  502    0 -0.57690123050E+03  0.50057996036E+03  0.68015203442E+03  0.10227424487E+04  0.50400001928E-02 0. -1.
       -1    1    3    3    0  502  0.57690123050E+03 -0.50057996036E+03 -0.29499122226E+03  0.81878882974E+03  0.50400001928E-02 0.  1.
</event>
<event>
 5   0  0.4015729E-05  0.1806106E+04  0.7818609E-02  0.8703059E-01
        2   -1    0    0  501    0  0.00000000000E+00  0.00000000000E+00  0.14849752044E+04  0.14849752045E+04  0.25500000920E-02 0. -1.
       -2   -1    0    0    0  501  0.00000000000E+00  0.00000000000E+00 -0.54917081310E+03  0.54917081311E+03  0.25500000920E-02 0.  1.
    10030    2    1    2    0    0  0.00000000000E+00  0.00000000000E+00  0.93580439135E+03  0.20341460176E+04  0.18061063540E+04 0.  0.
        2    1    3    3  502    0 -0.40757053807E+03  0.64128375243E+03  0.10175200805E+04  0.12699235051E+04  0.25500000920E-02 0. -1.
       -2    1    3    3    0  502  0.40757053807E+03 -0.64128375243E+03 -0.81715689168E+02  0.76422251242E+03  0.25500000920E-02 0.  1.
</event>
<event>
 5   0  0.3909859E-05  0.1799802E+04  0.7818609E-02  0.8706405E-01
        2   -1    0    0  501    0  0.00000000000E+00  0.00000000000E+00  0.13686684243E+04  0.13686684243E+04  0.25500000920E-02 0.  1.
       -2   -1    0    0    0  501  0.00000000000E+00  0.00000000000E+00 -0.59168596243E+03  0.59168596244E+03  0.25500000920E-02 0. -1.
    10030    2    1    2    0    0  0.00000000000E+00  0.00000000000E+00  0.77698246190E+03  0.19603543868E+04  0.17998020935E+04 0.  0.
        4    1    3    3  502    0  0.12479229993E+02 -0.89605107097E+03  0.29895729085E+03  0.94469059888E+03  0.12699999809E+01 0. -1.
       -4    1    3    3    0  502 -0.12479229993E+02  0.89605107097E+03  0.47802517105E+03  0.10156637879E+04  0.12699999809E+01 0.  1.
</event>
<event>
 5   0  0.2001811E-05  0.1797860E+04  0.7818609E-02  0.8707438E-01
        1   -1    0    0  501    0  0.00000000000E+00  0.00000000000E+00  0.73873936656E+03  0.73873936657E+03  0.50400001928E-02 0.  1.
       -1   -1    0    0    0  501  0.00000000000E+00  0.00000000000E+00 -0.10938572847E+04  0.10938572847E+04  0.50400001928E-02 0. -1.
    10030    2    1    2    0    0  0.00000000000E+00  0.00000000000E+00 -0.35511791815E+03  0.18325966513E+04  0.17978603256E+04 0.  0.
        2    1    3    3  502    0  0.18559581175E+03  0.38820297290E+03  0.62694816731E+03  0.76040210284E+03  0.25500000920E-02 0.  1.
       -2    1    3    3    0  502 -0.18559581175E+03 -0.38820297290E+03 -0.98206608546E+03  0.10721945484E+04  0.25500000920E-02 0. -1.
</event>
<event>
 5   0  0.2038338E-05  0.1792512E+04  0.7818609E-02  0.8710291E-01
        1   -1    0    0  501    0  0.00000000000E+00  0.00000000000E+00  0.19398781375E+04  0.19398781375E+04  0.50400001928E-02 0.  1.
       -1   -1    0    0    0  501  0.00000000000E+00  0.00000000000E+00 -0.41408542093E+03  0.41408542096E+03  0.50400001928E-02 0. -1.
    10030    2    1    2    0    0  0.00000000000E+00  0.00000000000E+00  0.15257927166E+04  0.23539635585E+04  0.17925124883E+04 0.  0.
        1    1    3    3  502    0  0.34080230745E+03  0.14300228294E+03 -0.30935365365E+03  0.48197048534E+03  0.50400001928E-02 0. -1.
       -1    1    3    3    0  502 -0.34080230745E+03 -0.14300228294E+03  0.18351463703E+04  0.18719930732E+04  0.50400001928E-02 0.  1.
</event>
<event>
 5   0  0.1906857E-05  0.1772556E+04  0.7818609E-02  0.8721032E-01
       -1   -1    0    0    0  501  0.00000000000E+00  0.00000000000E+00  0.60478805678E+03  0.60478805680E+03  0.50400001928E-02 0. -1.
        1   -1    0    0  501    0  0.00000000000E+00  0.00000000000E+00 -0.12987834169E+04  0.12987834169E+04  0.50400001928E-02 0.  1.
    10030    2    1    2    0    0  0.00000000000E+00  0.00000000000E+00 -0.69399536011E+03  0.19035714737E+04  0.17725560063E+04 0.  0.
        4    1    3    3  502    0 -0.31492503041E+03 -0.67854480885E+03  0.16340638317E+03  0.76570496365E+03  0.12699999809E+01 0.  1.
       -4    1    3    3    0  502  0.31492503041E+03  0.67854480885E+03 -0.85740174328E+03  0.11378665100E+04  0.12699999809E+01 0. -1.
</event>
<event>
 5   0  0.3909859E-05  0.1800532E+04  0.7818609E-02  0.8706016E-01
       -2   -1    0    0    0  501  0.00000000000E+00  0.00000000000E+00  0.59968213937E+03  0.59968213937E+03  0.25500000920E-02 0. -1.
        2   -1    0    0  501    0  0.00000000000E+00  0.00000000000E+00 -0.13515145754E+04  0.13515145754E+04  0.25500000920E-02 0.  1.
    10030    2    1    2    0    0  0.00000000000E+00  0.00000000000E+00 -0.75183243603E+03  0.19511967148E+04  0.18005323124E+04 0.  0.
        4    1    3    3  502    0 -0.28567068396E+03  0.67303306896E+03  0.19329449430E+03  0.75627086815E+03  0.12699999809E+01 0. -1.
       -4    1    3    3    0  502  0.28567068396E+03 -0.67303306896E+03 -0.94512693033E+03  0.11949258466E+04  0.12699999809E+01 0.  1.
</event>
<event>
 5   0  0.1960300E-05  0.1800484E+04  0.7818609E-02  0.8706042E-01
        1   -1    0    0  501    0  0.00000000000E+00  0.00000000000E+00  0.71222758790E+03  0.71222758792E+03  0.50400001928E-02 0.  1.
       -1   -1    0    0    0  501  0.00000000000E+00  0.00000000000E+00 -0.11378892057E+04  0.11378892057E+04  0.50400001928E-02 0. -1.
    10030    2    1    2    0    0  0.00000000000E+00  0.00000000000E+00 -0.42566161778E+03  0.18501167936E+04  0.18004844729E+04 0.  0.
        3    1    3    3  502    0  0.50403682800E+03  0.68225241007E+03  0.97001411053E+02  0.85377441926E+03  0.10100000352E+00 0. -1.
       -3    1    3    3    0  502 -0.50403682800E+03 -0.68225241007E+03 -0.52266302883E+03  0.99634237436E+03  0.10100000352E+00 0.  1.
</event>
<event>
 5   0  0.2038338E-05  0.1801969E+04  0.7818609E-02  0.8705253E-01
        1   -1    0    0  501    0  0.00000000000E+00  0.00000000000E+00  0.18355815620E+04  0.18355815620E+04  0.50400001928E-02 0. -1.
       -1   -1    0    0    0  501  0.00000000000E+00  0.00000000000E+00 -0.44224286678E+03  0.44224286681E+03  0.50400001928E-02 0.  1.
    10030    2    1    2    0    0  0.00000000000E+00  0.00000000000E+00  0.13933386952E+04  0.22778244288E+04  0.18019687591E+04 0.  0.
        1    1    3    3  502    0  0.26041904756E+03 -0.99792273157E+02 -0.38630935647E+03  0.47645723526E+03  0.50400001928E-02 0.  1.
       -1    1    3    3    0  502 -0.26041904756E+03  0.99792273157E+02  0.17796480517E+04  0.18013671936E+04  0.50400001928E-02 0. -1.
</event>
<event>
 5   0  0.2038338E-05  0.1796726E+04  0.7818609E-02  0.8708043E-01
        1   -1    0    0  501    0  0.00000000000E+00  0.00000000000E+00  0.23438974065E+04  0.23438974065E+04  0.50400001928E-02 0. -1.
       -1   -1    0    0    0  501  0.00000000000E+00  0.00000000000E+00 -0.34432223970E+03  0.34432223974E+03  0.50400001928E-02 0.  1.
    10030    2    1    2    0    0  0.00000000000E+00  0.00000000000E+00  0.19995751668E+04  0.26882196463E+04  0.17967259164E+04 0.  0.
        1    1    3    3  502    0  0.32348717477E+02 -0.11772717659E+03 -0.33185169902E+03  0.35359818693E+03  0.50400001928E-02 0.  1.
       -1    1    3    3    0  502 -0.32348717477E+02  0.11772717659E+03  0.23314268659E+04  0.23346214594E+04  0.50400001928E-02 0. -1.
</event>
<event>
 5   0  0.3909859E-05  0.1799423E+04  0.7818609E-02  0.8706606E-01
        2   -1    0    0  501    0  0.00000000000E+00  0.00000000000E+00  0.11120666072E+04  0.11120666072E+04  0.25500000920E-02 0.  1.
       -2   -1    0    0    0  501  0.00000000000E+00  0.00000000000E+00 -0.72790682528E+03  0.72790682529E+03  0.25500000920E-02 0. -1.
    10030    2    1    2    0    0  0.00000000000E+00  0.00000000000E+00  0.38415978196E+03  0.18399734325E+04  0.17994231004E+04 0.  0.
        4    1    3    3  502    0 -0.60726813579E+03  0.35283034595E+02 -0.48577670665E+03  0.77846008434E+03  0.12699999809E+01 0. -1.
       -4    1    3    3    0  502  0.60726813579E+03 -0.35283034595E+02  0.86993648861E+03  0.10615133482E+04  0.12699999809E+01 0.  1.
</event>
<event>
 5   0  0.3983176E-05  0.1805738E+04  0.7818609E-02  0.8703254E-01
        2   -1    0    0  501    0  0.00000000000E+00  0.00000000000E+00  0.12606768677E+04  0.12606768677E+04  0.25500000920E-02 0.  1.
       -2   -1    0    0    0  501  0.00000000000E+00  0.00000000000E+00 -0.64661492056E+03  0.64661492057E+03  0.25500000920E-02 0. -1.
    10030    2    1    2    0    0  0.00000000000E+00  0.00000000000E+00  0.61406194711E+03  0.19072917882E+04  0.18057380460E+04 0.  0.
        3    1    3    3  502    0 -0.85309796743E+03 -0.85239823839E+02  0.80377830983E+01  0.85738356980E+03  0.10100000352E+00 0. -1.
       -3    1    3    3    0  502  0.85309796743E+03  0.85239823839E+02  0.60602416402E+03  0.10499082185E+04  0.10100000352E+00 0.  1.
</event>
<event>
 5   0  0.3993393E-05  0.1800891E+04  0.7818609E-02  0.8705826E-01
        2   -1    0    0  501    0  0.00000000000E+00  0.00000000000E+00  0.58754061275E+03  0.58754061276E+03  0.25500000920E-02 0.  1.
       -2   -1    0    0    0  501  0.00000000000E+00  0.00000000000E+00 -0.13799938270E+04  0.13799938270E+04  0.25500000920E-02 0. -1.
    10030    2    1    2    0    0  0.00000000000E+00  0.00000000000E+00 -0.79245321422E+03  0.19675344397E+04  0.18008913556E+04 0.  0.
        5    1    3    3  502    0  0.83868673010E+03 -0.12340743048E+03 -0.64564796099E+02  0.85018558446E+03  0.46999998093E+01 0.  1.
       -5    1    3    3    0  502 -0.83868673010E+03  0.12340743048E+03 -0.72788841812E+03  0.11173488553E+04  0.46999998093E+01 0. -1.
</event>
<event>
 5   0  0.3983176E-05  0.1790814E+04  0.7818609E-02  0.8711200E-01
        2   -1    0    0  501    0  0.00000000000E+00  0.00000000000E+00  0.17236947494E+04  0.17236947494E+04  0.25500000920E-02 0. -1.
       -2   -1    0    0    0  501  0.00000000000E+00  0.00000000000E+00 -0.46513657467E+03  0.46513657468E+03  0.25500000920E-02 0.  1.
    10030    2    1    2    0    0  0.00000000000E+00  0.00000000000E+00  0.12585581747E+04  0.21888313241E+04  0.17908137497E+04 0.  0.
        3    1    3    3  502    0  0.38151185761E+03  0.43316703792E+03  0.14659379405E+04  0.15754869202E+04  0.10100000352E+00 0. -1.
       -3    1    3    3    0  502 -0.38151185761E+03 -0.43316703792E+03 -0.20737976579E+03  0.61334440382E+03  0.10100000352E+00 0.  1.
</event>
<event>
 5   0  0.2054876E-05  0.1796136E+04  0.7818609E-02  0.8708357E-01
       -1   -1    0    0    0  501  0.00000000000E+00  0.00000000000E+00  0.78698111457E+03  0.78698111458E+03  0.50400001928E-02 0. -1.
        1   -1    0    0  501    0  0.00000000000E+00  0.00000000000E+00 -0.10248359426E+04  0.10248359426E+04  0.50400001928E-02 0.  1.
    10030    2    1    2    0    0  0.00000000000E+00  0.00000000000E+00 -0.23785482799E+03  0.18118170572E+04  0.17961364451E+04 0.  0.
        5    1    3    3  502    0  0.77490023403E+02 -0.73970634705E+03 -0.62664473619E+03  0.97256151425E+03  0.46999998093E+01 0.  1.
       -5    1    3    3    0  502 -0.77490023403E+02  0.73970634705E+03  0.38878990820E+03  0.83925554291E+03  0.46999998093E+01 0. -1.
</event>
<event>
 5   0  0.3993393E-05  0.1797656E+04  0.7818609E-02  0.8707547E-01
       -2   -1    0    0    0  501  0.00000000000E+00  0.00000000000E+00  0.34816860696E+03  0.34816860697E+03  0.25500000920E-02 0.  1.
        2   -1    0    0  501    0  0.00000000000E+00  0.00000000000E+00 -0.23204033922E+04  0.23204033922E+04  0.25500000920E-02 0. -1.
    10030    2    1    2    0    0  0.00000000000E+00  0.00000000000E+00 -0.19722347853E+04  0.26685719992E+04  0.17976558254E+04 0.  0.
        5    1    3    3  502    0  0.47916720569E+03 -0.20925733136E+03 -0.20713878466E+04  0.21363659664E+04  0.46999998093E+01 0. -1.
       -5    1    3    3    0  502 -0.47916720569E+03  0.20925733136E+03  0.99153061286E+02  0.53220603275E+03  0.46999998093E+01 0.  1.
</event>
<event>
 5   0  0.4015729E-05  0.1799822E+04  0.7818609E-02  0.8706394E-01
        2   -1    0    0  501    0  0.00000000000E+00  0.00000000000E+00  0.86009750742E+03  0.86009750742E+03  0.25500000920E-02 0.  1.
       -2   -1    0    0    0  501  0.00000000000E+00  0.00000000000E+00 -0.94156794933E+03  0.94156794933E+03  0.25500000920E-02 0. -1.
    10030    2    1    2    0    0  0.00000000000E+00  0.00000000000E+00 -0.81470441910E+02  0.18016654568E+04  0.17998224871E+04 0.  0.
        2    1    3    3  502    0  0.66196982935E+03  0.38019243199E+03 -0.51776269599E+03  0.92240368044E+03  0.25500000920E-02 0. -1.
       -2    1    3    3    0  502 -0.66196982935E+03 -0.38019243199E+03  0.43629225408E+03  0.87926177632E+03  0.25500000920E-02 0.  1.
</event>
<event>
 5   0  0.3993393E-05  0.1807104E+04  0.7818609E-02  0.8702531E-01
       -2   -1    0    0    0  501  0.00000000000E+00  0.00000000000E+00  0.76575794762E+03  0.76575794762E+03  0.25500000920E-02 0. -1.
        2   -1    0    0  501    0  0.00000000000E+00  0.00000000000E+00 -0.10661410056E+04  0.10661410056E+04  0.25500000920E-02 0.  1.
    10030    2    1    2    0    0  0.00000000000E+00  0.00000000000E+00 -0.30038305798E+03  0.18318989532E+04  0.18071037030E+04 0.  0.
        5    1    3    3  502    0 -0.87064758294E+03  0.71824062807E+02  0.83619978299E+02  0.87761056309E+03  0.46999998093E+01 0. -1.
       -5    1    3    3    0  502  0.87064758294E+03 -0.71824062807E+02 -0.38400303628E+03  0.95428839014E+03  0.46999998093E+01 0.  1.
</event>
<event>
 5   0  0.2038338E-05  0.1796216E+04  0.7818609E-02  0.8708315E-01
        1   -1    0    0  501    0  0.00000000000E+00  0.00000000000E+00  0.11813185461E+04  0.11813185461E+04  0.50400001928E-02 0. -1.
       -1   -1    0    0    0  501  0.00000000000E+00  0.00000000000E+00 -0.68279437037E+03  0.68279437039E+03  0.50400001928E-02 0.  1.
    10030    2    1    2    0    0  0.00000000000E+00  0.00000000000E+00  0.49852417571E+03  0.18641129165E+04  0.17962156362E+04 0.  0.
        1    1    3    3  502    0 -0.75353805437E+03 -0.29532909673E+03  0.65328341483E+03  0.10401048480E+04  0.50400001928E-02 0. -1.
       -1    1    3    3    0  502  0.75353805437E+03  0.29532909673E+03 -0.15475923912E+03  0.82400806846E+03  0.50400001928E-02 0.  1.
</event>
<event>
 5   0  0.4015729E-05  0.1805489E+04  0.7818609E-02  0.8703386E-01
       -2   -1    0    0    0  501  0.00000000000E+00  0.00000000000E+00  0.43712369668E+03  0.43712369669E+03  0.25500000920E-02 0. -1.
        2   -1    0    0  501    0  0.00000000000E+00  0.00000000000E+00 -0.18643416612E+04  0.18643416612E+04  0.25500000920E-02 0.  1.
    10030    2    1    2    0    0  0.00000000000E+00  0.00000000000E+00 -0.14272179645E+04  0.23014653579E+04  0.18054893174E+04 0.  0.
        2    1    3    3  502    0  0.20634290782E+03 -0.52708482468E+03 -0.16100372622E+04  0.17066387414E+04  0.25500000920E-02 0.  1.
       -2    1    3    3    0  502 -0.20634290782E+03  0.52708482468E+03  0.18281929771E+03  0.59482661645E+03  0.25500000920E-02 0. -1.
</event>
<event>
 5   0  0.2054876E-05  0.1800765E+04  0.7818609E-02  0.8705893E-01
       -1   -1    0    0    0  501  0.00000000000E+00  0.00000000000E+00  0.81193490033E+03  0.81193490034E+03  0.50400001928E-02 0. -1.
        1   -1    0    0  501    0  0.00000000000E+00  0.00000000000E+00 -0.99846459590E+03  0.99846459591E+03  0.50400001928E-02 0.  1.
    10030    2    1    2    0    0  0.00000000000E+00  0.00000000000E+00 -0.18652969557E+03  0.18103994963E+04  0.18007645623E+04 0.  0.
        5    1    3    3  502    0  0.74594775837E+02  0.44560879002E+02 -0.99422721975E+03  0.99802800914E+03  0.46999998093E+01 0.  1.
       -5    1    3    3    0  502 -0.74594775837E+02 -0.44560879002E+02  0.80769752418E+03  0.81237148712E+03  0.46999998093E+01 0. -1.
</event>
<event>
 5   0  0.1960300E-05  0.1800609E+04  0.7818609E-02  0.8705976E-01
        1   -1    0    0  501    0  0.00000000000E+00  0.00000000000E+00  0.14731677539E+04  0.14731677539E+04  0.50400001928E-02 0. -1.
       -1   -1    0    0    0  501  0.00000000000E+00  0.00000000000E+00 -0.55020772342E+03  0.55020772345E+03  0.50400001928E-02 0.  1.
    10030    2    1    2    0    0  0.00000000000E+00  0.00000000000E+00  0.92296003044E+03  0.20233754773E+04  0.18006090926E+04 0.  0.
        3    1    3    3  502    0 -0.91050090789E+02 -0.33366122953E+03  0.13955373684E+04  0.14377567569E+04  0.10100000352E+00 0. -1.
       -3    1    3    3    0  502  0.91050090789E+02  0.33366122953E+03 -0.47257733799E+03  0.58561872042E+03  0.10100000352E+00 0.  1.
</event>
<event>
 5   0  0.3909859E-05  0.1796071E+04  0.7818609E-02  0.8708391E-01
       -2   -1    0    0    0  501  0.00000000000E+00  0.00000000000E+00  0.52246024600E+03  0.52246024600E+03  0.25500000920E-02 0. -1.
        2   -1    0    0  501    0  0.00000000000E+00  0.00000000000E+00 -0.15435970375E+04  0.15435970375E+04  0.25500000920E-02 0.  1.
    10030    2    1    2    0    0  0.00000000000E+00  0.00000000000E+00 -0.10211367915E+04  0.20660572835E+04  0.17960713660E+04 0.  0.
        4    1    3    3  502    0 -0.62896893312E+03 -0.88490704436E+02  0.21971190492E+03  0.67209185211E+03  0.12699999809E+01 0. -1.
       -4    1    3    3    0  502  0.62896893312E+03  0.88490704436E+02 -0.12408486964E+04  0.13939654314E+04  0.12699999809E+01 0.  1.
</event>
<event>
 5   0  0.1960300E-05  0.1806914E+04  0.7818609E-02  0.8702631E-01
       -1   -1    0    0    0  501  0.00000000000E+00  0.00000000000E+00  0.82615641084E+03  0.82615641085E+03  0.50400001928E-02 0.  1.
        1   -1    0    0  501    0  0.00000000000E+00  0.00000000000E+00 -0.98799018702E+03  0.98799018704E+03  0.50400001928E-02 0. -1.
    10030    2    1    2    0    0  0.00000000000E+00  0.00000000000E+00 -0.16183377619E+03  0.18141465979E+04  0.18069138628E+04 0.  0.
        3    1    3    3  502    0 -0.49567905309E+03  0.47169347757E+03 -0.67322915812E+03  0.95991143863E+03  0.10100000352E+00 0. -1.
       -3    1    3    3    0  502  0.49567905309E+03 -0.47169347757E+03  0.51139538194E+03  0.85423515926E+03  0.10100000352E+00 0.  1.
</event>
<event>
 5   0  0.1906857E-05  0.1797622E+04  0.7818609E-02  0.8707565E-01
        1   -1    0    0  501    0  0.00000000000E+00  0.00000000000E+00  0.10654426197E+04  0.10654426197E+04  0.50400001928E-02 0. -1.
       -1   -1    0    0    0  501  0.00000000000E+00  0.00000000000E+00 -0.75823996457E+03  0.75823996459E+03  0.50400001928E-02 0.  1.
    10030    2    1    2    0    0  0.00000000000E+00  0.00000000000E+00  0.30720265516E+03  0.18236825843E+04  0.17976219561E+04 0.  0.
        4    1    3    3  502    0  0.83281111698E+03 -0.33796207231E+03  0.14530707610E+03  0.91044411039E+03  0.12699999809E+01 0. -1.
       -4    1    3    3    0  502 -0.83281111698E+03  0.33796207231E+03  0.16189557906E+03  0.91323847395E+03  0.12699999809E+01 0.  1.
</event>
<event>
 5   0  0.1960300E-05  0.1797543E+04  0.7818609E-02  0.8707607E-01
        1   -1    0    0  501    0  0.00000000000E+00  0.00000000000E+00  0.69735575561E+03  0.69735575563E+03  0.50400001928E-02 0.  1.
       -1   -1    0    0    0  501  0.00000000000E+00  0.00000000000E+00 -0.11583614399E+04  0.11583614399E+04  0.50400001928E-02 0. -1.
    10030    2    1    2    0    0  0.00000000000E+00  0.00000000000E+00 -0.46100568432E+03  0.18557171956E+04  0.17975427864E+04 0.  0.
        3    1    3    3  502    0 -0.32610011823E+03 -0.25964719131E+03  0.59152809670E+03  0.72364594275E+03  0.10100000352E+00 0.  1.
       -3    1    3    3    0  502  0.32610011823E+03  0.25964719131E+03 -0.10525337810E+04  0.11320712528E+04  0.10100000352E+00 0. -1.
</event>
<event>
 5   0  0.3993393E-05  0.1801275E+04  0.7818609E-02  0.8705622E-01
        2   -1    0    0  501    0  0.00000000000E+00  0.00000000000E+00  0.13521361846E+04  0.13521361846E+04  0.25500000920E-02 0. -1.
       -2   -1    0    0    0  501  0.00000000000E+00  0.00000000000E+00 -0.59990118210E+03  0.59990118211E+03  0.25500000920E-02 0.  1.
    10030    2    1    2    0    0  0.00000000000E+00  0.00000000000E+00  0.75223500253E+03  0.19520373667E+04  0.18012752100E+04 0.  0.
        5    1    3    3  502    0  0.29007262338E+03  0.22669093937E+03 -0.51462320395E+03  0.63276381128E+03  0.46999998093E+01 0.  1.
       -5    1    3    3    0  502 -0.29007262338E+03 -0.22669093937E+03  0.12668582065E+04  0.13192735555E+04  0.46999998093E+01 0. -1.
</event>
<event>
 5   0  0.1906857E-05  0.1799440E+04  0.7818609E-02  0.8706598E-01
       -1   -1    0    0    0  501  0.00000000000E+00  0.00000000000E+00  0.53909280429E+03  0.53909280431E+03  0.50400001928E-02 0. -1.
        1   -1    0    0  501    0  0.00000000000E+00  0.00000000000E+00 -0.15015888581E+04  0.15015888582E+04  0.50400001928E-02 0.  1.
    10030    2    1    2    0    0  0.00000000000E+00  0.00000000000E+00 -0.96249605386E+03  0.20406816625E+04  0.17994396333E+04 0.  0.
        4    1    3    3  502    0  0.20943156105E+02  0.80928215702E+03 -0.92645764271E+03  0.12303258114E+04  0.12699999809E+01 0.  1.
       -4    1    3    3    0  502 -0.20943156105E+02 -0.80928215702E+03 -0.36038411148E+02  0.81035585111E+03  0.12699999809E+01 0. -1.
</event>
<event>
 5   0  0.2054876E-05  0.1800324E+04  0.7818609E-02  0.8706127E-01
        1   -1    0    0  501    0  0.00000000000E+00  0.00000000000E+00  0.22043664234E+04  0.22043664234E+04  0.50400001928E-02 0.  1.
       -1   -1    0    0    0  501  0.00000000000E+00  0.00000000000E+00 -0.36758480886E+03  0.36758480889E+03  0.50400001928E-02 0. -1.
    10030    2    1    2    0    0  0.00000000000E+00  0.00000000000E+00  0.18367816145E+04  0.25719512323E+04  0.18003239825E+04 0.  0.
        5    1    3    3  502    0  0.10833873094E+03  0.18624954269E+03  0.21669645945E+04  0.21776555780E+04  0.46999998093E+01 0.  1.
       -5    1    3    3    0  502 -0.10833873094E+03 -0.18624954269E+03 -0.33018297992E+03  0.39429565430E+03  0.46999998093E+01 0. -1.
</event>
<event>
 5   0  0.3993393E-05  0.1806445E+04  0.7818609E-02  0.8702880E-01
       -2   -1    0    0    0  501  0.00000000000E+00  0.00000000000E+00  0.56321823113E+03  0.56321823114E+03  0.25500000920E-02 0.  1.
        2   -1    0    0  501    0  0.00000000000E+00  0.00000000000E+00 -0.14484803071E+04  0.14484803071E+04  0.25500000920E-02 0. -1.
    10030    2    1    2    0    0  0.00000000000E+00  0.00000000000E+00 -0.88526207599E+03  0.20116985383E+04  0.18064445925E+04 0.  0.
        5    1    3    3  502    0 -0.64591565122E+03  0.45825846892E+03 -0.92623152680E+03  0.12186610620E+04  0.46999998093E+01 0. -1.
       -5    1    3    3    0  502  0.64591565122E+03 -0.45825846892E+03  0.40969450813E+02  0.79303747625E+03  0.46999998093E+01 0.  1.
</event>
<event>
 5   0  0.2054876E-05  0.1801366E+04  0.7818609E-02  0.8705573E-01
       -1   -1    0    0    0  501  0.00000000000E+00  0.00000000000E+00  0.75439407533E+03  0.75439407535E+03  0.50400001928E-02 0. -1.
        1   -1    0    0  501    0  0.00000000000E+00  0.00000000000E+00 -0.10753397622E+04  0.10753397622E+04  0.50400001928E-02 0.  1.
    10030    2    1    2    0    0  0.00000000000E+00  0.00000000000E+00 -0.32094568684E+03  0.18297338375E+04  0.18013660878E+04 0.  0.
        5    1    3    3  502    0 -0.81777874460E+03 -0.28197891699E+03 -0.41528929825E+03  0.95956316936E+03  0.46999998093E+01 0.  1.
       -5    1    3    3    0  502  0.81777874460E+03  0.28197891699E+03  0.94343611406E+02  0.87017066818E+03  0.46999998093E+01 0. -1.
</event>
<event>
 5   0  0.3909859E-05  0.1799588E+04  0.7818609E-02  0.8706518E-01
        2   -1    0    0  501    0  0.00000000000E+00  0.00000000000E+00  0.17444994022E+04  0.17444994022E+04  0.25500000920E-02 0.  1.
       -2   -1    0    0    0  501  0.00000000000E+00  0.00000000000E+00 -0.46410429543E+03  0.46410429543E+03  0.25500000920E-02 0. -1.
    10030    2    1    2    0    0  0.00000000000E+00  0.00000000000E+00  0.12803951068E+04  0.22086036976E+04  0.17995884707E+04 0.  0.
        4    1    3    3  502    0  0.15850339177E+03 -0.88615426252E+02 -0.44138042157E+03  0.47727802005E+03  0.12699999809E+01 0. -1.
       -4    1    3    3    0  502 -0.15850339177E+03  0.88615426252E+02  0.17217755283E+04  0.17313256776E+04  0.12699999809E+01 0.  1.
</event>
<event>
 5   0  0.1906857E-05  0.1803841E+04  0.7818609E-02  0.8704260E-01
       -1   -1    0    0    0  501  0.00000000000E+00  0.00000000000E+00  0.49853420619E+03  0.49853420622E+03  0.50400001928E-02 0.  1.
        1   -1    0    0  501    0  0.00000000000E+00  0.00000000000E+00 -0.16317044555E+04  0.16317044555E+04  0.50400001928E-02 0. -1.
    10030    2    1    2    0    0  0.00000000000E+00  0.00000000000E+00 -0.11331702493E+04  0.21302386617E+04  0.18038408860E+04 0.  0.
        4    1    3    3  502    0  0.15231646313E+02  0.52844209475E+03 -0.14295454560E+04  0.15241669443E+04  0.12699999809E+01 0. -1.
       -4    1    3    3    0  502 -0.15231646313E+02 -0.52844209475E+03  0.29637520671E+03  0.60607171737E+03  0.12699999809E+01 0.  1.
</event>
<event>
 5   0  0.2001811E-05  0.1800964E+04  0.7818609E-02  0.8705787E-01
       -1   -1    0    0    0  501  0.00000000000E+00  0.00000000000E+00  0.95376917660E+03  0.95376917661E+03  0.50400001928E-02 0. -1.
        1   -1    0    0  501    0  0.00000000000E+00  0.00000000000E+00 -0.85017154818E+03  0.85017154819E+03  0.50400001928E-02 0.  1.
    10030    2    1    2    0    0  0.00000000000E+00  0.00000000000E+00  0.10359762842E+03  0.18039407248E+04  0.18009635393E+04 0.  0.
        2    1    3    3  502    0 -0.92091924246E+02 -0.28999786210E+03 -0.79712079969E+03  0.85321817365E+03  0.25500000920E-02 0.  1.
       -2    1    3    3    0  502  0.92091924246E+02  0.28999786210E+03  0.90071842811E+03  0.95072255116E+03  0.25500000920E-02 0. -1.
</event>
<event>
 5   0  0.1960300E-05  0.1800634E+04  0.7818609E-02  0.8705962E-01
        1   -1    0    0  501    0  0.00000000000E+00  0.00000000000E+00  0.62853053873E+03  0.62853053875E+03  0.50400001928E-02 0. -1.
       -1   -1    0    0    0  501  0.00000000000E+00  0.00000000000E+00 -0.12896281886E+04  0.12896281886E+04  0.50400001928E-02 0.  1.
    10030    2    1    2    0    0  0.00000000000E+00  0.00000000000E+00 -0.66109764985E+03  0.19181587273E+04  0.18006339996E+04 0.  0.
        3    1    3    3  502    0  0.79760594858E+03  0.23006277354E+03  0.40719128237E+02  0.83112104208E+03  0.10100000352E+00 0. -1.
       -3    1    3    3    0  502 -0.79760594858E+03 -0.23006277354E+03 -0.70181677808E+03  0.10870376853E+04  0.10100000352E+00 0.  1.
</event>
<event>
 5   0  0.3983176E-05  0.1800522E+04  0.7818609E-02  0.8706022E-01
        2   -1    0    0  501    0  0.00000000000E+00  0.00000000000E+00  0.10751874414E+04  0.10751874414E+04  0.25500000920E-02 0.  1.
       -2   -1    0    0    0  501  0.00000000000E+00  0.00000000000E+00 -0.75379396473E+03  0.75379396473E+03  0.25500000920E-02 0. -1.
    10030    2    1    2    0    0  0.00000000000E+00  0.00000000000E+00  0.32139347666E+03  0.18289814061E+04  0.18005219291E+04 0.  0.
        3    1    3    3  502    0  0.82463814701E+03 -0.11069858583E+03 -0.18852134832E+03  0.85312517217E+03  0.10100000352E+00 0. -1.
       -3    1    3    3    0  502 -0.82463814701E+03  0.11069858583E+03  0.50991482498E+03  0.97585623396E+03  0.10100000352E+00 0.  1.
</event>
<event>
 5   0  0.2001811E-05  0.1800971E+04  0.7818609E-02  0.8705783E-01
        1   -1    0    0  501    0  0.00000000000E+00  0.00000000000E+00  0.66215645023E+03  0.66215645025E+03  0.50400001928E-02 0.  1.
       -1   -1    0    0    0  501  0.00000000000E+00  0.00000000000E+00 -0.12245961605E+04  0.12245961606E+04  0.50400001928E-02 0. -1.
    10030    2    1    2    0    0  0.00000000000E+00  0.00000000000E+00 -0.56243971032E+03  0.18867526108E+04  0.18009711232E+04 0.  0.
        2    1    3    3  502    0  0.85449686549E+02 -0.97774966585E+02 -0.12147361906E+04  0.12216569100E+04  0.25500000920E-02 0. -1.
       -2    1    3    3    0  502 -0.85449686549E+02  0.97774966585E+02  0.65229648029E+03  0.66509570080E+03  0.25500000920E-02 0.  1.
</event>
<event>
 5   0  0.2001811E-05  0.1803665E+04  0.7818609E-02  0.8704353E-01
        1   -1    0    0  501    0  0.00000000000E+00  0.00000000000E+00  0.82067821072E+03  0.82067821073E+03  0.50400001928E-02 0. -1.
       -1   -1    0    0    0  501  0.00000000000E+00  0.00000000000E+00 -0.99101207160E+03  0.99101207161E+03  0.50400001928E-02 0.  1.
    10030    2    1    2    0    0  0.00000000000E+00  0.00000000000E+00 -0.17033386088E+03  0.18116902823E+04  0.18036651726E+04 0.  0.
        2    1    3    3  502    0  0.46355641522E+02  0.59546810088E+03 -0.76387365726E+03  0.96965667580E+03  0.25500000920E-02 0.  1.
       -2    1    3    3    0  502 -0.46355641522E+02 -0.59546810088E+03  0.59353979638E+03  0.84203360655E+03  0.25500000920E-02 0. -1.
</event>
<event>
 5   0  0.3993393E-05  0.1799080E+04  0.7818609E-02  0.8706789E-01
       -2   -1    0    0    0  501  0.00000000000E+00  0.00000000000E+00  0.44573310250E+03  0.44573310251E+03  0.25500000920E-02 0.  1.
        2   -1    0    0  501    0  0.00000000000E+00  0.00000000000E+00 -0.18153740424E+04  0.18153740424E+04  0.25500000920E-02 0. -1.
    10030    2    1    2    0    0  0.00000000000E+00  0.00000000000E+00 -0.13696409399E+04  0.22611071449E+04  0.17990801029E+04 0.  0.
        5    1    3    3  502    0 -0.26135762931E+03  0.78369331165E+03 -0.23751653160E+03  0.85960410068E+03  0.46999998093E+01 0.  1.
       -5    1    3    3    0  502  0.26135762931E+03 -0.78369331165E+03 -0.11321244083E+04  0.14015030442E+04  0.46999998093E+01 0. -1.
</event>
<event>
 5   0  0.3909859E-05  0.1794328E+04  0.7818609E-02  0.8709322E-01
        2   -1    0    0  501    0  0.00000000000E+00  0.00000000000E+00  0.12980079830E+04  0.12980079830E+04  0.25500000920E-02 0. -1.
       -2   -1    0    0    0  501  0.00000000000E+00  0.00000000000E+00 -0.62010622826E+03  0.62010622826E+03  0.25500000920E-02 0.  1.
    10030    2    1    2    0    0  0.00000000000E+00  0.00000000000E+00  0.67790175477E+03  0.19181142113E+04  0.17943275449E+04 0.  0.
        4    1    3    3  502    0  0.50901971127E+03  0.40981536543E+03 -0.31815193599E+03  0.72682320235E+03  0.12699999809E+01 0.  1.
       -4    1    3    3    0  502 -0.50901971127E+03 -0.40981536543E+03  0.99605369076E+03  0.11912910089E+04  0.12699999809E+01 0. -1.
</event>
<event>
 5   0  0.2001811E-05  0.1799606E+04  0.7818609E-02  0.8706509E-01
       -1   -1    0    0    0  501  0.00000000000E+00  0.00000000000E+00  0.40767761176E+03  0.40767761179E+03  0.50400001928E-02 0.  1.
        1   -1    0    0  501    0  0.00000000000E+00  0.00000000000E+00 -0.19859954429E+04  0.19859954429E+04  0.50400001928E-02 0. -1.
    10030    2    1    2    0    0  0.00000000000E+00  0.00000000000E+00 -0.15783178312E+04  0.23936730547E+04  0.17996064894E+04 0.  0.
        2    1    3    3  502    0  0.93181351608E+02 -0.16879764731E+03  0.37987799431E+03  0.42600786447E+03  0.25500000920E-02 0.  1.
       -2    1    3    3    0  502 -0.93181351608E+02  0.16879764731E+03 -0.19581958255E+04  0.19676651902E+04  0.25500000920E-02 0. -1.
</event>
<event>
 5   0  0.2038338E-05  0.1790900E+04  0.7818609E-02  0.8711154E-01
        1   -1    0    0  501    0  0.00000000000E+00  0.00000000000E+00  0.12338690367E+04  0.12338690367E+04  0.50400001928E-02 0. -1.
       -1   -1    0    0    0  501  0.00000000000E+00  0.00000000000E+00 -0.64985061694E+03  0.64985061696E+03  0.50400001928E-02 0.  1.
    10030    2    1    2    0    0  0.00000000000E+00  0.00000000000E+00  0.58401841974E+03  0.18837196537E+04  0.17908998350E+04 0.  0.
        1    1    3    3  502    0 -0.32450157175E+03  0.14972534609E+03 -0.57158729204E+03  0.67411496184E+03  0.50400001928E-02 0.  1.
       -1    1    3    3    0  502  0.32450157175E+03 -0.14972534609E+03  0.11556057118E+04  0.12096046918E+04  0.50400001928E-02 0. -1.
</event>
<event>
 5   0  0.1960300E-05  0.1799429E+04  0.7818609E-02  0.8706603E-01
        1   -1    0    0  501    0  0.00000000000E+00  0.00000000000E+00  0.84612023992E+03  0.84612023993E+03  0.50400001928E-02 0. -1.
       -1   -1    0    0    0  501  0.00000000000E+00  0.00000000000E+00 -0.95670317955E+03  0.95670317956E+03  0.50400001928E-02 0.  1.
    10030    2    1    2    0    0  0.00000000000E+00  0.00000000000E+00 -0.11058293963E+03  0.18028234195E+04  0.17994287136E+04 0.  0.
        3    1    3    3  502    0  0.13025519287E+03  0.41524003190E+03 -0.84423829826E+03  0.94980472404E+03  0.10100000352E+00 0.  1.
       -3    1    3    3    0  502 -0.13025519287E+03 -0.41524003190E+03  0.73365535862E+03  0.85301869546E+03  0.10100000352E+00 0. -1.
</event>
<event>
 5   0  0.4015729E-05  0.1799926E+04  0.7818609E-02  0.8706339E-01
        2   -1    0    0  501    0  0.00000000000E+00  0.00000000000E+00  0.55658003813E+03  0.55658003813E+03  0.25500000920E-02 0.  1.
       -2   -1    0    0    0  501  0.00000000000E+00  0.00000000000E+00 -0.14551960397E+04  0.14551960397E+04  0.25500000920E-02 0. -1.
    10030    2    1    2    0    0  0.00000000000E+00  0.00000000000E+00 -0.89861600159E+03  0.20117760779E+04  0.17999256288E+04 0.  0.
        2    1    3    3  502    0 -0.50364226779E+02  0.41450472025E+03 -0.13403762983E+04  0.14039085937E+04  0.25500000920E-02 0. -1.
       -2    1    3    3    0  502  0.50364226779E+02 -0.41450472025E+03  0.44176029674E+03  0.60786748411E+03  0.25500000920E-02 0.  1.
</event>
<event>
 5   0  0.2038338E-05  0.1799816E+04  0.7818609E-02  0.8706398E-01
       -1   -1    0    0    0  501  0.00000000000E+00  0.00000000000E+00  0.55524107249E+03  0.55524107251E+03  0.50400001928E-02 0.  1.
        1   -1    0    0  501    0  0.00000000000E+00  0.00000000000E+00 -0.14585269531E+04  0.14585269531E+04  0.50400001928E-02 0. -1.
    10030    2    1    2    0    0  0.00000000000E+00  0.00000000000E+00 -0.90328588062E+03  0.20137680256E+04  0.17998156236E+04 0.  0.
        1    1    3    3  502    0  0.74403073440E+02  0.88270378854E+03 -0.62901994503E+03  0.10864473696E+04  0.50400001928E-02 0. -1.
       -1    1    3    3    0  502 -0.74403073440E+02 -0.88270378854E+03 -0.27426593558E+03  0.92732065602E+03  0.50400001928E-02 0.  1.
</event>
<event>
 5   0  0.3993393E-05  0.1796291E+04  0.7818609E-02  0.8708274E-01
        2   -1    0    0  501    0  0.00000000000E+00  0.00000000000E+00  0.98451505260E+03  0.98451505261E+03  0.25500000920E-02 0. -1.
       -2   -1    0    0    0  501  0.00000000000E+00  0.00000000000E+00 -0.81935330148E+03  0.81935330148E+03  0.25500000920E-02 0.  1.
    10030    2    1    2    0    0  0.00000000000E+00  0.00000000000E+00  0.16516175113E+03  0.18038683541E+04  0.17962913558E+04 0.  0.
        5    1    3    3  502    0  0.46689603128E+03  0.32831263872E+03  0.77894839121E+03  0.96569341871E+03  0.46999998093E+01 0. -1.
       -5    1    3    3    0  502 -0.46689603128E+03 -0.32831263872E+03 -0.61378664008E+03  0.83817493539E+03  0.46999998093E+01 0.  1.
</event>
<event>
 5   0  0.1960300E-05  0.1798958E+04  0.7818609E-02  0.8706854E-01
        1   -1    0    0  501    0  0.00000000000E+00  0.00000000000E+00  0.49021202774E+03  0.49021202776E+03  0.50400001928E-02 0.  1.
       -1   -1    0    0    0  501  0.00000000000E+00  0.00000000000E+00 -0.16504332746E+04  0.16504332746E+04  0.50400001928E-02 0. -1.
    10030    2    1    2    0    0  0.00000000000E+00  0.00000000000E+00 -0.11602212469E+04  0.21406453024E+04  0.17989577452E+04 0.  0.
        3    1    3    3  502    0 -0.48064061222E+03 -0.54571002538E+01  0.32456747328E+03  0.57999071800E+03  0.10100000352E+00 0.  1.
       -3    1    3    3    0  502  0.48064061222E+03  0.54571002538E+01 -0.14847887202E+04  0.15606545844E+04  0.10100000352E+00 0. -1.
</event>
<event>
 5   0  0.4015729E-05  0.1800932E+04  0.7818609E-02  0.8705804E-01
       -2   -1    0    0    0  501  0.00000000000E+00  0.00000000000E+00  0.17822601784E+04  0.17822601784E+04  0.25500000920E-02 0. -1.
        2   -1    0    0  501    0  0.00000000000E+00  0.00000000000E+00 -0.45494993219E+03  0.45494993220E+03  0.25500000920E-02 0.  1.
    10030    2    1    2    0    0  0.00000000000E+00  0.00000000000E+00  0.13273102462E+04  0.22372101106E+04  0.18009321446E+04 0.  0.
        2    1    3    3  502    0  0.67931842795E+03 -0.52549417979E+03  0.99980170390E+03  0.13180368381E+04  0.25500000920E-02 0. -1.
       -2    1    3    3    0  502 -0.67931842795E+03  0.52549417979E+03  0.32750854231E+03  0.91917327248E+03  0.25500000920E-02 0.  1.
</event>
<event>
 5   0  0.1446750E-05  0.1792219E+04  0.7818609E-02  0.8710448E-01
        3   -1    0    0  501    0  0.00000000000E+00  0.00000000000E+00  0.11946193358E+04  0.11946193400E+04  0.10100000352E+00 0. -1.
       -3   -1    0    0    0  501  0.00000000000E+00  0.00000000000E+00 -0.67219059140E+03  0.67219059899E+03  0.10100000352E+00 0.  1.
    10030    2    1    2    0    0  0.00000000000E+00  0.00000000000E+00  0.52242874435E+03  0.18668099390E+04  0.17922186126E+04 0.  0.
        1    1    3    3  502    0 -0.10334536358E+03  0.81217061257E+03  0.64067069852E+03  0.10395962255E+04  0.50400001928E-02 0. -1.
       -1    1    3    3    0  502  0.10334536358E+03 -0.81217061257E+03 -0.11824195416E+03  0.82721371352E+03  0.50400001928E-02 0.  1.
</event>
<event>
 5   0  0.3993393E-05  0.1789767E+04  0.7818609E-02  0.8711760E-01
       -2   -1    0    0    0  501  0.00000000000E+00  0.00000000000E+00  0.50145119819E+03  0.50145119820E+03  0.25500000920E-02 0.  1.
        2   -1    0    0  501    0  0.00000000000E+00  0.00000000000E+00 -0.15969976415E+04  0.15969976415E+04  0.25500000920E-02 0. -1.
    10030    2    1    2    0    0  0.00000000000E+00  0.00000000000E+00 -0.10955464433E+04  0.20984488397E+04  0.17897668908E+04 0.  0.
        5    1    3    3  502    0 -0.87529473555E+03 -0.11200070611E+03 -0.37343644756E+03  0.95820765109E+03  0.46999998093E+01 0. -1.
       -5    1    3    3    0  502  0.87529473555E+03  0.11200070611E+03 -0.72210999576E+03  0.11402411886E+04  0.46999998093E+01 0.  1.
</event>
<event>
 5   0  0.2038338E-05  0.1800419E+04  0.7818609E-02  0.8706077E-01
       -1   -1    0    0    0  501  0.00000000000E+00  0.00000000000E+00  0.98055393556E+03  0.98055393557E+03  0.50400001928E-02 0. -1.
        1   -1    0    0  501    0  0.00000000000E+00  0.00000000000E+00 -0.82644849246E+03  0.82644849248E+03  0.50400001928E-02 0.  1.
    10030    2    1    2    0    0  0.00000000000E+00  0.00000000000E+00  0.15410544310E+03  0.18070024281E+04  0.18004191977E+04 0.  0.
        1    1    3    3  502    0  0.35499234916E+03  0.89049835899E+01  0.90728867019E+03  0.97430570037E+03  0.50400001928E-02 0. -1.
       -1    1    3    3    0  502 -0.35499234916E+03 -0.89049835899E+01 -0.75318322709E+03  0.83269672768E+03  0.50400001928E-02 0.  1.
</event>
<event>
 5   0  0.1906857E-05  0.1797678E+04  0.7818609E-02  0.8707535E-01
        1   -1    0    0  501    0  0.00000000000E+00  0.00000000000E+00  0.83664451384E+03  0.83664451385E+03  0.50400001928E-02 0. -1.
       -1   -1    0    0    0  501  0.00000000000E+00  0.00000000000E+00 -0.96565669578E+03  0.96565669580E+03  0.50400001928E-02 0.  1.
    10030    2    1    2    0    0  0.00000000000E+00  0.00000000000E+00 -0.12901218195E+03  0.18023012096E+04  0.17976778096E+04 0.  0.
        4    1    3    3  502    0  0.47408482482E+03 -0.26694622640E+03 -0.78181320048E+03  0.95249682533E+03  0.12699999809E+01 0.  1.
       -4    1    3    3    0  502 -0.47408482482E+03  0.26694622640E+03  0.65280101853E+03  0.84980438432E+03  0.12699999809E+01 0. -1.
</event>
<event>
 5   0  0.3983176E-05  0.1783787E+04  0.7818609E-02  0.8714969E-01
        2   -1    0    0  501    0  0.00000000000E+00  0.00000000000E+00  0.87815944445E+03  0.87815944446E+03  0.25500000920E-02 0. -1.
       -2   -1    0    0    0  501  0.00000000000E+00  0.00000000000E+00 -0.90584226645E+03  0.90584226645E+03  0.25500000920E-02 0.  1.
    10030    2    1    2    0    0  0.00000000000E+00  0.00000000000E+00 -0.27682821993E+02  0.17840017109E+04  0.17837869172E+04 0.  0.
        3    1    3    3  502    0 -0.60359534886E+03 -0.13479438506E+03  0.62886888351E+03  0.88202775141E+03  0.10100000352E+00 0. -1.
       -3    1    3    3    0  502  0.60359534886E+03  0.13479438506E+03 -0.65655170550E+03  0.90197395950E+03  0.10100000352E+00 0.  1.
</event>
<event>
 5   0  0.2054876E-05  0.1802918E+04  0.7818609E-02  0.8704749E-01
        1   -1    0    0  501    0  0.00000000000E+00  0.00000000000E+00  0.11697872667E+04  0.11697872667E+04  0.50400001928E-02 0.  1.
       -1   -1    0    0    0  501  0.00000000000E+00  0.00000000000E+00 -0.69468023631E+03  0.69468023633E+03  0.50400001928E-02 0. -1.
    10030    2    1    2    0    0  0.00000000000E+00  0.00000000000E+00  0.47510703042E+03  0.18644675031E+04  0.18029177407E+04 0.  0.
        5    1    3    3  502    0 -0.31725465619E+03  0.84119383180E+03  0.16935971124E+03  0.91485648127E+03  0.46999998093E+01 0. -1.
       -5    1    3    3    0  502  0.31725465619E+03 -0.84119383180E+03  0.30574731918E+03  0.94961102179E+03  0.46999998093E+01 0.  1.
</event>
<event>
 5   0  0.3984648E-05  0.1796143E+04  0.7818609E-02  0.8708353E-01
       -2   -1    0    0    0  501  0.00000000000E+00  0.00000000000E+00  0.62181264756E+03  0.62181264756E+03  0.25500000920E-02 0. -1.
        2   -1    0    0  501    0  0.00000000000E+00  0.00000000000E+00 -0.12970661119E+04  0.12970661119E+04  0.25500000920E-02 0.  1.
    10030    2    1    2    0    0  0.00000000000E+00  0.00000000000E+00 -0.67525346437E+03  0.19188787595E+04  0.17961426593E+04 0.  0.
        1    1    3    3  502    0 -0.81973354320E+02 -0.83151748235E+03  0.14098591178E+02  0.83566723316E+03  0.50400001928E-02 0. -1.
       -1    1    3    3    0  502  0.81973354320E+02  0.83151748235E+03 -0.68935205555E+03  0.10832115263E+04  0.50400001928E-02 0.  1.
</event>
<event>
 5   0  0.2038338E-05  0.1783686E+04  0.7818609E-02  0.8715023E-01
       -1   -1    0    0    0  501  0.00000000000E+00  0.00000000000E+00  0.49625752168E+03  0.49625752170E+03  0.50400001928E-02 0.  1.
        1   -1    0    0  501    0  0.00000000000E+00  0.00000000000E+00 -0.16027645586E+04  0.16027645586E+04  0.50400001928E-02 0. -1.
    10030    2    1    2    0    0  0.00000000000E+00  0.00000000000E+00 -0.11065070369E+04  0.20990220803E+04  0.17836860348E+04 0.  0.
        1    1    3    3  502    0 -0.73956771395E+03 -0.48597066640E+03 -0.68353248664E+03  0.11181880667E+04  0.50400001928E-02 0. -1.
       -1    1    3    3    0  502  0.73956771395E+03  0.48597066640E+03 -0.42297455029E+03  0.98083401365E+03  0.50400001928E-02 0.  1.
</event>
<event>
 5   0  0.4015729E-05  0.1796756E+04  0.7818609E-02  0.8708026E-01
       -2   -1    0    0    0  501  0.00000000000E+00  0.00000000000E+00  0.11004098933E+04  0.11004098933E+04  0.25500000920E-02 0.  1.
        2   -1    0    0  501    0  0.00000000000E+00  0.00000000000E+00 -0.73343883491E+03  0.73343883491E+03  0.25500000920E-02 0. -1.
    10030    2    1    2    0    0  0.00000000000E+00  0.00000000000E+00  0.36697105840E+03  0.18338487282E+04  0.17967563553E+04 0.  0.
        2    1    3    3  502    0  0.29211387015E+03 -0.51827670473E+03  0.87054055766E+03  0.10544107920E+04  0.25500000920E-02 0.  1.
       -2    1    3    3    0  502 -0.29211387015E+03  0.51827670473E+03 -0.50356949926E+03  0.77943793620E+03  0.25500000920E-02 0. -1.
</event>
<event>
 5   0  0.1960300E-05  0.1803842E+04  0.7818609E-02  0.8704259E-01
       -1   -1    0    0    0  501  0.00000000000E+00  0.00000000000E+00  0.49644333909E+03  0.49644333911E+03  0.50400001928E-02 0. -1.
        1   -1    0    0  501    0  0.00000000000E+00  0.00000000000E+00 -0.16385790839E+04  0.16385790839E+04  0.50400001928E-02 0.  1.
    10030    2    1    2    0    0  0.00000000000E+00  0.00000000000E+00 -0.11421357448E+04  0.21350224230E+04  0.18038422013E+04 0.  0.
        3    1    3    3  502    0  0.24885031640E+02  0.63077019600E+02  0.49342208019E+03  0.49805956935E+03  0.10100000352E+00 0. -1.
       -3    1    3    3    0  502 -0.24885031640E+02 -0.63077019600E+02 -0.16355578250E+04  0.16369628536E+04  0.10100000352E+00 0.  1.
</event>
<event>
 5   0  0.3909859E-05  0.1812279E+04  0.7818609E-02  0.8699797E-01
        2   -1    0    0  501    0  0.00000000000E+00  0.00000000000E+00  0.70539356539E+03  0.70539356540E+03  0.25500000920E-02 0. -1.
       -2   -1    0    0    0  501  0.00000000000E+00  0.00000000000E+00 -0.11640150860E+04  0.11640150860E+04  0.25500000920E-02 0.  1.
    10030    2    1    2    0    0  0.00000000000E+00  0.00000000000E+00 -0.45862152056E+03  0.18694086514E+04  0.18122789539E+04 0.  0.
        4    1    3    3  502    0 -0.12702839258E+03  0.26439850245E+03  0.65506325875E+03  0.71774108596E+03  0.12699999809E+01 0. -1.
       -4    1    3    3    0  502  0.12702839258E+03 -0.26439850245E+03 -0.11136847793E+04  0.11516675654E+04  0.12699999809E+01 0.  1.
</event>
<event>
 5   0  0.3984648E-05  0.1803187E+04  0.7818609E-02  0.8704606E-01
       -2   -1    0    0    0  501  0.00000000000E+00  0.00000000000E+00  0.59867280960E+03  0.59867280961E+03  0.25500000920E-02 0.  1.
        2   -1    0    0  501    0  0.00000000000E+00  0.00000000000E+00 -0.13577882109E+04  0.13577882109E+04  0.25500000920E-02 0. -1.
    10030    2    1    2    0    0  0.00000000000E+00  0.00000000000E+00 -0.75911540129E+03  0.19564610205E+04  0.18031870486E+04 0.  0.
        1    1    3    3  502    0  0.18486494997E+01  0.60877265436E+03 -0.11011150950E+04  0.12581979235E+04  0.50400001928E-02 0. -1.
       -1    1    3    3    0  502 -0.18486494997E+01 -0.60877265436E+03  0.34199969367E+03  0.69826309705E+03  0.50400001928E-02 0.  1.
</event>
<event>
 5   0  0.1960300E-05  0.1800621E+04  0.7818609E-02  0.8705969E-01
        1   -1    0    0  501    0  0.00000000000E+00  0.00000000000E+00  0.10034356886E+04  0.10034356886E+04  0.50400001928E-02 0.  1.
       -1   -1    0    0    0  501  0.00000000000E+00  0.00000000000E+00 -0.80778337127E+03  0.80778337128E+03  0.50400001928E-02 0. -1.
    10030    2    1    2    0    0  0.00000000000E+00  0.00000000000E+00  0.19565231729E+03  0.18112190599E+04  0.18006206301E+04 0.  0.
        3    1    3    3  502    0 -0.73287452161E+03  0.35060438710E+03 -0.29243965418E+03  0.86345206133E+03  0.10100000352E+00 0.  1.
       -3    1    3    3    0  502  0.73287452161E+03 -0.35060438710E+03  0.48809197147E+03  0.94776699853E+03  0.10100000352E+00 0. -1.
</event>
<event>
 5   0  0.2054876E-05  0.1800550E+04  0.7818609E-02  0.8706007E-01
       -1   -1    0    0    0  501  0.00000000000E+00  0.00000000000E+00  0.13108148528E+04  0.13108148528E+04  0.50400001928E-02 0. -1.
        1   -1    0    0  501    0  0.00000000000E+00  0.00000000000E+00 -0.61831418310E+03  0.61831418312E+03  0.50400001928E-02 0.  1.
    10030    2    1    2    0    0  0.00000000000E+00  0.00000000000E+00  0.69250066969E+03  0.19291290359E+04  0.18005503769E+04 0.  0.
        5    1    3    3  502    0  0.52250785863E+03 -0.66382977495E+03  0.67957600517E+03  0.10842186446E+04  0.46999998093E+01 0. -1.
       -5    1    3    3    0  502 -0.52250785863E+03  0.66382977495E+03  0.12924664516E+02  0.84491039134E+03  0.46999998093E+01 0.  1.
</event>
<event>
 5   0  0.1960300E-05  0.1801069E+04  0.7818609E-02  0.8705731E-01
        1   -1    0    0  501    0  0.00000000000E+00  0.00000000000E+00  0.10873486833E+04  0.10873486833E+04  0.50400001928E-02 0. -1.
       -1   -1    0    0    0  501  0.00000000000E+00  0.00000000000E+00 -0.74581669752E+03  0.74581669754E+03  0.50400001928E-02 0.  1.
    10030    2    1    2    0    0  0.00000000000E+00  0.00000000000E+00  0.34153198575E+03  0.18331653808E+04  0.18010694646E+04 0.  0.
        3    1    3    3  502    0  0.86878825875E+03 -0.15891080696E+03  0.34973203534E+03  0.94992536015E+03  0.10100000352E+00 0.  1.
       -3    1    3    3    0  502 -0.86878825875E+03  0.15891080696E+03 -0.82000495903E+01  0.88324002068E+03  0.10100000352E+00 0. -1.
</event>
<event>
 5   0  0.2054876E-05  0.1799515E+04  0.7818609E-02  0.8706557E-01
        1   -1    0    0  501    0  0.00000000000E+00  0.00000000000E+00  0.66669576193E+03  0.66669576194E+03  0.50400001928E-02 0.  1.
       -1   -1    0    0    0  501  0.00000000000E+00  0.00000000000E+00 -0.12142927633E+04  0.12142927633E+04  0.50400001928E-02 0. -1.
    10030    2    1    2    0    0  0.00000000000E+00  0.00000000000E+00 -0.54759700138E+03  0.18809885253E+04  0.17995153115E+04 0.  0.
        5    1    3    3  502    0  0.37272348904E+03  0.79893927575E+03 -0.85895996182E+02  0.88579172370E+03  0.46999998093E+01 0.  1.
       -5    1    3    3    0  502 -0.37272348904E+03 -0.79893927575E+03 -0.46170100520E+03  0.99519680155E+03  0.46999998093E+01 0. -1.
</event>
<event>
 5   0  0.4015729E-05  0.1795214E+04  0.7818609E-02  0.8708849E-01
       -2   -1    0    0    0  501  0.00000000000E+00  0.00000000000E+00  0.87843364756E+03  0.87843364756E+03  0.25500000920E-02 0. -1.
        2   -1    0    0  501    0  0.00000000000E+00  0.00000000000E+00 -0.91719927336E+03  0.91719927336E+03  0.25500000920E-02 0.  1.
    10030    2    1    2    0    0  0.00000000000E+00  0.00000000000E+00 -0.38765625798E+02  0.17956329209E+04  0.17952144198E+04 0.  0.
        2    1    3    3  502    0 -0.30807231403E+03  0.38542748869E+03 -0.76938146049E+03  0.91400805875E+03  0.25500000920E-02 0.  1.
       -2    1    3    3    0  502  0.30807231403E+03 -0.38542748869E+03  0.73061583469E+03  0.88162486218E+03  0.25500000920E-02 0. -1.
</event>
<event>
 5   0  0.1960300E-05  0.1800019E+04  0.7818609E-02  0.8706289E-01
       -1   -1    0    0    0  501  0.00000000000E+00  0.00000000000E+00  0.10244733282E+04  0.10244733282E+04  0.50400001928E-02 0. -1.
        1   -1    0    0  501    0  0.00000000000E+00  0.00000000000E+00 -0.79066698678E+03  0.79066698680E+03  0.50400001928E-02 0.  1.
    10030    2    1    2    0    0  0.00000000000E+00  0.00000000000E+00  0.23380634139E+03  0.18151403150E+04  0.18000191548E+04 0.  0.
        3    1    3    3  502    0  0.39027274558E+02 -0.49601662563E+03  0.87317777705E+03  0.10049851052E+04  0.10100000352E+00 0. -1.
       -3    1    3    3    0  502 -0.39027274558E+02  0.49601662563E+03 -0.63937143566E+03  0.81015520982E+03  0.10100000352E+00 0.  1.
</event>
<event>
 5   0  0.3984648E-05  0.1801303E+04  0.7818609E-02  0.8705607E-01
        2   -1    0    0  501    0  0.00000000000E+00  0.00000000000E+00  0.23276081713E+04  0.23276081713E+04  0.25500000920E-02 0.  1.
       -2   -1    0    0    0  501  0.00000000000E+00  0.00000000000E+00 -0.34850063720E+03  0.34850063721E+03  0.25500000920E-02 0. -1.
    10030    2    1    2    0    0  0.00000000000E+00  0.00000000000E+00  0.19791075341E+04  0.26761088085E+04  0.18013027851E+04 0.  0.
        1    1    3    3  502    0 -0.67443639214E+03  0.41353668058E+03  0.35003992483E+03  0.86510402972E+03  0.50400001928E-02 0. -1.
       -1    1    3    3    0  502  0.67443639214E+03 -0.41353668058E+03  0.16290676093E+04  0.18110047788E+04  0.50400001928E-02 0.  1.
</event>
<event>
 5   0  0.3909859E-05  0.1841475E+04  0.7818609E-02  0.8684549E-01
        2   -1    0    0  501    0  0.00000000000E+00  0.00000000000E+00  0.58768364413E+03  0.58768364413E+03  0.25500000920E-02 0. -1.
       -2   -1    0    0    0  501  0.00000000000E+00  0.00000000000E+00 -0.14425404146E+04  0.14425404146E+04  0.25500000920E-02 0.  1.
    10030    2    1    2    0    0  0.00000000000E+00  0.00000000000E+00 -0.85485677048E+03  0.20302240587E+04  0.18414748520E+04 0.  0.
        4    1    3    3  502    0 -0.22468539570E+03  0.61515468488E+02  0.55465506097E+03  0.60159083226E+03  0.12699999809E+01 0. -1.
       -4    1    3    3    0  502  0.22468539570E+03 -0.61515468488E+02 -0.14095118314E+04  0.14286332265E+04  0.12699999809E+01 0.  1.
</event>
<event>
 5   0  0.1960300E-05  0.1801236E+04  0.7818609E-02  0.8705642E-01
        1   -1    0    0  501    0  0.00000000000E+00  0.00000000000E+00  0.10530004672E+04  0.10530004672E+04  0.50400001928E-02 0. -1.
       -1   -1    0    0    0  501  0.00000000000E+00  0.00000000000E+00 -0.77028740388E+03  0.77028740389E+03  0.50400001928E-02 0.  1.
    10030    2    1    2    0    0  0.00000000000E+00  0.00000000000E+00  0.28271306335E+03  0.18232878711E+04  0.18012362379E+04 0.  0.
        3    1    3    3  502    0 -0.54385029737E+03 -0.38754604185E+03 -0.47031599453E+03  0.81679999107E+03  0.10100000352E+00 0.  1.
       -3    1    3    3    0  502  0.54385029737E+03  0.38754604185E+03  0.75302905787E+03  0.10064878801E+04  0.10100000352E+00 0. -1.
</event>
<event>
 5   0  0.3983176E-05  0.1800649E+04  0.7818609E-02  0.8705954E-01
       -2   -1    0    0    0  501  0.00000000000E+00  0.00000000000E+00  0.35059691145E+03  0.35059691146E+03  0.25500000920E-02 0. -1.
        2   -1    0    0  501    0  0.00000000000E+00  0.00000000000E+00 -0.23120117769E+04  0.23120117769E+04  0.25500000920E-02 0.  1.
    10030    2    1    2    0    0  0.00000000000E+00  0.00000000000E+00 -0.19614148654E+04  0.26626086883E+04  0.18006489810E+04 0.  0.
        3    1    3    3  502    0 -0.79441895264E+02  0.55537777251E+02  0.34285885847E+03  0.35629716033E+03  0.10100000352E+00 0. -1.
       -3    1    3    3    0  502  0.79441895264E+02 -0.55537777251E+02 -0.23042737239E+04  0.23063115280E+04  0.10100000352E+00 0.  1.
</event>
<event>
 5   0  0.3983176E-05  0.1800711E+04  0.7818609E-02  0.8705921E-01
        2   -1    0    0  501    0  0.00000000000E+00  0.00000000000E+00  0.15709487758E+04  0.15709487758E+04  0.25500000920E-02 0.  1.
       -2   -1    0    0    0  501  0.00000000000E+00  0.00000000000E+00 -0.51601937529E+03  0.51601937530E+03  0.25500000920E-02 0. -1.
    10030    2    1    2    0    0  0.00000000000E+00  0.00000000000E+00  0.10549294005E+04  0.20869681511E+04  0.18007109773E+04 0.  0.
        3    1    3    3  502    0  0.59172618794E+03 -0.58119473313E+03  0.12147339212E+03  0.83826188897E+03  0.10100000352E+00 0. -1.
       -3    1    3    3    0  502 -0.59172618794E+03  0.58119473313E+03  0.93345600839E+03  0.12487062621E+04  0.10100000352E+00 0.  1.
</event>
<event>
 5   0  0.2001811E-05  0.1804657E+04  0.7818609E-02  0.8703827E-01
       -1   -1    0    0    0  501  0.00000000000E+00  0.00000000000E+00  0.60882591244E+03  0.60882591246E+03  0.50400001928E-02 0. -1.
        1   -1    0    0  501    0  0.00000000000E+00  0.00000000000E+00 -0.13373223765E+04  0.13373223765E+04  0.50400001928E-02 0.  1.
    10030    2    1    2    0    0  0.00000000000E+00  0.00000000000E+00 -0.72849646404E+03  0.19461482889E+04  0.18046567719E+04 0.  0.
        2    1    3    3  502    0 -0.87319941474E+03  0.21591686435E+03 -0.28724080959E+03  0.94424816278E+03  0.25500000920E-02 0. -1.
       -2    1    3    3    0  502  0.87319941474E+03 -0.21591686435E+03 -0.44125565444E+03  0.10019001262E+04  0.25500000920E-02 0.  1.
</event>
<event>
 5   0  0.2054876E-05  0.1800652E+04  0.7818609E-02  0.8705953E-01
       -1   -1    0    0    0  501  0.00000000000E+00  0.00000000000E+00  0.89218083077E+03  0.89218083078E+03  0.50400001928E-02 0.  1.
        1   -1    0    0  501    0  0.00000000000E+00  0.00000000000E+00 -0.90854515742E+03  0.90854515743E+03  0.50400001928E-02 0. -1.
    10030    2    1    2    0    0  0.00000000000E+00  0.00000000000E+00 -0.16364326649E+02  0.18007259882E+04  0.18006516302E+04 0.  0.
        5    1    3    3  502    0 -0.50341485803E+02 -0.87236286413E+03 -0.22501651107E+03  0.90233350385E+03  0.46999998093E+01 0.  1.
       -5    1    3    3    0  502  0.50341485803E+02  0.87236286413E+03  0.20865218442E+03  0.89839248437E+03  0.46999998093E+01 0. -1.
</event>
<event>
 5   0  0.2038338E-05  0.1798532E+04  0.7818609E-02  0.8707081E-01
       -1   -1    0    0    0  501  0.00000000000E+00  0.00000000000E+00  0.36643653018E+03  0.36643653021E+03  0.50400001928E-02 0. -1.
        1   -1    0    0  501    0  0.00000000000E+00  0.00000000000E+00 -0.22068737322E+04  0.22068737322E+04  0.50400001928E-02 0.  1.
    10030    2    1    2    0    0  0.00000000000E+00  0.00000000000E+00 -0.18404372020E+04  0.25733102624E+04  0.17985317935E+04 0.  0.
        1    1    3    3  502    0 -0.68713637830E+03 -0.53480909442E+03 -0.59868360489E+03  0.10566925895E+04  0.50400001928E-02 0. -1.
       -1    1    3    3    0  502  0.68713637830E+03  0.53480909442E+03 -0.12417535971E+04  0.15166176729E+04  0.50400001928E-02 0.  1.
</event>
<event>
 5   0  0.3993393E-05  0.1825395E+04  0.7818609E-02  0.8692910E-01
        2   -1    0    0  501    0  0.00000000000E+00  0.00000000000E+00  0.12161809639E+04  0.12161809639E+04  0.25500000920E-02 0. -1.
       -2   -1    0    0    0  501  0.00000000000E+00  0.00000000000E+00 -0.68494490438E+03  0.68494490439E+03  0.25500000920E-02 0.  1.
    10030    2    1    2    0    0  0.00000000000E+00  0.00000000000E+00  0.53123605953E+03  0.19011258683E+04  0.18253952493E+04 0.  0.
        5    1    3    3  502    0 -0.52448638171E+03  0.65727347848E+03  0.63516329120E+03  0.10538258331E+04  0.46999998093E+01 0.  1.
       -5    1    3    3    0  502  0.52448638171E+03 -0.65727347848E+03 -0.10392723166E+03  0.84730003516E+03  0.46999998093E+01 0. -1.
</event>
<event>
 5   0  0.3983176E-05  0.1798583E+04  0.7818609E-02  0.8707054E-01
       -2   -1    0    0    0  501  0.00000000000E+00  0.00000000000E+00  0.56810326527E+03  0.56810326527E+03  0.25500000920E-02 0.  1.
        2   -1    0    0  501    0  0.00000000000E+00  0.00000000000E+00 -0.14235526784E+04  0.14235526784E+04  0.25500000920E-02 0. -1.
    10030    2    1    2    0    0  0.00000000000E+00  0.00000000000E+00 -0.85544941310E+03  0.19916559436E+04  0.17985826919E+04 0.  0.
        3    1    3    3  502    0  0.15885730751E+03 -0.41770951282E+03  0.43643779597E+03  0.62465577817E+03  0.10100000352E+00 0.  1.
       -3    1    3    3    0  502 -0.15885730751E+03  0.41770951282E+03 -0.12918872091E+04  0.13670001655E+04  0.10100000352E+00 0. -1.
</event>
<event>
 5   0  0.3909859E-05  0.1799270E+04  0.7818609E-02  0.8706688E-01
       -2   -1    0    0    0  501  0.00000000000E+00  0.00000000000E+00  0.74235802940E+03  0.74235802940E+03  0.25500000920E-02 0. -1.
        2   -1    0    0  501    0  0.00000000000E+00  0.00000000000E+00 -0.10902324345E+04  0.10902324345E+04  0.25500000920E-02 0.  1.
    10030    2    1    2    0    0  0.00000000000E+00  0.00000000000E+00 -0.34787440507E+03  0.18325904639E+04  0.17992696314E+04 0.  0.
        4    1    3    3  502    0 -0.20384015057E+03  0.13984934457E+03 -0.10549606542E+04  0.10835369126E+04  0.12699999809E+01 0.  1.
       -4    1    3    3    0  502  0.20384015057E+03 -0.13984934457E+03  0.70708624910E+03  0.74905355131E+03  0.12699999809E+01 0. -1.
</event>
<event>
 5   0  0.3983176E-05  0.1797114E+04  0.7818609E-02  0.8707836E-01
       -2   -1    0    0    0  501  0.00000000000E+00  0.00000000000E+00  0.97396581918E+03  0.97396581918E+03  0.25500000920E-02 0. -1.
        2   -1    0    0  501    0  0.00000000000E+00  0.00000000000E+00 -0.82898670737E+03  0.82898670737E+03  0.25500000920E-02 0.  1.
    10030    2    1    2    0    0  0.00000000000E+00  0.00000000000E+00  0.14497911181E+03  0.18029525266E+04  0.17971140393E+04 0.  0.
        3    1    3    3  502    0 -0.67691120526E+03 -0.58566952940E+02  0.66241848898E+03  0.94891365915E+03  0.10100000352E+00 0. -1.
       -3    1    3    3    0  502  0.67691120526E+03  0.58566952940E+02 -0.51743937717E+03  0.85403886740E+03  0.10100000352E+00 0.  1.
</event>
<event>
 5   0  0.2054876E-05  0.1797312E+04  0.7818609E-02  0.8707730E-01
        1   -1    0    0  501    0  0.00000000000E+00  0.00000000000E+00  0.87253959024E+03  0.87253959026E+03  0.50400001928E-02 0.  1.
       -1   -1    0    0    0  501  0.00000000000E+00  0.00000000000E+00 -0.92555416762E+03  0.92555416764E+03  0.50400001928E-02 0. -1.
    10030    2    1    2    0    0  0.00000000000E+00  0.00000000000E+00 -0.53014577380E+02  0.17980937579E+04  0.17973120533E+04 0.  0.
        5    1    3    3  502    0 -0.77432953167E+03  0.20763281855E+03 -0.43271707693E+03  0.91102347369E+03  0.46999998093E+01 0. -1.
       -5    1    3    3    0  502  0.77432953167E+03 -0.20763281855E+03  0.37970249955E+03  0.88707028420E+03  0.46999998093E+01 0.  1.
</event>
<event>
 5   0  0.1906857E-05  0.1802533E+04  0.7818609E-02  0.8704954E-01
        1   -1    0    0  501    0  0.00000000000E+00  0.00000000000E+00  0.91262162066E+03  0.91262162067E+03  0.50400001928E-02 0.  1.
       -1   -1    0    0    0  501  0.00000000000E+00  0.00000000000E+00 -0.89005251983E+03  0.89005251984E+03  0.50400001928E-02 0. -1.
    10030    2    1    2    0    0  0.00000000000E+00  0.00000000000E+00  0.22569100830E+02  0.18026741405E+04  0.18025328548E+04 0.  0.
        4    1    3    3  502    0  0.72445170413E+03  0.12316754677E+03 -0.51055999458E+03  0.89480368638E+03  0.12699999809E+01 0. -1.
       -4    1    3    3    0  502 -0.72445170413E+03 -0.12316754677E+03  0.53312909541E+03  0.90787045413E+03  0.12699999809E+01 0.  1.
</event>
<event>
 5   0  0.2054876E-05  0.1798551E+04  0.7818609E-02  0.8707070E-01
       -1   -1    0    0    0  501  0.00000000000E+00  0.00000000000E+00  0.61154690504E+03  0.61154690506E+03  0.50400001928E-02 0. -1.
        1   -1    0    0  501    0  0.00000000000E+00  0.00000000000E+00 -0.13223784634E+04  0.13223784634E+04  0.50400001928E-02 0.  1.
    10030    2    1    2    0    0  0.00000000000E+00  0.00000000000E+00 -0.71083155837E+03  0.19339253685E+04  0.17985510353E+04 0.  0.
        5    1    3    3  502    0 -0.86448256256E+03 -0.21378379868E+03 -0.48989208635E+03  0.10163906532E+04  0.46999998093E+01 0. -1.
       -5    1    3    3    0  502  0.86448256256E+03  0.21378379868E+03 -0.22093947201E+03  0.91753471533E+03  0.46999998093E+01 0.  1.
</event>
<event>
 5   0  0.1906857E-05  0.1798689E+04  0.7818609E-02  0.8706997E-01
        1   -1    0    0  501    0  0.00000000000E+00  0.00000000000E+00  0.10744430103E+04  0.10744430103E+04  0.50400001928E-02 0.  1.
       -1   -1    0    0    0  501  0.00000000000E+00  0.00000000000E+00 -0.75278133916E+03  0.75278133918E+03  0.50400001928E-02 0. -1.
    10030    2    1    2    0    0  0.00000000000E+00  0.00000000000E+00  0.32166167112E+03  0.18272243495E+04  0.17986891317E+04 0.  0.
        4    1    3    3  502    0 -0.15011649432E+03 -0.12081727879E+03 -0.73156272598E+03  0.75651663013E+03  0.12699999809E+01 0. -1.
       -4    1    3    3    0  502  0.15011649432E+03  0.12081727879E+03  0.10532243971E+04  0.10707077193E+04  0.12699999809E+01 0.  1.
</event>
<event>
 5   0  0.3983176E-05  0.1799449E+04  0.7818609E-02  0.8706592E-01
        2   -1    0    0  501    0  0.00000000000E+00  0.00000000000E+00  0.22140494655E+04  0.22140494655E+04  0.25500000920E-02 0. -1.
       -2   -1    0    0    0  501  0.00000000000E+00  0.00000000000E+00 -0.36562165826E+03  0.36562165827E+03  0.25500000920E-02 0.  1.
    10030    2    1    2    0    0  0.00000000000E+00  0.00000000000E+00  0.18484278072E+04  0.25796711238E+04  0.17994492903E+04 0.  0.
        3    1    3    3  502    0 -0.45905407708E+03 -0.74702366442E+03  0.12135341821E+04  0.14971440219E+04  0.10100000352E+00 0.  1.
       -3    1    3    3    0  502  0.45905407708E+03  0.74702366442E+03  0.63489362510E+03  0.10825271019E+04  0.10100000352E+00 0. -1.
</event>
<event>
 5   0  0.1960300E-05  0.1796036E+04  0.7818609E-02  0.8708411E-01
        1   -1    0    0  501    0  0.00000000000E+00  0.00000000000E+00  0.11290165125E+04  0.11290165125E+04  0.50400001928E-02 0.  1.
       -1   -1    0    0    0  501  0.00000000000E+00  0.00000000000E+00 -0.71428184880E+03  0.71428184882E+03  0.50400001928E-02 0. -1.
    10030    2    1    2    0    0  0.00000000000E+00  0.00000000000E+00  0.41473466371E+03  0.18432983613E+04  0.17960356365E+04 0.  0.
        3    1    3    3  502    0 -0.89541771560E+02 -0.50804087509E+03  0.96177012584E+03  0.10913867531E+04  0.10100000352E+00 0.  1.
       -3    1    3    3    0  502  0.89541771560E+02  0.50804087509E+03 -0.54703546213E+03  0.75191160827E+03  0.10100000352E+00 0. -1.
</event>
<event>
 5   0  0.3993393E-05  0.1796619E+04  0.7818609E-02  0.8708100E-01
        2   -1    0    0  501    0  0.00000000000E+00  0.00000000000E+00  0.22544523081E+04  0.22544523081E+04  0.25500000920E-02 0. -1.
       -2   -1    0    0    0  501  0.00000000000E+00  0.00000000000E+00 -0.35794045767E+03  0.35794045768E+03  0.25500000920E-02 0.  1.
    10030    2    1    2    0    0  0.00000000000E+00  0.00000000000E+00  0.18965118504E+04  0.26123927658E+04  0.17966187030E+04 0.  0.
        5    1    3    3  502    0 -0.81553060376E+03 -0.34724771860E+03  0.11603019472E+04  0.14601348713E+04  0.46999998093E+01 0.  1.
       -5    1    3    3    0  502  0.81553060376E+03  0.34724771860E+03  0.73620990318E+03  0.11522578944E+04  0.46999998093E+01 0. -1.
</event>
<event>
 5   0  0.3983176E-05  0.1800161E+04  0.7818609E-02  0.8706214E-01
       -2   -1    0    0    0  501  0.00000000000E+00  0.00000000000E+00  0.73088385665E+03  0.73088385665E+03  0.25500000920E-02 0.  1.
        2   -1    0    0  501    0  0.00000000000E+00  0.00000000000E+00 -0.11084460154E+04  0.11084460154E+04  0.25500000920E-02 0. -1.
    10030    2    1    2    0    0  0.00000000000E+00  0.00000000000E+00 -0.37756215878E+03  0.18393298721E+04  0.18001614357E+04 0.  0.
        3    1    3    3  502    0  0.62345425410E+03  0.26581226262E+02 -0.85154199371E+03  0.10557109196E+04  0.10100000352E+00 0. -1.
       -3    1    3    3    0  502 -0.62345425410E+03 -0.26581226262E+02  0.47397983493E+03  0.78361895247E+03  0.10100000352E+00 0.  1.
</event>
<event>
 5   0  0.1960300E-05  0.1800060E+04  0.7818609E-02  0.8706267E-01
       -1   -1    0    0    0  501  0.00000000000E+00  0.00000000000E+00  0.97054103316E+03  0.97054103317E+03  0.50400001928E-02 0.  1.
        1   -1    0    0  501    0  0.00000000000E+00  0.00000000000E+00 -0.83464206113E+03  0.83464206115E+03  0.50400001928E-02 0. -1.
    10030    2    1    2    0    0  0.00000000000E+00  0.00000000000E+00  0.13589897203E+03  0.18051830943E+04  0.18000604083E+04 0.  0.
        3    1    3    3  502    0  0.27362581755E+03  0.61159492528E+03  0.67060470047E+03  0.94796103039E+03  0.10100000352E+00 0.  1.
       -3    1    3    3    0  502 -0.27362581755E+03 -0.61159492528E+03 -0.53470572843E+03  0.85722206393E+03  0.10100000352E+00 0. -1.
</event>
<event>
 5   0  0.3909859E-05  0.1801196E+04  0.7818609E-02  0.8705664E-01
       -2   -1    0    0    0  501  0.00000000000E+00  0.00000000000E+00  0.66703196701E+03  0.66703196702E+03  0.25500000920E-02 0. -1.
        2   -1    0    0  501    0  0.00000000000E+00  0.00000000000E+00 -0.12159492723E+04  0.12159492723E+04  0.25500000920E-02 0.  1.
    10030    2    1    2    0    0  0.00000000000E+00  0.00000000000E+00 -0.54891730524E+03  0.18829812393E+04  0.18011963079E+04 0.  0.
        4    1    3    3  502    0 -0.53434208834E+03  0.70377862460E+03 -0.45627996097E+03  0.99449426117E+03  0.12699999809E+01 0. -1.
       -4    1    3    3    0  502  0.53434208834E+03 -0.70377862460E+03 -0.92637344266E+02  0.88848697811E+03  0.12699999809E+01 0.  1.
</event>
<event>
 5   0  0.1446750E-05  0.1795235E+04  0.7818609E-02  0.8708838E-01
        4   -1    0    0  501    0  0.00000000000E+00  0.00000000000E+00  0.45553804466E+03  0.45553981498E+03  0.12699999809E+01 0.  1.
       -4   -1    0    0    0  501  0.00000000000E+00  0.00000000000E+00 -0.17687095107E+04  0.17687099666E+04  0.12699999809E+01 0. -1.
    10030    2    1    2    0    0  0.00000000000E+00  0.00000000000E+00 -0.13131714660E+04  0.22242497816E+04  0.17952347456E+04 0.  0.
        2    1    3    3  502    0 -0.68937486761E+03 -0.25297616893E+03 -0.12961681174E+04  0.14897269678E+04  0.25500000920E-02 0. -1.
       -2    1    3    3    0  502  0.68937486761E+03  0.25297616893E+03 -0.17003348666E+02  0.73452281381E+03  0.25500000920E-02 0.  1.
</event>
<event>
 5   0  0.2001811E-05  0.1798899E+04  0.7818609E-02  0.8706885E-01
        1   -1    0    0  501    0  0.00000000000E+00  0.00000000000E+00  0.11904724041E+04  0.11904724041E+04  0.50400001928E-02 0.  1.
       -1   -1    0    0    0  501  0.00000000000E+00  0.00000000000E+00 -0.67957036043E+03  0.67957036045E+03  0.50400001928E-02 0. -1.
    10030    2    1    2    0    0  0.00000000000E+00  0.00000000000E+00  0.51090204366E+03  0.18700427645E+04  0.17988993977E+04 0.  0.
        2    1    3    3  502    0 -0.72913804257E+03 -0.43460779255E+03  0.56467695731E+03  0.10195029596E+04  0.25500000920E-02 0.  1.
       -2    1    3    3    0  502  0.72913804257E+03  0.43460779255E+03 -0.53774913659E+02  0.85053980496E+03  0.25500000920E-02 0. -1.
</event>
<event>
 5   0  0.1906857E-05  0.1798849E+04  0.7818609E-02  0.8706912E-01
        1   -1    0    0  501    0  0.00000000000E+00  0.00000000000E+00  0.10894574970E+04  0.10894574971E+04  0.50400001928E-02 0. -1.
       -1   -1    0    0    0  501  0.00000000000E+00  0.00000000000E+00 -0.74253863646E+03  0.74253863648E+03  0.50400001928E-02 0.  1.
    10030    2    1    2    0    0  0.00000000000E+00  0.00000000000E+00  0.34691886059E+03  0.18319961335E+04  0.17988488367E+04 0.  0.
        4    1    3    3  502    0 -0.27539009995E+03  0.35409687965E+03 -0.62048153198E+03  0.76565217413E+03  0.12699999809E+01 0.  1.
       -4    1    3    3    0  502  0.27539009995E+03 -0.35409687965E+03  0.96740039257E+03  0.10663439594E+04  0.12699999809E+01 0. -1.
</event>
<event>
 5   0  0.1960300E-05  0.1787349E+04  0.7818609E-02  0.8713056E-01
       -1   -1    0    0    0  501  0.00000000000E+00  0.00000000000E+00  0.49165020535E+03  0.49165020537E+03  0.50400001928E-02 0. -1.
        1   -1    0    0  501    0  0.00000000000E+00  0.00000000000E+00 -0.16244361302E+04  0.16244361302E+04  0.50400001928E-02 0.  1.
    10030    2    1    2    0    0  0.00000000000E+00  0.00000000000E+00 -0.11327859248E+04  0.21160863356E+04  0.17873492742E+04 0.  0.
        3    1    3    3  502    0 -0.25326421908E+03 -0.85492382334E+03 -0.63759435843E+03  0.10961587862E+04  0.10100000352E+00 0.  1.
       -3    1    3    3    0  502  0.25326421908E+03  0.85492382334E+03 -0.49519156642E+03  0.10199275494E+04  0.10100000352E+00 0. -1.
</event>
<event>
 5   0  0.2054876E-05  0.1799659E+04  0.7818609E-02  0.8706481E-01
        1   -1    0    0  501    0  0.00000000000E+00  0.00000000000E+00  0.11853939728E+04  0.11853939728E+04  0.50400001928E-02 0. -1.
       -1   -1    0    0    0  501  0.00000000000E+00  0.00000000000E+00 -0.68305810270E+03  0.68305810272E+03  0.50400001928E-02 0.  1.
    10030    2    1    2    0    0  0.00000000000E+00  0.00000000000E+00  0.50233587008E+03  0.18684520755E+04  0.17996588099E+04 0.  0.
        5    1    3    3  502    0  0.37963538229E+03  0.58636314013E+03  0.84005896862E+03  0.10925501894E+04  0.46999998093E+01 0. -1.
       -5    1    3    3    0  502 -0.37963538229E+03 -0.58636314013E+03 -0.33772309854E+03  0.77590188612E+03  0.46999998093E+01 0.  1.
</event>
<event>
 5   0  0.3983176E-05  0.1799768E+04  0.7818609E-02  0.8706423E-01
       -2   -1    0    0    0  501  0.00000000000E+00  0.00000000000E+00  0.13585190843E+04  0.13585190843E+04  0.25500000920E-02 0. -1.
        2   -1    0    0  501    0  0.00000000000E+00  0.00000000000E+00 -0.59608378286E+03  0.59608378287E+03  0.25500000920E-02 0.  1.
    10030    2    1    2    0    0  0.00000000000E+00  0.00000000000E+00  0.76243530146E+03  0.19546028672E+04  0.17997679794E+04 0.  0.
        3    1    3    3  502    0  0.51541596482E+03  0.32148603137E+02 -0.41913893983E+03  0.66510496206E+03  0.10100000352E+00 0.  1.
       -3    1    3    3    0  502 -0.51541596482E+03 -0.32148603137E+02  0.11815742413E+04  0.12894979051E+04  0.10100000352E+00 0. -1.
</event>
<event>
 5   0  0.2038338E-05  0.1800371E+04  0.7818609E-02  0.8706102E-01
        1   -1    0    0  501    0  0.00000000000E+00  0.00000000000E+00  0.14818396804E+04  0.14818396805E+04  0.50400001928E-02 0.  1.
       -1   -1    0    0    0  501  0.00000000000E+00  0.00000000000E+00 -0.54684309695E+03  0.54684309697E+03  0.50400001928E-02 0. -1.
    10030    2    1    2    0    0  0.00000000000E+00  0.00000000000E+00  0.93499658350E+03  0.20286827774E+04  0.18003708508E+04 0.  0.
        1    1    3    3  502    0 -0.35207142456E+03  0.48812372927E+02  0.13994195633E+04  0.14438531954E+04  0.50400001928E-02 0.  1.
       -1    1    3    3    0  502  0.35207142456E+03 -0.48812372927E+02 -0.46442297983E+03  0.58482958198E+03  0.50400001928E-02 0. -1.
</event>
<event>
 5   0  0.3984648E-05  0.1799598E+04  0.7818609E-02  0.8706513E-01
        2   -1    0    0  501    0  0.00000000000E+00  0.00000000000E+00  0.83412667673E+03  0.83412667673E+03  0.25500000920E-02 0.  1.
       -2   -1    0    0    0  501  0.00000000000E+00  0.00000000000E+00 -0.97064200532E+03  0.97064200532E+03  0.25500000920E-02 0. -1.
    10030    2    1    2    0    0  0.00000000000E+00  0.00000000000E+00 -0.13651532859E+03  0.18047686820E+04  0.17995981665E+04 0.  0.
        1    1    3    3  502    0  0.26085643508E+03 -0.25222021578E+03 -0.89401715154E+03  0.96484598991E+03  0.50400001928E-02 0. -1.
       -1    1    3    3    0  502 -0.26085643508E+03  0.25222021578E+03  0.75750182295E+03  0.83992269214E+03  0.50400001928E-02 0.  1.
</event>
<event>
 5   0  0.1960300E-05  0.1800605E+04  0.7818609E-02  0.8705978E-01
        1   -1    0    0  501    0  0.00000000000E+00  0.00000000000E+00  0.12856522000E+04  0.12856522000E+04  0.50400001928E-02 0. -1.
       -1   -1    0    0    0  501  0.00000000000E+00  0.00000000000E+00 -0.63045432896E+03  0.63045432898E+03  0.50400001928E-02 0.  1.
    10030    2    1    2    0    0  0.00000000000E+00  0.00000000000E+00  0.65519787101E+03  0.19161065290E+04  0.18006054482E+04 0.  0.
        3    1    3    3  502    0 -0.17446005157E+03 -0.66131858234E+03  0.95061639484E+03  0.11710892866E+04  0.10100000352E+00 0. -1.
       -3    1    3    3    0  502  0.17446005157E+03  0.66131858234E+03 -0.29541852384E+03  0.74501724233E+03  0.10100000352E+00 0.  1.
</event>
<event>
 5   0  0.2001811E-05  0.1800375E+04  0.7818609E-02  0.8706100E-01
       -1   -1    0    0    0  501  0.00000000000E+00  0.00000000000E+00  0.53343373779E+03  0.53343373781E+03  0.50400001928E-02 0.  1.
        1   -1    0    0  501    0  0.00000000000E+00  0.00000000000E+00 -0.15190973729E+04  0.15190973729E+04  0.50400001928E-02 0. -1.
    10030    2    1    2    0    0  0.00000000000E+00  0.00000000000E+00 -0.98566363509E+03  0.20525311107E+04  0.18003752828E+04 0.  0.
        2    1    3    3  502    0  0.52236702761E+03 -0.46795389715E+03  0.15055825225E+03  0.71729767093E+03  0.25500000920E-02 0.  1.
       -2    1    3    3    0  502 -0.52236702761E+03  0.46795389715E+03 -0.11362218873E+04  0.13352334398E+04  0.25500000920E-02 0. -1.
</event>
<event>
 5   0  0.2054876E-05  0.1801934E+04  0.7818609E-02  0.8705272E-01
       -1   -1    0    0    0  501  0.00000000000E+00  0.00000000000E+00  0.49156273244E+03  0.49156273246E+03  0.50400001928E-02 0. -1.
        1   -1    0    0  501    0  0.00000000000E+00  0.00000000000E+00 -0.16513479241E+04  0.16513479241E+04  0.50400001928E-02 0.  1.
    10030    2    1    2    0    0  0.00000000000E+00  0.00000000000E+00 -0.11597851917E+04  0.21429106566E+04  0.18019335147E+04 0.  0.
        5    1    3    3  502    0  0.32007485813E+03 -0.79850294159E+03 -0.26153423171E+03  0.89915355023E+03  0.46999998093E+01 0. -1.
       -5    1    3    3    0  502 -0.32007485813E+03  0.79850294159E+03 -0.89825095997E+03  0.12437571064E+04  0.46999998093E+01 0.  1.
</event>
<event>
 5   0  0.3993393E-05  0.1801471E+04  0.7818609E-02  0.8705518E-01
       -2   -1    0    0    0  501  0.00000000000E+00  0.00000000000E+00  0.53229259991E+03  0.53229259992E+03  0.25500000920E-02 0.  1.
        2   -1    0    0  501    0  0.00000000000E+00  0.00000000000E+00 -0.15242072140E+04  0.15242072140E+04  0.25500000920E-02 0. -1.
    10030    2    1    2    0    0  0.00000000000E+00  0.00000000000E+00 -0.99191461406E+03  0.20564998139E+04  0.18014707555E+04 0.  0.
        5    1    3    3  502    0  0.69572946344E+02  0.23366866001E+03 -0.14858090420E+04  0.15056865666E+04  0.46999998093E+01 0. -1.
       -5    1    3    3    0  502 -0.69572946344E+02 -0.23366866001E+03  0.49389442790E+03  0.55081324734E+03  0.46999998093E+01 0.  1.
</event>
<event>
 5   0  0.3993393E-05  0.1797882E+04  0.7818609E-02  0.8707426E-01
       -2   -1    0    0    0  501  0.00000000000E+00  0.00000000000E+00  0.51462512010E+03  0.51462512011E+03  0.25500000920E-02 0. -1.
        2   -1    0    0  501    0  0.00000000000E+00  0.00000000000E+00 -0.15702598539E+04  0.15702598539E+04  0.25500000920E-02 0.  1.
    10030    2    1    2    0    0  0.00000000000E+00  0.00000000000E+00 -0.10556347338E+04  0.20848849740E+04  0.17978822719E+04 0.  0.
        5    1    3    3  502    0 -0.77941353255E+03 -0.44775971551E+03 -0.53934732074E+03  0.10482804205E+04  0.46999998093E+01 0.  1.
       -5    1    3    3    0  502  0.77941353255E+03  0.44775971551E+03 -0.51628741307E+03  0.10366045536E+04  0.46999998093E+01 0. -1.
</event>
<event>
 5   0  0.3993393E-05  0.1799617E+04  0.7818609E-02  0.8706503E-01
        2   -1    0    0  501    0  0.00000000000E+00  0.00000000000E+00  0.86697384353E+03  0.86697384353E+03  0.25500000920E-02 0.  1.
       -2   -1    0    0    0  501  0.00000000000E+00  0.00000000000E+00 -0.93388618062E+03  0.93388618062E+03  0.25500000920E-02 0. -1.
    10030    2    1    2    0    0  0.00000000000E+00  0.00000000000E+00 -0.66912337086E+02  0.18008600242E+04  0.17996165052E+04 0.  0.
        5    1    3    3  502    0 -0.16530020150E+03  0.83724451434E+03 -0.31883784952E+03  0.91103358758E+03  0.46999998093E+01 0. -1.
       -5    1    3    3    0  502  0.16530020150E+03 -0.83724451434E+03  0.25192551244E+03  0.88982643657E+03  0.46999998093E+01 0.  1.
</event>
<event>
 5   0  0.1906857E-05  0.1791208E+04  0.7818609E-02  0.8710989E-01
       -1   -1    0    0    0  501  0.00000000000E+00  0.00000000000E+00  0.72690809769E+03  0.72690809771E+03  0.50400001928E-02 0. -1.
        1   -1    0    0  501    0  0.00000000000E+00  0.00000000000E+00 -0.11034500859E+04  0.11034500859E+04  0.50400001928E-02 0.  1.
    10030    2    1    2    0    0  0.00000000000E+00  0.00000000000E+00 -0.37654198822E+03  0.18303581836E+04  0.17912083105E+04 0.  0.
        4    1    3    3  502    0  0.10974941363E+03  0.72814217867E+03 -0.70918665516E+03  0.10223420616E+04  0.12699999809E+01 0.  1.
       -4    1    3    3    0  502 -0.10974941363E+03 -0.72814217867E+03  0.33264466693E+03  0.80801612205E+03  0.12699999809E+01 0. -1.
</event>
<event>
 5   0  0.4015729E-05  0.1798882E+04  0.7818609E-02  0.8706894E-01
        2   -1    0    0  501    0  0.00000000000E+00  0.00000000000E+00  0.83224764752E+03  0.83224764752E+03  0.25500000920E-02 0. -1.
       -2   -1    0    0    0  501  0.00000000000E+00  0.00000000000E+00 -0.97205949915E+03  0.97205949916E+03  0.25500000920E-02 0.  1.
    10030    2    1    2    0    0  0.00000000000E+00  0.00000000000E+00 -0.13981185163E+03  0.18043071467E+04  0.17988821322E+04 0.  0.
        2    1    3    3  502    0  0.42850299704E+03  0.68282940152E+03  0.33019984494E+03  0.87115024402E+03  0.25500000920E-02 0. -1.
       -2    1    3    3    0  502 -0.42850299704E+03 -0.68282940152E+03 -0.47001169658E+03  0.93315690266E+03  0.25500000920E-02 0.  1.
</event>
<event>
 5   0  0.3983176E-05  0.1801182E+04  0.7818609E-02  0.8705671E-01
        2   -1    0    0  501    0  0.00000000000E+00  0.00000000000E+00  0.11153234201E+04  0.11153234201E+04  0.25500000920E-02 0. -1.
       -2   -1    0    0    0  501  0.00000000000E+00  0.00000000000E+00 -0.72720053096E+03  0.72720053096E+03  0.25500000920E-02 0.  1.
    10030    2    1    2    0    0  0.00000000000E+00  0.00000000000E+00  0.38812288910E+03  0.18425239510E+04  0.18011815936E+04 0.  0.
        3    1    3    3  502    0 -0.12201897310E+03  0.84323056892E+03  0.49254176900E+03  0.98413608133E+03  0.10100000352E+00 0. -1.
       -3    1    3    3    0  502  0.12201897310E+03 -0.84323056892E+03 -0.10441887990E+03  0.85838786970E+03  0.10100000352E+00 0.  1.
</event>
<event>
 5   0  0.2038338E-05  0.1815951E+04  0.7818609E-02  0.8697863E-01
        1   -1    0    0  501    0  0.00000000000E+00  0.00000000000E+00  0.38177835463E+03  0.38177835466E+03  0.50400001928E-02 0.  1.
       -1   -1    0    0    0  501  0.00000000000E+00  0.00000000000E+00 -0.21594182187E+04  0.21594182187E+04  0.50400001928E-02 0. -1.
    10030    2    1    2    0    0  0.00000000000E+00  0.00000000000E+00 -0.17776398641E+04  0.25411965734E+04  0.18159505880E+04 0.  0.
        1    1    3    3  502    0  0.20864178660E+03 -0.25890904863E+03  0.29351054632E+03  0.44352421739E+03  0.50400001928E-02 0.  1.
       -1    1    3    3    0  502 -0.20864178660E+03  0.25890904863E+03 -0.20711504104E+04  0.20976723560E+04  0.50400001928E-02 0. -1.
</event>
<event>
 5   0  0.3983176E-05  0.1805324E+04  0.7818609E-02  0.8703473E-01
        2   -1    0    0  501    0  0.00000000000E+00  0.00000000000E+00  0.10055697998E+04  0.10055697998E+04  0.25500000920E-02 0.  1.
       -2   -1    0    0    0  501  0.00000000000E+00  0.00000000000E+00 -0.81028599256E+03  0.81028599256E+03  0.25500000920E-02 0. -1.
    10030    2    1    2    0    0  0.00000000000E+00  0.00000000000E+00  0.19528380722E+03  0.18158557923E+04  0.18053244842E+04 0.  0.
        3    1    3    3  502    0  0.39297995605E+03 -0.56550700384E+02 -0.71774597234E+03  0.82023808652E+03  0.10100000352E+00 0. -1.
       -3    1    3    3    0  502 -0.39297995605E+03  0.56550700384E+02  0.91302977956E+03  0.99561770582E+03  0.10100000352E+00 0.  1.
</event>
<event>
 5   0  0.1906857E-05  0.1800640E+04  0.7818609E-02  0.8705959E-01
       -1   -1    0    0    0  501  0.00000000000E+00  0.00000000000E+00  0.16552329593E+04  0.16552329594E+04  0.50400001928E-02 0.  1.
        1   -1    0    0  501    0  0.00000000000E+00  0.00000000000E+00 -0.48970506588E+03  0.48970506590E+03  0.50400001928E-02 0. -1.
    10030    2    1    2    0    0  0.00000000000E+00  0.00000000000E+00  0.11655278935E+04  0.21449380253E+04  0.18006398479E+04 0.  0.
        4    1    3    3  502    0 -0.22377501944E+03  0.74520894865E+03  0.43207219699E+02  0.77928179320E+03  0.12699999809E+01 0.  1.
       -4    1    3    3    0  502  0.22377501944E+03 -0.74520894865E+03  0.11223206738E+04  0.13656562321E+04  0.12699999809E+01 0. -1.
</event>
<event>
 5   0  0.3993393E-05  0.1797692E+04  0.7818609E-02  0.8707528E-01
        2   -1    0    0  501    0  0.00000000000E+00  0.00000000000E+00  0.10951981813E+04  0.10951981813E+04  0.25500000920E-02 0.  1.
       -2   -1    0    0    0  501  0.00000000000E+00  0.00000000000E+00 -0.73769696519E+03  0.73769696519E+03  0.25500000920E-02 0. -1.
    10030    2    1    2    0    0  0.00000000000E+00  0.00000000000E+00  0.35750121611E+03  0.18328951465E+04  0.17976922703E+04 0.  0.
        5    1    3    3  502    0  0.32176021990E+03 -0.40821199837E+02 -0.67594050070E+03  0.74974239572E+03  0.46999998093E+01 0. -1.
       -5    1    3    3    0  502 -0.32176021990E+03  0.40821199837E+02  0.10334417168E+04  0.10831527508E+04  0.46999998093E+01 0.  1.
</event>
<event>
 5   0  0.1960300E-05  0.1804557E+04  0.7818609E-02  0.8703880E-01
        1   -1    0    0  501    0  0.00000000000E+00  0.00000000000E+00  0.10561966886E+04  0.10561966887E+04  0.50400001928E-02 0. -1.
       -1   -1    0    0    0  501  0.00000000000E+00  0.00000000000E+00 -0.77079044845E+03  0.77079044847E+03  0.50400001928E-02 0.  1.
    10030    2    1    2    0    0  0.00000000000E+00  0.00000000000E+00  0.28540624018E+03  0.18269871371E+04  0.18045568091E+04 0.  0.
        3    1    3    3  502    0  0.71869159683E+03  0.42114688309E+02 -0.40794614568E+03  0.82747285533E+03  0.10100000352E+00 0.  1.
       -3    1    3    3    0  502 -0.71869159683E+03 -0.42114688309E+02  0.69335238586E+03  0.99951428179E+03  0.10100000352E+00 0. -1.
</event>
<event>
 5   0  0.4015729E-05  0.1800075E+04  0.7818609E-02  0.8706260E-01
        2   -1    0    0  501    0  0.00000000000E+00  0.00000000000E+00  0.16046306804E+04  0.16046306804E+04  0.25500000920E-02 0. -1.
       -2   -1    0    0    0  501  0.00000000000E+00  0.00000000000E+00 -0.50483094377E+03  0.50483094377E+03  0.25500000920E-02 0.  1.
    10030    2    1    2    0    0  0.00000000000E+00  0.00000000000E+00  0.10997997366E+04  0.21094616242E+04  0.18000746882E+04 0.  0.
        2    1    3    3  502    0 -0.19031032520E+03 -0.68150239877E+03 -0.10194438673E+03  0.71488194648E+03  0.25500000920E-02 0.  1.
       -2    1    3    3    0  502  0.19031032520E+03  0.68150239877E+03  0.12017441234E+04  0.13945796777E+04  0.25500000920E-02 0. -1.
</event>
<event>
 5   0  0.2054876E-05  0.1786006E+04  0.7818609E-02  0.8713777E-01
        1   -1    0    0  501    0  0.00000000000E+00  0.00000000000E+00  0.18479034778E+04  0.18479034778E+04  0.50400001928E-02 0. -1.
       -1   -1    0    0    0  501  0.00000000000E+00  0.00000000000E+00 -0.43154567066E+03  0.43154567069E+03  0.50400001928E-02 0.  1.
    10030    2    1    2    0    0  0.00000000000E+00  0.00000000000E+00  0.14163578071E+04  0.22794491485E+04  0.17860064341E+04 0.  0.
        5    1    3    3  502    0 -0.36061425887E+03 -0.18938543544E+02 -0.33418655110E+03  0.49204070265E+03  0.46999998093E+01 0.  1.
       -5    1    3    3    0  502  0.36061425887E+03  0.18938543544E+02  0.17505443582E+04  0.17874084458E+04  0.46999998093E+01 0. -1.
</event>
<event>
 5   0  0.2001811E-05  0.1799927E+04  0.7818609E-02  0.8706338E-01
        1   -1    0    0  501    0  0.00000000000E+00  0.00000000000E+00  0.38632373298E+03  0.38632373302E+03  0.50400001928E-02 0. -1.
       -1   -1    0    0    0  501  0.00000000000E+00  0.00000000000E+00 -0.20965176309E+04  0.20965176309E+04  0.50400001928E-02 0.  1.
    10030    2    1    2    0    0  0.00000000000E+00  0.00000000000E+00 -0.17101938979E+04  0.24828413639E+04  0.17999272402E+04 0.  0.
        2    1    3    3  502    0 -0.12752143751E+03  0.52364875300E+03 -0.18492931008E+04  0.19262281034E+04  0.25500000920E-02 0.  1.
       -2    1    3    3    0  502  0.12752143751E+03 -0.52364875300E+03  0.13909920290E+03  0.55661326053E+03  0.25500000920E-02 0. -1.
</event>
<event>
 5   0  0.2054876E-05  0.1802852E+04  0.7818609E-02  0.8704785E-01
       -1   -1    0    0    0  501  0.00000000000E+00  0.00000000000E+00  0.72048751146E+03  0.72048751148E+03  0.50400001928E-02 0. -1.
        1   -1    0    0  501    0  0.00000000000E+00  0.00000000000E+00 -0.11278035805E+04  0.11278035805E+04  0.50400001928E-02 0.  1.
    10030    2    1    2    0    0  0.00000000000E+00  0.00000000000E+00 -0.40731606900E+03  0.18482910920E+04  0.18028515137E+04 0.  0.
        5    1    3    3  502    0  0.35612236319E+03  0.42947192467E+03  0.52219603364E+03  0.76418588000E+03  0.46999998093E+01 0. -1.
       -5    1    3    3    0  502 -0.35612236319E+03 -0.42947192467E+03 -0.92951210264E+03  0.10841052120E+04  0.46999998093E+01 0.  1.
</event>
<event>
 5   0  0.3993393E-05  0.1796672E+04  0.7818609E-02  0.8708071E-01
       -2   -1    0    0    0  501  0.00000000000E+00  0.00000000000E+00  0.87165592464E+03  0.87165592464E+03  0.25500000920E-02 0.  1.
        2   -1    0    0  501    0  0.00000000000E+00  0.00000000000E+00 -0.92583313007E+03  0.92583313007E+03  0.25500000920E-02 0. -1.
    10030    2    1    2    0    0  0.00000000000E+00  0.00000000000E+00 -0.54177205431E+02  0.17974890547E+04  0.17966724054E+04 0.  0.
        5    1    3    3  502    0  0.74609078498E+03  0.75394392974E+02 -0.52193456199E+03  0.91365942830E+03  0.46999998093E+01 0. -1.
       -5    1    3    3    0  502 -0.74609078498E+03 -0.75394392974E+02  0.46775735655E+03  0.88382962642E+03  0.46999998093E+01 0.  1.
</event>
<event>
 5   0  0.2054876E-05  0.1799116E+04  0.7818609E-02  0.8706770E-01
       -1   -1    0    0    0  501  0.00000000000E+00  0.00000000000E+00  0.99232931495E+03  0.99232931497E+03  0.50400001928E-02 0.  1.
        1   -1    0    0  501    0  0.00000000000E+00  0.00000000000E+00 -0.81545932950E+03  0.81545932951E+03  0.50400001928E-02 0. -1.
    10030    2    1    2    0    0  0.00000000000E+00  0.00000000000E+00  0.17686998545E+03  0.18077886445E+04  0.17991155581E+04 0.  0.
        5    1    3    3  502    0 -0.24036043944E+03 -0.60883897662E+02  0.95730118746E+03  0.98890224155E+03  0.46999998093E+01 0.  1.
       -5    1    3    3    0  502  0.24036043944E+03  0.60883897662E+02 -0.78043120200E+03  0.81888640293E+03  0.46999998093E+01 0. -1.
</event>
<event>
 5   0  0.3984648E-05  0.1800665E+04  0.7818609E-02  0.8705946E-01
        2   -1    0    0  501    0  0.00000000000E+00  0.00000000000E+00  0.67230938891E+03  0.67230938891E+03  0.25500000920E-02 0. -1.
       -2   -1    0    0    0  501  0.00000000000E+00  0.00000000000E+00 -0.12056932831E+04  0.12056932831E+04  0.25500000920E-02 0.  1.
    10030    2    1    2    0    0  0.00000000000E+00  0.00000000000E+00 -0.53338389420E+03  0.18780026720E+04  0.18006653375E+04 0.  0.
        1    1    3    3  502    0  0.58878275770E+03 -0.67977594367E+03 -0.31141058047E+03  0.95170216928E+03  0.50400001928E-02 0.  1.
       -1    1    3    3    0  502 -0.58878275770E+03  0.67977594367E+03 -0.22197331373E+03  0.92630050275E+03  0.50400001928E-02 0. -1.
</event>
<event>
 5   0  0.3993393E-05  0.1801286E+04  0.7818609E-02  0.8705616E-01
        2   -1    0    0  501    0  0.00000000000E+00  0.00000000000E+00  0.31658758566E+04  0.31658758566E+04  0.25500000920E-02 0.  1.
       -2   -1    0    0    0  501  0.00000000000E+00  0.00000000000E+00 -0.25621894916E+03  0.25621894917E+03  0.25500000920E-02 0. -1.
    10030    2    1    2    0    0  0.00000000000E+00  0.00000000000E+00  0.29096569075E+04  0.34220948058E+04  0.18012855245E+04 0.  0.
        5    1    3    3  502    0  0.23687796292E+03 -0.32618908944E+03  0.29848806771E+04  0.30119836052E+04  0.46999998093E+01 0.  1.
       -5    1    3    3    0  502 -0.23687796292E+03  0.32618908944E+03 -0.75223769593E+02  0.41011120065E+03  0.46999998093E+01 0. -1.
</event>
<event>
 5   0  0.3993393E-05  0.1805896E+04  0.7818609E-02  0.8703170E-01
       -2   -1    0    0    0  501  0.00000000000E+00  0.00000000000E+00  0.13167478037E+04  0.13167478037E+04  0.25500000920E-02 0.  1.
        2   -1    0    0  501    0  0.00000000000E+00  0.00000000000E+00 -0.61918879890E+03  0.61918879890E+03  0.25500000920E-02 0. -1.
    10030    2    1    2    0    0  0.00000000000E+00  0.00000000000E+00  0.69755900479E+03  0.19359366026E+04  0.18058964433E+04 0.  0.
        5    1    3    3  502    0 -0.85798719507E+03 -0.27919115484E+03  0.38597176328E+03  0.98136946146E+03  0.46999998093E+01 0. -1.
       -5    1    3    3    0  502  0.85798719507E+03  0.27919115484E+03  0.31158724151E+03  0.95456714112E+03  0.46999998093E+01 0.  1.
</event>
<event>
 5   0  0.2054876E-05  0.1794427E+04  0.7818609E-02  0.8709269E-01
       -1   -1    0    0    0  501  0.00000000000E+00  0.00000000000E+00  0.85835988777E+03  0.85835988779E+03  0.50400001928E-02 0. -1.
        1   -1    0    0  501    0  0.00000000000E+00  0.00000000000E+00 -0.93782532978E+03  0.93782532979E+03  0.50400001928E-02 0.  1.
    10030    2    1    2    0    0  0.00000000000E+00  0.00000000000E+00 -0.79465442008E+02  0.17961852176E+04  0.17944265322E+04 0.  0.
        5    1    3    3  502    0  0.11931655870E+02  0.46584143845E+03  0.72771221578E+03  0.86413990140E+03  0.46999998093E+01 0. -1.
       -5    1    3    3    0  502 -0.11931655870E+02 -0.46584143845E+03 -0.80717765779E+03  0.93204531618E+03  0.46999998093E+01 0.  1.
</event>
<event>
 5   0  0.2054876E-05  0.1803837E+04  0.7818609E-02  0.8704262E-01
        1   -1    0    0  501    0  0.00000000000E+00  0.00000000000E+00  0.14579777494E+04  0.14579777495E+04  0.50400001928E-02 0. -1.
       -1   -1    0    0    0  501  0.00000000000E+00  0.00000000000E+00 -0.55793501209E+03  0.55793501212E+03  0.50400001928E-02 0.  1.
    10030    2    1    2    0    0  0.00000000000E+00  0.00000000000E+00  0.90004273735E+03  0.20159127616E+04  0.18038368366E+04 0.  0.
        5    1    3    3  502    0 -0.20752048304E+03  0.61748935005E+03 -0.24707400944E+03  0.69672484127E+03  0.46999998093E+01 0.  1.
       -5    1    3    3    0  502  0.20752048304E+03 -0.61748935005E+03  0.11471167468E+04  0.13191879203E+04  0.46999998093E+01 0. -1.
</event>
<event>
 5   0  0.3993393E-05  0.1801582E+04  0.7818609E-02  0.8705458E-01
       -2   -1    0    0    0  501  0.00000000000E+00  0.00000000000E+00  0.89333966949E+03  0.89333966949E+03  0.25500000920E-02 0. -1.
        2   -1    0    0  501    0  0.00000000000E+00  0.00000000000E+00 -0.90830483398E+03  0.90830483398E+03  0.25500000920E-02 0.  1.
    10030    2    1    2    0    0  0.00000000000E+00  0.00000000000E+00 -0.14965164491E+02  0.18016445035E+04  0.18015823491E+04 0.  0.
        5    1    3    3  502    0  0.42909219770E+03 -0.76651050123E+03 -0.20684890323E+03  0.90247826644E+03  0.46999998093E+01 0. -1.
       -5    1    3    3    0  502 -0.42909219770E+03  0.76651050123E+03  0.19188373874E+03  0.89916623703E+03  0.46999998093E+01 0.  1.
</event>
<event>
 5   0  0.1906857E-05  0.1798682E+04  0.7818609E-02  0.8707001E-01
       -1   -1    0    0    0  501  0.00000000000E+00  0.00000000000E+00  0.70972410746E+03  0.70972410748E+03  0.50400001928E-02 0. -1.
        1   -1    0    0  501    0  0.00000000000E+00  0.00000000000E+00 -0.11396179902E+04  0.11396179902E+04  0.50400001928E-02 0.  1.
    10030    2    1    2    0    0  0.00000000000E+00  0.00000000000E+00 -0.42989388275E+03  0.18493420977E+04  0.17986821409E+04 0.  0.
        4    1    3    3  502    0 -0.74040233142E+03 -0.26781748898E+03 -0.66180375439E+03  0.10285463733E+04  0.12699999809E+01 0.  1.
       -4    1    3    3    0  502  0.74040233142E+03  0.26781748898E+03  0.23190987164E+03  0.82079572442E+03  0.12699999809E+01 0. -1.
</event>
<event>
 5   0  0.3984648E-05  0.1799660E+04  0.7818609E-02  0.8706480E-01
        2   -1    0    0  501    0  0.00000000000E+00  0.00000000000E+00  0.98831953226E+03  0.98831953226E+03  0.25500000920E-02 0. -1.
       -2   -1    0    0    0  501  0.00000000000E+00  0.00000000000E+00 -0.81926353365E+03  0.81926353365E+03  0.25500000920E-02 0.  1.
    10030    2    1    2    0    0  0.00000000000E+00  0.00000000000E+00  0.16905599861E+03  0.18075830659E+04  0.17996601372E+04 0.  0.
        1    1    3    3  502    0  0.45063924453E+03 -0.62725894295E+03  0.54825816923E+03  0.94716235693E+03  0.50400001928E-02 0. -1.
       -1    1    3    3    0  502 -0.45063924453E+03  0.62725894295E+03 -0.37920217061E+03  0.86042070899E+03  0.50400001928E-02 0.  1.
</event>
<event>
 5   0  0.2054876E-05  0.1800904E+04  0.7818609E-02  0.8705819E-01
       -1   -1    0    0    0  501  0.00000000000E+00  0.00000000000E+00  0.92624716481E+03  0.92624716482E+03  0.50400001928E-02 0.  1.
        1   -1    0    0  501    0  0.00000000000E+00  0.00000000000E+00 -0.87537547869E+03  0.87537547870E+03  0.50400001928E-02 0. -1.
    10030    2    1    2    0    0  0.00000000000E+00  0.00000000000E+00  0.50871686118E+02  0.18016226435E+04  0.18009042787E+04 0.  0.
        5    1    3    3  502    0  0.81494686293E+03  0.32873586038E+03  0.22194818268E+03  0.90636016080E+03  0.46999998093E+01 0.  1.
       -5    1    3    3    0  502 -0.81494686293E+03 -0.32873586038E+03 -0.17107649656E+03  0.89526248272E+03  0.46999998093E+01 0. -1.
</event>
<event>
 5   0  0.2038338E-05  0.1804781E+04  0.7818609E-02  0.8703761E-01
       -1   -1    0    0    0  501  0.00000000000E+00  0.00000000000E+00  0.11577673907E+04  0.11577673907E+04  0.50400001928E-02 0.  1.
        1   -1    0    0  501    0  0.00000000000E+00  0.00000000000E+00 -0.70334370548E+03  0.70334370550E+03  0.50400001928E-02 0. -1.
    10030    2    1    2    0    0  0.00000000000E+00  0.00000000000E+00  0.45442368523E+03  0.18611110962E+04  0.18047807697E+04 0.  0.
        1    1    3    3  502    0 -0.43446876047E+03  0.27308675642E+03  0.99265227096E+03  0.11174515701E+04  0.50400001928E-02 0.  1.
       -1    1    3    3    0  502  0.43446876047E+03 -0.27308675642E+03 -0.53822858573E+03  0.74365952618E+03  0.50400001928E-02 0. -1.
</event>
<event>
 5   0  0.2038338E-05  0.1796903E+04  0.7818609E-02  0.8707948E-01
        1   -1    0    0  501    0  0.00000000000E+00  0.00000000000E+00  0.66339198261E+03  0.66339198262E+03  0.50400001928E-02 0. -1.
       -1   -1    0    0    0  501  0.00000000000E+00  0.00000000000E+00 -0.12167995452E+04  0.12167995452E+04  0.50400001928E-02 0.  1.
    10030    2    1    2    0    0  0.00000000000E+00  0.00000000000E+00 -0.55340756261E+03  0.18801915279E+04  0.17969029609E+04 0.  0.
        1    1    3    3  502    0 -0.24149052885E+03  0.38277687441E+03 -0.10888093143E+04  0.11791274460E+04  0.50400001928E-02 0.  1.
       -1    1    3    3    0  502  0.24149052885E+03 -0.38277687441E+03  0.53540175166E+03  0.70106408182E+03  0.50400001928E-02 0. -1.
</event>
<event>
 5   0  0.1906857E-05  0.1799445E+04  0.7818609E-02  0.8706595E-01
        1   -1    0    0  501    0  0.00000000000E+00  0.00000000000E+00  0.63691187274E+03  0.63691187276E+03  0.50400001928E-02 0. -1.
       -1   -1    0    0    0  501  0.00000000000E+00  0.00000000000E+00 -0.12709769257E+04  0.12709769258E+04  0.50400001928E-02 0.  1.
    10030    2    1    2    0    0  0.00000000000E+00  0.00000000000E+00 -0.63406505301E+03  0.19078887985E+04  0.17994446855E+04 0.  0.
        4    1    3    3  502    0  0.34121629056E+03 -0.74607909238E+03 -0.70866547714E+03  0.10840991377E+04  0.12699999809E+01 0.  1.
       -4    1    3    3    0  502 -0.34121629056E+03  0.74607909238E+03  0.74600424138E+02  0.82378966078E+03  0.12699999809E+01 0. -1.
</event>
<event>
 5   0  0.3909859E-05  0.1800366E+04  0.7818609E-02  0.8706105E-01
       -2   -1    0    0    0  501  0.00000000000E+00  0.00000000000E+00  0.10344635686E+04  0.10344635686E+04  0.25500000920E-02 0.  1.
        2   -1    0    0  501    0  0.00000000000E+00  0.00000000000E+00 -0.78333337591E+03  0.78333337591E+03  0.25500000920E-02 0. -1.
    10030    2    1    2    0    0  0.00000000000E+00  0.00000000000E+00  0.25113019266E+03  0.18177969445E+04  0.18003664509E+04 0.  0.
        4    1    3    3  502    0  0.62635835887E+03  0.48535416897E+03  0.55682418081E+03  0.96847728125E+03  0.12699999809E+01 0.  1.
       -4    1    3    3    0  502 -0.62635835887E+03 -0.48535416897E+03 -0.30569398815E+03  0.84931966323E+03  0.12699999809E+01 0. -1.
</event>
<event>
 5   0  0.3983176E-05  0.1805490E+04  0.7818609E-02  0.8703385E-01
       -2   -1    0    0    0  501  0.00000000000E+00  0.00000000000E+00  0.99449330909E+03  0.99449330909E+03  0.25500000920E-02 0.  1.
        2   -1    0    0  501    0  0.00000000000E+00  0.00000000000E+00 -0.81946139758E+03  0.81946139759E+03  0.25500000920E-02 0. -1.
    10030    2    1    2    0    0  0.00000000000E+00  0.00000000000E+00  0.17503191150E+03  0.18139547067E+04  0.18054903788E+04 0.  0.
        3    1    3    3  502    0  0.21450547458E+02 -0.56767191619E+03  0.79240138986E+03  0.97499307858E+03  0.10100000352E+00 0.  1.
       -3    1    3    3    0  502 -0.21450547458E+02  0.56767191619E+03 -0.61736947836E+03  0.83896162810E+03  0.10100000352E+00 0. -1.
</event>
<event>
 5   0  0.1906857E-05  0.1799899E+04  0.7818609E-02  0.8706353E-01
        1   -1    0    0  501    0  0.00000000000E+00  0.00000000000E+00  0.11655205159E+04  0.11655205160E+04  0.50400001928E-02 0. -1.
       -1   -1    0    0    0  501  0.00000000000E+00  0.00000000000E+00 -0.69489082617E+03  0.69489082619E+03  0.50400001928E-02 0.  1.
    10030    2    1    2    0    0  0.00000000000E+00  0.00000000000E+00  0.47062968977E+03  0.18604113421E+04  0.17998994575E+04 0.  0.
        4    1    3    3  502    0  0.15656075629E+03  0.11654152422E+03 -0.67275082384E+03  0.70049159963E+03  0.12699999809E+01 0.  1.
       -4    1    3    3    0  502 -0.15656075629E+03 -0.11654152422E+03  0.11433805136E+04  0.11599197425E+04  0.12699999809E+01 0. -1.
</event>
<event>
 5   0  0.3993393E-05  0.1800080E+04  0.7818609E-02  0.8706257E-01
        2   -1    0    0  501    0  0.00000000000E+00  0.00000000000E+00  0.14198227735E+04  0.14198227735E+04  0.25500000920E-02 0.  1.
       -2   -1    0    0    0  501  0.00000000000E+00  0.00000000000E+00 -0.57054417583E+03  0.57054417583E+03  0.25500000920E-02 0. -1.
    10030    2    1    2    0    0  0.00000000000E+00  0.00000000000E+00  0.84927859770E+03  0.19903669494E+04  0.18000795695E+04 0.  0.
        5    1    3    3  502    0 -0.78013760856E+03  0.17617036735E+03 -0.31791311497E+02  0.80042705108E+03  0.46999998093E+01 0.  1.
       -5    1    3    3    0  502  0.78013760856E+03 -0.17617036735E+03  0.88106990920E+03  0.11899398983E+04  0.46999998093E+01 0. -1.
</event>
<event>
 5   0  0.3983176E-05  0.1805706E+04  0.7818609E-02  0.8703271E-01
        2   -1    0    0  501    0  0.00000000000E+00  0.00000000000E+00  0.86180990625E+03  0.86180990625E+03  0.25500000920E-02 0. -1.
       -2   -1    0    0    0  501  0.00000000000E+00  0.00000000000E+00 -0.94585108899E+03  0.94585108900E+03  0.25500000920E-02 0.  1.
    10030    2    1    2    0    0  0.00000000000E+00  0.00000000000E+00 -0.84041182744E+02  0.18076609952E+04  0.18057063309E+04 0.  0.
        3    1    3    3  502    0  0.76698705056E+03  0.13725284474E+03  0.41458316306E+03  0.88260222547E+03  0.10100000352E+00 0. -1.
       -3    1    3    3    0  502 -0.76698705056E+03 -0.13725284474E+03 -0.49862434580E+03  0.92505876978E+03  0.10100000352E+00 0.  1.
</event>
<event>
 5   0  0.3909859E-05  0.1801467E+04  0.7818609E-02  0.8705520E-01
       -2   -1    0    0    0  501  0.00000000000E+00  0.00000000000E+00  0.39852814949E+03  0.39852814950E+03  0.25500000920E-02 0. -1.
        2   -1    0    0  501    0  0.00000000000E+00  0.00000000000E+00 -0.20357921996E+04  0.20357921996E+04  0.25500000920E-02 0.  1.
    10030    2    1    2    0    0  0.00000000000E+00  0.00000000000E+00 -0.16372640501E+04  0.24343203491E+04  0.18014666226E+04 0.  0.
        4    1    3    3  502    0 -0.83562199105E+03  0.17231096495E+03 -0.42847447769E+03  0.95474979523E+03  0.12699999809E+01 0. -1.
       -4    1    3    3    0  502  0.83562199105E+03 -0.17231096495E+03 -0.12087895724E+04  0.14795705538E+04  0.12699999809E+01 0.  1.
</event>
<event>
 5   0  0.4015729E-05  0.1807529E+04  0.7818609E-02  0.8702306E-01
        2   -1    0    0  501    0  0.00000000000E+00  0.00000000000E+00  0.10874333990E+04  0.10874333990E+04  0.25500000920E-02 0.  1.
       -2   -1    0    0    0  501  0.00000000000E+00  0.00000000000E+00 -0.75111710155E+03  0.75111710155E+03  0.25500000920E-02 0. -1.
    10030    2    1    2    0    0  0.00000000000E+00  0.00000000000E+00  0.33631629750E+03  0.18385505006E+04  0.18075285036E+04 0.  0.
        2    1    3    3  502    0 -0.39528825984E+03  0.31901639209E+03 -0.59217727112E+03  0.78019112224E+03  0.25500000920E-02 0. -1.
       -2    1    3    3    0  502  0.39528825984E+03 -0.31901639209E+03  0.92849356862E+03  0.10583593784E+04  0.25500000920E-02 0.  1.
</event>
<event>
 5   0  0.4015729E-05  0.1753402E+04  0.7818609E-02  0.8731480E-01
        2   -1    0    0  501    0  0.00000000000E+00  0.00000000000E+00  0.22320343013E+04  0.22320343013E+04  0.25500000920E-02 0.  1.
       -2   -1    0    0    0  501  0.00000000000E+00  0.00000000000E+00 -0.34435181702E+03  0.34435181703E+03  0.25500000920E-02 0. -1.
    10030    2    1    2    0    0  0.00000000000E+00  0.00000000000E+00  0.18876824842E+04  0.25763861183E+04  0.17534024835E+04 0.  0.
        2    1    3    3  502    0 -0.34494923159E+03 -0.54933887627E+03  0.77238065453E+02  0.65324489444E+03  0.25500000920E-02 0. -1.
       -2    1    3    3    0  502  0.34494923159E+03  0.54933887627E+03  0.18104444188E+04  0.19231412238E+04  0.25500000920E-02 0.  1.
</event>
<event>
 5   0  0.4015729E-05  0.1796829E+04  0.7818609E-02  0.8707987E-01
       -2   -1    0    0    0  501  0.00000000000E+00  0.00000000000E+00  0.47398702901E+03  0.47398702902E+03  0.25500000920E-02 0. -1.
        2   -1    0    0  501    0  0.00000000000E+00  0.00000000000E+00 -0.17028921323E+04  0.17028921323E+04  0.25500000920E-02 0.  1.
    10030    2    1    2    0    0  0.00000000000E+00  0.00000000000E+00 -0.12289051033E+04  0.21768791614E+04  0.17968291878E+04 0.  0.
        2    1    3    3  502    0  0.38867904176E+03 -0.68301333907E+03 -0.86964628537E+02  0.79065888060E+03  0.25500000920E-02 0. -1.
       -2    1    3    3    0  502 -0.38867904176E+03  0.68301333907E+03 -0.11419404748E+04  0.13862202808E+04  0.25500000920E-02 0.  1.
</event>
<event>
 5   0  0.3983176E-05  0.1797088E+04  0.7818609E-02  0.8707849E-01
        2   -1    0    0  501    0  0.00000000000E+00  0.00000000000E+00  0.17160651626E+04  0.17160651626E+04  0.25500000920E-02 0. -1.
       -2   -1    0    0    0  501  0.00000000000E+00  0.00000000000E+00 -0.47048420040E+03  0.47048420041E+03  0.25500000920E-02 0.  1.
    10030    2    1    2    0    0  0.00000000000E+00  0.00000000000E+00  0.12455809622E+04  0.21865493630E+04  0.17970882515E+04 0.  0.
        3    1    3    3  502    0 -0.18975248876E+03 -0.39100216119E+03 -0.33408894973E+03  0.54818257322E+03  0.10100000352E+00 0.  1.
       -3    1    3    3    0  502  0.18975248876E+03  0.39100216119E+03  0.15796699120E+04  0.16383667898E+04  0.10100000352E+00 0. -1.
</event>
<event>
 5   0  0.3909859E-05  0.1799319E+04  0.7818609E-02  0.8706662E-01
       -2   -1    0    0    0  501  0.00000000000E+00  0.00000000000E+00  0.69128298799E+03  0.69128298800E+03  0.25500000920E-02 0.  1.
        2   -1    0    0  501    0  0.00000000000E+00  0.00000000000E+00 -0.11708478893E+04  0.11708478893E+04  0.25500000920E-02 0. -1.
    10030    2    1    2    0    0  0.00000000000E+00  0.00000000000E+00 -0.47956490130E+03  0.18621308773E+04  0.17993190127E+04 0.  0.
        4    1    3    3  502    0  0.76987570578E+03 -0.30293465317E+03 -0.60554267781E+03  0.10252617002E+04  0.12699999809E+01 0. -1.
       -4    1    3    3    0  502 -0.76987570578E+03  0.30293465317E+03  0.12597777651E+03  0.83686917706E+03  0.12699999809E+01 0.  1.
</event>
<event>
 5   0  0.3984648E-05  0.1801029E+04  0.7818609E-02  0.8705752E-01
        2   -1    0    0  501    0  0.00000000000E+00  0.00000000000E+00  0.12150445059E+04  0.12150445059E+04  0.25500000920E-02 0.  1.
       -2   -1    0    0    0  501  0.00000000000E+00  0.00000000000E+00 -0.66740485501E+03  0.66740485501E+03  0.25500000920E-02 0. -1.
    10030    2    1    2    0    0  0.00000000000E+00  0.00000000000E+00  0.54763965085E+03  0.18824493609E+04  0.18010292638E+04 0.  0.
        1    1    3    3  502    0 -0.44400788790E+03 -0.50465352476E+03 -0.35252764154E+03  0.75900851290E+03  0.50400001928E-02 0. -1.
       -1    1    3    3    0  502  0.44400788790E+03  0.50465352476E+03  0.90016729240E+03  0.11234408480E+04  0.50400001928E-02 0.  1.
</event>
<event>
 5   0  0.2038338E-05  0.1799181E+04  0.7818609E-02  0.8706735E-01
       -1   -1    0    0    0  501  0.00000000000E+00  0.00000000000E+00  0.66292151321E+03  0.66292151323E+03  0.50400001928E-02 0.  1.
        1   -1    0    0  501    0  0.00000000000E+00  0.00000000000E+00 -0.12207531162E+04  0.12207531162E+04  0.50400001928E-02 0. -1.
    10030    2    1    2    0    0  0.00000000000E+00  0.00000000000E+00 -0.55783160295E+03  0.18836746294E+04  0.17991814840E+04 0.  0.
        1    1    3    3  502    0 -0.19959518675E+03  0.84033545038E+03 -0.15585409743E+02  0.86385462478E+03  0.50400001928E-02 0.  1.
       -1    1    3    3    0  502  0.19959518675E+03 -0.84033545038E+03 -0.54224619321E+03  0.10198200046E+04  0.50400001928E-02 0. -1.
</event>
<event>
 5   0  0.1960300E-05  0.1829798E+04  0.7818609E-02  0.8690612E-01
        1   -1    0    0  501    0  0.00000000000E+00  0.00000000000E+00  0.11278765414E+04  0.11278765414E+04  0.50400001928E-02 0.  1.
       -1   -1    0    0    0  501  0.00000000000E+00  0.00000000000E+00 -0.74213845711E+03  0.74213845713E+03  0.50400001928E-02 0. -1.
    10030    2    1    2    0    0  0.00000000000E+00  0.00000000000E+00  0.38573808431E+03  0.18700149986E+04  0.18297984111E+04 0.  0.
        3    1    3    3  502    0  0.59965920087E+03  0.63404483759E+03 -0.87824682502E+02  0.87710729008E+03  0.10100000352E+00 0. -1.
       -3    1    3    3    0  502 -0.59965920087E+03 -0.63404483759E+03  0.47356276681E+03  0.99290770848E+03  0.10100000352E+00 0.  1.
</event>
<event>
 5   0  0.2038338E-05  0.1796825E+04  0.7818609E-02  0.8707990E-01
        1   -1    0    0  501    0  0.00000000000E+00  0.00000000000E+00  0.12629211808E+04  0.12629211808E+04  0.50400001928E-02 0. -1.
       -1   -1    0    0    0  501  0.00000000000E+00  0.00000000000E+00 -0.63910977167E+03  0.63910977169E+03  0.50400001928E-02 0.  1.
    10030    2    1    2    0    0  0.00000000000E+00  0.00000000000E+00  0.62381140911E+03  0.19020309525E+04  0.17968252753E+04 0.  0.
        1    1    3    3  502    0  0.13367253165E+02  0.54933866916E+03 -0.44048021028E+03  0.70425455097E+03  0.50400001928E-02 0.  1.
       -1    1    3    3    0  502 -0.13367253165E+02 -0.54933866916E+03  0.10642916194E+04  0.11977764015E+04  0.50400001928E-02 0. -1.
</event>
<event>
 5   0  0.3909859E-05  0.1798964E+04  0.7818609E-02  0.8706851E-01
       -2   -1    0    0    0  501  0.00000000000E+00  0.00000000000E+00  0.48666045354E+03  0.48666045355E+03  0.25500000920E-02 0. -1.
        2   -1    0    0  501    0  0.00000000000E+00  0.00000000000E+00 -0.16624889108E+04  0.16624889108E+04  0.25500000920E-02 0.  1.
    10030    2    1    2    0    0  0.00000000000E+00  0.00000000000E+00 -0.11758284572E+04  0.21491493643E+04  0.17989637098E+04 0.  0.
        4    1    3    3  502    0  0.42395867909E+03 -0.31788158045E+03  0.28039571558E+03  0.59951065961E+03  0.12699999809E+01 0. -1.
       -4    1    3    3    0  502 -0.42395867909E+03  0.31788158045E+03 -0.14562241728E+04  0.15496387047E+04  0.12699999809E+01 0.  1.
</event>
<event>
 5   0  0.4015729E-05  0.1800028E+04  0.7818609E-02  0.8706284E-01
        2   -1    0    0  501    0  0.00000000000E+00  0.00000000000E+00  0.15622732352E+04  0.15622732352E+04  0.25500000920E-02 0. -1.
       -2   -1    0    0    0  501  0.00000000000E+00  0.00000000000E+00 -0.51849154166E+03  0.51849154166E+03  0.25500000920E-02 0.  1.
    10030    2    1    2    0    0  0.00000000000E+00  0.00000000000E+00  0.10437816936E+04  0.20807647769E+04  0.18000282867E+04 0.  0.
        2    1    3    3  502    0  0.80156846817E+03  0.39923076159E+03  0.41767299137E+03  0.98810320204E+03  0.25500000920E-02 0. -1.
       -2    1    3    3    0  502 -0.80156846817E+03 -0.39923076159E+03  0.62610870218E+03  0.10926615748E+04  0.25500000920E-02 0.  1.
</event>
<event>
 5   0  0.4015729E-05  0.1803787E+04  0.7818609E-02  0.8704288E-01
        2   -1    0    0  501    0  0.00000000000E+00  0.00000000000E+00  0.17951735699E+04  0.17951735699E+04  0.25500000920E-02 0. -1.
       -2   -1    0    0    0  501  0.00000000000E+00  0.00000000000E+00 -0.45311053889E+03  0.45311053890E+03  0.25500000920E-02 0.  1.
    10030    2    1    2    0    0  0.00000000000E+00  0.00000000000E+00  0.13420630310E+04  0.22482841088E+04  0.18037871977E+04 0.  0.
        2    1    3    3  502    0 -0.40795976287E+02 -0.90091238810E+03  0.68378048995E+03  0.11317522702E+04  0.25500000920E-02 0.  1.
       -2    1    3    3    0  502  0.40795976287E+02  0.90091238810E+03  0.65828254107E+03  0.11165318386E+04  0.25500000920E-02 0. -1.
</event>
<event>
 5   0  0.3984648E-05  0.1793723E+04  0.7818609E-02  0.8709645E-01
        2   -1    0    0  501    0  0.00000000000E+00  0.00000000000E+00  0.17213378239E+04  0.17213378239E+04  0.25500000920E-02 0.  1.
       -2   -1    0    0    0  501  0.00000000000E+00  0.00000000000E+00 -0.46728815697E+03  0.46728815698E+03  0.25500000920E-02 0. -1.
    10030    2    1    2    0    0  0.00000000000E+00  0.00000000000E+00  0.12540496669E+04  0.21886259809E+04  0.17937232554E+04 0.  0.
        1    1    3    3  502    0  0.27170324536E+03 -0.20520328617E+03  0.16394103477E+04  0.16743946161E+04  0.50400001928E-02 0.  1.
       -1    1    3    3    0  502 -0.27170324536E+03  0.20520328617E+03 -0.38536068079E+03  0.51423136478E+03  0.50400001928E-02 0. -1.
</event>
<event>
 5   0  0.3993393E-05  0.1791746E+04  0.7818609E-02  0.8710701E-01
        2   -1    0    0  501    0  0.00000000000E+00  0.00000000000E+00  0.16397753734E+04  0.16397753734E+04  0.25500000920E-02 0.  1.
       -2   -1    0    0    0  501  0.00000000000E+00  0.00000000000E+00 -0.48944996398E+03  0.48944996399E+03  0.25500000920E-02 0. -1.
    10030    2    1    2    0    0  0.00000000000E+00  0.00000000000E+00  0.11503254094E+04  0.21292253374E+04  0.17917455148E+04 0.  0.
        5    1    3    3  502    0 -0.84104982676E+03 -0.95678383642E+02  0.92375077355E+03  0.12529392427E+04  0.46999998093E+01 0.  1.
       -5    1    3    3    0  502  0.84104982676E+03  0.95678383642E+02  0.22657463587E+03  0.87628609473E+03  0.46999998093E+01 0. -1.
</event>
<event>
 5   0  0.2001811E-05  0.1799068E+04  0.7818609E-02  0.8706795E-01
       -1   -1    0    0    0  501  0.00000000000E+00  0.00000000000E+00  0.10049365994E+04  0.10049365994E+04  0.50400001928E-02 0. -1.
        1   -1    0    0  501    0  0.00000000000E+00  0.00000000000E+00 -0.80518696179E+03  0.80518696181E+03  0.50400001928E-02 0.  1.
    10030    2    1    2    0    0  0.00000000000E+00  0.00000000000E+00  0.19974963761E+03  0.18101235612E+04  0.17990684782E+04 0.  0.
        2    1    3    3  502    0 -0.45896073627E+03  0.21059039432E+03 -0.64912458971E+03  0.82240866033E+03  0.25500000920E-02 0.  1.
       -2    1    3    3    0  502  0.45896073627E+03 -0.21059039432E+03  0.84887422732E+03  0.98771490089E+03  0.25500000920E-02 0. -1.
</event>
<event>
 5   0  0.1960300E-05  0.1800367E+04  0.7818609E-02  0.8706104E-01
       -1   -1    0    0    0  501  0.00000000000E+00  0.00000000000E+00  0.62024399682E+03  0.62024399684E+03  0.50400001928E-02 0. -1.
        1   -1    0    0  501    0  0.00000000000E+00  0.00000000000E+00 -0.13064709613E+04  0.13064709613E+04  0.50400001928E-02 0.  1.
    10030    2    1    2    0    0  0.00000000000E+00  0.00000000000E+00 -0.68622696451E+03  0.19267149582E+04  0.18003674856E+04 0.  0.
        3    1    3    3  502    0  0.86347063430E+03 -0.21679538190E+03 -0.48568838698E+03  0.10141375614E+04  0.10100000352E+00 0.  1.
       -3    1    3    3    0  502 -0.86347063430E+03  0.21679538190E+03 -0.20053857753E+03  0.91257739682E+03  0.10100000352E+00 0. -1.
</event>
<event>
 5   0  0.2038338E-05  0.1798127E+04  0.7818609E-02  0.8707296E-01
       -1   -1    0    0    0  501  0.00000000000E+00  0.00000000000E+00  0.89551607464E+03  0.89551607465E+03  0.50400001928E-02 0. -1.
        1   -1    0    0  501    0  0.00000000000E+00  0.00000000000E+00 -0.90262539139E+03  0.90262539141E+03  0.50400001928E-02 0.  1.
    10030    2    1    2    0    0  0.00000000000E+00  0.00000000000E+00 -0.71093167551E+01  0.17981414661E+04  0.17981274119E+04 0.  0.
        1    1    3    3  502    0  0.34093575074E+03 -0.51224858427E+03 -0.65905939971E+03  0.90166240389E+03  0.50400001928E-02 0.  1.
       -1    1    3    3    0  502 -0.34093575074E+03  0.51224858427E+03  0.65195008295E+03  0.89647906217E+03  0.50400001928E-02 0. -1.
</event>
<event>
 5   0  0.2001811E-05  0.1800751E+04  0.7818609E-02  0.8705900E-01
        1   -1    0    0  501    0  0.00000000000E+00  0.00000000000E+00  0.16875606058E+04  0.16875606058E+04  0.50400001928E-02 0.  1.
       -1   -1    0    0    0  501  0.00000000000E+00  0.00000000000E+00 -0.48038313610E+03  0.48038313613E+03  0.50400001928E-02 0. -1.
    10030    2    1    2    0    0  0.00000000000E+00  0.00000000000E+00  0.12071774697E+04  0.21679437419E+04  0.18007505726E+04 0.  0.
        2    1    3    3  502    0 -0.15264571615E+02  0.56963702489E+03 -0.23566456765E+03  0.61664992964E+03  0.25500000920E-02 0. -1.
       -2    1    3    3    0  502  0.15264571615E+02 -0.56963702489E+03  0.14428420373E+04  0.15512938123E+04  0.25500000920E-02 0.  1.
</event>
<event>
 5   0  0.3983176E-05  0.1798362E+04  0.7818609E-02  0.8707171E-01
       -2   -1    0    0    0  501  0.00000000000E+00  0.00000000000E+00  0.41754994934E+03  0.41754994935E+03  0.25500000920E-02 0. -1.
        2   -1    0    0  501    0  0.00000000000E+00  0.00000000000E+00 -0.19363577360E+04  0.19363577360E+04  0.25500000920E-02 0.  1.
    10030    2    1    2    0    0  0.00000000000E+00  0.00000000000E+00 -0.15188077866E+04  0.23539076853E+04  0.17983615594E+04 0.  0.
        3    1    3    3  502    0  0.82033339030E+03 -0.36798760743E+03 -0.74262553152E+03  0.11661279693E+04  0.10100000352E+00 0. -1.
       -3    1    3    3    0  502 -0.82033339030E+03  0.36798760743E+03 -0.77618225510E+03  0.11877797160E+04  0.10100000352E+00 0.  1.
</event>
<event>
 5   0  0.2001811E-05  0.1811383E+04  0.7818609E-02  0.8700270E-01
        1   -1    0    0  501    0  0.00000000000E+00  0.00000000000E+00  0.15692755279E+04  0.15692755279E+04  0.50400001928E-02 0. -1.
       -1   -1    0    0    0  501  0.00000000000E+00  0.00000000000E+00 -0.52271059178E+03  0.52271059181E+03  0.50400001928E-02 0.  1.
    10030    2    1    2    0    0  0.00000000000E+00  0.00000000000E+00  0.10465649361E+04  0.20919861197E+04  0.18113828308E+04 0.  0.
        2    1    3    3  502    0 -0.58737105992E+03  0.18430977378E+03 -0.24393157132E+03  0.66217631053E+03  0.25500000920E-02 0.  1.
       -2    1    3    3    0  502  0.58737105992E+03 -0.18430977378E+03  0.12904965074E+04  0.14298098092E+04  0.25500000920E-02 0. -1.
</event>
<event>
 5   0  0.3993393E-05  0.1799529E+04  0.7818609E-02  0.8706550E-01
        2   -1    0    0  501    0  0.00000000000E+00  0.00000000000E+00  0.28724084295E+04  0.28724084295E+04  0.25500000920E-02 0.  1.
       -2   -1    0    0    0  501  0.00000000000E+00  0.00000000000E+00 -0.28184562310E+03  0.28184562312E+03  0.25500000920E-02 0. -1.
    10030    2    1    2    0    0  0.00000000000E+00  0.00000000000E+00  0.25905628064E+04  0.31542540526E+04  0.17995285423E+04 0.  0.
        5    1    3    3  502    0 -0.99801597100E+01 -0.31128575663E+03  0.27748911914E+04  0.27923183271E+04  0.46999998093E+01 0.  1.
       -5    1    3    3    0  502  0.99801597100E+01  0.31128575663E+03 -0.18432838501E+03  0.36193572549E+03  0.46999998093E+01 0. -1.
</event>
<event>
 5   0  0.3984648E-05  0.1803411E+04  0.7818609E-02  0.8704488E-01
       -2   -1    0    0    0  501  0.00000000000E+00  0.00000000000E+00  0.11726971256E+04  0.11726971256E+04  0.25500000920E-02 0. -1.
        2   -1    0    0  501    0  0.00000000000E+00  0.00000000000E+00 -0.69333534001E+03  0.69333534001E+03  0.25500000920E-02 0.  1.
    10030    2    1    2    0    0  0.00000000000E+00  0.00000000000E+00  0.47936178557E+03  0.18660324656E+04  0.18034105027E+04 0.  0.
        1    1    3    3  502    0 -0.58890419826E+03  0.29457275697E+03  0.87710046761E+03  0.10967618220E+04  0.50400001928E-02 0. -1.
       -1    1    3    3    0  502  0.58890419826E+03 -0.29457275697E+03 -0.39773868204E+03  0.76927064360E+03  0.50400001928E-02 0.  1.
</event>
<event>
 5   0  0.2054876E-05  0.1807280E+04  0.7818609E-02  0.8702437E-01
       -1   -1    0    0    0  501  0.00000000000E+00  0.00000000000E+00  0.64144607177E+03  0.64144607179E+03  0.50400001928E-02 0. -1.
        1   -1    0    0  501    0  0.00000000000E+00  0.00000000000E+00 -0.12730073592E+04  0.12730073592E+04  0.50400001928E-02 0.  1.
    10030    2    1    2    0    0  0.00000000000E+00  0.00000000000E+00 -0.63156128743E+03  0.19144534310E+04  0.18072803545E+04 0.  0.
        5    1    3    3  502    0 -0.79425738494E+03  0.28778018523E+03  0.23991208687E+02  0.84513898066E+03  0.46999998093E+01 0. -1.
       -5    1    3    3    0  502  0.79425738494E+03 -0.28778018523E+03 -0.65555249612E+03  0.10693144503E+04  0.46999998093E+01 0.  1.
</event>
<event>
 5   0  0.1960300E-05  0.1801038E+04  0.7818609E-02  0.8705748E-01
       -1   -1    0    0    0  501  0.00000000000E+00  0.00000000000E+00  0.11220860378E+04  0.11220860378E+04  0.50400001928E-02 0.  1.
        1   -1    0    0  501    0  0.00000000000E+00  0.00000000000E+00 -0.72270227919E+03  0.72270227921E+03  0.50400001928E-02 0. -1.
    10030    2    1    2    0    0  0.00000000000E+00  0.00000000000E+00  0.39938375858E+03  0.18447883170E+04  0.18010376309E+04 0.  0.
        3    1    3    3  502    0 -0.27779133822E+02 -0.87234649948E+03 -0.27447094527E+02  0.87322016046E+03  0.10100000352E+00 0. -1.
       -3    1    3    3    0  502  0.27779133822E+02  0.87234649948E+03  0.42683085311E+03  0.97156815654E+03  0.10100000352E+00 0.  1.
</event>
<event>
 5   0  0.1906857E-05  0.1801628E+04  0.7818609E-02  0.8705434E-01
        1   -1    0    0  501    0  0.00000000000E+00  0.00000000000E+00  0.85537946253E+03  0.85537946254E+03  0.50400001928E-02 0. -1.
       -1   -1    0    0    0  501  0.00000000000E+00  0.00000000000E+00 -0.94866137873E+03  0.94866137875E+03  0.50400001928E-02 0.  1.
    10030    2    1    2    0    0  0.00000000000E+00  0.00000000000E+00 -0.93281916205E+02  0.18040408413E+04  0.18016275534E+04 0.  0.
        4    1    3    3  502    0  0.17099190528E+03  0.80442823922E+03 -0.41472118843E+03  0.92105282192E+03  0.12699999809E+01 0.  1.
       -4    1    3    3    0  502 -0.17099190528E+03 -0.80442823922E+03  0.32143927223E+03  0.88298801937E+03  0.12699999809E+01 0. -1.
</event>
<event>
 5   0  0.2054876E-05  0.1799135E+04  0.7818609E-02  0.8706760E-01
        1   -1    0    0  501    0  0.00000000000E+00  0.00000000000E+00  0.14782771346E+04  0.14782771347E+04  0.50400001928E-02 0. -1.
       -1   -1    0    0    0  501  0.00000000000E+00  0.00000000000E+00 -0.54740836360E+03  0.54740836362E+03  0.50400001928E-02 0.  1.
    10030    2    1    2    0    0  0.00000000000E+00  0.00000000000E+00  0.93086877104E+03  0.20256854983E+04  0.17991345333E+04 0.  0.
        5    1    3    3  502    0  0.16350739740E+03 -0.60137581254E+02  0.14590873400E+04  0.14694587961E+04  0.46999998093E+01 0. -1.
       -5    1    3    3    0  502 -0.16350739740E+03  0.60137581254E+02 -0.52821856893E+03  0.55622670220E+03  0.46999998093E+01 0.  1.
</event>
<event>
 5   0  0.4015729E-05  0.1798065E+04  0.7818609E-02  0.8707329E-01
       -2   -1    0    0    0  501  0.00000000000E+00  0.00000000000E+00  0.80611679363E+03  0.80611679363E+03  0.25500000920E-02 0. -1.
        2   -1    0    0  501    0  0.00000000000E+00  0.00000000000E+00 -0.10026574696E+04  0.10026574696E+04  0.25500000920E-02 0.  1.
    10030    2    1    2    0    0  0.00000000000E+00  0.00000000000E+00 -0.19654067594E+03  0.18087742632E+04  0.17980645422E+04 0.  0.
        2    1    3    3  502    0 -0.53502660220E+03  0.20540996336E+03 -0.79508099534E+03  0.98010229429E+03  0.25500000920E-02 0.  1.
       -2    1    3    3    0  502  0.53502660220E+03 -0.20540996336E+03  0.59854031940E+03  0.82867196892E+03  0.25500000920E-02 0. -1.
</event>
<event>
 5   0  0.2001811E-05  0.1795537E+04  0.7818609E-02  0.8708677E-01
       -1   -1    0    0    0  501  0.00000000000E+00  0.00000000000E+00  0.58599558300E+03  0.58599558302E+03  0.50400001928E-02 0. -1.
        1   -1    0    0  501    0  0.00000000000E+00  0.00000000000E+00 -0.13754168156E+04  0.13754168156E+04  0.50400001928E-02 0.  1.
    10030    2    1    2    0    0  0.00000000000E+00  0.00000000000E+00 -0.78942123258E+03  0.19614123986E+04  0.17955368877E+04 0.  0.
        2    1    3    3  502    0 -0.12253435335E+03  0.10158303221E+03 -0.13598810066E+04  0.13691640268E+04  0.25500000920E-02 0.  1.
       -2    1    3    3    0  502  0.12253435335E+03 -0.10158303221E+03  0.57045977399E+03  0.59224837183E+03  0.25500000920E-02 0. -1.
</event>
<event>
 5   0  0.3993393E-05  0.1799889E+04  0.7818609E-02  0.8706358E-01
       -2   -1    0    0    0  501  0.00000000000E+00  0.00000000000E+00  0.37484717877E+03  0.37484717878E+03  0.25500000920E-02 0.  1.
        2   -1    0    0  501    0  0.00000000000E+00  0.00000000000E+00 -0.21606152295E+04  0.21606152295E+04  0.25500000920E-02 0. -1.
    10030    2    1    2    0    0  0.00000000000E+00  0.00000000000E+00 -0.17857680507E+04  0.25354624083E+04  0.17998894668E+04 0.  0.
        5    1    3    3  502    0  0.43017830063E+03 -0.78630466465E+03 -0.10068914734E+04  0.13480285328E+04  0.46999998093E+01 0. -1.
       -5    1    3    3    0  502 -0.43017830063E+03  0.78630466465E+03 -0.77887657736E+03  0.11874338755E+04  0.46999998093E+01 0.  1.
</event>
<event>
 5   0  0.2038338E-05  0.1803033E+04  0.7818609E-02  0.8704688E-01
       -1   -1    0    0    0  501  0.00000000000E+00  0.00000000000E+00  0.56817896851E+03  0.56817896854E+03  0.50400001928E-02 0.  1.
        1   -1    0    0  501    0  0.00000000000E+00  0.00000000000E+00 -0.14304149301E+04  0.14304149301E+04  0.50400001928E-02 0. -1.
    10030    2    1    2    0    0  0.00000000000E+00  0.00000000000E+00 -0.86223596162E+03  0.19985938987E+04  0.18030326448E+04 0.  0.
        1    1    3    3  502    0  0.13547271083E+03 -0.54068110297E+03  0.35428279422E+03  0.66045833237E+03  0.50400001928E-02 0.  1.
       -1    1    3    3    0  502 -0.13547271083E+03  0.54068110297E+03 -0.12165187558E+04  0.13381355663E+04  0.50400001928E-02 0. -1.
</event>
<event>
 5   0  0.3983176E-05  0.1806893E+04  0.7818609E-02  0.8702642E-01
        2   -1    0    0  501    0  0.00000000000E+00  0.00000000000E+00  0.78943789996E+03  0.78943789996E+03  0.25500000920E-02 0.  1.
       -2   -1    0    0    0  501  0.00000000000E+00  0.00000000000E+00 -0.10339202616E+04  0.10339202616E+04  0.25500000920E-02 0. -1.
    10030    2    1    2    0    0  0.00000000000E+00  0.00000000000E+00 -0.24448236165E+03  0.18233581616E+04  0.18068932897E+04 0.  0.
        3    1    3    3  502    0 -0.70843234179E+03  0.11944230941E+03  0.43053959000E+03  0.83756026465E+03  0.10100000352E+00 0.  1.
       -3    1    3    3    0  502  0.70843234179E+03 -0.11944230941E+03 -0.67502195164E+03  0.98579789692E+03  0.10100000352E+00 0. -1.
</event>
<event>
 5   0  0.3993393E-05  0.1798520E+04  0.7818609E-02  0.8707087E-01
        2   -1    0    0  501    0  0.00000000000E+00  0.00000000000E+00  0.70655654137E+03  0.70655654138E+03  0.25500000920E-02 0. -1.
       -2   -1    0    0    0  501  0.00000000000E+00  0.00000000000E+00 -0.11445211167E+04  0.11445211167E+04  0.25500000920E-02 0.  1.
    10030    2    1    2    0    0  0.00000000000E+00  0.00000000000E+00 -0.43796457536E+03  0.18510776581E+04  0.17985203716E+04 0.  0.
        5    1    3    3  502    0 -0.43996755857E+03 -0.72803472234E+03  0.81157036892E+02  0.85452592948E+03  0.46999998093E+01 0. -1.
       -5    1    3    3    0  502  0.43996755857E+03  0.72803472234E+03 -0.51912161226E+03  0.99655172863E+03  0.46999998093E+01 0.  1.
</event>
<event>
 5   0  0.3993393E-05  0.1799183E+04  0.7818609E-02  0.8706734E-01
        2   -1    0    0  501    0  0.00000000000E+00  0.00000000000E+00  0.80270183620E+03  0.80270183620E+03  0.25500000920E-02 0. -1.
       -2   -1    0    0    0  501  0.00000000000E+00  0.00000000000E+00 -0.10081757786E+04  0.10081757786E+04  0.25500000920E-02 0.  1.
    10030    2    1    2    0    0  0.00000000000E+00  0.00000000000E+00 -0.20547394244E+03  0.18108776148E+04  0.17991826463E+04 0.  0.
        5    1    3    3  502    0  0.50730979951E+03  0.71813764499E+02 -0.84694975428E+03  0.98988202616E+03  0.46999998093E+01 0.  1.
       -5    1    3    3    0  502 -0.50730979951E+03 -0.71813764499E+02  0.64147581184E+03  0.82099558868E+03  0.46999998093E+01 0. -1.
</event>
<event>
 5   0  0.3983176E-05  0.1802481E+04  0.7818609E-02  0.8704981E-01
        2   -1    0    0  501    0  0.00000000000E+00  0.00000000000E+00  0.18621266369E+04  0.18621266369E+04  0.25500000920E-02 0. -1.
       -2   -1    0    0    0  501  0.00000000000E+00  0.00000000000E+00 -0.43618665601E+03  0.43618665601E+03  0.25500000920E-02 0.  1.
    10030    2    1    2    0    0  0.00000000000E+00  0.00000000000E+00  0.14259399809E+04  0.22983132929E+04  0.18024813905E+04 0.  0.
        3    1    3    3  502    0  0.84344963317E+03 -0.24974778883E+03  0.96300832435E+03  0.13042876541E+04  0.10100000352E+00 0.  1.
       -3    1    3    3    0  502 -0.84344963317E+03  0.24974778883E+03  0.46293165651E+03  0.99402563877E+03  0.10100000352E+00 0. -1.
</event>
<event>
 5   0  0.2038338E-05  0.1799474E+04  0.7818609E-02  0.8706579E-01
       -1   -1    0    0    0  501  0.00000000000E+00  0.00000000000E+00  0.53067273301E+03  0.53067273304E+03  0.50400001928E-02 0.  1.
        1   -1    0    0  501    0  0.00000000000E+00  0.00000000000E+00 -0.15254720788E+04  0.15254720788E+04  0.50400001928E-02 0. -1.
    10030    2    1    2    0    0  0.00000000000E+00  0.00000000000E+00 -0.99479934577E+03  0.20561448118E+04  0.17994737422E+04 0.  0.
        1    1    3    3  502    0  0.55507171167E+02  0.88709181125E+03 -0.65701547220E+03  0.11052973620E+04  0.50400001928E-02 0. -1.
       -1    1    3    3    0  502 -0.55507171167E+02 -0.88709181125E+03 -0.33778387357E+03  0.95084744986E+03  0.50400001928E-02 0.  1.
</event>
<event>
 5   0  0.1906857E-05  0.1798504E+04  0.7818609E-02  0.8707095E-01
       -1   -1    0    0    0  501  0.00000000000E+00  0.00000000000E+00  0.11719285783E+04  0.11719285783E+04  0.50400001928E-02 0.  1.
        1   -1    0    0  501    0  0.00000000000E+00  0.00000000000E+00 -0.69002029083E+03  0.69002029085E+03  0.50400001928E-02 0. -1.
    10030    2    1    2    0    0  0.00000000000E+00  0.00000000000E+00  0.48190828748E+03  0.18619488692E+04  0.17985043769E+04 0.  0.
        4    1    3    3  502    0 -0.33840549483E+03 -0.28868753796E+03  0.10500568850E+04  0.11403858330E+04  0.12699999809E+01 0.  1.
       -4    1    3    3    0  502  0.33840549483E+03  0.28868753796E+03 -0.56814859747E+03  0.72156303620E+03  0.12699999809E+01 0. -1.
</event>
<event>
 5   0  0.2054876E-05  0.1791207E+04  0.7818609E-02  0.8710990E-01
        1   -1    0    0  501    0  0.00000000000E+00  0.00000000000E+00  0.60678864008E+03  0.60678864010E+03  0.50400001928E-02 0.  1.
       -1   -1    0    0    0  501  0.00000000000E+00  0.00000000000E+00 -0.13218862584E+04  0.13218862584E+04  0.50400001928E-02 0. -1.
    10030    2    1    2    0    0  0.00000000000E+00  0.00000000000E+00 -0.71509761830E+03  0.19286748985E+04  0.17912069284E+04 0.  0.
        5    1    3    3  502    0  0.14389020693E+03 -0.75348549189E+03 -0.85523229248E+03  0.11488642836E+04  0.46999998093E+01 0. -1.
       -5    1    3    3    0  502 -0.14389020693E+03  0.75348549189E+03  0.14013467418E+03  0.77981061485E+03  0.46999998093E+01 0.  1.
</event>
<event>
 5   0  0.4015729E-05  0.1821494E+04  0.7818609E-02  0.8694952E-01
       -2   -1    0    0    0  501  0.00000000000E+00  0.00000000000E+00  0.35578973634E+03  0.35578973635E+03  0.25500000920E-02 0. -1.
        2   -1    0    0  501    0  0.00000000000E+00  0.00000000000E+00 -0.23313203862E+04  0.23313203862E+04  0.25500000920E-02 0.  1.
    10030    2    1    2    0    0  0.00000000000E+00  0.00000000000E+00 -0.19755306498E+04  0.26871101225E+04  0.18214937448E+04 0.  0.
        2    1    3    3  502    0 -0.45671152212E+03  0.86708108294E+02  0.16758620745E+03  0.49415467965E+03  0.25500000920E-02 0. -1.
       -2    1    3    3    0  502  0.45671152212E+03 -0.86708108294E+02 -0.21431168573E+04  0.21929554429E+04  0.25500000920E-02 0.  1.
</event>
<event>
 5   0  0.1960300E-05  0.1799845E+04  0.7818609E-02  0.8706382E-01
        1   -1    0    0  501    0  0.00000000000E+00  0.00000000000E+00  0.60732810253E+03  0.60732810255E+03  0.50400001928E-02 0.  1.
       -1   -1    0    0    0  501  0.00000000000E+00  0.00000000000E+00 -0.13334816609E+04  0.13334816609E+04  0.50400001928E-02 0. -1.
    10030    2    1    2    0    0  0.00000000000E+00  0.00000000000E+00 -0.72615355841E+03  0.19408097635E+04  0.17998454233E+04 0.  0.
        3    1    3    3  502    0  0.65344859387E+03  0.57275510271E+03 -0.11060839915E+03  0.87594389128E+03  0.10100000352E+00 0.  1.
       -3    1    3    3    0  502 -0.65344859387E+03 -0.57275510271E+03 -0.61554515926E+03  0.10648658722E+04  0.10100000352E+00 0. -1.
</event>
<event>
 5   0  0.1906857E-05  0.1798508E+04  0.7818609E-02  0.8707093E-01
       -1   -1    0    0    0  501  0.00000000000E+00  0.00000000000E+00  0.94515313940E+03  0.94515313941E+03  0.50400001928E-02 0.  1.
        1   -1    0    0  501    0  0.00000000000E+00  0.00000000000E+00 -0.85558376104E+03  0.85558376106E+03  0.50400001928E-02 0. -1.
    10030    2    1    2    0    0  0.00000000000E+00  0.00000000000E+00  0.89569378355E+02  0.18007369005E+04  0.17985079125E+04 0.  0.
        4    1    3    3  502    0  0.36650152111E+02  0.71097435275E+03  0.59485460184E+03  0.92772914913E+03  0.12699999809E+01 0.  1.
       -4    1    3    3    0  502 -0.36650152111E+02 -0.71097435275E+03 -0.50528522349E+03  0.87300775133E+03  0.12699999809E+01 0. -1.
</event>
<event>
 5   0  0.3909859E-05  0.1796215E+04  0.7818609E-02  0.8708315E-01
       -2   -1    0    0    0  501  0.00000000000E+00  0.00000000000E+00  0.59724239451E+03  0.59724239451E+03  0.25500000920E-02 0. -1.
        2   -1    0    0  501    0  0.00000000000E+00  0.00000000000E+00 -0.13505352982E+04  0.13505352982E+04  0.25500000920E-02 0.  1.
    10030    2    1    2    0    0  0.00000000000E+00  0.00000000000E+00 -0.75329290374E+03  0.19477776928E+04  0.17962148373E+04 0.  0.
        4    1    3    3  502    0 -0.14893083840E+03 -0.79253187977E+03 -0.80536464744E+03  0.11396933813E+04  0.12699999809E+01 0. -1.
       -4    1    3    3    0  502  0.14893083840E+03  0.79253187977E+03  0.52071743700E+02  0.80808431148E+03  0.12699999809E+01 0.  1.
</event>
<event>
 5   0  0.1906857E-05  0.1797001E+04  0.7818609E-02  0.8707896E-01
        1   -1    0    0  501    0  0.00000000000E+00  0.00000000000E+00  0.11083754750E+04  0.11083754750E+04  0.50400001928E-02 0.  1.
       -1   -1    0    0    0  501  0.00000000000E+00  0.00000000000E+00 -0.72836603106E+03  0.72836603108E+03  0.50400001928E-02 0. -1.
    10030    2    1    2    0    0  0.00000000000E+00  0.00000000000E+00  0.38000944392E+03  0.18367415061E+04  0.17970008856E+04 0.  0.
        4    1    3    3  502    0  0.48305554065E+03 -0.28736068929E+03 -0.52648446598E+03  0.77013396687E+03  0.12699999809E+01 0. -1.
       -4    1    3    3    0  502 -0.48305554065E+03  0.28736068929E+03  0.90649390990E+03  0.10666075392E+04  0.12699999809E+01 0.  1.
</event>
<event>
 5   0  0.1906857E-05  0.1808926E+04  0.7818609E-02  0.8701567E-01
        1   -1    0    0  501    0  0.00000000000E+00  0.00000000000E+00  0.76767740782E+03  0.76767740784E+03  0.50400001928E-02 0. -1.
       -1   -1    0    0    0  501  0.00000000000E+00  0.00000000000E+00 -0.10656207857E+04  0.10656207857E+04  0.50400001928E-02 0.  1.
    10030    2    1    2    0    0  0.00000000000E+00  0.00000000000E+00 -0.29794337785E+03  0.18332981935E+04  0.18089256508E+04 0.  0.
        4    1    3    3  502    0  0.64266307056E+03 -0.26611405865E+03  0.43693422270E+03  0.82142902453E+03  0.12699999809E+01 0. -1.
       -4    1    3    3    0  502 -0.64266307056E+03  0.26611405865E+03 -0.73487760055E+03  0.10118691690E+04  0.12699999809E+01 0.  1.
</event>
<event>
 5   0  0.2038338E-05  0.1779814E+04  0.7818609E-02  0.8717109E-01
       -1   -1    0    0    0  501  0.00000000000E+00  0.00000000000E+00  0.84292882079E+03  0.84292882080E+03  0.50400001928E-02 0. -1.
        1   -1    0    0  501    0  0.00000000000E+00  0.00000000000E+00 -0.93950291627E+03  0.93950291629E+03  0.50400001928E-02 0.  1.
    10030    2    1    2    0    0  0.00000000000E+00  0.00000000000E+00 -0.96574095485E+02  0.17824317371E+04  0.17798135693E+04 0.  0.
        1    1    3    3  502    0  0.83329131530E+03  0.29637254057E+03 -0.14703730411E+03  0.89656626514E+03  0.50400001928E-02 0. -1.
       -1    1    3    3    0  502 -0.83329131530E+03 -0.29637254057E+03  0.50463208630E+02  0.88586547196E+03  0.50400001928E-02 0.  1.
</event>
<event>
 5   0  0.3984648E-05  0.1800319E+04  0.7818609E-02  0.8706130E-01
        2   -1    0    0  501    0  0.00000000000E+00  0.00000000000E+00  0.83444780277E+03  0.83444780278E+03  0.25500000920E-02 0.  1.
       -2   -1    0    0    0  501  0.00000000000E+00  0.00000000000E+00 -0.97104541952E+03  0.97104541953E+03  0.25500000920E-02 0. -1.
    10030    2    1    2    0    0  0.00000000000E+00  0.00000000000E+00 -0.13659761675E+03  0.18054932223E+04  0.18003185459E+04 0.  0.
        1    1    3    3  502    0 -0.41328619630E+03 -0.39266955905E+03 -0.76693005825E+03  0.95560272966E+03  0.50400001928E-02 0. -1.
       -1    1    3    3    0  502  0.41328619630E+03  0.39266955905E+03  0.63033244150E+03  0.84989049265E+03  0.50400001928E-02 0.  1.
</event>
<event>
 5   0  0.1960300E-05  0.1805179E+04  0.7818609E-02  0.8703550E-01
       -1   -1    0    0    0  501  0.00000000000E+00  0.00000000000E+00  0.12985216123E+04  0.12985216123E+04  0.50400001928E-02 0. -1.
        1   -1    0    0  501    0  0.00000000000E+00  0.00000000000E+00 -0.62738126834E+03  0.62738126836E+03  0.50400001928E-02 0.  1.
    10030    2    1    2    0    0  0.00000000000E+00  0.00000000000E+00  0.67114034395E+03  0.19259028807E+04  0.18051793663E+04 0.  0.
        3    1    3    3  502    0 -0.16836922980E+03  0.17926871854E+03  0.12620848247E+04  0.12858240882E+04  0.10100000352E+00 0. -1.
       -3    1    3    3    0  502  0.16836922980E+03 -0.17926871854E+03 -0.59094448074E+03  0.64007879242E+03  0.10100000352E+00 0.  1.
</event>
<event>
 5   0  0.4015729E-05  0.1800883E+04  0.7818609E-02  0.8705830E-01
       -2   -1    0    0    0  501  0.00000000000E+00  0.00000000000E+00  0.91199570861E+03  0.91199570861E+03  0.25500000920E-02 0. -1.
        2   -1    0    0  501    0  0.00000000000E+00  0.00000000000E+00 -0.88903352065E+03  0.88903352065E+03  0.25500000920E-02 0.  1.
    10030    2    1    2    0    0  0.00000000000E+00  0.00000000000E+00  0.22962187962E+02  0.18010292293E+04  0.18008828453E+04 0.  0.
        2    1    3    3  502    0  0.13206710151E+03 -0.87442487303E+03 -0.15804427062E+03  0.89835325421E+03  0.25500000920E-02 0. -1.
       -2    1    3    3    0  502 -0.13206710151E+03  0.87442487303E+03  0.18100645858E+03  0.90267597505E+03  0.25500000920E-02 0.  1.
</event>
<event>
 5   0  0.3983176E-05  0.1801336E+04  0.7818609E-02  0.8705589E-01
       -2   -1    0    0    0  501  0.00000000000E+00  0.00000000000E+00  0.59157386216E+03  0.59157386216E+03  0.25500000920E-02 0.  1.
        2   -1    0    0  501    0  0.00000000000E+00  0.00000000000E+00 -0.13712617464E+04  0.13712617464E+04  0.25500000920E-02 0. -1.
    10030    2    1    2    0    0  0.00000000000E+00  0.00000000000E+00 -0.77968788427E+03  0.19628356086E+04  0.18013357348E+04 0.  0.
        3    1    3    3  502    0 -0.15884178493E+03 -0.25139903067E+03 -0.13162245307E+04  0.13493995741E+04  0.10100000352E+00 0. -1.
       -3    1    3    3    0  502  0.15884178493E+03  0.25139903067E+03  0.53653664641E+03  0.61343603448E+03  0.10100000352E+00 0.  1.
</event>
<event>
 5   0  0.1446750E-05  0.1800078E+04  0.7818609E-02  0.8706258E-01
       -3   -1    0    0    0  501  0.00000000000E+00  0.00000000000E+00  0.10153962114E+04  0.10153962164E+04  0.10100000352E+00 0.  1.
        3   -1    0    0  501    0  0.00000000000E+00  0.00000000000E+00 -0.79778689281E+03  0.79778689920E+03  0.10100000352E+00 0. -1.
    10030    2    1    2    0    0  0.00000000000E+00  0.00000000000E+00  0.21760931860E+03  0.18131831156E+04  0.18000775526E+04 0.  0.
        3    1    3    3  502    0  0.64896149869E+02 -0.89140704476E+03  0.21565124745E+03  0.91941475975E+03  0.10100000352E+00 0. -1.
       -3    1    3    3    0  502 -0.64896149869E+02  0.89140704476E+03  0.19580711491E+01  0.89376835588E+03  0.10100000352E+00 0.  1.
</event>
<event>
 5   0  0.2054876E-05  0.1791961E+04  0.7818609E-02  0.8710586E-01
       -1   -1    0    0    0  501  0.00000000000E+00  0.00000000000E+00  0.75974327834E+03  0.75974327836E+03  0.50400001928E-02 0. -1.
        1   -1    0    0  501    0  0.00000000000E+00  0.00000000000E+00 -0.10566472136E+04  0.10566472136E+04  0.50400001928E-02 0.  1.
    10030    2    1    2    0    0  0.00000000000E+00  0.00000000000E+00 -0.29690393527E+03  0.18163904920E+04  0.17919605109E+04 0.  0.
        5    1    3    3  502    0  0.76285493412E+03 -0.10758450760E+03  0.31520784760E+03  0.83240624336E+03  0.46999998093E+01 0. -1.
       -5    1    3    3    0  502 -0.76285493412E+03  0.10758450760E+03 -0.61211178288E+03  0.98398424862E+03  0.46999998093E+01 0.  1.
</event>
<event>
 5   0  0.3909859E-05  0.1799519E+04  0.7818609E-02  0.8706555E-01
        2   -1    0    0  501    0  0.00000000000E+00  0.00000000000E+00  0.14457029782E+04  0.14457029782E+04  0.25500000920E-02 0. -1.
       -2   -1    0    0    0  501  0.00000000000E+00  0.00000000000E+00 -0.55998177146E+03  0.55998177147E+03  0.25500000920E-02 0.  1.
    10030    2    1    2    0    0  0.00000000000E+00  0.00000000000E+00  0.88572120676E+03  0.20056847497E+04  0.17995191744E+04 0.  0.
        4    1    3    3  502    0 -0.16452810124E+03 -0.77901095507E+03  0.90996677511E+03  0.12091189805E+04  0.12699999809E+01 0. -1.
       -4    1    3    3    0  502  0.16452810124E+03  0.77901095507E+03 -0.24245568352E+02  0.79656576923E+03  0.12699999809E+01 0.  1.
</event>
<event>
 5   0  0.3909859E-05  0.1798239E+04  0.7818609E-02  0.8707237E-01
        2   -1    0    0  501    0  0.00000000000E+00  0.00000000000E+00  0.96057986040E+03  0.96057986040E+03  0.25500000920E-02 0.  1.
       -2   -1    0    0    0  501  0.00000000000E+00  0.00000000000E+00 -0.84159110374E+03  0.84159110374E+03  0.25500000920E-02 0. -1.
    10030    2    1    2    0    0  0.00000000000E+00  0.00000000000E+00  0.11898875666E+03  0.18021709641E+04  0.17982385436E+04 0.  0.
        4    1    3    3  502    0  0.33704157267E+03 -0.28120346673E+03 -0.72691354013E+03  0.84916271653E+03  0.12699999809E+01 0. -1.
       -4    1    3    3    0  502 -0.33704157267E+03  0.28120346673E+03  0.84590229679E+03  0.95300824762E+03  0.12699999809E+01 0.  1.
</event>
<event>
 5   0  0.4015729E-05  0.1799027E+04  0.7818609E-02  0.8706817E-01
       -2   -1    0    0    0  501  0.00000000000E+00  0.00000000000E+00  0.72025212726E+03  0.72025212727E+03  0.25500000920E-02 0. -1.
        2   -1    0    0  501    0  0.00000000000E+00  0.00000000000E+00 -0.11233909576E+04  0.11233909576E+04  0.25500000920E-02 0.  1.
    10030    2    1    2    0    0  0.00000000000E+00  0.00000000000E+00 -0.40313883035E+03  0.18436430849E+04  0.17990272116E+04 0.  0.
        2    1    3    3  502    0 -0.41646424672E+03  0.41114951316E+03 -0.90161984044E+03  0.10748975429E+04  0.25500000920E-02 0.  1.
       -2    1    3    3    0  502  0.41646424672E+03 -0.41114951316E+03  0.49848101009E+03  0.76874554203E+03  0.25500000920E-02 0. -1.
</event>
<event>
 5   0  0.2054876E-05  0.1797287E+04  0.7818609E-02  0.8707744E-01
       -1   -1    0    0    0  501  0.00000000000E+00  0.00000000000E+00  0.85795993439E+03  0.85795993441E+03  0.50400001928E-02 0.  1.
        1   -1    0    0  501    0  0.00000000000E+00  0.00000000000E+00 -0.94125616642E+03  0.94125616643E+03  0.50400001928E-02 0. -1.
    10030    2    1    2    0    0  0.00000000000E+00  0.00000000000E+00 -0.83296232028E+02  0.17992161008E+04  0.17972869318E+04 0.  0.
        5    1    3    3  502    0  0.57264550766E+03  0.46945014864E+03 -0.55134260819E+03  0.92320478828E+03  0.46999998093E+01 0. -1.
       -5    1    3    3    0  502 -0.57264550766E+03 -0.46945014864E+03  0.46804637616E+03  0.87601131256E+03  0.46999998093E+01 0.  1.
</event>
<event>
 5   0  0.3983176E-05  0.1796409E+04  0.7818609E-02  0.8708212E-01
        2   -1    0    0  501    0  0.00000000000E+00  0.00000000000E+00  0.93085328248E+03  0.93085328248E+03  0.25500000920E-02 0. -1.
       -2   -1    0    0    0  501  0.00000000000E+00  0.00000000000E+00 -0.86670040794E+03  0.86670040795E+03  0.25500000920E-02 0.  1.
    10030    2    1    2    0    0  0.00000000000E+00  0.00000000000E+00  0.64152874532E+02  0.17975536904E+04  0.17964085500E+04 0.  0.
        3    1    3    3  502    0 -0.20016113275E+03  0.72965252322E+03  0.51644453342E+03  0.91606345304E+03  0.10100000352E+00 0. -1.
       -3    1    3    3    0  502  0.20016113275E+03 -0.72965252322E+03 -0.45229165888E+03  0.88149023738E+03  0.10100000352E+00 0.  1.
</event>
<event>
 5   0  0.1446750E-05  0.1800434E+04  0.7818609E-02  0.8706069E-01
       -3   -1    0    0    0  501  0.00000000000E+00  0.00000000000E+00  0.45943762418E+03  0.45943763528E+03  0.10100000352E+00 0. -1.
        3   -1    0    0  501    0  0.00000000000E+00  0.00000000000E+00 -0.17638758675E+04  0.17638758704E+04  0.10100000352E+00 0.  1.
    10030    2    1    2    0    0  0.00000000000E+00  0.00000000000E+00 -0.13044382434E+04  0.22233135057E+04  0.18004343404E+04 0.  0.
        4    1    3    3  502    0  0.30756781195E+03 -0.80218947930E+03 -0.98422270220E+03  0.13064462714E+04  0.12699999809E+01 0.  1.
       -4    1    3    3    0  502 -0.30756781195E+03  0.80218947930E+03 -0.32021554117E+03  0.91686723431E+03  0.12699999809E+01 0. -1.
</event>
<event>
 5   0  0.1960300E-05  0.1801171E+04  0.7818609E-02  0.8705677E-01
        1   -1    0    0  501    0  0.00000000000E+00  0.00000000000E+00  0.73834504550E+03  0.73834504552E+03  0.50400001928E-02 0. -1.
       -1   -1    0    0    0  501  0.00000000000E+00  0.00000000000E+00 -0.10984754217E+04  0.10984754217E+04  0.50400001928E-02 0.  1.
    10030    2    1    2    0    0  0.00000000000E+00  0.00000000000E+00 -0.36013037623E+03  0.18368204673E+04  0.18011706030E+04 0.  0.
        3    1    3    3  502    0 -0.41169332204E+03 -0.52728208843E+03 -0.79493846919E+03  0.10389634123E+04  0.10100000352E+00 0.  1.
       -3    1    3    3    0  502  0.41169332204E+03  0.52728208843E+03  0.43480809296E+03  0.79785705492E+03  0.10100000352E+00 0. -1.
</event>
<event>
 5   0  0.1446750E-05  0.1798068E+04  0.7818609E-02  0.8707328E-01
        3   -1    0    0  501    0  0.00000000000E+00  0.00000000000E+00  0.55875868835E+03  0.55875869748E+03  0.10100000352E+00 0.  1.
       -3   -1    0    0    0  501  0.00000000000E+00  0.00000000000E+00 -0.14465313680E+04  0.14465313715E+04  0.10100000352E+00 0. -1.
    10030    2    1    2    0    0  0.00000000000E+00  0.00000000000E+00 -0.88777267967E+03  0.20052900690E+04  0.17980678325E+04 0.  0.
        4    1    3    3  502    0  0.47695379551E+03  0.72114295552E+03 -0.71871792151E+03  0.11243171923E+04  0.12699999809E+01 0. -1.
       -4    1    3    3    0  502 -0.47695379551E+03 -0.72114295552E+03 -0.16905475816E+03  0.88097287671E+03  0.12699999809E+01 0.  1.
</event>
<event>
 5   0  0.3909859E-05  0.1800589E+04  0.7818609E-02  0.8705986E-01
        2   -1    0    0  501    0  0.00000000000E+00  0.00000000000E+00  0.61430766556E+03  0.61430766556E+03  0.25500000920E-02 0.  1.
       -2   -1    0    0    0  501  0.00000000000E+00  0.00000000000E+00 -0.13194213098E+04  0.13194213098E+04  0.25500000920E-02 0. -1.
    10030    2    1    2    0    0  0.00000000000E+00  0.00000000000E+00 -0.70511364422E+03  0.19337289753E+04  0.18005894865E+04 0.  0.
        4    1    3    3  502    0  0.47485161590E+03  0.14672562209E+03 -0.11587409271E+04  0.12608309222E+04  0.12699999809E+01 0. -1.
       -4    1    3    3    0  502 -0.47485161590E+03 -0.14672562209E+03  0.45362728287E+03  0.67289805317E+03  0.12699999809E+01 0.  1.
</event>
<event>
 5   0  0.1906857E-05  0.1802378E+04  0.7818609E-02  0.8705036E-01
       -1   -1    0    0    0  501  0.00000000000E+00  0.00000000000E+00  0.75212754396E+03  0.75212754398E+03  0.50400001928E-02 0. -1.
        1   -1    0    0  501    0  0.00000000000E+00  0.00000000000E+00 -0.10797923228E+04  0.10797923228E+04  0.50400001928E-02 0.  1.
    10030    2    1    2    0    0  0.00000000000E+00  0.00000000000E+00 -0.32766477879E+03  0.18319198668E+04  0.18023779268E+04 0.  0.
        4    1    3    3  502    0 -0.34502912918E+03 -0.46020913372E+03  0.54129830621E+03  0.78983733512E+03  0.12699999809E+01 0. -1.
       -4    1    3    3    0  502  0.34502912918E+03  0.46020913372E+03 -0.86896308500E+03  0.10420825316E+04  0.12699999809E+01 0.  1.
</event>
<event>
 5   0  0.1960300E-05  0.1801119E+04  0.7818609E-02  0.8705704E-01
       -1   -1    0    0    0  501  0.00000000000E+00  0.00000000000E+00  0.77629849548E+03  0.77629849550E+03  0.50400001928E-02 0. -1.
        1   -1    0    0  501    0  0.00000000000E+00  0.00000000000E+00 -0.10447112307E+04  0.10447112307E+04  0.50400001928E-02 0.  1.
    10030    2    1    2    0    0  0.00000000000E+00  0.00000000000E+00 -0.26841273520E+03  0.18210097262E+04  0.18011193815E+04 0.  0.
        3    1    3    3  502    0 -0.47727581516E+03  0.65079747892E+03 -0.53821678017E+03  0.97005508862E+03  0.10100000352E+00 0.  1.
       -3    1    3    3    0  502  0.47727581516E+03 -0.65079747892E+03  0.26980404497E+03  0.85095463756E+03  0.10100000352E+00 0. -1.
</event>
<event>
 5   0  0.4015729E-05  0.1805314E+04  0.7818609E-02  0.8703478E-01
        2   -1    0    0  501    0  0.00000000000E+00  0.00000000000E+00  0.17815210029E+04  0.17815210029E+04  0.25500000920E-02 0.  1.
       -2   -1    0    0    0  501  0.00000000000E+00  0.00000000000E+00 -0.45735641893E+03  0.45735641893E+03  0.25500000920E-02 0. -1.
    10030    2    1    2    0    0  0.00000000000E+00  0.00000000000E+00  0.13241645839E+04  0.22388774218E+04  0.18053144503E+04 0.  0.
        2    1    3    3  502    0 -0.43067147453E+03  0.33411618425E+03  0.15543753864E+04  0.16471777031E+04  0.25500000920E-02 0.  1.
       -2    1    3    3    0  502  0.43067147453E+03 -0.33411618425E+03 -0.23021080249E+03  0.59169971873E+03  0.25500000920E-02 0. -1.
</event>
<event>
 5   0  0.1960300E-05  0.1797063E+04  0.7818609E-02  0.8707863E-01
       -1   -1    0    0    0  501  0.00000000000E+00  0.00000000000E+00  0.31177509424E+03  0.31177509428E+03  0.50400001928E-02 0.  1.
        1   -1    0    0  501    0  0.00000000000E+00  0.00000000000E+00 -0.25895552639E+04  0.25895552639E+04  0.50400001928E-02 0. -1.
    10030    2    1    2    0    0  0.00000000000E+00  0.00000000000E+00 -0.22777801697E+04  0.29013303582E+04  0.17970629778E+04 0.  0.
        3    1    3    3  502    0  0.47704814732E+03  0.45576526785E+03 -0.21236752369E+04  0.22238015730E+04  0.10100000352E+00 0. -1.
       -3    1    3    3    0  502 -0.47704814732E+03 -0.45576526785E+03 -0.15410493282E+03  0.67752878519E+03  0.10100000352E+00 0.  1.
</event>
<event>
 5   0  0.3909859E-05  0.1799395E+04  0.7818609E-02  0.8706622E-01
        2   -1    0    0  501    0  0.00000000000E+00  0.00000000000E+00  0.65960539013E+03  0.65960539013E+03  0.25500000920E-02 0. -1.
       -2   -1    0    0    0  501  0.00000000000E+00  0.00000000000E+00 -0.12271809826E+04  0.12271809826E+04  0.25500000920E-02 0.  1.
    10030    2    1    2    0    0  0.00000000000E+00  0.00000000000E+00 -0.56757559245E+03  0.18867863727E+04  0.17993945546E+04 0.  0.
        4    1    3    3  502    0  0.27404097665E+03  0.68016993399E+03  0.26280048235E+03  0.77897066851E+03  0.12699999809E+01 0. -1.
       -4    1    3    3    0  502 -0.27404097665E+03 -0.68016993399E+03 -0.83037607480E+03  0.11078157042E+04  0.12699999809E+01 0.  1.
</event>
<event>
 5   0  0.3984648E-05  0.1793760E+04  0.7818609E-02  0.8709625E-01
        2   -1    0    0  501    0  0.00000000000E+00  0.00000000000E+00  0.44807286614E+03  0.44807286615E+03  0.25500000920E-02 0.  1.
       -2   -1    0    0    0  501  0.00000000000E+00  0.00000000000E+00 -0.17952296335E+04  0.17952296335E+04  0.25500000920E-02 0. -1.
    10030    2    1    2    0    0  0.00000000000E+00  0.00000000000E+00 -0.13471567673E+04  0.22433024996E+04  0.17937599474E+04 0.  0.
        1    1    3    3  502    0 -0.21271274061E+03  0.83164596907E+03 -0.99852638788E+03  0.13167902928E+04  0.50400001928E-02 0. -1.
       -1    1    3    3    0  502  0.21271274061E+03 -0.83164596907E+03 -0.34863037945E+03  0.92651220682E+03  0.50400001928E-02 0.  1.
</event>
<event>
 5   0  0.3984648E-05  0.1801410E+04  0.7818609E-02  0.8705550E-01
        2   -1    0    0  501    0  0.00000000000E+00  0.00000000000E+00  0.96768666718E+03  0.96768666718E+03  0.25500000920E-02 0. -1.
       -2   -1    0    0    0  501  0.00000000000E+00  0.00000000000E+00 -0.83835968974E+03  0.83835968974E+03  0.25500000920E-02 0.  1.
    10030    2    1    2    0    0  0.00000000000E+00  0.00000000000E+00  0.12932697744E+03  0.18060463569E+04  0.18014099967E+04 0.  0.
        1    1    3    3  502    0 -0.26787291989E+03  0.56498137172E+03 -0.58531802005E+03  0.85647944297E+03  0.50400001928E-02 0.  1.
       -1    1    3    3    0  502  0.26787291989E+03 -0.56498137172E+03  0.71464499749E+03  0.94956691395E+03  0.50400001928E-02 0. -1.
</event>
<event>
 5   0  0.3983176E-05  0.1791230E+04  0.7818609E-02  0.8710977E-01
        2   -1    0    0  501    0  0.00000000000E+00  0.00000000000E+00  0.95736124224E+03  0.95736124224E+03  0.25500000920E-02 0. -1.
       -2   -1    0    0    0  501  0.00000000000E+00  0.00000000000E+00 -0.83785143925E+03  0.83785143925E+03  0.25500000920E-02 0.  1.
    10030    2    1    2    0    0  0.00000000000E+00  0.00000000000E+00  0.11950980299E+03  0.17952126815E+04  0.17912302975E+04 0.  0.
        3    1    3    3  502    0 -0.18155751393E+03  0.67536982909E+01 -0.81918847081E+03  0.83909385900E+03  0.10100000352E+00 0.  1.
       -3    1    3    3    0  502  0.18155751393E+03 -0.67536982909E+01  0.93869827380E+03  0.95611882250E+03  0.10100000352E+00 0. -1.
</event>
<event>
 5   0  0.3993393E-05  0.1801908E+04  0.7818609E-02  0.8705286E-01
       -2   -1    0    0    0  501  0.00000000000E+00  0.00000000000E+00  0.39988391731E+03  0.39988391732E+03  0.25500000920E-02 0.  1.
        2   -1    0    0  501    0  0.00000000000E+00  0.00000000000E+00 -0.20298837181E+04  0.20298837181E+04  0.25500000920E-02 0. -1.
    10030    2    1    2    0    0  0.00000000000E+00  0.00000000000E+00 -0.16299998007E+04  0.24297676354E+04  0.18019077145E+04 0.  0.
        5    1    3    3  502    0  0.56122515059E+03 -0.69442344969E+03 -0.65263627929E+03  0.11059628385E+04  0.46999998093E+01 0.  1.
       -5    1    3    3    0  502 -0.56122515059E+03  0.69442344969E+03 -0.97736352145E+03  0.13238047969E+04  0.46999998093E+01 0. -1.
</event>
<event>
 5   0  0.1960300E-05  0.1843027E+04  0.7818609E-02  0.8683747E-01
       -1   -1    0    0    0  501  0.00000000000E+00  0.00000000000E+00  0.44101060347E+03  0.44101060350E+03  0.50400001928E-02 0. -1.
        1   -1    0    0  501    0  0.00000000000E+00  0.00000000000E+00 -0.19255472629E+04  0.19255472630E+04  0.50400001928E-02 0.  1.
    10030    2    1    2    0    0  0.00000000000E+00  0.00000000000E+00 -0.14845366595E+04  0.23665578665E+04  0.18430265983E+04 0.  0.
        3    1    3    3  502    0  0.26469656573E+03  0.88019285037E+03 -0.65725784824E+03  0.11299520410E+04  0.10100000352E+00 0.  1.
       -3    1    3    3    0  502 -0.26469656573E+03 -0.88019285037E+03 -0.82727881123E+03  0.12366058254E+04  0.10100000352E+00 0. -1.
</event>
<event>
 5   0  0.1906857E-05  0.1799949E+04  0.7818609E-02  0.8706327E-01
        1   -1    0    0  501    0  0.00000000000E+00  0.00000000000E+00  0.10208460402E+04  0.10208460402E+04  0.50400001928E-02 0. -1.
       -1   -1    0    0    0  501  0.00000000000E+00  0.00000000000E+00 -0.79341441189E+03  0.79341441190E+03  0.50400001928E-02 0.  1.
    10030    2    1    2    0    0  0.00000000000E+00  0.00000000000E+00  0.22743162834E+03  0.18142604521E+04  0.17999488444E+04 0.  0.
        4    1    3    3  502    0  0.58948448969E+03 -0.65961554701E+03  0.28046308527E+03  0.92803329065E+03  0.12699999809E+01 0. -1.
       -4    1    3    3    0  502 -0.58948448969E+03  0.65961554701E+03 -0.53031456934E+02  0.88622716149E+03  0.12699999809E+01 0.  1.
</event>
<event>
 5   0  0.3909859E-05  0.1798154E+04  0.7818609E-02  0.8707282E-01
        2   -1    0    0  501    0  0.00000000000E+00  0.00000000000E+00  0.15821463134E+04  0.15821463134E+04  0.25500000920E-02 0. -1.
       -2   -1    0    0    0  501  0.00000000000E+00  0.00000000000E+00 -0.51091337668E+03  0.51091337669E+03  0.25500000920E-02 0.  1.
    10030    2    1    2    0    0  0.00000000000E+00  0.00000000000E+00  0.10712329367E+04  0.20930596901E+04  0.17981542930E+04 0.  0.
        4    1    3    3  502    0  0.61093881387E+03 -0.58651781731E+03  0.88692359082E+03  0.12263296674E+04  0.12699999809E+01 0.  1.
       -4    1    3    3    0  502 -0.61093881387E+03  0.58651781731E+03  0.18430934588E+03  0.86673002267E+03  0.12699999809E+01 0. -1.
</event>
<event>
 5   0  0.1960300E-05  0.1808133E+04  0.7818609E-02  0.8701986E-01
        1   -1    0    0  501    0  0.00000000000E+00  0.00000000000E+00  0.70375172203E+03  0.70375172205E+03  0.50400001928E-02 0.  1.
       -1   -1    0    0    0  501  0.00000000000E+00  0.00000000000E+00 -0.11613989306E+04  0.11613989306E+04  0.50400001928E-02 0. -1.
    10030    2    1    2    0    0  0.00000000000E+00  0.00000000000E+00 -0.45764720858E+03  0.18651506527E+04  0.18081332887E+04 0.  0.
        3    1    3    3  502    0 -0.18237245438E+03 -0.59738722948E+03  0.44539662209E+03  0.76714364706E+03  0.10100000352E+00 0.  1.
       -3    1    3    3    0  502  0.18237245438E+03  0.59738722948E+03 -0.90304383067E+03  0.10980070056E+04  0.10100000352E+00 0. -1.
</event>
<event>
 5   0  0.2001811E-05  0.1796415E+04  0.7818609E-02  0.8708208E-01
       -1   -1    0    0    0  501  0.00000000000E+00  0.00000000000E+00  0.88423386025E+03  0.88423386027E+03  0.50400001928E-02 0. -1.
        1   -1    0    0  501    0  0.00000000000E+00  0.00000000000E+00 -0.91240215131E+03  0.91240215132E+03  0.50400001928E-02 0.  1.
    10030    2    1    2    0    0  0.00000000000E+00  0.00000000000E+00 -0.28168291055E+02  0.17966360116E+04  0.17964151818E+04 0.  0.
        2    1    3    3  502    0  0.30726092761E+03  0.29727669601E+03  0.77594597219E+03  0.88593163585E+03  0.25500000920E-02 0. -1.
       -2    1    3    3    0  502 -0.30726092761E+03 -0.29727669601E+03 -0.80411426325E+03  0.91070437574E+03  0.25500000920E-02 0.  1.
</event>
<event>
 5   0  0.1960300E-05  0.1802586E+04  0.7818609E-02  0.8704926E-01
       -1   -1    0    0    0  501  0.00000000000E+00  0.00000000000E+00  0.35026885490E+03  0.35026885494E+03  0.50400001928E-02 0. -1.
        1   -1    0    0  501    0  0.00000000000E+00  0.00000000000E+00 -0.23191578062E+04  0.23191578062E+04  0.50400001928E-02 0.  1.
    10030    2    1    2    0    0  0.00000000000E+00  0.00000000000E+00 -0.19688889513E+04  0.26694266612E+04  0.18025856420E+04 0.  0.
        3    1    3    3  502    0  0.75572867118E+01  0.26379534852E+03  0.29177102453E+03  0.39341509813E+03  0.10100000352E+00 0. -1.
       -3    1    3    3    0  502 -0.75572867118E+01 -0.26379534852E+03 -0.22606599759E+04  0.22760115631E+04  0.10100000352E+00 0.  1.
</event>
<event>
 5   0  0.1960300E-05  0.1789091E+04  0.7818609E-02  0.8712122E-01
        1   -1    0    0  501    0  0.00000000000E+00  0.00000000000E+00  0.99713160586E+03  0.99713160588E+03  0.50400001928E-02 0. -1.
       -1   -1    0    0    0  501  0.00000000000E+00  0.00000000000E+00 -0.80251379060E+03  0.80251379061E+03  0.50400001928E-02 0.  1.
    10030    2    1    2    0    0  0.00000000000E+00  0.00000000000E+00  0.19461781527E+03  0.17996453965E+04  0.17890912383E+04 0.  0.
        3    1    3    3  502    0 -0.89536997226E+02  0.25251447102E+03  0.95582568540E+03  0.99266468811E+03  0.10100000352E+00 0. -1.
       -3    1    3    3    0  502  0.89536997226E+02 -0.25251447102E+03 -0.76120787013E+03  0.80698070838E+03  0.10100000352E+00 0.  1.
</event>
<event>
 5   0  0.2054876E-05  0.1825595E+04  0.7818609E-02  0.8692805E-01
       -1   -1    0    0    0  501  0.00000000000E+00  0.00000000000E+00  0.79444585127E+03  0.79444585128E+03  0.50400001928E-02 0. -1.
        1   -1    0    0  501    0  0.00000000000E+00  0.00000000000E+00 -0.10487807609E+04  0.10487807609E+04  0.50400001928E-02 0.  1.
    10030    2    1    2    0    0  0.00000000000E+00  0.00000000000E+00 -0.25433490963E+03  0.18432266122E+04  0.18255952721E+04 0.  0.
        5    1    3    3  502    0 -0.30036037182E+03 -0.84895622331E+03 -0.27771963794E+03  0.94238702737E+03  0.46999998093E+01 0.  1.
       -5    1    3    3    0  502  0.30036037182E+03  0.84895622331E+03  0.23384728310E+02  0.90083958482E+03  0.46999998093E+01 0. -1.
</event>
<event>
 5   0  0.2001811E-05  0.1799183E+04  0.7818609E-02  0.8706734E-01
        1   -1    0    0  501    0  0.00000000000E+00  0.00000000000E+00  0.20588623044E+04  0.20588623044E+04  0.50400001928E-02 0.  1.
       -1   -1    0    0    0  501  0.00000000000E+00  0.00000000000E+00 -0.39306426049E+03  0.39306426052E+03  0.50400001928E-02 0. -1.
    10030    2    1    2    0    0  0.00000000000E+00  0.00000000000E+00  0.16657980439E+04  0.24519265649E+04  0.17991833583E+04 0.  0.
        2    1    3    3  502    0 -0.69375100160E+03  0.23002000913E+03  0.11815567689E+03  0.74037856588E+03  0.25500000920E-02 0. -1.
       -2    1    3    3    0  502  0.69375100160E+03 -0.23002000913E+03  0.15476423670E+04  0.17115479990E+04  0.25500000920E-02 0.  1.
</event>
<event>
 5   0  0.1446750E-05  0.1805135E+04  0.7818609E-02  0.8703573E-01
        3   -1    0    0  501    0  0.00000000000E+00  0.00000000000E+00  0.16951204322E+04  0.16951204353E+04  0.10100000352E+00 0. -1.
       -3   -1    0    0    0  501  0.00000000000E+00  0.00000000000E+00 -0.48057244966E+03  0.48057246027E+03  0.10100000352E+00 0.  1.
    10030    2    1    2    0    0  0.00000000000E+00  0.00000000000E+00  0.12145479826E+04  0.21756928955E+04  0.18051351123E+04 0.  0.
        5    1    3    3  502    0 -0.63188487617E+03 -0.10368212769E+03  0.13739092849E+04  0.15158091217E+04  0.46999998093E+01 0. -1.
       -5    1    3    3    0  502  0.63188487617E+03  0.10368212769E+03 -0.15936130228E+03  0.65988377385E+03  0.46999998093E+01 0.  1.
</event>
<event>
 5   0  0.2001811E-05  0.1798595E+04  0.7818609E-02  0.8707047E-01
       -1   -1    0    0    0  501  0.00000000000E+00  0.00000000000E+00  0.16814236389E+04  0.16814236389E+04  0.50400001928E-02 0.  1.
        1   -1    0    0  501    0  0.00000000000E+00  0.00000000000E+00 -0.48098311447E+03  0.48098311449E+03  0.50400001928E-02 0. -1.
    10030    2    1    2    0    0  0.00000000000E+00  0.00000000000E+00  0.12004405244E+04  0.21624067534E+04  0.17985954282E+04 0.  0.
        2    1    3    3  502    0 -0.44533670863E+03  0.36768735131E+03 -0.22858054436E+03  0.62110211530E+03  0.25500000920E-02 0. -1.
       -2    1    3    3    0  502  0.44533670863E+03 -0.36768735131E+03  0.14290210688E+04  0.15413046381E+04  0.25500000920E-02 0.  1.
</event>
<event>
 5   0  0.3993393E-05  0.1797676E+04  0.7818609E-02  0.8707536E-01
        2   -1    0    0  501    0  0.00000000000E+00  0.00000000000E+00  0.16473006890E+04  0.16473006890E+04  0.25500000920E-02 0. -1.
       -2   -1    0    0    0  501  0.00000000000E+00  0.00000000000E+00 -0.49044482127E+03  0.49044482128E+03  0.25500000920E-02 0.  1.
    10030    2    1    2    0    0  0.00000000000E+00  0.00000000000E+00  0.11568558677E+04  0.21377455103E+04  0.17976763802E+04 0.  0.
        5    1    3    3  502    0  0.82540457733E+03  0.33007887535E+03  0.42047291215E+03  0.98339429532E+03  0.46999998093E+01 0. -1.
       -5    1    3    3    0  502 -0.82540457733E+03 -0.33007887535E+03  0.73638295560E+03  0.11543512150E+04  0.46999998093E+01 0.  1.
</event>
<event>
 5   0  0.1960300E-05  0.1796199E+04  0.7818609E-02  0.8708324E-01
        1   -1    0    0  501    0  0.00000000000E+00  0.00000000000E+00  0.64370084169E+03  0.64370084171E+03  0.50400001928E-02 0. -1.
       -1   -1    0    0    0  501  0.00000000000E+00  0.00000000000E+00 -0.12530391479E+04  0.12530391479E+04  0.50400001928E-02 0.  1.
    10030    2    1    2    0    0  0.00000000000E+00  0.00000000000E+00 -0.60933830621E+03  0.18967399896E+04  0.17961986017E+04 0.  0.
        3    1    3    3  502    0 -0.13759146741E+03  0.26106503057E+03 -0.12003795869E+04  0.12361219701E+04  0.10100000352E+00 0.  1.
       -3    1    3    3    0  502  0.13759146741E+03 -0.26106503057E+03  0.59104128067E+03  0.66061801955E+03  0.10100000352E+00 0. -1.
</event>
<event>
 5   0  0.3993393E-05  0.1800629E+04  0.7818609E-02  0.8705965E-01
       -2   -1    0    0    0  501  0.00000000000E+00  0.00000000000E+00  0.41496318388E+03  0.41496318388E+03  0.25500000920E-02 0.  1.
        2   -1    0    0  501    0  0.00000000000E+00  0.00000000000E+00 -0.19533440783E+04  0.19533440783E+04  0.25500000920E-02 0. -1.
    10030    2    1    2    0    0  0.00000000000E+00  0.00000000000E+00 -0.15383808944E+04  0.23683072622E+04  0.18006286435E+04 0.  0.
        5    1    3    3  502    0 -0.81320988617E+03  0.14749587401E+03 -0.12387949536E+04  0.14891945403E+04  0.46999998093E+01 0. -1.
       -5    1    3    3    0  502  0.81320988617E+03 -0.14749587401E+03 -0.29958594081E+03  0.87911272187E+03  0.46999998093E+01 0.  1.
</event>
<event>
 5   0  0.1960300E-05  0.1803376E+04  0.7818609E-02  0.8704506E-01
        1   -1    0    0  501    0  0.00000000000E+00  0.00000000000E+00  0.32326029843E+04  0.32326029843E+04  0.50400001928E-02 0.  1.
       -1   -1    0    0    0  501  0.00000000000E+00  0.00000000000E+00 -0.25151290774E+03  0.25151290779E+03  0.50400001928E-02 0. -1.
    10030    2    1    2    0    0  0.00000000000E+00  0.00000000000E+00  0.29810900765E+04  0.34841158920E+04  0.18033761407E+04 0.  0.
        3    1    3    3  502    0 -0.11631597983E+03  0.31798763422E+03 -0.12402574632E+03  0.36059386937E+03  0.10100000352E+00 0. -1.
       -3    1    3    3    0  502  0.11631597983E+03 -0.31798763422E+03  0.31051158228E+04  0.31235220227E+04  0.10100000352E+00 0.  1.
</event>
<event>
 5   0  0.3909859E-05  0.1801493E+04  0.7818609E-02  0.8705506E-01
       -2   -1    0    0    0  501  0.00000000000E+00  0.00000000000E+00  0.54459347633E+03  0.54459347633E+03  0.25500000920E-02 0.  1.
        2   -1    0    0  501    0  0.00000000000E+00  0.00000000000E+00 -0.14898166633E+04  0.14898166633E+04  0.25500000920E-02 0. -1.
    10030    2    1    2    0    0  0.00000000000E+00  0.00000000000E+00 -0.94522318699E+03  0.20344101397E+04  0.18014931982E+04 0.  0.
        4    1    3    3  502    0  0.23722572448E+03 -0.84035112159E+03 -0.72227629139E+03  0.11332037354E+04  0.12699999809E+01 0.  1.
       -4    1    3    3    0  502 -0.23722572448E+03  0.84035112159E+03 -0.22294689560E+03  0.90120640425E+03  0.12699999809E+01 0. -1.
</event>
<event>
 5   0  0.1906857E-05  0.1799724E+04  0.7818609E-02  0.8706446E-01
        1   -1    0    0  501    0  0.00000000000E+00  0.00000000000E+00  0.10931368863E+04  0.10931368863E+04  0.50400001928E-02 0. -1.
       -1   -1    0    0    0  501  0.00000000000E+00  0.00000000000E+00 -0.74075946211E+03  0.74075946213E+03  0.50400001928E-02 0.  1.
    10030    2    1    2    0    0  0.00000000000E+00  0.00000000000E+00  0.35237742421E+03  0.18338963485E+04  0.17997238588E+04 0.  0.
        4    1    3    3  502    0  0.18200849624E+02 -0.47280055087E+03  0.95614919318E+03  0.10668151313E+04  0.12699999809E+01 0. -1.
       -4    1    3    3    0  502 -0.18200849624E+02  0.47280055087E+03 -0.60377176897E+03  0.76708121717E+03  0.12699999809E+01 0.  1.
</event>
<event>
 5   0  0.3909859E-05  0.1797698E+04  0.7818609E-02  0.8707524E-01
        2   -1    0    0  501    0  0.00000000000E+00  0.00000000000E+00  0.65726968176E+03  0.65726968176E+03  0.25500000920E-02 0. -1.
       -2   -1    0    0    0  501  0.00000000000E+00  0.00000000000E+00 -0.12292214127E+04  0.12292214127E+04  0.25500000920E-02 0.  1.
    10030    2    1    2    0    0  0.00000000000E+00  0.00000000000E+00 -0.57195173097E+03  0.18864910945E+04  0.17976984917E+04 0.  0.
        4    1    3    3  502    0 -0.17593379923E+03 -0.45546221815E+02 -0.12097399441E+04  0.12233149657E+04  0.12699999809E+01 0.  1.
       -4    1    3    3    0  502  0.17593379923E+03  0.45546221815E+02  0.63778821316E+03  0.66317612877E+03  0.12699999809E+01 0. -1.
</event>
<event>
 5   0  0.4015729E-05  0.1799524E+04  0.7818609E-02  0.8706552E-01
       -2   -1    0    0    0  501  0.00000000000E+00  0.00000000000E+00  0.27479830223E+03  0.27479830224E+03  0.25500000920E-02 0.  1.
        2   -1    0    0  501    0  0.00000000000E+00  0.00000000000E+00 -0.29460586094E+04  0.29460586094E+04  0.25500000920E-02 0. -1.
    10030    2    1    2    0    0  0.00000000000E+00  0.00000000000E+00 -0.26712603072E+04  0.32208569117E+04  0.17995242751E+04 0.  0.
        2    1    3    3  502    0  0.24798171102E+03 -0.59406101222E+03 -0.21049453075E+03  0.67728233604E+03  0.25500000920E-02 0.  1.
       -2    1    3    3    0  502 -0.24798171102E+03  0.59406101222E+03 -0.24607657764E+04  0.25435745756E+04  0.25500000920E-02 0. -1.
</event>
<event>
 5   0  0.2038338E-05  0.1799212E+04  0.7818609E-02  0.8706719E-01
       -1   -1    0    0    0  501  0.00000000000E+00  0.00000000000E+00  0.71914429567E+03  0.71914429569E+03  0.50400001928E-02 0.  1.
        1   -1    0    0  501    0  0.00000000000E+00  0.00000000000E+00 -0.11253526316E+04  0.11253526316E+04  0.50400001928E-02 0. -1.
    10030    2    1    2    0    0  0.00000000000E+00  0.00000000000E+00 -0.40620833596E+03  0.18444969273E+04  0.17992119671E+04 0.  0.
        1    1    3    3  502    0  0.16109411891E+02  0.56307079549E+03 -0.92217308688E+03  0.10806069758E+04  0.50400001928E-02 0. -1.
       -1    1    3    3    0  502 -0.16109411891E+02 -0.56307079549E+03  0.51596475092E+03  0.76388995157E+03  0.50400001928E-02 0.  1.
</event>
<event>
 5   0  0.1446750E-05  0.1799506E+04  0.7818609E-02  0.8706562E-01
        3   -1    0    0  501    0  0.00000000000E+00  0.00000000000E+00  0.12056777348E+04  0.12056777390E+04  0.10100000352E+00 0. -1.
       -3   -1    0    0    0  501  0.00000000000E+00  0.00000000000E+00 -0.67145234736E+03  0.67145235496E+03  0.10100000352E+00 0.  1.
    10030    2    1    2    0    0  0.00000000000E+00  0.00000000000E+00  0.53422538746E+03  0.18771300940E+04  0.17995056613E+04 0.  0.
        1    1    3    3  502    0  0.71294423277E+03  0.46507061488E+03 -0.36966526369E+02  0.85202504655E+03  0.50400001928E-02 0.  1.
       -1    1    3    3    0  502 -0.71294423277E+03 -0.46507061488E+03  0.57119191383E+03  0.10251050474E+04  0.50400001928E-02 0. -1.
</event>
<event>
 5   0  0.2038338E-05  0.1799705E+04  0.7818609E-02  0.8706456E-01
       -1   -1    0    0    0  501  0.00000000000E+00  0.00000000000E+00  0.39924133334E+03  0.39924133337E+03  0.50400001928E-02 0. -1.
        1   -1    0    0  501    0  0.00000000000E+00  0.00000000000E+00 -0.20281839566E+04  0.20281839566E+04  0.50400001928E-02 0.  1.
    10030    2    1    2    0    0  0.00000000000E+00  0.00000000000E+00 -0.16289426233E+04  0.24274252900E+04  0.17997053838E+04 0.  0.
        1    1    3    3  502    0 -0.86834342117E+03  0.20527550905E+03 -0.97163019516E+03  0.13191753363E+04  0.50400001928E-02 0.  1.
       -1    1    3    3    0  502  0.86834342117E+03 -0.20527550905E+03 -0.65731242814E+03  0.11082499537E+04  0.50400001928E-02 0. -1.
</event>
<event>
 5   0  0.3993393E-05  0.1791869E+04  0.7818609E-02  0.8710636E-01
        2   -1    0    0  501    0  0.00000000000E+00  0.00000000000E+00  0.58338077048E+03  0.58338077048E+03  0.25500000920E-02 0.  1.
       -2   -1    0    0    0  501  0.00000000000E+00  0.00000000000E+00 -0.13759425088E+04  0.13759425088E+04  0.25500000920E-02 0. -1.
    10030    2    1    2    0    0  0.00000000000E+00  0.00000000000E+00 -0.79256173836E+03  0.19593232793E+04  0.17918687462E+04 0.  0.
        5    1    3    3  502    0 -0.29627584198E+03 -0.84548333475E+03 -0.38818141516E+03  0.97638534655E+03  0.46999998093E+01 0.  1.
       -5    1    3    3    0  502  0.29627584198E+03  0.84548333475E+03 -0.40438032320E+03  0.98293793277E+03  0.46999998093E+01 0. -1.
</event>
<event>
 5   0  0.3983176E-05  0.1802450E+04  0.7818609E-02  0.8704998E-01
       -2   -1    0    0    0  501  0.00000000000E+00  0.00000000000E+00  0.91570044141E+03  0.91570044142E+03  0.25500000920E-02 0. -1.
        2   -1    0    0  501    0  0.00000000000E+00  0.00000000000E+00 -0.88697833723E+03  0.88697833723E+03  0.25500000920E-02 0.  1.
    10030    2    1    2    0    0  0.00000000000E+00  0.00000000000E+00  0.28722104187E+02  0.18026787786E+04  0.18024499493E+04 0.  0.
        3    1    3    3  502    0 -0.54890236278E+03  0.69289568650E+03  0.18990600783E+03  0.90413634936E+03  0.10100000352E+00 0. -1.
       -3    1    3    3    0  502  0.54890236278E+03 -0.69289568650E+03 -0.16118390364E+03  0.89854242928E+03  0.10100000352E+00 0.  1.
</event>
<event>
 5   0  0.3993393E-05  0.1799352E+04  0.7818609E-02  0.8706644E-01
       -2   -1    0    0    0  501  0.00000000000E+00  0.00000000000E+00  0.48925080558E+03  0.48925080559E+03  0.25500000920E-02 0.  1.
        2   -1    0    0  501    0  0.00000000000E+00  0.00000000000E+00 -0.16544008362E+04  0.16544008362E+04  0.25500000920E-02 0. -1.
    10030    2    1    2    0    0  0.00000000000E+00  0.00000000000E+00 -0.11651500306E+04  0.21436516417E+04  0.17993520410E+04 0.  0.
        5    1    3    3  502    0 -0.82619070088E+03 -0.29966161943E+03 -0.81175579875E+03  0.11963936339E+04  0.46999998093E+01 0.  1.
       -5    1    3    3    0  502  0.82619070088E+03  0.29966161943E+03 -0.35339423182E+03  0.94725800787E+03  0.46999998093E+01 0. -1.
</event>
<event>
 5   0  0.2001811E-05  0.1807532E+04  0.7818609E-02  0.8702304E-01
       -1   -1    0    0    0  501  0.00000000000E+00  0.00000000000E+00  0.62319330145E+03  0.62319330147E+03  0.50400001928E-02 0.  1.
        1   -1    0    0  501    0  0.00000000000E+00  0.00000000000E+00 -0.13106576235E+04  0.13106576235E+04  0.50400001928E-02 0. -1.
    10030    2    1    2    0    0  0.00000000000E+00  0.00000000000E+00 -0.68746432205E+03  0.19338509250E+04  0.18075320761E+04 0.  0.
        2    1    3    3  502    0  0.52394751825E+02 -0.28086787752E+03 -0.12610677278E+04  0.12930289203E+04  0.25500000920E-02 0. -1.
       -2    1    3    3    0  502 -0.52394751825E+02  0.28086787752E+03  0.57360340573E+03  0.64082200470E+03  0.25500000920E-02 0.  1.
</event>
<event>
 5   0  0.3909859E-05  0.1803950E+04  0.7818609E-02  0.8704202E-01
        2   -1    0    0  501    0  0.00000000000E+00  0.00000000000E+00  0.92384641528E+03  0.92384641528E+03  0.25500000920E-02 0.  1.
       -2   -1    0    0    0  501  0.00000000000E+00  0.00000000000E+00 -0.88062125674E+03  0.88062125675E+03  0.25500000920E-02 0. -1.
    10030    2    1    2    0    0  0.00000000000E+00  0.00000000000E+00  0.43225158536E+02  0.18044676720E+04  0.18039498788E+04 0.  0.
        4    1    3    3  502    0  0.14527953172E+03 -0.75355390525E+03  0.49567639987E+03  0.91358980771E+03  0.12699999809E+01 0.  1.
       -4    1    3    3    0  502 -0.14527953172E+03  0.75355390525E+03 -0.45245124134E+03  0.89087786432E+03  0.12699999809E+01 0. -1.
</event>
<event>
 5   0  0.2038338E-05  0.1798633E+04  0.7818609E-02  0.8707027E-01
        1   -1    0    0  501    0  0.00000000000E+00  0.00000000000E+00  0.10542882331E+04  0.10542882331E+04  0.50400001928E-02 0. -1.
       -1   -1    0    0    0  501  0.00000000000E+00  0.00000000000E+00 -0.76712461505E+03  0.76712461507E+03  0.50400001928E-02 0.  1.
    10030    2    1    2    0    0  0.00000000000E+00  0.00000000000E+00  0.28716361809E+03  0.18214128482E+04  0.17986333201E+04 0.  0.
        1    1    3    3  502    0 -0.28590605449E+03 -0.42839988937E+03 -0.60298077743E+03  0.79300350263E+03  0.50400001928E-02 0.  1.
       -1    1    3    3    0  502  0.28590605449E+03  0.42839988937E+03  0.89014439551E+03  0.10284093456E+04  0.50400001928E-02 0. -1.
</event>
<event>
 5   0  0.3983176E-05  0.1797296E+04  0.7818609E-02  0.8707739E-01
        2   -1    0    0  501    0  0.00000000000E+00  0.00000000000E+00  0.55179299051E+03  0.55179299051E+03  0.25500000920E-02 0.  1.
       -2   -1    0    0    0  501  0.00000000000E+00  0.00000000000E+00 -0.14635355184E+04  0.14635355184E+04  0.25500000920E-02 0. -1.
    10030    2    1    2    0    0  0.00000000000E+00  0.00000000000E+00 -0.91174252790E+03  0.20153285089E+04  0.17972964590E+04 0.  0.
        3    1    3    3  502    0 -0.16424160360E+02 -0.44979663151E+03 -0.13280335617E+04  0.14022339013E+04  0.10100000352E+00 0. -1.
       -3    1    3    3    0  502  0.16424160360E+02  0.44979663151E+03  0.41629103385E+03  0.61309460757E+03  0.10100000352E+00 0.  1.
</event>
<event>
 5   0  0.2038338E-05  0.1804167E+04  0.7818609E-02  0.8704087E-01
        1   -1    0    0  501    0  0.00000000000E+00  0.00000000000E+00  0.83612470697E+03  0.83612470699E+03  0.50400001928E-02 0. -1.
       -1   -1    0    0    0  501  0.00000000000E+00  0.00000000000E+00 -0.97324568522E+03  0.97324568523E+03  0.50400001928E-02 0.  1.
    10030    2    1    2    0    0  0.00000000000E+00  0.00000000000E+00 -0.13712097825E+03  0.18093703922E+04  0.18041671357E+04 0.  0.
        1    1    3    3  502    0 -0.83117891406E+03  0.28466183351E+03  0.13663658293E+03  0.88913458062E+03  0.50400001928E-02 0. -1.
       -1    1    3    3    0  502  0.83117891406E+03 -0.28466183351E+03 -0.27375756117E+03  0.92023581160E+03  0.50400001928E-02 0.  1.
</event>
<event>
 5   0  0.3993393E-05  0.1789304E+04  0.7818609E-02  0.8712008E-01
       -2   -1    0    0    0  501  0.00000000000E+00  0.00000000000E+00  0.76750284576E+03  0.76750284577E+03  0.25500000920E-02 0. -1.
        2   -1    0    0  501    0  0.00000000000E+00  0.00000000000E+00 -0.10428649355E+04  0.10428649355E+04  0.25500000920E-02 0.  1.
    10030    2    1    2    0    0  0.00000000000E+00  0.00000000000E+00 -0.27536208973E+03  0.18103677813E+04  0.17893035581E+04 0.  0.
        5    1    3    3  502    0 -0.57242964836E+03  0.11128619059E+03 -0.82413660071E+03  0.10095957335E+04  0.46999998093E+01 0.  1.
       -5    1    3    3    0  502  0.57242964836E+03 -0.11128619059E+03  0.54877451098E+03  0.80077204773E+03  0.46999998093E+01 0. -1.
</event>
<event>
 5   0  0.1446750E-05  0.1798186E+04  0.7818609E-02  0.8707265E-01
        3   -1    0    0  501    0  0.00000000000E+00  0.00000000000E+00  0.66626470644E+03  0.66626471409E+03  0.10100000352E+00 0.  1.
       -3   -1    0    0    0  501  0.00000000000E+00  0.00000000000E+00 -0.12132836571E+04  0.12132836613E+04  0.10100000352E+00 0. -1.
    10030    2    1    2    0    0  0.00000000000E+00  0.00000000000E+00 -0.54701895066E+03  0.18795483754E+04  0.17981858533E+04 0.  0.
        3    1    3    3  502    0  0.54120219672E+03  0.11040687969E+03 -0.10150299657E+04  0.11555844141E+04  0.10100000352E+00 0. -1.
       -3    1    3    3    0  502 -0.54120219672E+03 -0.11040687969E+03  0.46801101501E+03  0.72396396125E+03  0.10100000352E+00 0.  1.
</event>
<event>
 5   0  0.1906857E-05  0.1799772E+04  0.7818609E-02  0.8706421E-01
        1   -1    0    0  501    0  0.00000000000E+00  0.00000000000E+00  0.10926002620E+04  0.10926002621E+04  0.50400001928E-02 0.  1.
       -1   -1    0    0    0  501  0.00000000000E+00  0.00000000000E+00 -0.74116290993E+03  0.74116290995E+03  0.50400001928E-02 0. -1.
    10030    2    1    2    0    0  0.00000000000E+00  0.00000000000E+00  0.35143735211E+03  0.18337631720E+04  0.17997719740E+04 0.  0.
        4    1    3    3  502    0  0.19895743917E+03 -0.35907097789E+02  0.10691605070E+04  0.10881080760E+04  0.12699999809E+01 0.  1.
       -4    1    3    3    0  502 -0.19895743917E+03  0.35907097789E+02 -0.71772315491E+03  0.74565509605E+03  0.12699999809E+01 0. -1.
</event>
<event>
 5   0  0.4015729E-05  0.1797941E+04  0.7818609E-02  0.8707395E-01
        2   -1    0    0  501    0  0.00000000000E+00  0.00000000000E+00  0.18844509181E+04  0.18844509181E+04  0.25500000920E-02 0.  1.
       -2   -1    0    0    0  501  0.00000000000E+00  0.00000000000E+00 -0.42885066425E+03  0.42885066426E+03  0.25500000920E-02 0. -1.
    10030    2    1    2    0    0  0.00000000000E+00  0.00000000000E+00  0.14556002539E+04  0.23133015824E+04  0.17979410758E+04 0.  0.
        2    1    3    3  502    0  0.42825934240E+03 -0.19455282631E+03 -0.25787905706E+03  0.53643123945E+03  0.25500000920E-02 0. -1.
       -2    1    3    3    0  502 -0.42825934240E+03  0.19455282631E+03  0.17134793109E+04  0.17768703429E+04  0.25500000920E-02 0.  1.
</event>
<event>
 5   0  0.3983176E-05  0.1798694E+04  0.7818609E-02  0.8706994E-01
        2   -1    0    0  501    0  0.00000000000E+00  0.00000000000E+00  0.67233391245E+03  0.67233391245E+03  0.25500000920E-02 0. -1.
       -2   -1    0    0    0  501  0.00000000000E+00  0.00000000000E+00 -0.12030107267E+04  0.12030107267E+04  0.25500000920E-02 0.  1.
    10030    2    1    2    0    0  0.00000000000E+00  0.00000000000E+00 -0.53067681429E+03  0.18753446392E+04  0.17986938690E+04 0.  0.
        3    1    3    3  502    0 -0.82707023908E+03 -0.29478570387E+03 -0.62413588193E+02  0.88024954289E+03  0.10100000352E+00 0.  1.
       -3    1    3    3    0  502  0.82707023908E+03  0.29478570387E+03 -0.46826322610E+03  0.99509509631E+03  0.10100000352E+00 0. -1.
</event>
<event>
 5   0  0.2054876E-05  0.1794811E+04  0.7818609E-02  0.8709064E-01
       -1   -1    0    0    0  501  0.00000000000E+00  0.00000000000E+00  0.10589883866E+04  0.10589883866E+04  0.50400001928E-02 0. -1.
        1   -1    0    0  501    0  0.00000000000E+00  0.00000000000E+00 -0.76047747278E+03  0.76047747279E+03  0.50400001928E-02 0.  1.
    10030    2    1    2    0    0  0.00000000000E+00  0.00000000000E+00  0.29851091384E+03  0.18194658594E+04  0.17948112012E+04 0.  0.
        5    1    3    3  502    0 -0.48218694669E+02  0.33058806033E+03  0.99358379723E+03  0.10482577738E+04  0.46999998093E+01 0. -1.
       -5    1    3    3    0  502  0.48218694669E+02 -0.33058806033E+03 -0.69507288339E+03  0.77120808565E+03  0.46999998093E+01 0.  1.
</event>
<event>
 5   0  0.1446750E-05  0.1798861E+04  0.7818609E-02  0.8706906E-01
        4   -1    0    0  501    0  0.00000000000E+00  0.00000000000E+00  0.11229455080E+04  0.11229462262E+04  0.12699999809E+01 0.  1.
       -4   -1    0    0    0  501  0.00000000000E+00  0.00000000000E+00 -0.72040300039E+03  0.72040411983E+03  0.12699999809E+01 0. -1.
    10030    2    1    2    0    0  0.00000000000E+00  0.00000000000E+00  0.40254250761E+03  0.18433503460E+04  0.17988607583E+04 0.  0.
        4    1    3    3  502    0  0.25928422970E+03  0.69266186795E+03 -0.32321203666E+03  0.80714088525E+03  0.12699999809E+01 0. -1.
       -4    1    3    3    0  502 -0.25928422970E+03 -0.69266186795E+03  0.72575454428E+03  0.10362094607E+04  0.12699999809E+01 0.  1.
</event>
<event>
 5   0  0.3909859E-05  0.1804028E+04  0.7818609E-02  0.8704160E-01
       -2   -1    0    0    0  501  0.00000000000E+00  0.00000000000E+00  0.11756068295E+04  0.11756068295E+04  0.25500000920E-02 0. -1.
        2   -1    0    0  501    0  0.00000000000E+00  0.00000000000E+00 -0.69209293069E+03  0.69209293069E+03  0.25500000920E-02 0.  1.
    10030    2    1    2    0    0  0.00000000000E+00  0.00000000000E+00  0.48351389879E+03  0.18676997602E+04  0.18040279110E+04 0.  0.
        4    1    3    3  502    0  0.55488634173E+03 -0.29719202449E+03 -0.42711495213E+03  0.76069096676E+03  0.12699999809E+01 0.  1.
       -4    1    3    3    0  502 -0.55488634173E+03  0.29719202449E+03  0.91062885092E+03  0.11070087934E+04  0.12699999809E+01 0. -1.
</event>
<event>
 5   0  0.4015729E-05  0.1798489E+04  0.7818609E-02  0.8707103E-01
       -2   -1    0    0    0  501  0.00000000000E+00  0.00000000000E+00  0.83410665893E+03  0.83410665894E+03  0.25500000920E-02 0. -1.
        2   -1    0    0  501    0  0.00000000000E+00  0.00000000000E+00 -0.96946944772E+03  0.96946944772E+03  0.25500000920E-02 0.  1.
    10030    2    1    2    0    0  0.00000000000E+00  0.00000000000E+00 -0.13536278878E+03  0.18035761067E+04  0.17984892793E+04 0.  0.
        2    1    3    3  502    0  0.68586926923E+03  0.25115537992E+03  0.45834510618E+03  0.86230848059E+03  0.25500000920E-02 0. -1.
       -2    1    3    3    0  502 -0.68586926923E+03 -0.25115537992E+03 -0.59370789496E+03  0.94126762607E+03  0.25500000920E-02 0.  1.
</event>
<event>
 5   0  0.2001811E-05  0.1798464E+04  0.7818609E-02  0.8707117E-01
        1   -1    0    0  501    0  0.00000000000E+00  0.00000000000E+00  0.15725466698E+04  0.15725466698E+04  0.50400001928E-02 0. -1.
       -1   -1    0    0    0  501  0.00000000000E+00  0.00000000000E+00 -0.51420919501E+03  0.51420919503E+03  0.50400001928E-02 0.  1.
    10030    2    1    2    0    0  0.00000000000E+00  0.00000000000E+00  0.10583374748E+04  0.20867558649E+04  0.17984637414E+04 0.  0.
        2    1    3    3  502    0 -0.84230797695E+03 -0.23389408187E+03  0.28459929820E+03  0.91933994263E+03  0.25500000920E-02 0.  1.
       -2    1    3    3    0  502  0.84230797695E+03  0.23389408187E+03  0.77373817663E+03  0.11674159223E+04  0.25500000920E-02 0. -1.
</event>
<event>
 5   0  0.4015729E-05  0.1795044E+04  0.7818609E-02  0.8708939E-01
       -2   -1    0    0    0  501  0.00000000000E+00  0.00000000000E+00  0.45493232169E+03  0.45493232170E+03  0.25500000920E-02 0.  1.
        2   -1    0    0  501    0  0.00000000000E+00  0.00000000000E+00 -0.17706937516E+04  0.17706937516E+04  0.25500000920E-02 0. -1.
    10030    2    1    2    0    0  0.00000000000E+00  0.00000000000E+00 -0.13157614299E+04  0.22256260733E+04  0.17950440879E+04 0.  0.
        2    1    3    3  502    0  0.61189783132E+03 -0.31253676825E+03 -0.13738442431E+04  0.15360814404E+04  0.25500000920E-02 0. -1.
       -2    1    3    3    0  502 -0.61189783132E+03  0.31253676825E+03  0.58082813169E+02  0.68954463283E+03  0.25500000920E-02 0.  1.
</event>
<event>
 5   0  0.3993393E-05  0.1791669E+04  0.7818609E-02  0.8710742E-01
        2   -1    0    0  501    0  0.00000000000E+00  0.00000000000E+00  0.21331056577E+04  0.21331056577E+04  0.25500000920E-02 0. -1.
       -2   -1    0    0    0  501  0.00000000000E+00  0.00000000000E+00 -0.37622115736E+03  0.37622115737E+03  0.25500000920E-02 0.  1.
    10030    2    1    2    0    0  0.00000000000E+00  0.00000000000E+00  0.17568845003E+04  0.25093268151E+04  0.17916690312E+04 0.  0.
        5    1    3    3  502    0  0.17531279420E+03  0.58882964064E+03 -0.34651989022E+02  0.61536799709E+03  0.46999998093E+01 0.  1.
       -5    1    3    3    0  502 -0.17531279420E+03 -0.58882964064E+03  0.17915364894E+04  0.18939588180E+04  0.46999998093E+01 0. -1.
</event>
<event>
 5   0  0.3909859E-05  0.1800397E+04  0.7818609E-02  0.8706088E-01
       -2   -1    0    0    0  501  0.00000000000E+00  0.00000000000E+00  0.28810732364E+03  0.28810732365E+03  0.25500000920E-02 0. -1.
        2   -1    0    0  501    0  0.00000000000E+00  0.00000000000E+00 -0.28126930267E+04  0.28126930267E+04  0.25500000920E-02 0.  1.
    10030    2    1    2    0    0  0.00000000000E+00  0.00000000000E+00 -0.25245857031E+04  0.31008003504E+04  0.18003971342E+04 0.  0.
        4    1    3    3  502    0  0.25563760589E+03  0.57119882305E+02 -0.27456034403E+04  0.27580705449E+04  0.12699999809E+01 0.  1.
       -4    1    3    3    0  502 -0.25563760589E+03 -0.57119882305E+02  0.22101773720E+03  0.34272980547E+03  0.12699999809E+01 0. -1.
</event>
<event>
 5   0  0.4015729E-05  0.1796485E+04  0.7818609E-02  0.8708171E-01
        2   -1    0    0  501    0  0.00000000000E+00  0.00000000000E+00  0.74356655129E+03  0.74356655130E+03  0.25500000920E-02 0.  1.
       -2   -1    0    0    0  501  0.00000000000E+00  0.00000000000E+00 -0.10850945565E+04  0.10850945565E+04  0.25500000920E-02 0. -1.
    10030    2    1    2    0    0  0.00000000000E+00  0.00000000000E+00 -0.34152800525E+03  0.18286611078E+04  0.17964854770E+04 0.  0.
        2    1    3    3  502    0  0.40871206531E+03 -0.11255787078E+03  0.63533176467E+03  0.76378090956E+03  0.25500000920E-02 0.  1.
       -2    1    3    3    0  502 -0.40871206531E+03  0.11255787078E+03 -0.97685976991E+03  0.10648801983E+04  0.25500000920E-02 0. -1.
</event>
<event>
 5   0  0.3993393E-05  0.1801409E+04  0.7818609E-02  0.8705551E-01
       -2   -1    0    0    0  501  0.00000000000E+00  0.00000000000E+00  0.26228218792E+04  0.26228218792E+04  0.25500000920E-02 0. -1.
        2   -1    0    0  501    0  0.00000000000E+00  0.00000000000E+00 -0.30931120175E+03  0.30931120176E+03  0.25500000920E-02 0.  1.
    10030    2    1    2    0    0  0.00000000000E+00  0.00000000000E+00  0.23135106774E+04  0.29321330809E+04  0.18014085460E+04 0.  0.
        5    1    3    3  502    0  0.31017869260E+03 -0.50194224967E+03  0.49102127975E+02  0.59210636908E+03  0.46999998093E+01 0.  1.
       -5    1    3    3    0  502 -0.31017869260E+03  0.50194224967E+03  0.22644085494E+04  0.23400267118E+04  0.46999998093E+01 0. -1.
</event>
<event>
 5   0  0.2038338E-05  0.1795047E+04  0.7818609E-02  0.8708938E-01
        1   -1    0    0  501    0  0.00000000000E+00  0.00000000000E+00  0.11704972360E+04  0.11704972360E+04  0.50400001928E-02 0.  1.
       -1   -1    0    0    0  501  0.00000000000E+00  0.00000000000E+00 -0.68821007702E+03  0.68821007704E+03  0.50400001928E-02 0. -1.
    10030    2    1    2    0    0  0.00000000000E+00  0.00000000000E+00  0.48228715896E+03  0.18587073130E+04  0.17950465097E+04 0.  0.
        1    1    3    3  502    0  0.68293045219E+03 -0.59045560936E+02 -0.35877183577E+03  0.77369090143E+03  0.50400001928E-02 0. -1.
       -1    1    3    3    0  502 -0.68293045219E+03  0.59045560936E+02  0.84105899473E+03  0.10850164116E+04  0.50400001928E-02 0.  1.
</event>
<event>
 5   0  0.3983176E-05  0.1799288E+04  0.7818609E-02  0.8706678E-01
       -2   -1    0    0    0  501  0.00000000000E+00  0.00000000000E+00  0.40960674243E+03  0.40960674244E+03  0.25500000920E-02 0.  1.
        2   -1    0    0  501    0  0.00000000000E+00  0.00000000000E+00 -0.19759424934E+04  0.19759424934E+04  0.25500000920E-02 0. -1.
    10030    2    1    2    0    0  0.00000000000E+00  0.00000000000E+00 -0.15663357509E+04  0.23855492358E+04  0.17992880458E+04 0.  0.
        3    1    3    3  502    0  0.52685290358E+03 -0.68408277083E+03 -0.11180970278E+04  0.14126868702E+04  0.10100000352E+00 0.  1.
       -3    1    3    3    0  502 -0.52685290358E+03  0.68408277083E+03 -0.44823872314E+03  0.97286236564E+03  0.10100000352E+00 0. -1.
</event>
<event>
 5   0  0.2038338E-05  0.1797310E+04  0.7818609E-02  0.8707731E-01
       -1   -1    0    0    0  501  0.00000000000E+00  0.00000000000E+00  0.64104471252E+03  0.64104471254E+03  0.50400001928E-02 0. -1.
        1   -1    0    0  501    0  0.00000000000E+00  0.00000000000E+00 -0.12597882941E+04  0.12597882941E+04  0.50400001928E-02 0.  1.
    10030    2    1    2    0    0  0.00000000000E+00  0.00000000000E+00 -0.61874358161E+03  0.19008330067E+04  0.17973097951E+04 0.  0.
        1    1    3    3  502    0  0.38009391460E+03  0.45754596521E+03  0.40304569993E+03  0.71851620054E+03  0.50400001928E-02 0. -1.
       -1    1    3    3    0  502 -0.38009391460E+03 -0.45754596521E+03 -0.10217892815E+04  0.11823168061E+04  0.50400001928E-02 0.  1.
</event>
<event>
 5   0  0.4015729E-05  0.1799661E+04  0.7818609E-02  0.8706480E-01
        2   -1    0    0  501    0  0.00000000000E+00  0.00000000000E+00  0.61773384864E+03  0.61773384864E+03  0.25500000920E-02 0.  1.
       -2   -1    0    0    0  501  0.00000000000E+00  0.00000000000E+00 -0.13107504289E+04  0.13107504289E+04  0.25500000920E-02 0. -1.
    10030    2    1    2    0    0  0.00000000000E+00  0.00000000000E+00 -0.69301658023E+03  0.19284842775E+04  0.17996609759E+04 0.  0.
        2    1    3    3  502    0 -0.20126656449E+03 -0.34502009057E+03  0.51752695135E+03  0.65374401584E+03  0.25500000920E-02 0.  1.
       -2    1    3    3    0  502  0.20126656449E+03  0.34502009057E+03 -0.12105435316E+04  0.12747402617E+04  0.25500000920E-02 0. -1.
</event>
<event>
 5   0  0.3993393E-05  0.1806631E+04  0.7818609E-02  0.8702781E-01
        2   -1    0    0  501    0  0.00000000000E+00  0.00000000000E+00  0.76114086697E+03  0.76114086697E+03  0.25500000920E-02 0. -1.
       -2   -1    0    0    0  501  0.00000000000E+00  0.00000000000E+00 -0.10720470491E+04  0.10720470491E+04  0.25500000920E-02 0.  1.
    10030    2    1    2    0    0  0.00000000000E+00  0.00000000000E+00 -0.31090618216E+03  0.18331879161E+04  0.18066309202E+04 0.  0.
        5    1    3    3  502    0 -0.83756220763E+03 -0.33319895464E+03 -0.21483457665E+03  0.92666497740E+03  0.46999998093E+01 0.  1.
       -5    1    3    3    0  502  0.83756220763E+03  0.33319895464E+03 -0.96071605507E+02  0.90652293871E+03  0.46999998093E+01 0. -1.
</event>
<event>
 5   0  0.2038338E-05  0.1800657E+04  0.7818609E-02  0.8705950E-01
        1   -1    0    0  501    0  0.00000000000E+00  0.00000000000E+00  0.21491093028E+04  0.21491093028E+04  0.50400001928E-02 0.  1.
       -1   -1    0    0    0  501  0.00000000000E+00  0.00000000000E+00 -0.37717553010E+03  0.37717553014E+03  0.50400001928E-02 0. -1.
    10030    2    1    2    0    0  0.00000000000E+00  0.00000000000E+00  0.17719337727E+04  0.25262848330E+04  0.18006570363E+04 0.  0.
        1    1    3    3  502    0  0.65265167977E+03  0.61701416836E+03  0.79800621111E+03  0.12014468827E+04  0.50400001928E-02 0. -1.
       -1    1    3    3    0  502 -0.65265167977E+03 -0.61701416836E+03  0.97392756160E+03  0.13248379502E+04  0.50400001928E-02 0.  1.
</event>
<event>
 5   0  0.1906857E-05  0.1798673E+04  0.7818609E-02  0.8707005E-01
       -1   -1    0    0    0  501  0.00000000000E+00  0.00000000000E+00  0.11705557818E+04  0.11705557818E+04  0.50400001928E-02 0.  1.
        1   -1    0    0  501    0  0.00000000000E+00  0.00000000000E+00 -0.69095942563E+03  0.69095942565E+03  0.50400001928E-02 0. -1.
    10030    2    1    2    0    0  0.00000000000E+00  0.00000000000E+00  0.47959635621E+03  0.18615152075E+04  0.17986734564E+04 0.  0.
        4    1    3    3  502    0 -0.75905886602E+03  0.47134575137E+02 -0.25698589619E+03  0.80276733491E+03  0.12699999809E+01 0. -1.
       -4    1    3    3    0  502  0.75905886602E+03 -0.47134575137E+02  0.73658225239E+03  0.10587478726E+04  0.12699999809E+01 0.  1.
</event>
<event>
 5   0  0.2054876E-05  0.1794392E+04  0.7818609E-02  0.8709287E-01
       -1   -1    0    0    0  501  0.00000000000E+00  0.00000000000E+00  0.47588199756E+03  0.47588199758E+03  0.50400001928E-02 0. -1.
        1   -1    0    0  501    0  0.00000000000E+00  0.00000000000E+00 -0.16915134639E+04  0.16915134639E+04  0.50400001928E-02 0.  1.
    10030    2    1    2    0    0  0.00000000000E+00  0.00000000000E+00 -0.12156314664E+04  0.21673954615E+04  0.17943921602E+04 0.  0.
        5    1    3    3  502    0 -0.77274520040E+03 -0.45521240855E+03 -0.57859535968E+03  0.10673088409E+04  0.46999998093E+01 0. -1.
       -5    1    3    3    0  502  0.77274520040E+03  0.45521240855E+03 -0.63703610670E+03  0.11000866206E+04  0.46999998093E+01 0.  1.
</event>
<event>
 5   0  0.1446750E-05  0.1805338E+04  0.7818609E-02  0.8703466E-01
       -3   -1    0    0    0  501  0.00000000000E+00  0.00000000000E+00  0.50159255575E+03  0.50159256592E+03  0.10100000352E+00 0. -1.
        3   -1    0    0  501    0  0.00000000000E+00  0.00000000000E+00 -0.16244486128E+04  0.16244486159E+04  0.10100000352E+00 0.  1.
    10030    2    1    2    0    0  0.00000000000E+00  0.00000000000E+00 -0.11228560571E+04  0.21260411819E+04  0.18053380243E+04 0.  0.
        3    1    3    3  502    0  0.58682691132E+03 -0.35429721017E+03 -0.12530546499E+04  0.14282990943E+04  0.10100000352E+00 0. -1.
       -3    1    3    3    0  502 -0.58682691132E+03  0.35429721017E+03  0.13019859283E+03  0.69774208756E+03  0.10100000352E+00 0.  1.
</event>
<event>
 5   0  0.1446750E-05  0.1800538E+04  0.7818609E-02  0.8706013E-01
       -3   -1    0    0    0  501  0.00000000000E+00  0.00000000000E+00  0.80563103246E+03  0.80563103879E+03  0.10100000352E+00 0.  1.
        3   -1    0    0  501    0  0.00000000000E+00  0.00000000000E+00 -0.10060243762E+04  0.10060243813E+04  0.10100000352E+00 0. -1.
    10030    2    1    2    0    0  0.00000000000E+00  0.00000000000E+00 -0.20039334374E+03  0.18116554201E+04  0.18005382164E+04 0.  0.
        2    1    3    3  502    0  0.23221460619E+03  0.28220335243E+03 -0.92802942313E+03  0.99739709527E+03  0.25500000920E-02 0. -1.
       -2    1    3    3    0  502 -0.23221460619E+03 -0.28220335243E+03  0.72763607939E+03  0.81425832479E+03  0.25500000920E-02 0.  1.
</event>
<event>
 5   0  0.1960300E-05  0.1798690E+04  0.7818609E-02  0.8706997E-01
        1   -1    0    0  501    0  0.00000000000E+00  0.00000000000E+00  0.21662428760E+04  0.21662428760E+04  0.50400001928E-02 0. -1.
       -1   -1    0    0    0  501  0.00000000000E+00  0.00000000000E+00 -0.37337505152E+03  0.37337505155E+03  0.50400001928E-02 0.  1.
    10030    2    1    2    0    0  0.00000000000E+00  0.00000000000E+00  0.17928678245E+04  0.25396179276E+04  0.17986895735E+04 0.  0.
        3    1    3    3  502    0  0.68321781618E+03 -0.41821431319E+03  0.31921442648E+03  0.86231528827E+03  0.10100000352E+00 0.  1.
       -3    1    3    3    0  502 -0.68321781618E+03  0.41821431319E+03  0.14736533980E+04  0.16773026393E+04  0.10100000352E+00 0. -1.
</event>
<event>
 5   0  0.3993393E-05  0.1802930E+04  0.7818609E-02  0.8704743E-01
        2   -1    0    0  501    0  0.00000000000E+00  0.00000000000E+00  0.14253555992E+04  0.14253555992E+04  0.25500000920E-02 0.  1.
       -2   -1    0    0    0  501  0.00000000000E+00  0.00000000000E+00 -0.57013092061E+03  0.57013092062E+03  0.25500000920E-02 0. -1.
    10030    2    1    2    0    0  0.00000000000E+00  0.00000000000E+00  0.85522467855E+03  0.19954865198E+04  0.18029301705E+04 0.  0.
        5    1    3    3  502    0  0.41221068850E+03 -0.52732488087E+03  0.10959484337E+04  0.12841784304E+04  0.46999998093E+01 0.  1.
       -5    1    3    3    0  502 -0.41221068850E+03  0.52732488087E+03 -0.24072375519E+03  0.71130808937E+03  0.46999998093E+01 0. -1.
</event>
<event>
 5   0  0.1446750E-05  0.1799058E+04  0.7818609E-02  0.8706801E-01
       -3   -1    0    0    0  501  0.00000000000E+00  0.00000000000E+00  0.97208430890E+03  0.97208431415E+03  0.10100000352E+00 0.  1.
        3   -1    0    0  501    0  0.00000000000E+00  0.00000000000E+00 -0.83238882662E+03  0.83238883274E+03  0.10100000352E+00 0. -1.
    10030    2    1    2    0    0  0.00000000000E+00  0.00000000000E+00  0.13969548229E+03  0.18044731469E+04  0.17990576728E+04 0.  0.
        2    1    3    3  502    0  0.72540506446E+03  0.44914830230E+03 -0.21597570611E+03  0.88010920381E+03  0.25500000920E-02 0. -1.
       -2    1    3    3    0  502 -0.72540506446E+03 -0.44914830230E+03  0.35567118840E+03  0.92436394308E+03  0.25500000920E-02 0.  1.
</event>
<event>
 5   0  0.3993393E-05  0.1802213E+04  0.7818609E-02  0.8705124E-01
        2   -1    0    0  501    0  0.00000000000E+00  0.00000000000E+00  0.12453607183E+04  0.12453607183E+04  0.25500000920E-02 0. -1.
       -2   -1    0    0    0  501  0.00000000000E+00  0.00000000000E+00 -0.65201405329E+03  0.65201405329E+03  0.25500000920E-02 0.  1.
    10030    2    1    2    0    0  0.00000000000E+00  0.00000000000E+00  0.59334666506E+03  0.18973747716E+04  0.18022127397E+04 0.  0.
        5    1    3    3  502    0  0.82008535869E+03  0.13763944019E+03 -0.68766042356E+02  0.83440725645E+03  0.46999998093E+01 0.  1.
       -5    1    3    3    0  502 -0.82008535869E+03 -0.13763944019E+03  0.66211270741E+03  0.10629675152E+04  0.46999998093E+01 0. -1.
</event>
<event>
 5   0  0.1906857E-05  0.1802346E+04  0.7818609E-02  0.8705053E-01
       -1   -1    0    0    0  501  0.00000000000E+00  0.00000000000E+00  0.12488023459E+04  0.12488023459E+04  0.50400001928E-02 0.  1.
        1   -1    0    0  501    0  0.00000000000E+00  0.00000000000E+00 -0.65031299937E+03  0.65031299939E+03  0.50400001928E-02 0. -1.
    10030    2    1    2    0    0  0.00000000000E+00  0.00000000000E+00  0.59848934649E+03  0.18991153453E+04  0.18023455819E+04 0.  0.
        4    1    3    3  502    0  0.47118494973E+03  0.47727232352E+03  0.93348146930E+03  0.11494317701E+04  0.12699999809E+01 0.  1.
       -4    1    3    3    0  502 -0.47118494973E+03 -0.47727232352E+03 -0.33499212281E+03  0.74968357518E+03  0.12699999809E+01 0. -1.
</event>
<event>
 5   0  0.2054876E-05  0.1797168E+04  0.7818609E-02  0.8707807E-01
       -1   -1    0    0    0  501  0.00000000000E+00  0.00000000000E+00  0.93304041231E+03  0.93304041232E+03  0.50400001928E-02 0.  1.
        1   -1    0    0  501    0  0.00000000000E+00  0.00000000000E+00 -0.86540026932E+03  0.86540026934E+03  0.50400001928E-02 0. -1.
    10030    2    1    2    0    0  0.00000000000E+00  0.00000000000E+00  0.67640142987E+02  0.17984406817E+04  0.17971682438E+04 0.  0.
        5    1    3    3  502    0  0.70333046128E+03 -0.39484494675E+03 -0.36250966149E+03  0.88431420571E+03  0.46999998093E+01 0. -1.
       -5    1    3    3    0  502 -0.70333046128E+03  0.39484494675E+03  0.43014980448E+03  0.91412647595E+03  0.46999998093E+01 0.  1.
</event>
<event>
 5   0  0.3983176E-05  0.1800116E+04  0.7818609E-02  0.8706238E-01
       -2   -1    0    0    0  501  0.00000000000E+00  0.00000000000E+00  0.10669657315E+04  0.10669657315E+04  0.25500000920E-02 0. -1.
        2   -1    0    0  501    0  0.00000000000E+00  0.00000000000E+00 -0.75925996395E+03  0.75925996396E+03  0.25500000920E-02 0.  1.
    10030    2    1    2    0    0  0.00000000000E+00  0.00000000000E+00  0.30770576753E+03  0.18262256954E+04  0.18001159550E+04 0.  0.
        3    1    3    3  502    0  0.18854485501E+03 -0.20911372166E+03  0.10211365221E+04  0.10592438425E+04  0.10100000352E+00 0. -1.
       -3    1    3    3    0  502 -0.18854485501E+03  0.20911372166E+03 -0.71343075458E+03  0.76698185292E+03  0.10100000352E+00 0.  1.
</event>
<event>
 5   0  0.3993393E-05  0.1798901E+04  0.7818609E-02  0.8706884E-01
       -2   -1    0    0    0  501  0.00000000000E+00  0.00000000000E+00  0.64864630564E+03  0.64864630565E+03  0.25500000920E-02 0.  1.
        2   -1    0    0  501    0  0.00000000000E+00  0.00000000000E+00 -0.12472304124E+04  0.12472304124E+04  0.25500000920E-02 0. -1.
    10030    2    1    2    0    0  0.00000000000E+00  0.00000000000E+00 -0.59858410674E+03  0.18958767180E+04  0.17989012194E+04 0.  0.
        5    1    3    3  502    0  0.84856142350E+03  0.28389603810E+03 -0.39551484819E+03  0.97831872876E+03  0.46999998093E+01 0.  1.
       -5    1    3    3    0  502 -0.84856142350E+03 -0.28389603810E+03 -0.20306925855E+03  0.91755798927E+03  0.46999998093E+01 0. -1.
</event>
<event>
 5   0  0.1446750E-05  0.1800196E+04  0.7818609E-02  0.8706195E-01
       -3   -1    0    0    0  501  0.00000000000E+00  0.00000000000E+00  0.51543540335E+03  0.51543541324E+03  0.10100000352E+00 0. -1.
        3   -1    0    0  501    0  0.00000000000E+00  0.00000000000E+00 -0.15718293783E+04  0.15718293815E+04  0.10100000352E+00 0.  1.
    10030    2    1    2    0    0  0.00000000000E+00  0.00000000000E+00 -0.10563939749E+04  0.20872647948E+04  0.18001961263E+04 0.  0.
        1    1    3    3  502    0  0.68137576332E+03 -0.15564573752E+03  0.12941300394E+03  0.71080676141E+03  0.50400001928E-02 0. -1.
       -1    1    3    3    0  502 -0.68137576332E+03  0.15564573752E+03 -0.11858069789E+04  0.13764580334E+04  0.50400001928E-02 0.  1.
</event>
<event>
 5   0  0.3909859E-05  0.1793093E+04  0.7818609E-02  0.8709981E-01
        2   -1    0    0  501    0  0.00000000000E+00  0.00000000000E+00  0.14775262628E+04  0.14775262628E+04  0.25500000920E-02 0.  1.
       -2   -1    0    0    0  501  0.00000000000E+00  0.00000000000E+00 -0.54401439701E+03  0.54401439702E+03  0.25500000920E-02 0. -1.
    10030    2    1    2    0    0  0.00000000000E+00  0.00000000000E+00  0.93351186577E+03  0.20215406598E+04  0.17930929244E+04 0.  0.
        4    1    3    3  502    0  0.48926820012E+03  0.12072157783E+02 -0.38012270448E+03  0.61969669356E+03  0.12699999809E+01 0. -1.
       -4    1    3    3    0  502 -0.48926820012E+03 -0.12072157783E+02  0.13136345702E+04  0.14018439662E+04  0.12699999809E+01 0.  1.
</event>
<event>
 5   0  0.2038338E-05  0.1802125E+04  0.7818609E-02  0.8705170E-01
        1   -1    0    0  501    0  0.00000000000E+00  0.00000000000E+00  0.12983922874E+04  0.12983922874E+04  0.50400001928E-02 0.  1.
       -1   -1    0    0    0  501  0.00000000000E+00  0.00000000000E+00 -0.62532195319E+03  0.62532195321E+03  0.50400001928E-02 0. -1.
    10030    2    1    2    0    0  0.00000000000E+00  0.00000000000E+00  0.67307033421E+03  0.19237142406E+04  0.18021245253E+04 0.  0.
        1    1    3    3  502    0 -0.98864058859E+02 -0.50383670868E+03 -0.45388862207E+03  0.68530315366E+03  0.50400001928E-02 0. -1.
       -1    1    3    3    0  502  0.98864058859E+02  0.50383670868E+03  0.11269589563E+04  0.12384110870E+04  0.50400001928E-02 0.  1.
</event>
<event>
 5   0  0.1906857E-05  0.1793864E+04  0.7818609E-02  0.8709570E-01
       -1   -1    0    0    0  501  0.00000000000E+00  0.00000000000E+00  0.13597256072E+04  0.13597256072E+04  0.50400001928E-02 0.  1.
        1   -1    0    0  501    0  0.00000000000E+00  0.00000000000E+00 -0.59165368490E+03  0.59165368492E+03  0.50400001928E-02 0. -1.
    10030    2    1    2    0    0  0.00000000000E+00  0.00000000000E+00  0.76807192226E+03  0.19513792921E+04  0.17938636135E+04 0.  0.
        4    1    3    3  502    0  0.75961982899E+03  0.97499015213E+02  0.89188822591E+03  0.11755826483E+04  0.12699999809E+01 0.  1.
       -4    1    3    3    0  502 -0.75961982899E+03 -0.97499015213E+02 -0.12381630365E+03  0.77579664379E+03  0.12699999809E+01 0. -1.
</event>
<event>
 5   0  0.1906857E-05  0.1802543E+04  0.7818609E-02  0.8704948E-01
        1   -1    0    0  501    0  0.00000000000E+00  0.00000000000E+00  0.18532851088E+04  0.18532851088E+04  0.50400001928E-02 0.  1.
       -1   -1    0    0    0  501  0.00000000000E+00  0.00000000000E+00 -0.43829755860E+03  0.43829755863E+03  0.50400001928E-02 0. -1.
    10030    2    1    2    0    0  0.00000000000E+00  0.00000000000E+00  0.14149875502E+04  0.22915826674E+04  0.18025430243E+04 0.  0.
        4    1    3    3  502    0  0.52532365240E+03 -0.61124463015E+03  0.19469294284E+03  0.82915130860E+03  0.12699999809E+01 0. -1.
       -4    1    3    3    0  502 -0.52532365240E+03  0.61124463015E+03  0.12202946073E+04  0.14624313588E+04  0.12699999809E+01 0.  1.
</event>
<event>
 5   0  0.1906857E-05  0.1800920E+04  0.7818609E-02  0.8705810E-01
       -1   -1    0    0    0  501  0.00000000000E+00  0.00000000000E+00  0.70110599804E+03  0.70110599806E+03  0.50400001928E-02 0. -1.
        1   -1    0    0  501    0  0.00000000000E+00  0.00000000000E+00 -0.11564992735E+04  0.11564992735E+04  0.50400001928E-02 0.  1.
    10030    2    1    2    0    0  0.00000000000E+00  0.00000000000E+00 -0.45539327547E+03  0.18576052716E+04  0.18009204063E+04 0.  0.
        4    1    3    3  502    0 -0.11957687952E+03  0.75319049575E+03  0.26615548784E+03  0.80773443012E+03  0.12699999809E+01 0. -1.
       -4    1    3    3    0  502  0.11957687952E+03 -0.75319049575E+03 -0.72154876332E+03  0.10498708415E+04  0.12699999809E+01 0.  1.
</event>
<event>
 5   0  0.2038338E-05  0.1803561E+04  0.7818609E-02  0.8704408E-01
       -1   -1    0    0    0  501  0.00000000000E+00  0.00000000000E+00  0.86061533296E+03  0.86061533298E+03  0.50400001928E-02 0. -1.
        1   -1    0    0  501    0  0.00000000000E+00  0.00000000000E+00 -0.94491467393E+03  0.94491467394E+03  0.50400001928E-02 0.  1.
    10030    2    1    2    0    0  0.00000000000E+00  0.00000000000E+00 -0.84299340967E+02  0.18055300069E+04  0.18035609851E+04 0.  0.
        1    1    3    3  502    0 -0.69733189729E+03  0.39012739760E+03  0.37632211899E+03  0.88322675379E+03  0.50400001928E-02 0. -1.
       -1    1    3    3    0  502  0.69733189729E+03 -0.39012739760E+03 -0.46062145996E+03  0.92230325313E+03  0.50400001928E-02 0.  1.
</event>
<event>
 5   0  0.2054876E-05  0.1800946E+04  0.7818609E-02  0.8705797E-01
       -1   -1    0    0    0  501  0.00000000000E+00  0.00000000000E+00  0.56832928183E+03  0.56832928185E+03  0.50400001928E-02 0. -1.
        1   -1    0    0  501    0  0.00000000000E+00  0.00000000000E+00 -0.14267279812E+04  0.14267279812E+04  0.50400001928E-02 0.  1.
    10030    2    1    2    0    0  0.00000000000E+00  0.00000000000E+00 -0.85839869935E+03  0.19950572630E+04  0.18009456282E+04 0.  0.
        5    1    3    3  502    0  0.81078832611E+03 -0.15661732819E+03 -0.82695753564E+03  0.11686691375E+04  0.46999998093E+01 0.  1.
       -5    1    3    3    0  502 -0.81078832611E+03  0.15661732819E+03 -0.31441163711E+02  0.82638812553E+03  0.46999998093E+01 0. -1.
</event>
<event>
 5   0  0.3909859E-05  0.1794776E+04  0.7818609E-02  0.8709082E-01
        2   -1    0    0  501    0  0.00000000000E+00  0.00000000000E+00  0.17568213601E+04  0.17568213601E+04  0.25500000920E-02 0. -1.
       -2   -1    0    0    0  501  0.00000000000E+00  0.00000000000E+00 -0.45838765762E+03  0.45838765763E+03  0.25500000920E-02 0.  1.
    10030    2    1    2    0    0  0.00000000000E+00  0.00000000000E+00  0.12984337024E+04  0.22152090177E+04  0.17947760062E+04 0.  0.
        4    1    3    3  502    0 -0.28004558299E+03 -0.71099570574E+03  0.68509717636E+02  0.76722592268E+03  0.12699999809E+01 0.  1.
       -4    1    3    3    0  502  0.28004558299E+03  0.71099570574E+03  0.12299239848E+04  0.14479830950E+04  0.12699999809E+01 0. -1.
</event>
<event>
 5   0  0.2054876E-05  0.1800557E+04  0.7818609E-02  0.8706003E-01
        1   -1    0    0  501    0  0.00000000000E+00  0.00000000000E+00  0.16690163723E+04  0.16690163723E+04  0.50400001928E-02 0. -1.
       -1   -1    0    0    0  501  0.00000000000E+00  0.00000000000E+00 -0.48561617925E+03  0.48561617928E+03  0.50400001928E-02 0.  1.
    10030    2    1    2    0    0  0.00000000000E+00  0.00000000000E+00  0.11834001931E+04  0.21546325516E+04  0.18005569737E+04 0.  0.
        5    1    3    3  502    0 -0.21610790948E+03 -0.57595143594E+03  0.13782687956E+04  0.15093275483E+04  0.46999998093E+01 0. -1.
       -5    1    3    3    0  502  0.21610790948E+03  0.57595143594E+03 -0.19486860250E+03  0.64530500334E+03  0.46999998093E+01 0.  1.
</event>
<event>
 5   0  0.3909859E-05  0.1803048E+04  0.7818609E-02  0.8704680E-01
        2   -1    0    0  501    0  0.00000000000E+00  0.00000000000E+00  0.20278617989E+04  0.20278617989E+04  0.25500000920E-02 0. -1.
       -2   -1    0    0    0  501  0.00000000000E+00  0.00000000000E+00 -0.40078940943E+03  0.40078940944E+03  0.25500000920E-02 0.  1.
    10030    2    1    2    0    0  0.00000000000E+00  0.00000000000E+00  0.16270723894E+04  0.24286512083E+04  0.18030480113E+04 0.  0.
        4    1    3    3  502    0 -0.59447334770E+03 -0.92559485684E+02  0.17178918552E+04  0.18201977526E+04  0.12699999809E+01 0. -1.
       -4    1    3    3    0  502  0.59447334770E+03  0.92559485684E+02 -0.90819465755E+02  0.60845345572E+03  0.12699999809E+01 0.  1.
</event>
<event>
 5   0  0.2038338E-05  0.1797327E+04  0.7818609E-02  0.8707722E-01
        1   -1    0    0  501    0  0.00000000000E+00  0.00000000000E+00  0.62070753910E+03  0.62070753912E+03  0.50400001928E-02 0. -1.
       -1   -1    0    0    0  501  0.00000000000E+00  0.00000000000E+00 -0.13010892535E+04  0.13010892536E+04  0.50400001928E-02 0.  1.
    10030    2    1    2    0    0  0.00000000000E+00  0.00000000000E+00 -0.68038171444E+03  0.19217967927E+04  0.17973268025E+04 0.  0.
        1    1    3    3  502    0 -0.13417341263E+03 -0.43840162436E+03  0.48625058092E+03  0.66830989546E+03  0.50400001928E-02 0. -1.
       -1    1    3    3    0  502  0.13417341263E+03  0.43840162436E+03 -0.11666322954E+04  0.12534868972E+04  0.50400001928E-02 0.  1.
</event>
<event>
 5   0  0.3984648E-05  0.1799160E+04  0.7818609E-02  0.8706746E-01
       -2   -1    0    0    0  501  0.00000000000E+00  0.00000000000E+00  0.70917711670E+03  0.70917711671E+03  0.25500000920E-02 0. -1.
        2   -1    0    0  501    0  0.00000000000E+00  0.00000000000E+00 -0.11411032403E+04  0.11411032403E+04  0.25500000920E-02 0.  1.
    10030    2    1    2    0    0  0.00000000000E+00  0.00000000000E+00 -0.43192612355E+03  0.18502803570E+04  0.17991601438E+04 0.  0.
        1    1    3    3  502    0  0.40424799032E+03 -0.11466360643E+03 -0.10339753214E+04  0.11160954913E+04  0.50400001928E-02 0.  1.
       -1    1    3    3    0  502 -0.40424799032E+03  0.11466360643E+03  0.60204919787E+03  0.73418486569E+03  0.50400001928E-02 0. -1.
</event>
<event>
 5   0  0.1960300E-05  0.1799734E+04  0.7818609E-02  0.8706441E-01
       -1   -1    0    0    0  501  0.00000000000E+00  0.00000000000E+00  0.10148799326E+04  0.10148799327E+04  0.50400001928E-02 0. -1.
        1   -1    0    0  501    0  0.00000000000E+00  0.00000000000E+00 -0.79788834392E+03  0.79788834394E+03  0.50400001928E-02 0.  1.
    10030    2    1    2    0    0  0.00000000000E+00  0.00000000000E+00  0.21699158872E+03  0.18127682766E+04  0.17997342790E+04 0.  0.
        3    1    3    3  502    0  0.13962159952E+03  0.62754992928E+03 -0.52570515031E+03  0.83046915659E+03  0.10100000352E+00 0. -1.
       -3    1    3    3    0  502 -0.13962159952E+03 -0.62754992928E+03  0.74269673903E+03  0.98229912001E+03  0.10100000352E+00 0.  1.
</event>
<event>
 5   0  0.4015729E-05  0.1800415E+04  0.7818609E-02  0.8706079E-01
        2   -1    0    0  501    0  0.00000000000E+00  0.00000000000E+00  0.66021120475E+03  0.66021120475E+03  0.25500000920E-02 0.  1.
       -2   -1    0    0    0  501  0.00000000000E+00  0.00000000000E+00 -0.12274459657E+04  0.12274459657E+04  0.25500000920E-02 0. -1.
    10030    2    1    2    0    0  0.00000000000E+00  0.00000000000E+00 -0.56723476091E+03  0.18876571704E+04  0.18004150408E+04 0.  0.
        2    1    3    3  502    0  0.33587400020E+03 -0.12816814382E+03  0.58168348892E+03  0.68380852465E+03  0.25500000920E-02 0.  1.
       -2    1    3    3    0  502 -0.33587400020E+03  0.12816814382E+03 -0.11489182498E+04  0.12038486458E+04  0.25500000920E-02 0. -1.
</event>
<event>
 5   0  0.2038338E-05  0.1808783E+04  0.7818609E-02  0.8701643E-01
       -1   -1    0    0    0  501  0.00000000000E+00  0.00000000000E+00  0.55532905939E+03  0.55532905941E+03  0.50400001928E-02 0. -1.
        1   -1    0    0  501    0  0.00000000000E+00  0.00000000000E+00 -0.14728632834E+04  0.14728632835E+04  0.50400001928E-02 0.  1.
    10030    2    1    2    0    0  0.00000000000E+00  0.00000000000E+00 -0.91753422406E+03  0.20281923429E+04  0.18087827751E+04 0.  0.
        1    1    3    3  502    0 -0.77884343612E+03 -0.44027084187E+02 -0.97186346801E+03  0.12462159053E+04  0.50400001928E-02 0.  1.
       -1    1    3    3    0  502  0.77884343612E+03  0.44027084187E+02  0.54329243953E+02  0.78197643757E+03  0.50400001928E-02 0. -1.
</event>
<event>
 5   0  0.1960300E-05  0.1786562E+04  0.7818609E-02  0.8713479E-01
       -1   -1    0    0    0  501  0.00000000000E+00  0.00000000000E+00  0.70466451525E+03  0.70466451527E+03  0.50400001928E-02 0.  1.
        1   -1    0    0  501    0  0.00000000000E+00  0.00000000000E+00 -0.11323836302E+04  0.11323836302E+04  0.50400001928E-02 0. -1.
    10030    2    1    2    0    0  0.00000000000E+00  0.00000000000E+00 -0.42771911491E+03  0.18370481454E+04  0.17865615711E+04 0.  0.
        3    1    3    3  502    0 -0.16791100205E+03 -0.54122998936E+03  0.49618035698E+03  0.75320579050E+03  0.10100000352E+00 0.  1.
       -3    1    3    3    0  502  0.16791100205E+03  0.54122998936E+03 -0.92389947189E+03  0.10838423549E+04  0.10100000352E+00 0. -1.
</event>
<event>
 5   0  0.2038338E-05  0.1792876E+04  0.7818609E-02  0.8710097E-01
       -1   -1    0    0    0  501  0.00000000000E+00  0.00000000000E+00  0.16173099471E+04  0.16173099471E+04  0.50400001928E-02 0. -1.
        1   -1    0    0  501    0  0.00000000000E+00  0.00000000000E+00 -0.49687534156E+03  0.49687534158E+03  0.50400001928E-02 0.  1.
    10030    2    1    2    0    0  0.00000000000E+00  0.00000000000E+00  0.11204346056E+04  0.21141852887E+04  0.17928763844E+04 0.  0.
        1    1    3    3  502    0  0.80019755100E+03  0.40353164230E+03  0.53527126652E+03  0.10438722315E+04  0.50400001928E-02 0.  1.
       -1    1    3    3    0  502 -0.80019755100E+03 -0.40353164230E+03  0.58516333904E+03  0.10703130572E+04  0.50400001928E-02 0. -1.
</event>
<event>
 5   0  0.3993393E-05  0.1799279E+04  0.7818609E-02  0.8706683E-01
       -2   -1    0    0    0  501  0.00000000000E+00  0.00000000000E+00  0.10163247736E+04  0.10163247736E+04  0.25500000920E-02 0. -1.
        2   -1    0    0  501    0  0.00000000000E+00  0.00000000000E+00 -0.79635116576E+03  0.79635116577E+03  0.25500000920E-02 0.  1.
    10030    2    1    2    0    0  0.00000000000E+00  0.00000000000E+00  0.21997360785E+03  0.18126759394E+04  0.17992792093E+04 0.  0.
        5    1    3    3  502    0  0.49319950457E+03 -0.16786805138E+03 -0.62889326660E+03  0.81667267908E+03  0.46999998093E+01 0.  1.
       -5    1    3    3    0  502 -0.49319950457E+03  0.16786805138E+03  0.84886687445E+03  0.99600326030E+03  0.46999998093E+01 0. -1.
</event>
<event>
 5   0  0.3983176E-05  0.1802058E+04  0.7818609E-02  0.8705206E-01
       -2   -1    0    0    0  501  0.00000000000E+00  0.00000000000E+00  0.10921963092E+04  0.10921963092E+04  0.25500000920E-02 0. -1.
        2   -1    0    0  501    0  0.00000000000E+00  0.00000000000E+00 -0.74332161919E+03  0.74332161919E+03  0.25500000920E-02 0.  1.
    10030    2    1    2    0    0  0.00000000000E+00  0.00000000000E+00  0.34887469003E+03  0.18355179284E+04  0.18020578559E+04 0.  0.
        3    1    3    3  502    0  0.45697280484E+03  0.30355157981E+03 -0.55359663857E+03  0.77938241859E+03  0.10100000352E+00 0.  1.
       -3    1    3    3    0  502 -0.45697280484E+03 -0.30355157981E+03  0.90247132860E+03  0.10561355098E+04  0.10100000352E+00 0. -1.
</event>
<event>
 5   0  0.3984648E-05  0.1798670E+04  0.7818609E-02  0.8707007E-01
        2   -1    0    0  501    0  0.00000000000E+00  0.00000000000E+00  0.74573604176E+03  0.74573604176E+03  0.25500000920E-02 0. -1.
       -2   -1    0    0    0  501  0.00000000000E+00  0.00000000000E+00 -0.10845709976E+04  0.10845709976E+04  0.25500000920E-02 0.  1.
    10030    2    1    2    0    0  0.00000000000E+00  0.00000000000E+00 -0.33883495581E+03  0.18303070393E+04  0.17986702674E+04 0.  0.
        1    1    3    3  502    0  0.14319423191E+03 -0.32372734213E+03 -0.10106994051E+04  0.10708955446E+04  0.50400001928E-02 0.  1.
       -1    1    3    3    0  502 -0.14319423191E+03  0.32372734213E+03  0.67186444925E+03  0.75941149470E+03  0.50400001928E-02 0. -1.
</event>
<event>
 5   0  0.2001811E-05  0.1798710E+04  0.7818609E-02  0.8706986E-01
        1   -1    0    0  501    0  0.00000000000E+00  0.00000000000E+00  0.55545225556E+03  0.55545225559E+03  0.50400001928E-02 0.  1.
       -1   -1    0    0    0  501  0.00000000000E+00  0.00000000000E+00 -0.14561819602E+04  0.14561819602E+04  0.50400001928E-02 0. -1.
    10030    2    1    2    0    0  0.00000000000E+00  0.00000000000E+00 -0.90072970460E+03  0.20116342158E+04  0.17987101538E+04 0.  0.
        2    1    3    3  502    0  0.10208039966E+03 -0.14783033203E+03  0.53518098727E+03  0.56452892239E+03  0.25500000920E-02 0.  1.
       -2    1    3    3    0  502 -0.10208039966E+03  0.14783033203E+03 -0.14359106919E+04  0.14471052934E+04  0.25500000920E-02 0. -1.
</event>
<event>
 5   0  0.2038338E-05  0.1799967E+04  0.7818609E-02  0.8706317E-01
        1   -1    0    0  501    0  0.00000000000E+00  0.00000000000E+00  0.18976508294E+04  0.18976508294E+04  0.50400001928E-02 0. -1.
       -1   -1    0    0    0  501  0.00000000000E+00  0.00000000000E+00 -0.42682772195E+03  0.42682772198E+03  0.50400001928E-02 0.  1.
    10030    2    1    2    0    0  0.00000000000E+00  0.00000000000E+00  0.14708231074E+04  0.23244785514E+04  0.17999666448E+04 0.  0.
        1    1    3    3  502    0 -0.16603509202E+03 -0.82273857553E+03  0.31594759270E+03  0.89682177539E+03  0.50400001928E-02 0. -1.
       -1    1    3    3    0  502  0.16603509202E+03  0.82273857553E+03  0.11548755147E+04  0.14276567760E+04  0.50400001928E-02 0.  1.
</event>
<event>
 5   0  0.3993393E-05  0.1800586E+04  0.7818609E-02  0.8705988E-01
        2   -1    0    0  501    0  0.00000000000E+00  0.00000000000E+00  0.11406557360E+04  0.11406557360E+04  0.25500000920E-02 0.  1.
       -2   -1    0    0    0  501  0.00000000000E+00  0.00000000000E+00 -0.71058067880E+03  0.71058067880E+03  0.25500000920E-02 0. -1.
    10030    2    1    2    0    0  0.00000000000E+00  0.00000000000E+00  0.43007505719E+03  0.18512364148E+04  0.18005864902E+04 0.  0.
        5    1    3    3  502    0 -0.62481877651E+03 -0.32365036065E+03 -0.36232643067E+03  0.79148631813E+03  0.46999998093E+01 0. -1.
       -5    1    3    3    0  502  0.62481877651E+03  0.32365036065E+03  0.79240148786E+03  0.10597500967E+04  0.46999998093E+01 0.  1.
</event>
<event>
 5   0  0.1960300E-05  0.1803212E+04  0.7818609E-02  0.8704593E-01
       -1   -1    0    0    0  501  0.00000000000E+00  0.00000000000E+00  0.50626688305E+03  0.50626688308E+03  0.50400001928E-02 0.  1.
        1   -1    0    0  501    0  0.00000000000E+00  0.00000000000E+00 -0.16056613414E+04  0.16056613414E+04  0.50400001928E-02 0. -1.
    10030    2    1    2    0    0  0.00000000000E+00  0.00000000000E+00 -0.10993944584E+04  0.21119282245E+04  0.18032117597E+04 0.  0.
        3    1    3    3  502    0 -0.33156277393E+03  0.81315518095E+03 -0.31042192231E+03  0.93140592730E+03  0.10100000352E+00 0.  1.
       -3    1    3    3    0  502  0.33156277393E+03 -0.81315518095E+03 -0.78897253607E+03  0.11805222972E+04  0.10100000352E+00 0. -1.
</event>
<event>
 5   0  0.1906857E-05  0.1798444E+04  0.7818609E-02  0.8707128E-01
       -1   -1    0    0    0  501  0.00000000000E+00  0.00000000000E+00  0.59725070119E+03  0.59725070121E+03  0.50400001928E-02 0. -1.
        1   -1    0    0  501    0  0.00000000000E+00  0.00000000000E+00 -0.13538699332E+04  0.13538699332E+04  0.50400001928E-02 0.  1.
    10030    2    1    2    0    0  0.00000000000E+00  0.00000000000E+00 -0.75661923199E+03  0.19511206344E+04  0.17984435125E+04 0.  0.
        4    1    3    3  502    0 -0.24500979798E+03 -0.19321754144E+03  0.53663326554E+03  0.62075735518E+03  0.12699999809E+01 0. -1.
       -4    1    3    3    0  502  0.24500979798E+03  0.19321754144E+03 -0.12932524975E+04  0.13303632792E+04  0.12699999809E+01 0.  1.
</event>
<event>
 5   0  0.3993393E-05  0.1800991E+04  0.7818609E-02  0.8705772E-01
        2   -1    0    0  501    0  0.00000000000E+00  0.00000000000E+00  0.17624787921E+04  0.17624787921E+04  0.25500000920E-02 0. -1.
       -2   -1    0    0    0  501  0.00000000000E+00  0.00000000000E+00 -0.46008636800E+03  0.46008636801E+03  0.25500000920E-02 0.  1.
    10030    2    1    2    0    0  0.00000000000E+00  0.00000000000E+00  0.13023924241E+04  0.22225651601E+04  0.18009913561E+04 0.  0.
        5    1    3    3  502    0  0.37037023957E+03  0.69561917376E+03  0.11888499605E+04  0.14263402357E+04  0.46999998093E+01 0. -1.
       -5    1    3    3    0  502 -0.37037023957E+03 -0.69561917376E+03  0.11354246358E+03  0.79622492444E+03  0.46999998093E+01 0.  1.
</event>
<event>
 5   0  0.2054876E-05  0.1801341E+04  0.7818609E-02  0.8705587E-01
       -1   -1    0    0    0  501  0.00000000000E+00  0.00000000000E+00  0.72793218928E+03  0.72793218930E+03  0.50400001928E-02 0. -1.
        1   -1    0    0  501    0  0.00000000000E+00  0.00000000000E+00 -0.11143997321E+04  0.11143997321E+04  0.50400001928E-02 0.  1.
    10030    2    1    2    0    0  0.00000000000E+00  0.00000000000E+00 -0.38646754285E+03  0.18423319214E+04  0.18013410968E+04 0.  0.
        5    1    3    3  502    0  0.72482906583E+03  0.16796230934E+03  0.32585565282E+03  0.81227612823E+03  0.46999998093E+01 0.  1.
       -5    1    3    3    0  502 -0.72482906583E+03 -0.16796230934E+03 -0.71232319566E+03  0.10300557932E+04  0.46999998093E+01 0. -1.
</event>
<event>
 5   0  0.3993393E-05  0.1802101E+04  0.7818609E-02  0.8705183E-01
       -2   -1    0    0    0  501  0.00000000000E+00  0.00000000000E+00  0.49114768019E+03  0.49114768020E+03  0.25500000920E-02 0.  1.
        2   -1    0    0  501    0  0.00000000000E+00  0.00000000000E+00 -0.16530505707E+04  0.16530505707E+04  0.25500000920E-02 0. -1.
    10030    2    1    2    0    0  0.00000000000E+00  0.00000000000E+00 -0.11619028905E+04  0.21441982509E+04  0.18021009439E+04 0.  0.
        5    1    3    3  502    0 -0.31401845272E+03  0.58360491462E+02 -0.15834206776E+04  0.16153193702E+04  0.46999998093E+01 0. -1.
       -5    1    3    3    0  502  0.31401845272E+03 -0.58360491462E+02  0.42151778707E+03  0.52887888068E+03  0.46999998093E+01 0.  1.
</event>
<event>
 5   0  0.3909859E-05  0.1800929E+04  0.7818609E-02  0.8705806E-01
       -2   -1    0    0    0  501  0.00000000000E+00  0.00000000000E+00  0.12528526318E+04  0.12528526318E+04  0.25500000920E-02 0. -1.
        2   -1    0    0  501    0  0.00000000000E+00  0.00000000000E+00 -0.64719195909E+03  0.64719195909E+03  0.25500000920E-02 0.  1.
    10030    2    1    2    0    0  0.00000000000E+00  0.00000000000E+00  0.60566067274E+03  0.19000445909E+04  0.18009288151E+04 0.  0.
        4    1    3    3  502    0 -0.64302842336E+03 -0.61392384997E+03  0.45369121186E+03  0.99811090337E+03  0.12699999809E+01 0.  1.
       -4    1    3    3    0  502  0.64302842336E+03  0.61392384997E+03  0.15196946088E+03  0.90193368755E+03  0.12699999809E+01 0. -1.
</event>
<event>
 5   0  0.3984648E-05  0.1801257E+04  0.7818609E-02  0.8705631E-01
        2   -1    0    0  501    0  0.00000000000E+00  0.00000000000E+00  0.15032904535E+04  0.15032904535E+04  0.25500000920E-02 0.  1.
       -2   -1    0    0    0  501  0.00000000000E+00  0.00000000000E+00 -0.53957086414E+03  0.53957086415E+03  0.25500000920E-02 0. -1.
    10030    2    1    2    0    0  0.00000000000E+00  0.00000000000E+00  0.96371958934E+03  0.20428613176E+04  0.18012570378E+04 0.  0.
        1    1    3    3  502    0 -0.89171168782E+03 -0.12187811802E+03  0.51994564687E+03  0.10393976552E+04  0.50400001928E-02 0.  1.
       -1    1    3    3    0  502  0.89171168782E+03  0.12187811802E+03  0.44377394247E+03  0.10034636625E+04  0.50400001928E-02 0. -1.
</event>
<event>
 5   0  0.3984648E-05  0.1798690E+04  0.7818609E-02  0.8706997E-01
        2   -1    0    0  501    0  0.00000000000E+00  0.00000000000E+00  0.80266056669E+03  0.80266056669E+03  0.25500000920E-02 0. -1.
       -2   -1    0    0    0  501  0.00000000000E+00  0.00000000000E+00 -0.10076751741E+04  0.10076751741E+04  0.25500000920E-02 0.  1.
    10030    2    1    2    0    0  0.00000000000E+00  0.00000000000E+00 -0.20501460739E+03  0.18103357408E+04  0.17986896634E+04 0.  0.
        1    1    3    3  502    0 -0.45474010593E+03  0.26608598180E+03  0.63106768451E+03  0.82209289992E+03  0.50400001928E-02 0. -1.
       -1    1    3    3    0  502  0.45474010593E+03 -0.26608598180E+03 -0.83608229189E+03  0.98824284085E+03  0.50400001928E-02 0.  1.
</event>
<event>
 5   0  0.2001811E-05  0.1803361E+04  0.7818609E-02  0.8704514E-01
        1   -1    0    0  501    0  0.00000000000E+00  0.00000000000E+00  0.11793212280E+04  0.11793212281E+04  0.50400001928E-02 0.  1.
       -1   -1    0    0    0  501  0.00000000000E+00  0.00000000000E+00 -0.68940274005E+03  0.68940274006E+03  0.50400001928E-02 0. -1.
    10030    2    1    2    0    0  0.00000000000E+00  0.00000000000E+00  0.48991848800E+03  0.18687239681E+04  0.18033605142E+04 0.  0.
        2    1    3    3  502    0  0.64665092078E+01  0.74146292574E+03 -0.28668431552E+03  0.79498237890E+03  0.25500000920E-02 0. -1.
       -2    1    3    3    0  502 -0.64665092078E+01 -0.74146292574E+03  0.77660280352E+03  0.10737415892E+04  0.25500000920E-02 0.  1.
</event>
<event>
 5   0  0.3984648E-05  0.1804710E+04  0.7818609E-02  0.8703799E-01
       -2   -1    0    0    0  501  0.00000000000E+00  0.00000000000E+00  0.65445996482E+03  0.65445996482E+03  0.25500000920E-02 0.  1.
        2   -1    0    0  501    0  0.00000000000E+00  0.00000000000E+00 -0.12441478133E+04  0.12441478133E+04  0.25500000920E-02 0. -1.
    10030    2    1    2    0    0  0.00000000000E+00  0.00000000000E+00 -0.58968784848E+03  0.18986077781E+04  0.18047104301E+04 0.  0.
        1    1    3    3  502    0 -0.64740049624E+03 -0.39506362204E+03 -0.80920142338E+03  0.11090579839E+04  0.50400001928E-02 0. -1.
       -1    1    3    3    0  502  0.64740049624E+03  0.39506362204E+03  0.21951357490E+03  0.78954979423E+03  0.50400001928E-02 0.  1.
</event>
<event>
 5   0  0.2054876E-05  0.1797196E+04  0.7818609E-02  0.8707792E-01
       -1   -1    0    0    0  501  0.00000000000E+00  0.00000000000E+00  0.52966054966E+03  0.52966054968E+03  0.50400001928E-02 0. -1.
        1   -1    0    0  501    0  0.00000000000E+00  0.00000000000E+00 -0.15245202646E+04  0.15245202646E+04  0.50400001928E-02 0.  1.
    10030    2    1    2    0    0  0.00000000000E+00  0.00000000000E+00 -0.99485971493E+03  0.20541808143E+04  0.17971958617E+04 0.  0.
        5    1    3    3  502    0  0.82335101316E+03  0.19818678764E+03 -0.84084386478E+03  0.11934091455E+04  0.46999998093E+01 0.  1.
       -5    1    3    3    0  502 -0.82335101316E+03 -0.19818678764E+03 -0.15401585016E+03  0.86077166877E+03  0.46999998093E+01 0. -1.
</event>
<event>
 5   0  0.1960300E-05  0.1802007E+04  0.7818609E-02  0.8705233E-01
        1   -1    0    0  501    0  0.00000000000E+00  0.00000000000E+00  0.18823520942E+04  0.18823520942E+04  0.50400001928E-02 0. -1.
       -1   -1    0    0    0  501  0.00000000000E+00  0.00000000000E+00 -0.43127284631E+03  0.43127284634E+03  0.50400001928E-02 0.  1.
    10030    2    1    2    0    0  0.00000000000E+00  0.00000000000E+00  0.14510792479E+04  0.23136249405E+04  0.18020070427E+04 0.  0.
        3    1    3    3  502    0 -0.46998718877E+03 -0.76334106574E+03  0.60906508979E+03  0.10837609672E+04  0.10100000352E+00 0.  1.
       -3    1    3    3    0  502  0.46998718877E+03  0.76334106574E+03  0.84201415808E+03  0.12298639733E+04  0.10100000352E+00 0. -1.
</event>
<event>
 5   0  0.3909859E-05  0.1802714E+04  0.7818609E-02  0.8704857E-01
       -2   -1    0    0    0  501  0.00000000000E+00  0.00000000000E+00  0.77322286784E+03  0.77322286784E+03  0.25500000920E-02 0. -1.
        2   -1    0    0  501    0  0.00000000000E+00  0.00000000000E+00 -0.10507248985E+04  0.10507248986E+04  0.25500000920E-02 0.  1.
    10030    2    1    2    0    0  0.00000000000E+00  0.00000000000E+00 -0.27750203071E+03  0.18239477664E+04  0.18027140865E+04 0.  0.
        4    1    3    3  502    0  0.83534427640E+02 -0.85870819564E+03  0.12525371836E+03  0.87180724517E+03  0.12699999809E+01 0. -1.
       -4    1    3    3    0  502 -0.83534427640E+02  0.85870819564E+03 -0.40275574907E+03  0.95214052123E+03  0.12699999809E+01 0.  1.
</event>
<event>
 5   0  0.1906857E-05  0.1800877E+04  0.7818609E-02  0.8705833E-01
       -1   -1    0    0    0  501  0.00000000000E+00  0.00000000000E+00  0.59526084706E+03  0.59526084708E+03  0.50400001928E-02 0.  1.
        1   -1    0    0  501    0  0.00000000000E+00  0.00000000000E+00 -0.13620736328E+04  0.13620736328E+04  0.50400001928E-02 0. -1.
    10030    2    1    2    0    0  0.00000000000E+00  0.00000000000E+00 -0.76681278571E+03  0.19573344799E+04  0.18008765693E+04 0.  0.
        4    1    3    3  502    0  0.52971045677E+03  0.14595796567E+03  0.39193560965E+03  0.67491631390E+03  0.12699999809E+01 0.  1.
       -4    1    3    3    0  502 -0.52971045677E+03 -0.14595796567E+03 -0.11587483954E+04  0.12824181660E+04  0.12699999809E+01 0. -1.
</event>
<event>
 5   0  0.3983176E-05  0.1798749E+04  0.7818609E-02  0.8706965E-01
       -2   -1    0    0    0  501  0.00000000000E+00  0.00000000000E+00  0.10776644439E+04  0.10776644439E+04  0.25500000920E-02 0. -1.
        2   -1    0    0  501    0  0.00000000000E+00  0.00000000000E+00 -0.75058115275E+03  0.75058115276E+03  0.25500000920E-02 0.  1.
    10030    2    1    2    0    0  0.00000000000E+00  0.00000000000E+00  0.32708329114E+03  0.18282455967E+04  0.17987491438E+04 0.  0.
        3    1    3    3  502    0  0.71360896937E+03  0.10692971540E+03  0.70919031181E+03  0.10117423752E+04  0.10100000352E+00 0. -1.
       -3    1    3    3    0  502 -0.71360896937E+03 -0.10692971540E+03 -0.38210702067E+03  0.81650322146E+03  0.10100000352E+00 0.  1.
</event>
<event>
 5   0  0.3983176E-05  0.1801828E+04  0.7818609E-02  0.8705328E-01
        2   -1    0    0  501    0  0.00000000000E+00  0.00000000000E+00  0.10427069157E+04  0.10427069157E+04  0.25500000920E-02 0. -1.
       -2   -1    0    0    0  501  0.00000000000E+00  0.00000000000E+00 -0.77840284405E+03  0.77840284406E+03  0.25500000920E-02 0.  1.
    10030    2    1    2    0    0  0.00000000000E+00  0.00000000000E+00  0.26430407160E+03  0.18211097597E+04  0.18018279925E+04 0.  0.
        3    1    3    3  502    0  0.17962633848E+02 -0.30373898039E+03 -0.72489995392E+03  0.78616790689E+03  0.10100000352E+00 0.  1.
       -3    1    3    3    0  502 -0.17962633848E+02  0.30373898039E+03  0.98920402552E+03  0.10349418528E+04  0.10100000352E+00 0. -1.
</event>
<event>
 5   0  0.3983176E-05  0.1784803E+04  0.7818609E-02  0.8714423E-01
       -2   -1    0    0    0  501  0.00000000000E+00  0.00000000000E+00  0.15131078779E+04  0.15131078780E+04  0.25500000920E-02 0.  1.
        2   -1    0    0  501    0  0.00000000000E+00  0.00000000000E+00 -0.52632081830E+03  0.52632081830E+03  0.25500000920E-02 0. -1.
    10030    2    1    2    0    0  0.00000000000E+00  0.00000000000E+00  0.98678705965E+03  0.20394286963E+04  0.17848027079E+04 0.  0.
        3    1    3    3  502    0 -0.83962214445E+03 -0.26019148180E+03  0.66936077311E+03  0.11048569172E+04  0.10100000352E+00 0. -1.
       -3    1    3    3    0  502  0.83962214445E+03  0.26019148180E+03  0.31742628654E+03  0.93457177908E+03  0.10100000352E+00 0.  1.
</event>
<event>
 5   0  0.2001811E-05  0.1796174E+04  0.7818609E-02  0.8708337E-01
        1   -1    0    0  501    0  0.00000000000E+00  0.00000000000E+00  0.10194515989E+04  0.10194515989E+04  0.50400001928E-02 0. -1.
       -1   -1    0    0    0  501  0.00000000000E+00  0.00000000000E+00 -0.79117097424E+03  0.79117097426E+03  0.50400001928E-02 0.  1.
    10030    2    1    2    0    0  0.00000000000E+00  0.00000000000E+00  0.22828062463E+03  0.18106225731E+04  0.17961742841E+04 0.  0.
        2    1    3    3  502    0  0.81822711568E+03  0.23223914472E+03 -0.17650146252E+03  0.86866760009E+03  0.25500000920E-02 0.  1.
       -2    1    3    3    0  502 -0.81822711568E+03 -0.23223914472E+03  0.40478208715E+03  0.94195497305E+03  0.25500000920E-02 0. -1.
</event>
<event>
 5   0  0.3993393E-05  0.1800618E+04  0.7818609E-02  0.8705971E-01
       -2   -1    0    0    0  501  0.00000000000E+00  0.00000000000E+00  0.48944731276E+03  0.48944731277E+03  0.25500000920E-02 0. -1.
        2   -1    0    0  501    0  0.00000000000E+00  0.00000000000E+00 -0.16560639383E+04  0.16560639383E+04  0.25500000920E-02 0.  1.
    10030    2    1    2    0    0  0.00000000000E+00  0.00000000000E+00 -0.11666166256E+04  0.21455112511E+04  0.18006177211E+04 0.  0.
        5    1    3    3  502    0  0.19454063357E+03 -0.48630875458E+03 -0.14558161092E+04  0.15471796589E+04  0.46999998093E+01 0.  1.
       -5    1    3    3    0  502 -0.19454063357E+03  0.48630875458E+03  0.28919948368E+03  0.59833159222E+03  0.46999998093E+01 0. -1.
</event>
<event>
 5   0  0.3993393E-05  0.1798518E+04  0.7818609E-02  0.8707088E-01
       -2   -1    0    0    0  501  0.00000000000E+00  0.00000000000E+00  0.49614597572E+03  0.49614597572E+03  0.25500000920E-02 0. -1.
        2   -1    0    0  501    0  0.00000000000E+00  0.00000000000E+00 -0.16298965546E+04  0.16298965546E+04  0.25500000920E-02 0.  1.
    10030    2    1    2    0    0  0.00000000000E+00  0.00000000000E+00 -0.11337505788E+04  0.21260425303E+04  0.17985178524E+04 0.  0.
        5    1    3    3  502    0  0.16107357805E+03  0.31768236053E+03 -0.15429399879E+04  0.15835253948E+04  0.46999998093E+01 0.  1.
       -5    1    3    3    0  502 -0.16107357805E+03 -0.31768236053E+03  0.40918940909E+03  0.54251713545E+03  0.46999998093E+01 0. -1.
</event>
<event>
 5   0  0.3909859E-05  0.1801180E+04  0.7818609E-02  0.8705672E-01
        2   -1    0    0  501    0  0.00000000000E+00  0.00000000000E+00  0.97782212288E+03  0.97782212288E+03  0.25500000920E-02 0. -1.
       -2   -1    0    0    0  501  0.00000000000E+00  0.00000000000E+00 -0.82945814751E+03  0.82945814751E+03  0.25500000920E-02 0.  1.
    10030    2    1    2    0    0  0.00000000000E+00  0.00000000000E+00  0.14836397537E+03  0.18072802704E+04  0.18011801982E+04 0.  0.
        4    1    3    3  502    0 -0.80975619524E+03  0.35870640678E+03  0.23809229867E+03  0.91709592605E+03  0.12699999809E+01 0. -1.
       -4    1    3    3    0  502  0.80975619524E+03 -0.35870640678E+03 -0.89728323297E+02  0.89018434434E+03  0.12699999809E+01 0.  1.
</event>
<event>
 5   0  0.3909859E-05  0.1802549E+04  0.7818609E-02  0.8704945E-01
       -2   -1    0    0    0  501  0.00000000000E+00  0.00000000000E+00  0.35966274992E+03  0.35966274993E+03  0.25500000920E-02 0. -1.
        2   -1    0    0  501    0  0.00000000000E+00  0.00000000000E+00 -0.22584932142E+04  0.22584932142E+04  0.25500000920E-02 0.  1.
    10030    2    1    2    0    0  0.00000000000E+00  0.00000000000E+00 -0.18988304642E+04  0.26181559641E+04  0.18025491728E+04 0.  0.
        4    1    3    3  502    0 -0.37081200278E+03  0.12787454356E+03  0.22918566924E+03  0.45429189315E+03  0.12699999809E+01 0. -1.
       -4    1    3    3    0  502  0.37081200278E+03 -0.12787454356E+03 -0.21280161335E+04  0.21638640710E+04  0.12699999809E+01 0.  1.
</event>
<event>
 5   0  0.2001811E-05  0.1798130E+04  0.7818609E-02  0.8707294E-01
       -1   -1    0    0    0  501  0.00000000000E+00  0.00000000000E+00  0.11298999338E+04  0.11298999339E+04  0.50400001928E-02 0. -1.
        1   -1    0    0  501    0  0.00000000000E+00  0.00000000000E+00 -0.71538924947E+03  0.71538924948E+03  0.50400001928E-02 0.  1.
    10030    2    1    2    0    0  0.00000000000E+00  0.00000000000E+00  0.41451068438E+03  0.18452891833E+04  0.17981304354E+04 0.  0.
        2    1    3    3  502    0 -0.45263982861E+03 -0.22772850450E+03 -0.55490369131E+03  0.75143941395E+03  0.25500000920E-02 0.  1.
       -2    1    3    3    0  502  0.45263982861E+03  0.22772850450E+03  0.96941437569E+03  0.10938497694E+04  0.25500000920E-02 0. -1.
</event>
<event>
 5   0  0.3983176E-05  0.1802268E+04  0.7818609E-02  0.8705094E-01
       -2   -1    0    0    0  501  0.00000000000E+00  0.00000000000E+00  0.39796752794E+03  0.39796752795E+03  0.25500000920E-02 0.  1.
        2   -1    0    0  501    0  0.00000000000E+00  0.00000000000E+00 -0.20404753255E+04  0.20404753255E+04  0.25500000920E-02 0. -1.
    10030    2    1    2    0    0  0.00000000000E+00  0.00000000000E+00 -0.16425077975E+04  0.24384428534E+04  0.18022684829E+04 0.  0.
        3    1    3    3  502    0  0.12200718562E+03 -0.70197150917E+03 -0.74787029384E+02  0.71640970331E+03  0.10100000352E+00 0.  1.
       -3    1    3    3    0  502 -0.12200718562E+03  0.70197150917E+03 -0.15677207681E+04  0.17220331501E+04  0.10100000352E+00 0. -1.
</event>
<event>
 5   0  0.1906857E-05  0.1810827E+04  0.7818609E-02  0.8700563E-01
       -1   -1    0    0    0  501  0.00000000000E+00  0.00000000000E+00  0.46211779058E+03  0.46211779060E+03  0.50400001928E-02 0.  1.
        1   -1    0    0  501    0  0.00000000000E+00  0.00000000000E+00 -0.17739501251E+04  0.17739501251E+04  0.50400001928E-02 0. -1.
    10030    2    1    2    0    0  0.00000000000E+00  0.00000000000E+00 -0.13118323345E+04  0.22360679157E+04  0.18108273385E+04 0.  0.
        4    1    3    3  502    0  0.73519659633E+03  0.52809914106E+03 -0.63217777458E+03  0.11041073723E+04  0.12699999809E+01 0. -1.
       -4    1    3    3    0  502 -0.73519659633E+03 -0.52809914106E+03 -0.67965455994E+03  0.11319605434E+04  0.12699999809E+01 0.  1.
</event>
<event>
 5   0  0.3984648E-05  0.1798290E+04  0.7818609E-02  0.8707209E-01
       -2   -1    0    0    0  501  0.00000000000E+00  0.00000000000E+00  0.69502751707E+03  0.69502751708E+03  0.25500000920E-02 0.  1.
        2   -1    0    0  501    0  0.00000000000E+00  0.00000000000E+00 -0.11632088703E+04  0.11632088703E+04  0.25500000920E-02 0. -1.
    10030    2    1    2    0    0  0.00000000000E+00  0.00000000000E+00 -0.46818135327E+03  0.18582363874E+04  0.17982904915E+04 0.  0.
        1    1    3    3  502    0  0.24317175876E+03 -0.52320347864E+03  0.47852678451E+03  0.74957472465E+03  0.50400001928E-02 0.  1.
       -1    1    3    3    0  502 -0.24317175876E+03  0.52320347864E+03 -0.94670813778E+03  0.11086616628E+04  0.50400001928E-02 0. -1.
</event>
<event>
 5   0  0.4015729E-05  0.1808952E+04  0.7818609E-02  0.8701553E-01
       -2   -1    0    0    0  501  0.00000000000E+00  0.00000000000E+00  0.54524110479E+03  0.54524110480E+03  0.25500000920E-02 0.  1.
        2   -1    0    0  501    0  0.00000000000E+00  0.00000000000E+00 -0.15003954602E+04  0.15003954602E+04  0.25500000920E-02 0. -1.
    10030    2    1    2    0    0  0.00000000000E+00  0.00000000000E+00 -0.95515435545E+03  0.20456365650E+04  0.18089524907E+04 0.  0.
        2    1    3    3  502    0  0.13193677040E+02 -0.50077477650E+03 -0.13291892243E+04  0.14204553649E+04  0.25500000920E-02 0. -1.
       -2    1    3    3    0  502 -0.13193677040E+02  0.50077477650E+03  0.37403486880E+03  0.62518120011E+03  0.25500000920E-02 0.  1.
</event>
<event>
 5   0  0.1906857E-05  0.1801480E+04  0.7818609E-02  0.8705513E-01
        1   -1    0    0  501    0  0.00000000000E+00  0.00000000000E+00  0.12183665820E+04  0.12183665820E+04  0.50400001928E-02 0.  1.
       -1   -1    0    0    0  501  0.00000000000E+00  0.00000000000E+00 -0.66591806265E+03  0.66591806267E+03  0.50400001928E-02 0. -1.
    10030    2    1    2    0    0  0.00000000000E+00  0.00000000000E+00  0.55244851938E+03  0.18842846447E+04  0.18014797406E+04 0.  0.
        4    1    3    3  502    0  0.66067378317E+03  0.37939172074E+03  0.77883492872E+03  0.10895014386E+04  0.12699999809E+01 0.  1.
       -4    1    3    3    0  502 -0.66067378317E+03 -0.37939172074E+03 -0.22638640934E+03  0.79478320615E+03  0.12699999809E+01 0. -1.
</event>
<event>
 5   0  0.2001811E-05  0.1801579E+04  0.7818609E-02  0.8705460E-01
        1   -1    0    0  501    0  0.00000000000E+00  0.00000000000E+00  0.14001713333E+04  0.14001713333E+04  0.50400001928E-02 0. -1.
       -1   -1    0    0    0  501  0.00000000000E+00  0.00000000000E+00 -0.57951623167E+03  0.57951623170E+03  0.50400001928E-02 0.  1.
    10030    2    1    2    0    0  0.00000000000E+00  0.00000000000E+00  0.82065510165E+03  0.19796875650E+04  0.18015793236E+04 0.  0.
        2    1    3    3  502    0  0.24469297591E+03  0.12551524576E+03 -0.53225886466E+03  0.59910619125E+03  0.25500000920E-02 0.  1.
       -2    1    3    3    0  502 -0.24469297591E+03 -0.12551524576E+03  0.13529139663E+04  0.13805813738E+04  0.25500000920E-02 0. -1.
</event>
<event>
 5   0  0.3909859E-05  0.1801880E+04  0.7818609E-02  0.8705300E-01
        2   -1    0    0  501    0  0.00000000000E+00  0.00000000000E+00  0.10630467721E+04  0.10630467721E+04  0.25500000920E-02 0. -1.
       -2   -1    0    0    0  501  0.00000000000E+00  0.00000000000E+00 -0.76355348260E+03  0.76355348261E+03  0.25500000920E-02 0.  1.
    10030    2    1    2    0    0  0.00000000000E+00  0.00000000000E+00  0.29949328951E+03  0.18266002547E+04  0.18018802014E+04 0.  0.
        4    1    3    3  502    0  0.19813323982E+03  0.69385681717E+03 -0.39709571204E+03  0.82363868345E+03  0.12699999809E+01 0.  1.
       -4    1    3    3    0  502 -0.19813323982E+03 -0.69385681717E+03  0.69658900155E+03  0.10029615713E+04  0.12699999809E+01 0. -1.
</event>
<event>
 5   0  0.3909859E-05  0.1799417E+04  0.7818609E-02  0.8706610E-01
       -2   -1    0    0    0  501  0.00000000000E+00  0.00000000000E+00  0.58747127651E+03  0.58747127652E+03  0.25500000920E-02 0.  1.
        2   -1    0    0  501    0  0.00000000000E+00  0.00000000000E+00 -0.13778974530E+04  0.13778974530E+04  0.25500000920E-02 0. -1.
    10030    2    1    2    0    0  0.00000000000E+00  0.00000000000E+00 -0.79042617647E+03  0.19653687295E+04  0.17994167673E+04 0.  0.
        4    1    3    3  502    0  0.57252991718E+03 -0.59894424709E+03 -0.12234488965E+02  0.82865916564E+03  0.12699999809E+01 0.  1.
       -4    1    3    3    0  502 -0.57252991718E+03  0.59894424709E+03 -0.77819168750E+03  0.11367095639E+04  0.12699999809E+01 0. -1.
</event>
<event>
 5   0  0.1906857E-05  0.1792039E+04  0.7818609E-02  0.8710545E-01
        1   -1    0    0  501    0  0.00000000000E+00  0.00000000000E+00  0.32124825713E+03  0.32124825717E+03  0.50400001928E-02 0. -1.
       -1   -1    0    0    0  501  0.00000000000E+00  0.00000000000E+00 -0.24991594262E+04  0.24991594262E+04  0.50400001928E-02 0.  1.
    10030    2    1    2    0    0  0.00000000000E+00  0.00000000000E+00 -0.21779111691E+04  0.28204076834E+04  0.17920386268E+04 0.  0.
        4    1    3    3  502    0 -0.47439775377E+03 -0.44924381940E+03 -0.20539936518E+04  0.21554036217E+04  0.12699999809E+01 0.  1.
       -4    1    3    3    0  502  0.47439775377E+03  0.44924381940E+03 -0.12391751731E+03  0.66500406168E+03  0.12699999809E+01 0. -1.
</event>
<event>
 5   0  0.2001811E-05  0.1822819E+04  0.7818609E-02  0.8694258E-01
       -1   -1    0    0    0  501  0.00000000000E+00  0.00000000000E+00  0.48767048258E+03  0.48767048261E+03  0.50400001928E-02 0.  1.
        1   -1    0    0  501    0  0.00000000000E+00  0.00000000000E+00 -0.17033370975E+04  0.17033370975E+04  0.50400001928E-02 0. -1.
    10030    2    1    2    0    0  0.00000000000E+00  0.00000000000E+00 -0.12156666149E+04  0.21910075801E+04  0.18228189426E+04 0.  0.
        2    1    3    3  502    0 -0.43886305405E+03  0.55676811826E+03 -0.12963070531E+04  0.14774990672E+04  0.25500000920E-02 0. -1.
       -2    1    3    3    0  502  0.43886305405E+03 -0.55676811826E+03  0.80640438161E+02  0.71350851291E+03  0.25500000920E-02 0.  1.
</event>
<event>
 5   0  0.3993393E-05  0.1804385E+04  0.7818609E-02  0.8703971E-01
        2   -1    0    0  501    0  0.00000000000E+00  0.00000000000E+00  0.15078441487E+04  0.15078441487E+04  0.25500000920E-02 0. -1.
       -2   -1    0    0    0  501  0.00000000000E+00  0.00000000000E+00 -0.53981118503E+03  0.53981118504E+03  0.25500000920E-02 0.  1.
    10030    2    1    2    0    0  0.00000000000E+00  0.00000000000E+00  0.96803296363E+03  0.20476553337E+04  0.18043848112E+04 0.  0.
        5    1    3    3  502    0 -0.15510953939E+03 -0.65735209378E+03  0.11627863497E+04  0.13447174162E+04  0.46999998093E+01 0.  1.
       -5    1    3    3    0  502  0.15510953939E+03  0.65735209378E+03 -0.19475338610E+03  0.70293791746E+03  0.46999998093E+01 0. -1.
</event>
<event>
 5   0  0.3993393E-05  0.1798483E+04  0.7818609E-02  0.8707107E-01
       -2   -1    0    0    0  501  0.00000000000E+00  0.00000000000E+00  0.52894477759E+03  0.52894477760E+03  0.25500000920E-02 0.  1.
        2   -1    0    0  501    0  0.00000000000E+00  0.00000000000E+00 -0.15287698901E+04  0.15287698901E+04  0.25500000920E-02 0. -1.
    10030    2    1    2    0    0  0.00000000000E+00  0.00000000000E+00 -0.99982511255E+03  0.20577146677E+04  0.17984825265E+04 0.  0.
        5    1    3    3  502    0 -0.42158255354E+03 -0.14452895564E+03 -0.13935083254E+04  0.14630475083E+04  0.46999998093E+01 0. -1.
       -5    1    3    3    0  502  0.42158255354E+03  0.14452895564E+03  0.39368321286E+03  0.59466715947E+03  0.46999998093E+01 0.  1.
</event>
<event>
 5   0  0.2054876E-05  0.1797977E+04  0.7818609E-02  0.8707376E-01
        1   -1    0    0  501    0  0.00000000000E+00  0.00000000000E+00  0.17447098843E+04  0.17447098843E+04  0.50400001928E-02 0. -1.
       -1   -1    0    0    0  501  0.00000000000E+00  0.00000000000E+00 -0.46321778664E+03  0.46321778667E+03  0.50400001928E-02 0.  1.
    10030    2    1    2    0    0  0.00000000000E+00  0.00000000000E+00  0.12814920976E+04  0.22079276710E+04  0.17979773647E+04 0.  0.
        5    1    3    3  502    0 -0.79988630418E+03 -0.38349688507E+03  0.46164814711E+03  0.10000145310E+04  0.46999998093E+01 0.  1.
       -5    1    3    3    0  502  0.79988630418E+03  0.38349688507E+03  0.81984395052E+03  0.12079131400E+04  0.46999998093E+01 0. -1.
</event>
<event>
 5   0  0.4015729E-05  0.1800081E+04  0.7818609E-02  0.8706257E-01
        2   -1    0    0  501    0  0.00000000000E+00  0.00000000000E+00  0.85461607399E+03  0.85461607399E+03  0.25500000920E-02 0. -1.
       -2   -1    0    0    0  501  0.00000000000E+00  0.00000000000E+00 -0.94787905912E+03  0.94787905913E+03  0.25500000920E-02 0.  1.
    10030    2    1    2    0    0  0.00000000000E+00  0.00000000000E+00 -0.93262985134E+02  0.18024951331E+04  0.18000807539E+04 0.  0.
        2    1    3    3  502    0 -0.69124235651E+03 -0.33921510986E+02  0.52955841625E+03  0.87143489749E+03  0.25500000920E-02 0. -1.
       -2    1    3    3    0  502  0.69124235651E+03  0.33921510986E+02 -0.62282140138E+03  0.93106023563E+03  0.25500000920E-02 0.  1.
</event>
<event>
 5   0  0.1906857E-05  0.1795021E+04  0.7818609E-02  0.8708952E-01
        1   -1    0    0  501    0  0.00000000000E+00  0.00000000000E+00  0.80974619723E+03  0.80974619725E+03  0.50400001928E-02 0.  1.
       -1   -1    0    0    0  501  0.00000000000E+00  0.00000000000E+00 -0.99478712104E+03  0.99478712105E+03  0.50400001928E-02 0. -1.
    10030    2    1    2    0    0  0.00000000000E+00  0.00000000000E+00 -0.18504092380E+03  0.18045333183E+04  0.17950209897E+04 0.  0.
        4    1    3    3  502    0  0.10211074684E+03 -0.12942706805E+03  0.79439368994E+03  0.81132047804E+03  0.12699999809E+01 0.  1.
       -4    1    3    3    0  502 -0.10211074684E+03  0.12942706805E+03 -0.97943461374E+03  0.99321284026E+03  0.12699999809E+01 0. -1.
</event>
<event>
 5   0  0.3983176E-05  0.1791627E+04  0.7818609E-02  0.8710765E-01
       -2   -1    0    0    0  501  0.00000000000E+00  0.00000000000E+00  0.49077432490E+03  0.49077432490E+03  0.25500000920E-02 0.  1.
        2   -1    0    0  501    0  0.00000000000E+00  0.00000000000E+00 -0.16351340255E+04  0.16351340255E+04  0.25500000920E-02 0. -1.
    10030    2    1    2    0    0  0.00000000000E+00  0.00000000000E+00 -0.11443597006E+04  0.21259083504E+04  0.17916269673E+04 0.  0.
        3    1    3    3  502    0 -0.13624722959E+03  0.75713187952E+03 -0.27554207945E+02  0.76978648672E+03  0.10100000352E+00 0.  1.
       -3    1    3    3    0  502  0.13624722959E+03 -0.75713187952E+03 -0.11168054927E+04  0.13561218637E+04  0.10100000352E+00 0. -1.
</event>
<event>
 5   0  0.1446750E-05  0.1802120E+04  0.7818609E-02  0.8705173E-01
       -4   -1    0    0    0  501  0.00000000000E+00  0.00000000000E+00  0.10652618682E+04  0.10652626252E+04  0.12699999809E+01 0. -1.
        4   -1    0    0  501    0  0.00000000000E+00  0.00000000000E+00 -0.76216689463E+03  0.76216795273E+03  0.12699999809E+01 0.  1.
    10030    2    1    2    0    0  0.00000000000E+00  0.00000000000E+00  0.30309497354E+03  0.18274305779E+04  0.18021198501E+04 0.  0.
        4    1    3    3  502    0  0.39860268118E+03 -0.42854753333E+03  0.84627582666E+03  0.10289419194E+04  0.12699999809E+01 0. -1.
       -4    1    3    3    0  502 -0.39860268118E+03  0.42854753333E+03 -0.54318085312E+03  0.79848865857E+03  0.12699999809E+01 0.  1.
</event>
<event>
 5   0  0.4015729E-05  0.1799020E+04  0.7818609E-02  0.8706821E-01
       -2   -1    0    0    0  501  0.00000000000E+00  0.00000000000E+00  0.46733225172E+03  0.46733225172E+03  0.25500000920E-02 0. -1.
        2   -1    0    0  501    0  0.00000000000E+00  0.00000000000E+00 -0.17313561422E+04  0.17313561422E+04  0.25500000920E-02 0.  1.
    10030    2    1    2    0    0  0.00000000000E+00  0.00000000000E+00 -0.12640238905E+04  0.21986883939E+04  0.17990203606E+04 0.  0.
        2    1    3    3  502    0  0.96668634456E+02 -0.39607729076E+02 -0.17239168541E+04  0.17270793025E+04  0.25500000920E-02 0.  1.
       -2    1    3    3    0  502 -0.96668634456E+02  0.39607729076E+02  0.45989296366E+03  0.47160909143E+03  0.25500000920E-02 0. -1.
</event>
<event>
 5   0  0.1960300E-05  0.1798111E+04  0.7818609E-02  0.8707304E-01
        1   -1    0    0  501    0  0.00000000000E+00  0.00000000000E+00  0.11680353972E+04  0.11680353972E+04  0.50400001928E-02 0. -1.
       -1   -1    0    0    0  501  0.00000000000E+00  0.00000000000E+00 -0.69201768781E+03  0.69201768783E+03  0.50400001928E-02 0.  1.
    10030    2    1    2    0    0  0.00000000000E+00  0.00000000000E+00  0.47601770939E+03  0.18600530850E+04  0.17981114035E+04 0.  0.
        3    1    3    3  502    0  0.59212807697E+03  0.15893767604E+03  0.91825139720E+03  0.11041116262E+04  0.10100000352E+00 0. -1.
       -3    1    3    3    0  502 -0.59212807697E+03 -0.15893767604E+03 -0.44223368781E+03  0.75594145887E+03  0.10100000352E+00 0.  1.
</event>
<event>
 5   0  0.4015729E-05  0.1804908E+04  0.7818609E-02  0.8703694E-01
       -2   -1    0    0    0  501  0.00000000000E+00  0.00000000000E+00  0.87277886627E+03  0.87277886627E+03  0.25500000920E-02 0.  1.
        2   -1    0    0  501    0  0.00000000000E+00  0.00000000000E+00 -0.93313828448E+03  0.93313828448E+03  0.25500000920E-02 0. -1.
    10030    2    1    2    0    0  0.00000000000E+00  0.00000000000E+00 -0.60359418208E+02  0.18059171508E+04  0.18049081683E+04 0.  0.
        2    1    3    3  502    0  0.61332247842E+03  0.18597395329E+03 -0.66588722803E+03  0.92420591553E+03  0.25500000920E-02 0. -1.
       -2    1    3    3    0  502 -0.61332247842E+03 -0.18597395329E+03  0.60552780982E+03  0.88171123522E+03  0.25500000920E-02 0.  1.
</event>
<event>
 5   0  0.2054876E-05  0.1807017E+04  0.7818609E-02  0.8702577E-01
        1   -1    0    0  501    0  0.00000000000E+00  0.00000000000E+00  0.94107911612E+03  0.94107911614E+03  0.50400001928E-02 0.  1.
       -1   -1    0    0    0  501  0.00000000000E+00  0.00000000000E+00 -0.86743762119E+03  0.86743762121E+03  0.50400001928E-02 0. -1.
    10030    2    1    2    0    0  0.00000000000E+00  0.00000000000E+00  0.73641494931E+02  0.18085167373E+04  0.18070168011E+04 0.  0.
        5    1    3    3  502    0 -0.14152371106E+03 -0.36043900113E+03  0.85380716428E+03  0.93752546531E+03  0.46999998093E+01 0.  1.
       -5    1    3    3    0  502  0.14152371106E+03  0.36043900113E+03 -0.78016566935E+03  0.87099127203E+03  0.46999998093E+01 0. -1.
</event>
<event>
 5   0  0.1906857E-05  0.1795966E+04  0.7818609E-02  0.8708448E-01
       -1   -1    0    0    0  501  0.00000000000E+00  0.00000000000E+00  0.35784328255E+03  0.35784328258E+03  0.50400001928E-02 0. -1.
        1   -1    0    0  501    0  0.00000000000E+00  0.00000000000E+00 -0.22534252337E+04  0.22534252337E+04  0.50400001928E-02 0.  1.
    10030    2    1    2    0    0  0.00000000000E+00  0.00000000000E+00 -0.18955819512E+04  0.26112685163E+04  0.17959655706E+04 0.  0.
        4    1    3    3  502    0  0.40706170677E+03 -0.30423727467E+03  0.12864486187E+03  0.52422386993E+03  0.12699999809E+01 0. -1.
       -4    1    3    3    0  502 -0.40706170677E+03  0.30423727467E+03 -0.20242268131E+04  0.20870446464E+04  0.12699999809E+01 0.  1.
</event>
<event>
 5   0  0.3983176E-05  0.1790933E+04  0.7818609E-02  0.8711136E-01
       -2   -1    0    0    0  501  0.00000000000E+00  0.00000000000E+00  0.13864846081E+04  0.13864846082E+04  0.25500000920E-02 0. -1.
        2   -1    0    0  501    0  0.00000000000E+00  0.00000000000E+00 -0.57834046165E+03  0.57834046166E+03  0.25500000920E-02 0.  1.
    10030    2    1    2    0    0  0.00000000000E+00  0.00000000000E+00  0.80814414649E+03  0.19648250698E+04  0.17909328836E+04 0.  0.
        3    1    3    3  502    0 -0.44980042842E+03 -0.66294689140E+03 -0.34822678178E+02  0.80189253354E+03  0.10100000352E+00 0.  1.
       -3    1    3    3    0  502  0.44980042842E+03  0.66294689140E+03  0.84296682467E+03  0.11629325363E+04  0.10100000352E+00 0. -1.
</event>
<event>
 5   0  0.1960300E-05  0.1800167E+04  0.7818609E-02  0.8706211E-01
       -1   -1    0    0    0  501  0.00000000000E+00  0.00000000000E+00  0.33197358097E+03  0.33197358101E+03  0.50400001928E-02 0.  1.
        1   -1    0    0  501    0  0.00000000000E+00  0.00000000000E+00 -0.24404056222E+04  0.24404056222E+04  0.50400001928E-02 0. -1.
    10030    2    1    2    0    0  0.00000000000E+00  0.00000000000E+00 -0.21084320413E+04  0.27723792032E+04  0.18001668739E+04 0.  0.
        3    1    3    3  502    0 -0.20714007471E+03 -0.50111890172E+03  0.52194969899E+02  0.54474901496E+03  0.10100000352E+00 0.  1.
       -3    1    3    3    0  502  0.20714007471E+03  0.50111890172E+03 -0.21606270112E+04  0.22276301883E+04  0.10100000352E+00 0. -1.
</event>
<event>
 5   0  0.2001811E-05  0.1800365E+04  0.7818609E-02  0.8706105E-01
        1   -1    0    0  501    0  0.00000000000E+00  0.00000000000E+00  0.35268023457E+03  0.35268023460E+03  0.50400001928E-02 0.  1.
       -1   -1    0    0    0  501  0.00000000000E+00  0.00000000000E+00 -0.22976296814E+04  0.22976296814E+04  0.50400001928E-02 0. -1.
    10030    2    1    2    0    0  0.00000000000E+00  0.00000000000E+00 -0.19449494469E+04  0.26503099160E+04  0.18003650464E+04 0.  0.
        2    1    3    3  502    0  0.31085020273E+03 -0.61595610884E+02 -0.22128032394E+04  0.22353791724E+04  0.25500000920E-02 0. -1.
       -2    1    3    3    0  502 -0.31085020273E+03  0.61595610884E+02  0.26785379258E+03  0.41493074365E+03  0.25500000920E-02 0.  1.
</event>
<event>
 5   0  0.2001811E-05  0.1805861E+04  0.7818609E-02  0.8703189E-01
        1   -1    0    0  501    0  0.00000000000E+00  0.00000000000E+00  0.96645761775E+03  0.96645761777E+03  0.50400001928E-02 0. -1.
       -1   -1    0    0    0  501  0.00000000000E+00  0.00000000000E+00 -0.84357872263E+03  0.84357872264E+03  0.50400001928E-02 0.  1.
    10030    2    1    2    0    0  0.00000000000E+00  0.00000000000E+00  0.12287889513E+03  0.18100363404E+04  0.18058605513E+04 0.  0.
        2    1    3    3  502    0  0.72537479589E+03  0.36986221195E+03  0.45261928579E+03  0.93157440294E+03  0.25500000920E-02 0. -1.
       -2    1    3    3    0  502 -0.72537479589E+03 -0.36986221195E+03 -0.32974039066E+03  0.87846193747E+03  0.25500000920E-02 0.  1.
</event>
<event>
 5   0  0.3909859E-05  0.1798279E+04  0.7818609E-02  0.8707215E-01
       -2   -1    0    0    0  501  0.00000000000E+00  0.00000000000E+00  0.71009228962E+03  0.71009228962E+03  0.25500000920E-02 0. -1.
        2   -1    0    0  501    0  0.00000000000E+00  0.00000000000E+00 -0.11385169127E+04  0.11385169127E+04  0.25500000920E-02 0.  1.
    10030    2    1    2    0    0  0.00000000000E+00  0.00000000000E+00 -0.42842462311E+03  0.18486092024E+04  0.17982792679E+04 0.  0.
        4    1    3    3  502    0 -0.51601941087E+03 -0.73387066859E+03 -0.27596245318E+03  0.93861551185E+03  0.12699999809E+01 0.  1.
       -4    1    3    3    0  502  0.51601941087E+03  0.73387066859E+03 -0.15246216994E+03  0.90999369051E+03  0.12699999809E+01 0. -1.
</event>
<event>
 5   0  0.1906857E-05  0.1799513E+04  0.7818609E-02  0.8706558E-01
        1   -1    0    0  501    0  0.00000000000E+00  0.00000000000E+00  0.12420611505E+04  0.12420611505E+04  0.50400001928E-02 0. -1.
       -1   -1    0    0    0  501  0.00000000000E+00  0.00000000000E+00 -0.65178911216E+03  0.65178911218E+03  0.50400001928E-02 0.  1.
    10030    2    1    2    0    0  0.00000000000E+00  0.00000000000E+00  0.59027203832E+03  0.18938502627E+04  0.17995131948E+04 0.  0.
        4    1    3    3  502    0 -0.73037942462E+03  0.32792554077E+03 -0.13696183412E+03  0.81224960517E+03  0.12699999809E+01 0.  1.
       -4    1    3    3    0  502  0.73037942462E+03 -0.32792554077E+03  0.72723387244E+03  0.10816006575E+04  0.12699999809E+01 0. -1.
</event>
<event>
 5   0  0.2038338E-05  0.1799660E+04  0.7818609E-02  0.8706480E-01
        1   -1    0    0  501    0  0.00000000000E+00  0.00000000000E+00  0.10317175219E+04  0.10317175219E+04  0.50400001928E-02 0.  1.
       -1   -1    0    0    0  501  0.00000000000E+00  0.00000000000E+00 -0.78480196691E+03  0.78480196693E+03  0.50400001928E-02 0. -1.
    10030    2    1    2    0    0  0.00000000000E+00  0.00000000000E+00  0.24691555495E+03  0.18165194888E+04  0.17996599017E+04 0.  0.
        1    1    3    3  502    0 -0.48895726064E+03  0.45624536053E+03  0.73114011590E+03  0.99086068689E+03  0.50400001928E-02 0.  1.
       -1    1    3    3    0  502  0.48895726064E+03 -0.45624536053E+03 -0.48422456095E+03  0.82565880191E+03  0.50400001928E-02 0. -1.
</event>
<event>
 5   0  0.3993393E-05  0.1800293E+04  0.7818609E-02  0.8706144E-01
       -2   -1    0    0    0  501  0.00000000000E+00  0.00000000000E+00  0.49044514088E+03  0.49044514089E+03  0.25500000920E-02 0. -1.
        2   -1    0    0  501    0  0.00000000000E+00  0.00000000000E+00 -0.16520991337E+04  0.16520991337E+04  0.25500000920E-02 0.  1.
    10030    2    1    2    0    0  0.00000000000E+00  0.00000000000E+00 -0.11616539928E+04  0.21425442746E+04  0.18002933010E+04 0.  0.
        5    1    3    3  502    0  0.78098321313E+03 -0.42310768681E+03 -0.40718936336E+03  0.97712852863E+03  0.46999998093E+01 0.  1.
       -5    1    3    3    0  502 -0.78098321313E+03  0.42310768681E+03 -0.75446462945E+03  0.11654157460E+04  0.46999998093E+01 0. -1.
</event>
<event>
 5   0  0.3984648E-05  0.1811138E+04  0.7818609E-02  0.8700399E-01
       -2   -1    0    0    0  501  0.00000000000E+00  0.00000000000E+00  0.33621732340E+03  0.33621732341E+03  0.25500000920E-02 0.  1.
        2   -1    0    0  501    0  0.00000000000E+00  0.00000000000E+00 -0.24390631095E+04  0.24390631095E+04  0.25500000920E-02 0. -1.
    10030    2    1    2    0    0  0.00000000000E+00  0.00000000000E+00 -0.21028457861E+04  0.27752804329E+04  0.18111380624E+04 0.  0.
        1    1    3    3  502    0  0.56074529420E+03  0.22897977266E+03 -0.20829832318E+04  0.21692593587E+04  0.50400001928E-02 0. -1.
       -1    1    3    3    0  502 -0.56074529420E+03 -0.22897977266E+03 -0.19862554231E+02  0.60602107417E+03  0.50400001928E-02 0.  1.
</event>
<event>
 5   0  0.3984648E-05  0.1801269E+04  0.7818609E-02  0.8705625E-01
       -2   -1    0    0    0  501  0.00000000000E+00  0.00000000000E+00  0.83702064538E+03  0.83702064539E+03  0.25500000920E-02 0.  1.
        2   -1    0    0  501    0  0.00000000000E+00  0.00000000000E+00 -0.96908257407E+03  0.96908257407E+03  0.25500000920E-02 0. -1.
    10030    2    1    2    0    0  0.00000000000E+00  0.00000000000E+00 -0.13206192869E+03  0.18061032195E+04  0.18012685770E+04 0.  0.
        1    1    3    3  502    0 -0.16323652088E+03  0.13325678066E+03  0.81195536731E+03  0.83885341382E+03  0.50400001928E-02 0.  1.
       -1    1    3    3    0  502  0.16323652088E+03 -0.13325678066E+03 -0.94401729600E+03  0.96724980564E+03  0.50400001928E-02 0. -1.
</event>
<event>
 5   0  0.1960300E-05  0.1797435E+04  0.7818609E-02  0.8707665E-01
        1   -1    0    0  501    0  0.00000000000E+00  0.00000000000E+00  0.14577648113E+04  0.14577648113E+04  0.50400001928E-02 0. -1.
       -1   -1    0    0    0  501  0.00000000000E+00  0.00000000000E+00 -0.55406268566E+03  0.55406268568E+03  0.50400001928E-02 0.  1.
    10030    2    1    2    0    0  0.00000000000E+00  0.00000000000E+00  0.90370212567E+03  0.20118274970E+04  0.17974349351E+04 0.  0.
        3    1    3    3  502    0 -0.87345362638E+03  0.73740580477E+02  0.22986662357E+03  0.90619952851E+03  0.10100000352E+00 0.  1.
       -3    1    3    3    0  502  0.87345362638E+03 -0.73740580477E+02  0.67383550210E+03  0.11056279685E+04  0.10100000352E+00 0. -1.
</event>
<event>
 5   0  0.3993393E-05  0.1801303E+04  0.7818609E-02  0.8705607E-01
        2   -1    0    0  501    0  0.00000000000E+00  0.00000000000E+00  0.12057996117E+04  0.12057996117E+04  0.25500000920E-02 0.  1.
       -2   -1    0    0    0  501  0.00000000000E+00  0.00000000000E+00 -0.67272603160E+03  0.67272603161E+03  0.25500000920E-02 0. -1.
    10030    2    1    2    0    0  0.00000000000E+00  0.00000000000E+00  0.53307358010E+03  0.18785256433E+04  0.18013026261E+04 0.  0.
        5    1    3    3  502    0 -0.56900198614E+03 -0.28593246826E+03 -0.39765807264E+03  0.75078270450E+03  0.46999998093E+01 0. -1.
       -5    1    3    3    0  502  0.56900198614E+03  0.28593246826E+03  0.93073165274E+03  0.11277429388E+04  0.46999998093E+01 0.  1.
</event>
<event>
 5   0  0.4015729E-05  0.1805251E+04  0.7818609E-02  0.8703512E-01
        2   -1    0    0  501    0  0.00000000000E+00  0.00000000000E+00  0.15900578972E+04  0.15900578972E+04  0.25500000920E-02 0.  1.
       -2   -1    0    0    0  501  0.00000000000E+00  0.00000000000E+00 -0.51239207506E+03  0.51239207506E+03  0.25500000920E-02 0. -1.
    10030    2    1    2    0    0  0.00000000000E+00  0.00000000000E+00  0.10776658221E+04  0.21024499723E+04  0.18052513015E+04 0.  0.
        2    1    3    3  502    0  0.46538300707E+03 -0.71738761125E+03  0.20228355670E+03  0.87871779621E+03  0.25500000920E-02 0.  1.
       -2    1    3    3    0  502 -0.46538300707E+03  0.71738761125E+03  0.87538226544E+03  0.12237321761E+04  0.25500000920E-02 0. -1.
</event>
<event>
 5   0  0.2054876E-05  0.1800176E+04  0.7818609E-02  0.8706206E-01
       -1   -1    0    0    0  501  0.00000000000E+00  0.00000000000E+00  0.50561565753E+03  0.50561565756E+03  0.50400001928E-02 0. -1.
        1   -1    0    0  501    0  0.00000000000E+00  0.00000000000E+00 -0.16023209059E+04  0.16023209059E+04  0.50400001928E-02 0.  1.
    10030    2    1    2    0    0  0.00000000000E+00  0.00000000000E+00 -0.10967052484E+04  0.21079365635E+04  0.18001761452E+04 0.  0.
        5    1    3    3  502    0 -0.36103059916E+02  0.50639501691E+03  0.32194586840E+03  0.60117433101E+03  0.46999998093E+01 0.  1.
       -5    1    3    3    0  502  0.36103059916E+02 -0.50639501691E+03 -0.14186511168E+04  0.15067622325E+04  0.46999998093E+01 0. -1.
</event>
<event>
 5   0  0.3984648E-05  0.1831767E+04  0.7818609E-02  0.8689586E-01
       -2   -1    0    0    0  501  0.00000000000E+00  0.00000000000E+00  0.87881790188E+03  0.87881790189E+03  0.25500000920E-02 0. -1.
        2   -1    0    0  501    0  0.00000000000E+00  0.00000000000E+00 -0.95451288519E+03  0.95451288519E+03  0.25500000920E-02 0.  1.
    10030    2    1    2    0    0  0.00000000000E+00  0.00000000000E+00 -0.75694983302E+02  0.18333307871E+04  0.18317674646E+04 0.  0.
        1    1    3    3  502    0  0.99495624078E+02 -0.53258083172E+03 -0.77692290175E+03  0.94718050910E+03  0.50400001928E-02 0.  1.
       -1    1    3    3    0  502 -0.99495624078E+02  0.53258083172E+03  0.70122791845E+03  0.88615027798E+03  0.50400001928E-02 0. -1.
</event>
<event>
 5   0  0.3909859E-05  0.1797860E+04  0.7818609E-02  0.8707438E-01
       -2   -1    0    0    0  501  0.00000000000E+00  0.00000000000E+00  0.35367243818E+03  0.35367243819E+03  0.25500000920E-02 0.  1.
        2   -1    0    0  501    0  0.00000000000E+00  0.00000000000E+00 -0.22848130443E+04  0.22848130443E+04  0.25500000920E-02 0. -1.
    10030    2    1    2    0    0  0.00000000000E+00  0.00000000000E+00 -0.19311406061E+04  0.26384854825E+04  0.17978602840E+04 0.  0.
        4    1    3    3  502    0  0.51960003983E+03  0.68723533882E+03 -0.13420160492E+04  0.15947681028E+04  0.12699999809E+01 0. -1.
       -4    1    3    3    0  502 -0.51960003983E+03 -0.68723533882E+03 -0.58912455690E+03  0.10437173797E+04  0.12699999809E+01 0.  1.
</event>
<event>
 5   0  0.3984648E-05  0.1802316E+04  0.7818609E-02  0.8705069E-01
        2   -1    0    0  501    0  0.00000000000E+00  0.00000000000E+00  0.94224534205E+03  0.94224534205E+03  0.25500000920E-02 0.  1.
       -2   -1    0    0    0  501  0.00000000000E+00  0.00000000000E+00 -0.86186221406E+03  0.86186221406E+03  0.25500000920E-02 0. -1.
    10030    2    1    2    0    0  0.00000000000E+00  0.00000000000E+00  0.80383127988E+02  0.18041075561E+04  0.18023159065E+04 0.  0.
        1    1    3    3  502    0 -0.19994865146E+02 -0.19160626747E+02  0.94181929688E+03  0.94222635935E+03  0.50400001928E-02 0.  1.
       -1    1    3    3    0  502  0.19994865146E+02  0.19160626747E+02 -0.86143616889E+03  0.86188119677E+03  0.50400001928E-02 0. -1.
</event>
<event>
 5   0  0.4015729E-05  0.1805344E+04  0.7818609E-02  0.8703463E-01
        2   -1    0    0  501    0  0.00000000000E+00  0.00000000000E+00  0.16796286624E+04  0.16796286624E+04  0.25500000920E-02 0.  1.
       -2   -1    0    0    0  501  0.00000000000E+00  0.00000000000E+00 -0.48511713014E+03  0.48511713015E+03  0.25500000920E-02 0. -1.
    10030    2    1    2    0    0  0.00000000000E+00  0.00000000000E+00  0.11945115322E+04  0.21647457925E+04  0.18053438857E+04 0.  0.
        2    1    3    3  502    0  0.75080443715E+03 -0.44417600503E+03  0.87542349705E+03  0.12358664675E+04  0.25500000920E-02 0.  1.
       -2    1    3    3    0  502 -0.75080443715E+03  0.44417600503E+03  0.31908803519E+03  0.92887932504E+03  0.25500000920E-02 0. -1.
</event>
<event>
 5   0  0.2001811E-05  0.1795958E+04  0.7818609E-02  0.8708452E-01
       -1   -1    0    0    0  501  0.00000000000E+00  0.00000000000E+00  0.12157200386E+04  0.12157200386E+04  0.50400001928E-02 0. -1.
        1   -1    0    0  501    0  0.00000000000E+00  0.00000000000E+00 -0.66328317777E+03  0.66328317779E+03  0.50400001928E-02 0.  1.
    10030    2    1    2    0    0  0.00000000000E+00  0.00000000000E+00  0.55243686086E+03  0.18790032164E+04  0.17959584077E+04 0.  0.
        2    1    3    3  502    0 -0.48575463335E+02  0.89448085716E+03  0.21078810168E+03  0.92026474630E+03  0.25500000920E-02 0. -1.
       -2    1    3    3    0  502  0.48575463335E+02 -0.89448085716E+03  0.34164875918E+03  0.95873847013E+03  0.25500000920E-02 0.  1.
</event>
<event>
 5   0  0.2001811E-05  0.1802792E+04  0.7818609E-02  0.8704816E-01
       -1   -1    0    0    0  501  0.00000000000E+00  0.00000000000E+00  0.61704697143E+03  0.61704697145E+03  0.50400001928E-02 0.  1.
        1   -1    0    0  501    0  0.00000000000E+00  0.00000000000E+00 -0.13167787762E+04  0.13167787762E+04  0.50400001928E-02 0. -1.
    10030    2    1    2    0    0  0.00000000000E+00  0.00000000000E+00 -0.69973180472E+03  0.19338257476E+04  0.18027915641E+04 0.  0.
        2    1    3    3  502    0 -0.49402033280E+03 -0.44658424003E+03 -0.10014901466E+04  0.12026953423E+04  0.25500000920E-02 0. -1.
       -2    1    3    3    0  502  0.49402033280E+03  0.44658424003E+03  0.30175834188E+03  0.73113040531E+03  0.25500000920E-02 0.  1.
</event>
<event>
 5   0  0.3984648E-05  0.1801405E+04  0.7818609E-02  0.8705553E-01
       -2   -1    0    0    0  501  0.00000000000E+00  0.00000000000E+00  0.99385157689E+03  0.99385157689E+03  0.25500000920E-02 0.  1.
        2   -1    0    0  501    0  0.00000000000E+00  0.00000000000E+00 -0.81628409168E+03  0.81628409168E+03  0.25500000920E-02 0. -1.
    10030    2    1    2    0    0  0.00000000000E+00  0.00000000000E+00  0.17756748521E+03  0.18101356686E+04  0.18014052645E+04 0.  0.
        1    1    3    3  502    0 -0.19198258263E+03  0.22424887766E+03  0.94386045359E+03  0.98894763615E+03  0.50400001928E-02 0.  1.
       -1    1    3    3    0  502  0.19198258263E+03 -0.22424887766E+03 -0.76629296839E+03  0.82118803242E+03  0.50400001928E-02 0. -1.
</event>
<event>
 5   0  0.2038338E-05  0.1800373E+04  0.7818609E-02  0.8706101E-01
        1   -1    0    0  501    0  0.00000000000E+00  0.00000000000E+00  0.26984060801E+04  0.26984060801E+04  0.50400001928E-02 0. -1.
       -1   -1    0    0    0  501  0.00000000000E+00  0.00000000000E+00 -0.30030171446E+03  0.30030171451E+03  0.50400001928E-02 0.  1.
    10030    2    1    2    0    0  0.00000000000E+00  0.00000000000E+00  0.23981043656E+04  0.29987077946E+04  0.18003732638E+04 0.  0.
        1    1    3    3  502    0 -0.37830526743E+03  0.38949230619E+02 -0.15992509263E+03  0.41256266579E+03  0.50400001928E-02 0.  1.
       -1    1    3    3    0  502  0.37830526743E+03 -0.38949230619E+02  0.25580294583E+04  0.25861451288E+04  0.50400001928E-02 0. -1.
</event>
<event>
 5   0  0.2054876E-05  0.1797008E+04  0.7818609E-02  0.8707892E-01
       -1   -1    0    0    0  501  0.00000000000E+00  0.00000000000E+00  0.67401494527E+03  0.67401494529E+03  0.50400001928E-02 0. -1.
        1   -1    0    0  501    0  0.00000000000E+00  0.00000000000E+00 -0.11977616466E+04  0.11977616466E+04  0.50400001928E-02 0.  1.
    10030    2    1    2    0    0  0.00000000000E+00  0.00000000000E+00 -0.52374670136E+03  0.18717765919E+04  0.17970077915E+04 0.  0.
        5    1    3    3  502    0 -0.80666152267E+03  0.38227874239E+03 -0.36833822047E+03  0.96567850949E+03  0.46999998093E+01 0.  1.
       -5    1    3    3    0  502  0.80666152267E+03 -0.38227874239E+03 -0.15540848089E+03  0.90609808243E+03  0.46999998093E+01 0. -1.
</event>
<event>
 5   0  0.3984648E-05  0.1799195E+04  0.7818609E-02  0.8706728E-01
       -2   -1    0    0    0  501  0.00000000000E+00  0.00000000000E+00  0.45959669620E+03  0.45959669621E+03  0.25500000920E-02 0. -1.
        2   -1    0    0  501    0  0.00000000000E+00  0.00000000000E+00 -0.17608387144E+04  0.17608387144E+04  0.25500000920E-02 0.  1.
    10030    2    1    2    0    0  0.00000000000E+00  0.00000000000E+00 -0.13012420182E+04  0.22204354106E+04  0.17991949930E+04 0.  0.
        1    1    3    3  502    0 -0.33855780549E+03  0.15744739469E+03  0.35945352070E+03  0.51828361283E+03  0.50400001928E-02 0. -1.
       -1    1    3    3    0  502  0.33855780549E+03 -0.15744739469E+03 -0.16606955389E+04  0.17021517977E+04  0.50400001928E-02 0.  1.
</event>
<event>
 5   0  0.1906857E-05  0.1796836E+04  0.7818609E-02  0.8707984E-01
       -1   -1    0    0    0  501  0.00000000000E+00  0.00000000000E+00  0.77712699932E+03  0.77712699933E+03  0.50400001928E-02 0.  1.
        1   -1    0    0  501    0  0.00000000000E+00  0.00000000000E+00 -0.10386397727E+04  0.10386397727E+04  0.50400001928E-02 0. -1.
    10030    2    1    2    0    0  0.00000000000E+00  0.00000000000E+00 -0.26151277342E+03  0.18157667721E+04  0.17968361194E+04 0.  0.
        4    1    3    3  502    0  0.73895630636E+03  0.44126036494E+03 -0.39112624817E+03  0.94538272000E+03  0.12699999809E+01 0. -1.
       -4    1    3    3    0  502 -0.73895630636E+03 -0.44126036494E+03  0.12961347475E+03  0.87038405208E+03  0.12699999809E+01 0.  1.
</event>
<event>
 5   0  0.4015729E-05  0.1800005E+04  0.7818609E-02  0.8706297E-01
       -2   -1    0    0    0  501  0.00000000000E+00  0.00000000000E+00  0.15000589682E+04  0.15000589682E+04  0.25500000920E-02 0. -1.
        2   -1    0    0  501    0  0.00000000000E+00  0.00000000000E+00 -0.53998147229E+03  0.53998147230E+03  0.25500000920E-02 0.  1.
    10030    2    1    2    0    0  0.00000000000E+00  0.00000000000E+00  0.96007749588E+03  0.20400404405E+04  0.18000045002E+04 0.  0.
        2    1    3    3  502    0  0.37692756961E+03  0.52495060514E+03  0.11899525545E+04  0.13541176510E+04  0.25500000920E-02 0. -1.
       -2    1    3    3    0  502 -0.37692756961E+03 -0.52495060514E+03 -0.22987505866E+03  0.68592278951E+03  0.25500000920E-02 0.  1.
</event>
<event>
 5   0  0.1906857E-05  0.1799886E+04  0.7818609E-02  0.8706360E-01
        1   -1    0    0  501    0  0.00000000000E+00  0.00000000000E+00  0.15486582194E+04  0.15486582194E+04  0.50400001928E-02 0. -1.
       -1   -1    0    0    0  501  0.00000000000E+00  0.00000000000E+00 -0.52296731632E+03  0.52296731634E+03  0.50400001928E-02 0.  1.
    10030    2    1    2    0    0  0.00000000000E+00  0.00000000000E+00  0.10256909031E+04  0.20716255358E+04  0.17998862552E+04 0.  0.
        4    1    3    3  502    0  0.40800346027E+03 -0.19492600062E+03 -0.38272397286E+03  0.59240376570E+03  0.12699999809E+01 0.  1.
       -4    1    3    3    0  502 -0.40800346027E+03  0.19492600062E+03  0.14084148760E+04  0.14792217701E+04  0.12699999809E+01 0. -1.
</event>
<event>
 5   0  0.2038338E-05  0.1803986E+04  0.7818609E-02  0.8704183E-01
        1   -1    0    0  501    0  0.00000000000E+00  0.00000000000E+00  0.11017993013E+04  0.11017993014E+04  0.50400001928E-02 0.  1.
       -1   -1    0    0    0  501  0.00000000000E+00  0.00000000000E+00 -0.73842067078E+03  0.73842067079E+03  0.50400001928E-02 0. -1.
    10030    2    1    2    0    0  0.00000000000E+00  0.00000000000E+00  0.36337863057E+03  0.18402199722E+04  0.18039860079E+04 0.  0.
        1    1    3    3  502    0 -0.57236216464E+03  0.68233827613E+03  0.35965509540E+02  0.89133466694E+03  0.50400001928E-02 0. -1.
       -1    1    3    3    0  502  0.57236216464E+03 -0.68233827613E+03  0.32741312103E+03  0.94888530521E+03  0.50400001928E-02 0.  1.
</event>
<event>
 5   0  0.3993393E-05  0.1809820E+04  0.7818609E-02  0.8701095E-01
       -2   -1    0    0    0  501  0.00000000000E+00  0.00000000000E+00  0.12424265731E+04  0.12424265731E+04  0.25500000920E-02 0. -1.
        2   -1    0    0  501    0  0.00000000000E+00  0.00000000000E+00 -0.65908282833E+03  0.65908282834E+03  0.25500000920E-02 0.  1.
    10030    2    1    2    0    0  0.00000000000E+00  0.00000000000E+00  0.58334374481E+03  0.19015094015E+04  0.18098199025E+04 0.  0.
        5    1    3    3  502    0  0.47423792207E+02 -0.80109507031E+03 -0.14764768554E+03  0.81598054927E+03  0.46999998093E+01 0.  1.
       -5    1    3    3    0  502 -0.47423792207E+02  0.80109507031E+03  0.73099143035E+03  0.10855288522E+04  0.46999998093E+01 0. -1.
</event>
<event>
 5   0  0.1960300E-05  0.1801147E+04  0.7818609E-02  0.8705690E-01
        1   -1    0    0  501    0  0.00000000000E+00  0.00000000000E+00  0.11475425780E+04  0.11475425780E+04  0.50400001928E-02 0. -1.
       -1   -1    0    0    0  501  0.00000000000E+00  0.00000000000E+00 -0.70675600488E+03  0.70675600490E+03  0.50400001928E-02 0.  1.
    10030    2    1    2    0    0  0.00000000000E+00  0.00000000000E+00  0.44078657309E+03  0.18542985829E+04  0.18011469766E+04 0.  0.
        3    1    3    3  502    0 -0.33716341216E+03  0.81836612956E+03  0.49264376168E+02  0.88647012215E+03  0.10100000352E+00 0. -1.
       -3    1    3    3    0  502  0.33716341216E+03 -0.81836612956E+03  0.39152219692E+03  0.96782846072E+03  0.10100000352E+00 0.  1.
</event>
<event>
 5   0  0.1960300E-05  0.1800895E+04  0.7818609E-02  0.8705824E-01
       -1   -1    0    0    0  501  0.00000000000E+00  0.00000000000E+00  0.86563346310E+03  0.86563346311E+03  0.50400001928E-02 0.  1.
        1   -1    0    0  501    0  0.00000000000E+00  0.00000000000E+00 -0.93666174378E+03  0.93666174380E+03  0.50400001928E-02 0. -1.
    10030    2    1    2    0    0  0.00000000000E+00  0.00000000000E+00 -0.71028280684E+02  0.18022952069E+04  0.18008950542E+04 0.  0.
        3    1    3    3  502    0 -0.10951771320E+01  0.73720571614E+03 -0.55295797496E+03  0.92154001519E+03  0.10100000352E+00 0. -1.
       -3    1    3    3    0  502  0.10951771320E+01 -0.73720571614E+03  0.48192969428E+03  0.88075519172E+03  0.10100000352E+00 0.  1.
</event>
<event>
 5   0  0.4015729E-05  0.1797202E+04  0.7818609E-02  0.8707789E-01
       -2   -1    0    0    0  501  0.00000000000E+00  0.00000000000E+00  0.83557898084E+03  0.83557898084E+03  0.25500000920E-02 0. -1.
        2   -1    0    0  501    0  0.00000000000E+00  0.00000000000E+00 -0.96637628319E+03  0.96637628319E+03  0.25500000920E-02 0.  1.
    10030    2    1    2    0    0  0.00000000000E+00  0.00000000000E+00 -0.13079730235E+03  0.18019552640E+04  0.17972019473E+04 0.  0.
        2    1    3    3  502    0 -0.72104449784E+03  0.63701547681E+02  0.46847621546E+03  0.86222561983E+03  0.25500000920E-02 0. -1.
       -2    1    3    3    0  502  0.72104449784E+03 -0.63701547681E+02 -0.59927351781E+03  0.93972964420E+03  0.25500000920E-02 0.  1.
</event>
<event>
 5   0  0.3909859E-05  0.1832463E+04  0.7818609E-02  0.8689224E-01
        2   -1    0    0  501    0  0.00000000000E+00  0.00000000000E+00  0.73088103484E+03  0.73088103484E+03  0.25500000920E-02 0.  1.
       -2   -1    0    0    0  501  0.00000000000E+00  0.00000000000E+00 -0.11485866230E+04  0.11485866230E+04  0.25500000920E-02 0. -1.
    10030    2    1    2    0    0  0.00000000000E+00  0.00000000000E+00 -0.41770558813E+03  0.18794676578E+04  0.18324630197E+04 0.  0.
        4    1    3    3  502    0 -0.38411479836E+03  0.26642324355E+03 -0.10170717232E+04  0.11193578633E+04  0.12699999809E+01 0. -1.
       -4    1    3    3    0  502  0.38411479836E+03 -0.26642324355E+03  0.59936613506E+03  0.76010979456E+03  0.12699999809E+01 0.  1.
</event>
<event>
 5   0  0.1960300E-05  0.1797768E+04  0.7818609E-02  0.8707487E-01
       -1   -1    0    0    0  501  0.00000000000E+00  0.00000000000E+00  0.17887336214E+04  0.17887336214E+04  0.50400001928E-02 0. -1.
        1   -1    0    0  501    0  0.00000000000E+00  0.00000000000E+00 -0.45171209292E+03  0.45171209295E+03  0.50400001928E-02 0.  1.
    10030    2    1    2    0    0  0.00000000000E+00  0.00000000000E+00  0.13370215284E+04  0.22404457143E+04  0.17977681806E+04 0.  0.
        3    1    3    3  502    0  0.77056844106E+02 -0.79949625579E+03  0.16557939906E+03  0.82009058515E+03  0.10100000352E+00 0.  1.
       -3    1    3    3    0  502 -0.77056844106E+02  0.79949625579E+03  0.11714421294E+04  0.14203551292E+04  0.10100000352E+00 0. -1.
</event>
<event>
 5   0  0.4015729E-05  0.1795133E+04  0.7818609E-02  0.8708892E-01
        2   -1    0    0  501    0  0.00000000000E+00  0.00000000000E+00  0.10987950696E+04  0.10987950696E+04  0.25500000920E-02 0.  1.
       -2   -1    0    0    0  501  0.00000000000E+00  0.00000000000E+00 -0.73318995192E+03  0.73318995193E+03  0.25500000920E-02 0. -1.
    10030    2    1    2    0    0  0.00000000000E+00  0.00000000000E+00  0.36560511769E+03  0.18319850215E+04  0.17951328689E+04 0.  0.
        2    1    3    3  502    0  0.20061389121E+03  0.77671823271E+03  0.59366953029E+03  0.99798830533E+03  0.25500000920E-02 0.  1.
       -2    1    3    3    0  502 -0.20061389121E+03 -0.77671823271E+03 -0.22806441260E+03  0.83399671622E+03  0.25500000920E-02 0. -1.
</event>
<event>
 5   0  0.3909859E-05  0.1798756E+04  0.7818609E-02  0.8706961E-01
        2   -1    0    0  501    0  0.00000000000E+00  0.00000000000E+00  0.70128902428E+03  0.70128902429E+03  0.25500000920E-02 0.  1.
       -2   -1    0    0    0  501  0.00000000000E+00  0.00000000000E+00 -0.11534204088E+04  0.11534204088E+04  0.25500000920E-02 0. -1.
    10030    2    1    2    0    0  0.00000000000E+00  0.00000000000E+00 -0.45213138452E+03  0.18547094331E+04  0.17987563182E+04 0.  0.
        4    1    3    3  502    0  0.54575773928E+02  0.31963486281E+03  0.63891809917E+03  0.71649348285E+03  0.12699999809E+01 0.  1.
       -4    1    3    3    0  502 -0.54575773928E+02 -0.31963486281E+03 -0.10910494837E+04  0.11382159502E+04  0.12699999809E+01 0. -1.
</event>
<event>
 5   0  0.3983176E-05  0.1800516E+04  0.7818609E-02  0.8706025E-01
        2   -1    0    0  501    0  0.00000000000E+00  0.00000000000E+00  0.12952133153E+04  0.12952133153E+04  0.25500000920E-02 0.  1.
       -2   -1    0    0    0  501  0.00000000000E+00  0.00000000000E+00 -0.62573821436E+03  0.62573821437E+03  0.25500000920E-02 0. -1.
    10030    2    1    2    0    0  0.00000000000E+00  0.00000000000E+00  0.66947510096E+03  0.19209515297E+04  0.18005160007E+04 0.  0.
        3    1    3    3  502    0  0.43873605519E+03 -0.70864786687E+03  0.69778316614E+03  0.10870016019E+04  0.10100000352E+00 0.  1.
       -3    1    3    3    0  502 -0.43873605519E+03  0.70864786687E+03 -0.28308065179E+02  0.83394992781E+03  0.10100000352E+00 0. -1.
</event>
<event>
 5   0  0.1960300E-05  0.1795793E+04  0.7818609E-02  0.8708540E-01
       -1   -1    0    0    0  501  0.00000000000E+00  0.00000000000E+00  0.27008258678E+03  0.27008258683E+03  0.50400001928E-02 0. -1.
        1   -1    0    0  501    0  0.00000000000E+00  0.00000000000E+00 -0.29850802681E+04  0.29850802681E+04  0.50400001928E-02 0.  1.
    10030    2    1    2    0    0  0.00000000000E+00  0.00000000000E+00 -0.27149976813E+04  0.32551628550E+04  0.17957930846E+04 0.  0.
        3    1    3    3  502    0  0.50616936122E+03 -0.28609926729E+03 -0.11723911759E+03  0.59313171714E+03  0.10100000352E+00 0. -1.
       -3    1    3    3    0  502 -0.50616936122E+03  0.28609926729E+03 -0.25977585638E+04  0.26620311378E+04  0.10100000352E+00 0.  1.
</event>
<event>
 5   0  0.4015729E-05  0.1799342E+04  0.7818609E-02  0.8706650E-01
       -2   -1    0    0    0  501  0.00000000000E+00  0.00000000000E+00  0.84552075104E+03  0.84552075104E+03  0.25500000920E-02 0. -1.
        2   -1    0    0  501    0  0.00000000000E+00  0.00000000000E+00 -0.95728888699E+03  0.95728888700E+03  0.25500000920E-02 0.  1.
    10030    2    1    2    0    0  0.00000000000E+00  0.00000000000E+00 -0.11176813596E+03  0.18028096380E+04  0.17993416782E+04 0.  0.
        2    1    3    3  502    0 -0.41257696601E+03  0.52342278382E+03 -0.66138023740E+03  0.93894354566E+03  0.25500000920E-02 0.  1.
       -2    1    3    3    0  502  0.41257696601E+03 -0.52342278382E+03  0.54961210144E+03  0.86386609238E+03  0.25500000920E-02 0. -1.
</event>
<event>
 5   0  0.1446750E-05  0.1798778E+04  0.7818609E-02  0.8706950E-01
        3   -1    0    0  501    0  0.00000000000E+00  0.00000000000E+00  0.30039841441E+03  0.30039843139E+03  0.10100000352E+00 0. -1.
       -3   -1    0    0    0  501  0.00000000000E+00  0.00000000000E+00 -0.26927583954E+04  0.26927583973E+04  0.10100000352E+00 0.  1.
    10030    2    1    2    0    0  0.00000000000E+00  0.00000000000E+00 -0.23923599810E+04  0.29931568287E+04  0.17987777857E+04 0.  0.
        2    1    3    3  502    0  0.75107274823E+03 -0.47349007125E+03 -0.14349922851E+04  0.16874554746E+04  0.25500000920E-02 0.  1.
       -2    1    3    3    0  502 -0.75107274823E+03  0.47349007125E+03 -0.95736769591E+03  0.13057013540E+04  0.25500000920E-02 0. -1.
</event>
<event>
 5   0  0.1906857E-05  0.1799246E+04  0.7818609E-02  0.8706700E-01
       -1   -1    0    0    0  501  0.00000000000E+00  0.00000000000E+00  0.80039751228E+03  0.80039751229E+03  0.50400001928E-02 0. -1.
        1   -1    0    0  501    0  0.00000000000E+00  0.00000000000E+00 -0.10111498149E+04  0.10111498149E+04  0.50400001928E-02 0.  1.
    10030    2    1    2    0    0  0.00000000000E+00  0.00000000000E+00 -0.21075230262E+03  0.18115473272E+04  0.17992462827E+04 0.  0.
        4    1    3    3  502    0 -0.11060069049E+02 -0.37931117532E+03 -0.92662476721E+03  0.10013163161E+04  0.12699999809E+01 0.  1.
       -4    1    3    3    0  502  0.11060069049E+02  0.37931117532E+03  0.71587246459E+03  0.81023101107E+03  0.12699999809E+01 0. -1.
</event>
<event>
 5   0  0.4015729E-05  0.1800412E+04  0.7818609E-02  0.8706080E-01
       -2   -1    0    0    0  501  0.00000000000E+00  0.00000000000E+00  0.13313670705E+04  0.13313670705E+04  0.25500000920E-02 0. -1.
        2   -1    0    0  501    0  0.00000000000E+00  0.00000000000E+00 -0.60867576329E+03  0.60867576330E+03  0.25500000920E-02 0.  1.
    10030    2    1    2    0    0  0.00000000000E+00  0.00000000000E+00  0.72269130720E+03  0.19400428338E+04  0.18004120282E+04 0.  0.
        2    1    3    3  502    0 -0.88177431132E+03 -0.39753268730E+02  0.17081453533E+03  0.89904608556E+03  0.25500000920E-02 0.  1.
       -2    1    3    3    0  502  0.88177431132E+03  0.39753268730E+02  0.55187677188E+03  0.10409967482E+04  0.25500000920E-02 0. -1.
</event>
<event>
 5   0  0.2054876E-05  0.1797306E+04  0.7818609E-02  0.8707733E-01
        1   -1    0    0  501    0  0.00000000000E+00  0.00000000000E+00  0.12733240249E+04  0.12733240249E+04  0.50400001928E-02 0. -1.
       -1   -1    0    0    0  501  0.00000000000E+00  0.00000000000E+00 -0.63422786195E+03  0.63422786197E+03  0.50400001928E-02 0.  1.
    10030    2    1    2    0    0  0.00000000000E+00  0.00000000000E+00  0.63909616294E+03  0.19075518869E+04  0.17973064001E+04 0.  0.
        5    1    3    3  502    0 -0.26774681828E+03 -0.46959194208E+03 -0.44236530496E+03  0.69850848513E+03  0.46999998093E+01 0.  1.
       -5    1    3    3    0  502  0.26774681828E+03  0.46959194208E+03  0.10814614679E+04  0.12090434018E+04  0.46999998093E+01 0. -1.
</event>
<event>
 5   0  0.1960300E-05  0.1797770E+04  0.7818609E-02  0.8707486E-01
       -1   -1    0    0    0  501  0.00000000000E+00  0.00000000000E+00  0.41246817815E+03  0.41246817818E+03  0.50400001928E-02 0.  1.
        1   -1    0    0  501    0  0.00000000000E+00  0.00000000000E+00 -0.19589242734E+04  0.19589242734E+04  0.50400001928E-02 0. -1.
    10030    2    1    2    0    0  0.00000000000E+00  0.00000000000E+00 -0.15464560952E+04  0.23713924516E+04  0.17977696473E+04 0.  0.
        3    1    3    3  502    0 -0.34386759744E+03  0.71269894419E+03 -0.13356695051E+04  0.15524811582E+04  0.10100000352E+00 0.  1.
       -3    1    3    3    0  502  0.34386759744E+03 -0.71269894419E+03 -0.21078659017E+03  0.81891129337E+03  0.10100000352E+00 0. -1.
</event>
<event>
 5   0  0.1960300E-05  0.1801910E+04  0.7818609E-02  0.8705284E-01
        1   -1    0    0  501    0  0.00000000000E+00  0.00000000000E+00  0.94992465848E+03  0.94992465850E+03  0.50400001928E-02 0.  1.
       -1   -1    0    0    0  501  0.00000000000E+00  0.00000000000E+00 -0.85450992288E+03  0.85450992289E+03  0.50400001928E-02 0. -1.
    10030    2    1    2    0    0  0.00000000000E+00  0.00000000000E+00  0.95414735606E+02  0.18044345814E+04  0.18019101495E+04 0.  0.
        3    1    3    3  502    0  0.55063322155E+03 -0.19579049697E+03 -0.63895670069E+03  0.86590792752E+03  0.10100000352E+00 0. -1.
       -3    1    3    3    0  502 -0.55063322155E+03  0.19579049697E+03  0.73437143630E+03  0.93852665387E+03  0.10100000352E+00 0.  1.
</event>
<event>
 5   0  0.2001811E-05  0.1782439E+04  0.7818609E-02  0.8715694E-01
       -1   -1    0    0    0  501  0.00000000000E+00  0.00000000000E+00  0.29284252895E+03  0.29284252899E+03  0.50400001928E-02 0. -1.
        1   -1    0    0  501    0  0.00000000000E+00  0.00000000000E+00 -0.27122838002E+04  0.27122838002E+04  0.50400001928E-02 0.  1.
    10030    2    1    2    0    0  0.00000000000E+00  0.00000000000E+00 -0.24194412712E+04  0.30051263292E+04  0.17824388319E+04 0.  0.
        2    1    3    3  502    0  0.29676751564E+03  0.66227611247E+03 -0.33758464958E+03  0.80040240075E+03  0.25500000920E-02 0. -1.
       -2    1    3    3    0  502 -0.29676751564E+03 -0.66227611247E+03 -0.20818566217E+04  0.22047239284E+04  0.25500000920E-02 0.  1.
</event>
<event>
 5   0  0.3993393E-05  0.1821228E+04  0.7818609E-02  0.8695091E-01
       -2   -1    0    0    0  501  0.00000000000E+00  0.00000000000E+00  0.59684101449E+03  0.59684101449E+03  0.25500000920E-02 0. -1.
        2   -1    0    0  501    0  0.00000000000E+00  0.00000000000E+00 -0.13893448792E+04  0.13893448792E+04  0.25500000920E-02 0.  1.
    10030    2    1    2    0    0  0.00000000000E+00  0.00000000000E+00 -0.79250386473E+03  0.19861858937E+04  0.18212281649E+04 0.  0.
        5    1    3    3  502    0 -0.38162480151E+03 -0.52716333208E+03 -0.10908525352E+04  0.12702440755E+04  0.46999998093E+01 0.  1.
       -5    1    3    3    0  502  0.38162480151E+03  0.52716333208E+03  0.29834867050E+03  0.71594181817E+03  0.46999998093E+01 0. -1.
</event>
<event>
 5   0  0.1906857E-05  0.1799086E+04  0.7818609E-02  0.8706786E-01
       -1   -1    0    0    0  501  0.00000000000E+00  0.00000000000E+00  0.97631026338E+03  0.97631026339E+03  0.50400001928E-02 0. -1.
        1   -1    0    0  501    0  0.00000000000E+00  0.00000000000E+00 -0.82881198938E+03  0.82881198939E+03  0.50400001928E-02 0.  1.
    10030    2    1    2    0    0  0.00000000000E+00  0.00000000000E+00  0.14749827400E+03  0.18051222528E+04  0.17990860476E+04 0.  0.
        4    1    3    3  502    0  0.68304205829E+03 -0.49547169109E+02 -0.51145268069E+03  0.85474372349E+03  0.12699999809E+01 0.  1.
       -4    1    3    3    0  502 -0.68304205829E+03  0.49547169109E+02  0.65895095470E+03  0.95037852930E+03  0.12699999809E+01 0. -1.
</event>
<event>
 5   0  0.1960300E-05  0.1802093E+04  0.7818609E-02  0.8705187E-01
       -1   -1    0    0    0  501  0.00000000000E+00  0.00000000000E+00  0.45155943974E+03  0.45155943977E+03  0.50400001928E-02 0.  1.
        1   -1    0    0  501    0  0.00000000000E+00  0.00000000000E+00 -0.17979574342E+04  0.17979574342E+04  0.50400001928E-02 0. -1.
    10030    2    1    2    0    0  0.00000000000E+00  0.00000000000E+00 -0.13463979944E+04  0.22495168739E+04  0.18020928408E+04 0.  0.
        3    1    3    3  502    0  0.59889586898E+03 -0.41527650033E+03 -0.11782654491E+02  0.72888248350E+03  0.10100000352E+00 0.  1.
       -3    1    3    3    0  502 -0.59889586898E+03  0.41527650033E+03 -0.13346153399E+04  0.15206343904E+04  0.10100000352E+00 0. -1.
</event>
<event>
 5   0  0.4015729E-05  0.1807591E+04  0.7818609E-02  0.8702273E-01
       -2   -1    0    0    0  501  0.00000000000E+00  0.00000000000E+00  0.89542118021E+03  0.89542118022E+03  0.25500000920E-02 0. -1.
        2   -1    0    0  501    0  0.00000000000E+00  0.00000000000E+00 -0.91224847015E+03  0.91224847016E+03  0.25500000920E-02 0.  1.
    10030    2    1    2    0    0  0.00000000000E+00  0.00000000000E+00 -0.16827289940E+02  0.18076696504E+04  0.18075913275E+04 0.  0.
        2    1    3    3  502    0 -0.41574325720E+03  0.80242893780E+03 -0.18994541376E+02  0.90393332095E+03  0.25500000920E-02 0. -1.
       -2    1    3    3    0  502  0.41574325720E+03 -0.80242893780E+03  0.21672514363E+01  0.90373632942E+03  0.25500000920E-02 0.  1.
</event>
<event>
 5   0  0.2001811E-05  0.1801695E+04  0.7818609E-02  0.8705399E-01
        1   -1    0    0  501    0  0.00000000000E+00  0.00000000000E+00  0.64761730991E+03  0.64761730993E+03  0.50400001928E-02 0.  1.
       -1   -1    0    0    0  501  0.00000000000E+00  0.00000000000E+00 -0.12530952287E+04  0.12530952287E+04  0.50400001928E-02 0. -1.
    10030    2    1    2    0    0  0.00000000000E+00  0.00000000000E+00 -0.60547791878E+03  0.19007125386E+04  0.18016949366E+04 0.  0.
        2    1    3    3  502    0  0.86547439365E+03  0.41622844666E+02 -0.42722784320E+02  0.86752730422E+03  0.25500000920E-02 0.  1.
       -2    1    3    3    0  502 -0.86547439365E+03 -0.41622844666E+02 -0.56275513446E+03  0.10331852344E+04  0.25500000920E-02 0. -1.
</event>
<event>
 5   0  0.3993393E-05  0.1800891E+04  0.7818609E-02  0.8705826E-01
        2   -1    0    0  501    0  0.00000000000E+00  0.00000000000E+00  0.16609772530E+04  0.16609772530E+04  0.25500000920E-02 0.  1.
       -2   -1    0    0    0  501  0.00000000000E+00  0.00000000000E+00 -0.48814763098E+03  0.48814763098E+03  0.25500000920E-02 0. -1.
    10030    2    1    2    0    0  0.00000000000E+00  0.00000000000E+00  0.11728296220E+04  0.21491248840E+04  0.18008910141E+04 0.  0.
        5    1    3    3  502    0  0.37464242235E+03 -0.38360317835E+03 -0.27683767225E+03  0.60346460529E+03  0.46999998093E+01 0. -1.
       -5    1    3    3    0  502 -0.37464242235E+03  0.38360317835E+03  0.14496672943E+04  0.15456602787E+04  0.46999998093E+01 0.  1.
</event>
<event>
 5   0  0.2038338E-05  0.1796337E+04  0.7818609E-02  0.8708250E-01
        1   -1    0    0  501    0  0.00000000000E+00  0.00000000000E+00  0.10810891454E+04  0.10810891454E+04  0.50400001928E-02 0.  1.
       -1   -1    0    0    0  501  0.00000000000E+00  0.00000000000E+00 -0.74619798100E+03  0.74619798102E+03  0.50400001928E-02 0. -1.
    10030    2    1    2    0    0  0.00000000000E+00  0.00000000000E+00  0.33489116443E+03  0.18272871265E+04  0.17963368700E+04 0.  0.
        1    1    3    3  502    0 -0.47360249047E+03  0.63412146499E+03  0.59937569746E+03  0.99280440071E+03  0.50400001928E-02 0.  1.
       -1    1    3    3    0  502  0.47360249047E+03 -0.63412146499E+03 -0.26448453303E+03  0.83448272575E+03  0.50400001928E-02 0. -1.
</event>
<event>
 5   0  0.3983176E-05  0.1811403E+04  0.7818609E-02  0.8700259E-01
       -2   -1    0    0    0  501  0.00000000000E+00  0.00000000000E+00  0.10457115613E+04  0.10457115613E+04  0.25500000920E-02 0. -1.
        2   -1    0    0  501    0  0.00000000000E+00  0.00000000000E+00 -0.78443756800E+03  0.78443756801E+03  0.25500000920E-02 0.  1.
    10030    2    1    2    0    0  0.00000000000E+00  0.00000000000E+00  0.26127399329E+03  0.18301491293E+04  0.18114032505E+04 0.  0.
        3    1    3    3  502    0 -0.14044422437E+01  0.83253992417E+03 -0.22966354261E+03  0.86363768491E+03  0.10100000352E+00 0.  1.
       -3    1    3    3    0  502  0.14044422437E+01 -0.83253992417E+03  0.49093753590E+03  0.96651144440E+03  0.10100000352E+00 0. -1.
</event>
<event>
 5   0  0.3993393E-05  0.1789709E+04  0.7818609E-02  0.8711791E-01
       -2   -1    0    0    0  501  0.00000000000E+00  0.00000000000E+00  0.67533437052E+03  0.67533437053E+03  0.25500000920E-02 0. -1.
        2   -1    0    0  501    0  0.00000000000E+00  0.00000000000E+00 -0.11857300638E+04  0.11857300638E+04  0.25500000920E-02 0.  1.
    10030    2    1    2    0    0  0.00000000000E+00  0.00000000000E+00 -0.51039569329E+03  0.18610644343E+04  0.17897086537E+04 0.  0.
        5    1    3    3  502    0  0.11758514807E+03  0.88708234934E+03 -0.25425924612E+03  0.93027480660E+03  0.46999998093E+01 0.  1.
       -5    1    3    3    0  502 -0.11758514807E+03 -0.88708234934E+03 -0.25613644717E+03  0.93078962774E+03  0.46999998093E+01 0. -1.
</event>
<event>
 5   0  0.2038338E-05  0.1801857E+04  0.7818609E-02  0.8705313E-01
       -1   -1    0    0    0  501  0.00000000000E+00  0.00000000000E+00  0.87601676666E+03  0.87601676668E+03  0.50400001928E-02 0.  1.
        1   -1    0    0  501    0  0.00000000000E+00  0.00000000000E+00 -0.92654837268E+03  0.92654837269E+03  0.50400001928E-02 0. -1.
    10030    2    1    2    0    0  0.00000000000E+00  0.00000000000E+00 -0.50531606013E+02  0.18025651394E+04  0.18018567197E+04 0.  0.
        1    1    3    3  502    0  0.77360855429E+02 -0.74847294396E+03 -0.52091539743E+03  0.91517719656E+03  0.50400001928E-02 0. -1.
       -1    1    3    3    0  502 -0.77360855429E+02  0.74847294396E+03  0.47038379142E+03  0.88738794281E+03  0.50400001928E-02 0.  1.
</event>
<event>
 5   0  0.4015729E-05  0.1796201E+04  0.7818609E-02  0.8708323E-01
        2   -1    0    0  501    0  0.00000000000E+00  0.00000000000E+00  0.68016094022E+03  0.68016094023E+03  0.25500000920E-02 0. -1.
       -2   -1    0    0    0  501  0.00000000000E+00  0.00000000000E+00 -0.11858723644E+04  0.11858723644E+04  0.25500000920E-02 0.  1.
    10030    2    1    2    0    0  0.00000000000E+00  0.00000000000E+00 -0.50571142421E+03  0.18660333047E+04  0.17962005037E+04 0.  0.
        2    1    3    3  502    0 -0.36982180859E+03  0.37327126465E+03 -0.10095159420E+04  0.11380782241E+04  0.25500000920E-02 0.  1.
       -2    1    3    3    0  502  0.36982180859E+03 -0.37327126465E+03  0.50380451778E+03  0.72795508053E+03  0.25500000920E-02 0. -1.
</event>
<event>
 5   0  0.3993393E-05  0.1799020E+04  0.7818609E-02  0.8706821E-01
       -2   -1    0    0    0  501  0.00000000000E+00  0.00000000000E+00  0.52769392286E+03  0.52769392287E+03  0.25500000920E-02 0.  1.
        2   -1    0    0  501    0  0.00000000000E+00  0.00000000000E+00 -0.15333103729E+04  0.15333103729E+04  0.25500000920E-02 0. -1.
    10030    2    1    2    0    0  0.00000000000E+00  0.00000000000E+00 -0.10056164500E+04  0.20610042957E+04  0.17990203619E+04 0.  0.
        5    1    3    3  502    0 -0.18790195608E+03 -0.56290833624E+03  0.27159041644E+03  0.65265334168E+03  0.46999998093E+01 0.  1.
       -5    1    3    3    0  502  0.18790195608E+03  0.56290833624E+03 -0.12772068664E+04  0.14083509540E+04  0.46999998093E+01 0. -1.
</event>
<event>
 5   0  0.2001811E-05  0.1796103E+04  0.7818609E-02  0.8708374E-01
       -1   -1    0    0    0  501  0.00000000000E+00  0.00000000000E+00  0.83059745979E+03  0.83059745981E+03  0.50400001928E-02 0.  1.
        1   -1    0    0  501    0  0.00000000000E+00  0.00000000000E+00 -0.97098395609E+03  0.97098395611E+03  0.50400001928E-02 0. -1.
    10030    2    1    2    0    0  0.00000000000E+00  0.00000000000E+00 -0.14038649630E+03  0.18015814159E+04  0.17961033461E+04 0.  0.
        2    1    3    3  502    0  0.77188372805E+03 -0.42936819147E+03 -0.23296966779E+03  0.91347490365E+03  0.25500000920E-02 0.  1.
       -2    1    3    3    0  502 -0.77188372805E+03  0.42936819147E+03  0.92583171489E+02  0.88810651226E+03  0.25500000920E-02 0. -1.
</event>
<event>
 5   0  0.3993393E-05  0.1803616E+04  0.7818609E-02  0.8704379E-01
        2   -1    0    0  501    0  0.00000000000E+00  0.00000000000E+00  0.33284670087E+03  0.33284670088E+03  0.25500000920E-02 0. -1.
       -2   -1    0    0    0  501  0.00000000000E+00  0.00000000000E+00 -0.24433401132E+04  0.24433401132E+04  0.25500000920E-02 0.  1.
    10030    2    1    2    0    0  0.00000000000E+00  0.00000000000E+00 -0.21104934123E+04  0.27761868140E+04  0.18036160298E+04 0.  0.
        5    1    3    3  502    0  0.77208391245E+03 -0.32919880672E+03 -0.15628443529E+04  0.17739757562E+04  0.46999998093E+01 0. -1.
       -5    1    3    3    0  502 -0.77208391245E+03  0.32919880672E+03 -0.54764905939E+03  0.10022110578E+04  0.46999998093E+01 0.  1.
</event>
<event>
 5   0  0.1906857E-05  0.1804537E+04  0.7818609E-02  0.8703890E-01
       -1   -1    0    0    0  501  0.00000000000E+00  0.00000000000E+00  0.74807547007E+03  0.74807547009E+03  0.50400001928E-02 0.  1.
        1   -1    0    0  501    0  0.00000000000E+00  0.00000000000E+00 -0.10882440663E+04  0.10882440663E+04  0.50400001928E-02 0. -1.
    10030    2    1    2    0    0  0.00000000000E+00  0.00000000000E+00 -0.34016859618E+03  0.18363195364E+04  0.18045372719E+04 0.  0.
        4    1    3    3  502    0 -0.70245844715E+03  0.78867358949E+02 -0.74069103048E+03  0.10238616829E+04  0.12699999809E+01 0. -1.
       -4    1    3    3    0  502  0.70245844715E+03 -0.78867358949E+02  0.40052243430E+03  0.81245785340E+03  0.12699999809E+01 0.  1.
</event>
<event>
 5   0  0.2054876E-05  0.1797765E+04  0.7818609E-02  0.8707489E-01
        1   -1    0    0  501    0  0.00000000000E+00  0.00000000000E+00  0.87598841011E+03  0.87598841012E+03  0.50400001928E-02 0.  1.
       -1   -1    0    0    0  501  0.00000000000E+00  0.00000000000E+00 -0.92237542647E+03  0.92237542648E+03  0.50400001928E-02 0. -1.
    10030    2    1    2    0    0  0.00000000000E+00  0.00000000000E+00 -0.46387016358E+02  0.17983638366E+04  0.17977654835E+04 0.  0.
        5    1    3    3  502    0  0.79706031218E+03 -0.30943198425E+03  0.25423397267E+03  0.89202595085E+03  0.46999998093E+01 0.  1.
       -5    1    3    3    0  502 -0.79706031218E+03  0.30943198425E+03 -0.30062098903E+03  0.90633788576E+03  0.46999998093E+01 0. -1.
</event>
<event>
 5   0  0.2054876E-05  0.1811613E+04  0.7818609E-02  0.8700148E-01
        1   -1    0    0  501    0  0.00000000000E+00  0.00000000000E+00  0.56442199755E+03  0.56442199758E+03  0.50400001928E-02 0.  1.
       -1   -1    0    0    0  501  0.00000000000E+00  0.00000000000E+00 -0.14536731832E+04  0.14536731832E+04  0.50400001928E-02 0. -1.
    10030    2    1    2    0    0  0.00000000000E+00  0.00000000000E+00 -0.88925118563E+03  0.20180951808E+04  0.18116126759E+04 0.  0.
        5    1    3    3  502    0 -0.56535243156E+03  0.61849491361E+03 -0.82778144367E+03  0.11778809526E+04  0.46999998093E+01 0. -1.
       -5    1    3    3    0  502  0.56535243156E+03 -0.61849491361E+03 -0.61469741964E+02  0.84021422816E+03  0.46999998093E+01 0.  1.
</event>
<event>
 5   0  0.1446750E-05  0.1798453E+04  0.7818609E-02  0.8707123E-01
       -3   -1    0    0    0  501  0.00000000000E+00  0.00000000000E+00  0.13026988443E+04  0.13026988482E+04  0.10100000352E+00 0. -1.
        3   -1    0    0  501    0  0.00000000000E+00  0.00000000000E+00 -0.62071782677E+03  0.62071783498E+03  0.10100000352E+00 0.  1.
    10030    2    1    2    0    0  0.00000000000E+00  0.00000000000E+00  0.68198101756E+03  0.19234166832E+04  0.17984531212E+04 0.  0.
        4    1    3    3  502    0 -0.30790120704E+02 -0.36568123713E+03  0.12189684070E+04  0.12730107576E+04  0.12699999809E+01 0. -1.
       -4    1    3    3    0  502  0.30790120704E+02  0.36568123713E+03 -0.53698738948E+03  0.65040592562E+03  0.12699999809E+01 0.  1.
</event>
<event>
 5   0  0.3983176E-05  0.1801339E+04  0.7818609E-02  0.8705588E-01
       -2   -1    0    0    0  501  0.00000000000E+00  0.00000000000E+00  0.67142649133E+03  0.67142649134E+03  0.25500000920E-02 0. -1.
        2   -1    0    0  501    0  0.00000000000E+00  0.00000000000E+00 -0.12081827964E+04  0.12081827964E+04  0.25500000920E-02 0.  1.
    10030    2    1    2    0    0  0.00000000000E+00  0.00000000000E+00 -0.53675630509E+03  0.18796092878E+04  0.18013394304E+04 0.  0.
        3    1    3    3  502    0  0.20230128855E+02 -0.87972801644E+03 -0.46875139109E+03  0.99702483313E+03  0.10100000352E+00 0.  1.
       -3    1    3    3    0  502 -0.20230128855E+02  0.87972801644E+03 -0.68004913998E+02  0.88258445463E+03  0.10100000352E+00 0. -1.
</event>
<event>
 5   0  0.2054876E-05  0.1802526E+04  0.7818609E-02  0.8704958E-01
        1   -1    0    0  501    0  0.00000000000E+00  0.00000000000E+00  0.72908449000E+03  0.72908449002E+03  0.50400001928E-02 0. -1.
       -1   -1    0    0    0  501  0.00000000000E+00  0.00000000000E+00 -0.11141022486E+04  0.11141022486E+04  0.50400001928E-02 0.  1.
    10030    2    1    2    0    0  0.00000000000E+00  0.00000000000E+00 -0.38501775864E+03  0.18431867387E+04  0.18025256390E+04 0.  0.
        5    1    3    3  502    0 -0.76870337632E+03  0.12714824186E+03  0.27067824925E+03  0.82483959700E+03  0.46999998093E+01 0. -1.
       -5    1    3    3    0  502  0.76870337632E+03 -0.12714824186E+03 -0.65569600788E+03  0.10183471417E+04  0.46999998093E+01 0.  1.
</event>
<event>
 5   0  0.2054876E-05  0.1798834E+04  0.7818609E-02  0.8706920E-01
       -1   -1    0    0    0  501  0.00000000000E+00  0.00000000000E+00  0.58639158489E+03  0.58639158491E+03  0.50400001928E-02 0.  1.
        1   -1    0    0  501    0  0.00000000000E+00  0.00000000000E+00 -0.13795401447E+04  0.13795401448E+04  0.50400001928E-02 0. -1.
    10030    2    1    2    0    0  0.00000000000E+00  0.00000000000E+00 -0.79314855985E+03  0.19659317297E+04  0.17988337688E+04 0.  0.
        5    1    3    3  502    0  0.47135331760E+03 -0.56305694210E+03 -0.96416494126E+03  0.12119584127E+04  0.46999998093E+01 0. -1.
       -5    1    3    3    0  502 -0.47135331760E+03  0.56305694210E+03  0.17101638141E+03  0.75397331701E+03  0.46999998093E+01 0.  1.
</event>
<event>
 5   0  0.3983176E-05  0.1800186E+04  0.7818609E-02  0.8706200E-01
        2   -1    0    0  501    0  0.00000000000E+00  0.00000000000E+00  0.11569249715E+04  0.11569249715E+04  0.25500000920E-02 0. -1.
       -2   -1    0    0    0  501  0.00000000000E+00  0.00000000000E+00 -0.70027684187E+03  0.70027684187E+03  0.25500000920E-02 0.  1.
    10030    2    1    2    0    0  0.00000000000E+00  0.00000000000E+00  0.45664812965E+03  0.18572018134E+04  0.18001863963E+04 0.  0.
        3    1    3    3  502    0 -0.45665268500E+03 -0.25246778899E+03 -0.52831858855E+03  0.74255787681E+03  0.10100000352E+00 0.  1.
       -3    1    3    3    0  502  0.45665268500E+03  0.25246778899E+03  0.98496671820E+03  0.11146439366E+04  0.10100000352E+00 0. -1.
</event>
<event>
 5   0  0.3984648E-05  0.1789888E+04  0.7818609E-02  0.8711696E-01
        2   -1    0    0  501    0  0.00000000000E+00  0.00000000000E+00  0.15608105930E+04  0.15608105930E+04  0.25500000920E-02 0.  1.
       -2   -1    0    0    0  501  0.00000000000E+00  0.00000000000E+00 -0.51314651985E+03  0.51314651985E+03  0.25500000920E-02 0. -1.
    10030    2    1    2    0    0  0.00000000000E+00  0.00000000000E+00  0.10476640732E+04  0.20739571129E+04  0.17898877327E+04 0.  0.
        1    1    3    3  502    0 -0.88206499366E+03  0.12177819459E+03  0.62783175202E+03  0.10895142452E+04  0.50400001928E-02 0. -1.
       -1    1    3    3    0  502  0.88206499366E+03 -0.12177819459E+03  0.41983232115E+03  0.98444286763E+03  0.50400001928E-02 0.  1.
</event>
<event>
 5   0  0.3909859E-05  0.1801498E+04  0.7818609E-02  0.8705504E-01
        2   -1    0    0  501    0  0.00000000000E+00  0.00000000000E+00  0.17753652937E+04  0.17753652937E+04  0.25500000920E-02 0. -1.
       -2   -1    0    0    0  501  0.00000000000E+00  0.00000000000E+00 -0.45700361140E+03  0.45700361141E+03  0.25500000920E-02 0.  1.
    10030    2    1    2    0    0  0.00000000000E+00  0.00000000000E+00  0.13183616823E+04  0.22323689051E+04  0.18014975446E+04 0.  0.
        4    1    3    3  502    0  0.67066705251E+03 -0.13361589402E+03  0.13856573457E+04  0.15452169411E+04  0.12699999809E+01 0. -1.
       -4    1    3    3    0  502 -0.67066705251E+03  0.13361589402E+03 -0.67295663378E+02  0.68715196403E+03  0.12699999809E+01 0.  1.
</event>
<event>
 5   0  0.2001811E-05  0.1799629E+04  0.7818609E-02  0.8706497E-01
       -1   -1    0    0    0  501  0.00000000000E+00  0.00000000000E+00  0.84744856638E+03  0.84744856640E+03  0.50400001928E-02 0. -1.
        1   -1    0    0  501    0  0.00000000000E+00  0.00000000000E+00 -0.95541625307E+03  0.95541625309E+03  0.50400001928E-02 0.  1.
    10030    2    1    2    0    0  0.00000000000E+00  0.00000000000E+00 -0.10796768669E+03  0.18028648195E+04  0.17996289995E+04 0.  0.
        2    1    3    3  502    0  0.94675714195E+02  0.24491893286E+03 -0.91618071496E+03  0.95306656483E+03  0.25500000920E-02 0.  1.
       -2    1    3    3    0  502 -0.94675714195E+02 -0.24491893286E+03  0.80821302827E+03  0.84979825465E+03  0.25500000920E-02 0. -1.
</event>
<event>
 5   0  0.3993393E-05  0.1809765E+04  0.7818609E-02  0.8701124E-01
        2   -1    0    0  501    0  0.00000000000E+00  0.00000000000E+00  0.14664210297E+04  0.14664210297E+04  0.25500000920E-02 0. -1.
       -2   -1    0    0    0  501  0.00000000000E+00  0.00000000000E+00 -0.55837475027E+03  0.55837475028E+03  0.25500000920E-02 0.  1.
    10030    2    1    2    0    0  0.00000000000E+00  0.00000000000E+00  0.90804627943E+03  0.20247957800E+04  0.18097651519E+04 0.  0.
        5    1    3    3  502    0  0.57084930310E+03 -0.69749615127E+03  0.36437400921E+03  0.97219355916E+03  0.46999998093E+01 0. -1.
       -5    1    3    3    0  502 -0.57084930310E+03  0.69749615127E+03  0.54367227023E+03  0.10526022208E+04  0.46999998093E+01 0.  1.
</event>
<event>
 5   0  0.1906857E-05  0.1810714E+04  0.7818609E-02  0.8700623E-01
        1   -1    0    0  501    0  0.00000000000E+00  0.00000000000E+00  0.83552383242E+03  0.83552383244E+03  0.50400001928E-02 0. -1.
       -1   -1    0    0    0  501  0.00000000000E+00  0.00000000000E+00 -0.98102651969E+03  0.98102651971E+03  0.50400001928E-02 0.  1.
    10030    2    1    2    0    0  0.00000000000E+00  0.00000000000E+00 -0.14550268727E+03  0.18165503521E+04  0.18107137128E+04 0.  0.
        4    1    3    3  502    0  0.62570876538E+03  0.45676463667E+03 -0.54279552977E+03  0.94592494016E+03  0.12699999809E+01 0.  1.
       -4    1    3    3    0  502 -0.62570876538E+03 -0.45676463667E+03  0.39729284250E+03  0.87062541198E+03  0.12699999809E+01 0. -1.
</event>
<event>
 5   0  0.3984648E-05  0.1796808E+04  0.7818609E-02  0.8707999E-01
       -2   -1    0    0    0  501  0.00000000000E+00  0.00000000000E+00  0.55764540519E+03  0.55764540519E+03  0.25500000920E-02 0. -1.
        2   -1    0    0  501    0  0.00000000000E+00  0.00000000000E+00 -0.14473895070E+04  0.14473895070E+04  0.25500000920E-02 0.  1.
    10030    2    1    2    0    0  0.00000000000E+00  0.00000000000E+00 -0.88974410179E+03  0.20050349122E+04  0.17968084017E+04 0.  0.
        1    1    3    3  502    0  0.11882490835E+03 -0.88143083277E+03 -0.58642016224E+03  0.10653301265E+04  0.50400001928E-02 0.  1.
       -1    1    3    3    0  502 -0.11882490835E+03  0.88143083277E+03 -0.30332393956E+03  0.93970478563E+03  0.50400001928E-02 0. -1.
</event>
<event>
 5   0  0.3993393E-05  0.1798315E+04  0.7818609E-02  0.8707196E-01
        2   -1    0    0  501    0  0.00000000000E+00  0.00000000000E+00  0.71724544173E+03  0.71724544173E+03  0.25500000920E-02 0. -1.
       -2   -1    0    0    0  501  0.00000000000E+00  0.00000000000E+00 -0.11272066852E+04  0.11272066852E+04  0.25500000920E-02 0.  1.
    10030    2    1    2    0    0  0.00000000000E+00  0.00000000000E+00 -0.40996124344E+03  0.18444521269E+04  0.17983146074E+04 0.  0.
        5    1    3    3  502    0  0.88636411318E+03  0.12591908042E+03 -0.11938404834E+03  0.90320075119E+03  0.46999998093E+01 0. -1.
       -5    1    3    3    0  502 -0.88636411318E+03 -0.12591908042E+03 -0.29057719510E+03  0.94125137570E+03  0.46999998093E+01 0.  1.
</event>
<event>
 5   0  0.4015729E-05  0.1806604E+04  0.7818609E-02  0.8702795E-01
       -2   -1    0    0    0  501  0.00000000000E+00  0.00000000000E+00  0.64310425746E+03  0.64310425747E+03  0.25500000920E-02 0.  1.
        2   -1    0    0  501    0  0.00000000000E+00  0.00000000000E+00 -0.12687746219E+04  0.12687746219E+04  0.25500000920E-02 0. -1.
    10030    2    1    2    0    0  0.00000000000E+00  0.00000000000E+00 -0.62567036443E+03  0.19118788794E+04  0.18066038427E+04 0.  0.
        2    1    3    3  502    0  0.27997872191E+03 -0.41828285922E+03  0.48094366196E+03  0.69617199098E+03  0.25500000920E-02 0.  1.
       -2    1    3    3    0  502 -0.27997872191E+03  0.41828285922E+03 -0.11066140264E+04  0.12157068884E+04  0.25500000920E-02 0. -1.
</event>
<event>
 5   0  0.2038338E-05  0.1804652E+04  0.7818609E-02  0.8703829E-01
        1   -1    0    0  501    0  0.00000000000E+00  0.00000000000E+00  0.10983010555E+04  0.10983010555E+04  0.50400001928E-02 0.  1.
       -1   -1    0    0    0  501  0.00000000000E+00  0.00000000000E+00 -0.74131991633E+03  0.74131991635E+03  0.50400001928E-02 0. -1.
    10030    2    1    2    0    0  0.00000000000E+00  0.00000000000E+00  0.35698113915E+03  0.18396209718E+04  0.18046522619E+04 0.  0.
        1    1    3    3  502    0  0.79636548669E+03 -0.40933701837E+03  0.29217584654E+03  0.94187128013E+03  0.50400001928E-02 0. -1.
       -1    1    3    3    0  502 -0.79636548669E+03  0.40933701837E+03  0.64805292605E+02  0.89774969172E+03  0.50400001928E-02 0.  1.
</event>
<event>
 5   0  0.1906857E-05  0.1843169E+04  0.7818609E-02  0.8683674E-01
       -1   -1    0    0    0  501  0.00000000000E+00  0.00000000000E+00  0.78279580073E+03  0.78279580074E+03  0.50400001928E-02 0.  1.
        1   -1    0    0  501    0  0.00000000000E+00  0.00000000000E+00 -0.10849805489E+04  0.10849805489E+04  0.50400001928E-02 0. -1.
    10030    2    1    2    0    0  0.00000000000E+00  0.00000000000E+00 -0.30218474820E+03  0.18677763497E+04  0.18431692463E+04 0.  0.
        4    1    3    3  502    0 -0.85381794585E+03 -0.12453199330E+03 -0.47914773630E+03  0.98696376231E+03  0.12699999809E+01 0. -1.
       -4    1    3    3    0  502  0.85381794585E+03  0.12453199330E+03  0.17696298810E+03  0.88081258737E+03  0.12699999809E+01 0.  1.
</event>
<event>
 5   0  0.4015729E-05  0.1799418E+04  0.7818609E-02  0.8706609E-01
        2   -1    0    0  501    0  0.00000000000E+00  0.00000000000E+00  0.14848087604E+04  0.14848087604E+04  0.25500000920E-02 0. -1.
       -2   -1    0    0    0  501  0.00000000000E+00  0.00000000000E+00 -0.54517204792E+03  0.54517204793E+03  0.25500000920E-02 0.  1.
    10030    2    1    2    0    0  0.00000000000E+00  0.00000000000E+00  0.93963671248E+03  0.20299808083E+04  0.17994179422E+04 0.  0.
        2    1    3    3  502    0 -0.65266549804E+03  0.58944335971E+03  0.25559057295E+03  0.91582873270E+03  0.25500000920E-02 0.  1.
       -2    1    3    3    0  502  0.65266549804E+03 -0.58944335971E+03  0.68404613952E+03  0.11141520756E+04  0.25500000920E-02 0. -1.
</event>
<event>
 5   0  0.3993393E-05  0.1800112E+04  0.7818609E-02  0.8706240E-01
        2   -1    0    0  501    0  0.00000000000E+00  0.00000000000E+00  0.46945547406E+03  0.46945547406E+03  0.25500000920E-02 0.  1.
       -2   -1    0    0    0  501  0.00000000000E+00  0.00000000000E+00 -0.17256183221E+04  0.17256183221E+04  0.25500000920E-02 0. -1.
    10030    2    1    2    0    0  0.00000000000E+00  0.00000000000E+00 -0.12561628481E+04  0.21950737962E+04  0.18001121826E+04 0.  0.
        5    1    3    3  502    0  0.38681897628E+03  0.37908499041E+03  0.24849038035E+03  0.59590595692E+03  0.46999998093E+01 0.  1.
       -5    1    3    3    0  502 -0.38681897628E+03 -0.37908499041E+03 -0.15046532284E+04  0.15991678393E+04  0.46999998093E+01 0. -1.
</event>
<event>
 5   0  0.1906857E-05  0.1798893E+04  0.7818609E-02  0.8706888E-01
        1   -1    0    0  501    0  0.00000000000E+00  0.00000000000E+00  0.13289421309E+04  0.13289421309E+04  0.50400001928E-02 0.  1.
       -1   -1    0    0    0  501  0.00000000000E+00  0.00000000000E+00 -0.60875776534E+03  0.60875776536E+03  0.50400001928E-02 0. -1.
    10030    2    1    2    0    0  0.00000000000E+00  0.00000000000E+00  0.72018436557E+03  0.19376998963E+04  0.17988928172E+04 0.  0.
        4    1    3    3  502    0 -0.14315372854E+03 -0.74307930144E+03 -0.16357099945E+03  0.77422020316E+03  0.12699999809E+01 0. -1.
       -4    1    3    3    0  502  0.14315372854E+03  0.74307930144E+03  0.88375536501E+03  0.11634796931E+04  0.12699999809E+01 0.  1.
</event>
<event>
 5   0  0.2001811E-05  0.1788384E+04  0.7818609E-02  0.8712501E-01
        1   -1    0    0  501    0  0.00000000000E+00  0.00000000000E+00  0.12527141690E+04  0.12527141690E+04  0.50400001928E-02 0. -1.
       -1   -1    0    0    0  501  0.00000000000E+00  0.00000000000E+00 -0.63827787827E+03  0.63827787829E+03  0.50400001928E-02 0.  1.
    10030    2    1    2    0    0  0.00000000000E+00  0.00000000000E+00  0.61443629073E+03  0.18909920473E+04  0.17883844574E+04 0.  0.
        2    1    3    3  502    0  0.38762309030E+03  0.24189325739E+03  0.11199641472E+04  0.12095799680E+04  0.25500000920E-02 0. -1.
       -2    1    3    3    0  502 -0.38762309030E+03 -0.24189325739E+03 -0.50552785645E+03  0.68141207926E+03  0.25500000920E-02 0.  1.
</event>
<event>
 5   0  0.3909859E-05  0.1799607E+04  0.7818609E-02  0.8706509E-01
       -2   -1    0    0    0  501  0.00000000000E+00  0.00000000000E+00  0.44556952618E+03  0.44556952619E+03  0.25500000920E-02 0.  1.
        2   -1    0    0  501    0  0.00000000000E+00  0.00000000000E+00 -0.18171036138E+04  0.18171036138E+04  0.25500000920E-02 0. -1.
    10030    2    1    2    0    0  0.00000000000E+00  0.00000000000E+00 -0.13715340876E+04  0.22626731400E+04  0.17996066195E+04 0.  0.
        4    1    3    3  502    0 -0.40523547277E+03  0.63773681202E+03 -0.71455093313E+02  0.75896737285E+03  0.12699999809E+01 0.  1.
       -4    1    3    3    0  502  0.40523547277E+03 -0.63773681202E+03 -0.13000789943E+04  0.15037057672E+04  0.12699999809E+01 0. -1.
</event>
<event>
 5   0  0.2054876E-05  0.1797994E+04  0.7818609E-02  0.8707367E-01
        1   -1    0    0  501    0  0.00000000000E+00  0.00000000000E+00  0.66363834650E+03  0.66363834652E+03  0.50400001928E-02 0. -1.
       -1   -1    0    0    0  501  0.00000000000E+00  0.00000000000E+00 -0.12178252056E+04  0.12178252056E+04  0.50400001928E-02 0.  1.
    10030    2    1    2    0    0  0.00000000000E+00  0.00000000000E+00 -0.55418685913E+03  0.18814635522E+04  0.17979938885E+04 0.  0.
        5    1    3    3  502    0 -0.20136814823E+03  0.87600682226E+03 -0.26100665728E+03  0.93599340217E+03  0.46999998093E+01 0.  1.
       -5    1    3    3    0  502  0.20136814823E+03 -0.87600682226E+03 -0.29318020185E+03  0.94547014999E+03  0.46999998093E+01 0. -1.
</event>
<event>
 5   0  0.3909859E-05  0.1799266E+04  0.7818609E-02  0.8706690E-01
       -2   -1    0    0    0  501  0.00000000000E+00  0.00000000000E+00  0.60004532031E+03  0.60004532031E+03  0.25500000920E-02 0. -1.
        2   -1    0    0  501    0  0.00000000000E+00  0.00000000000E+00 -0.13487976523E+04  0.13487976523E+04  0.25500000920E-02 0.  1.
    10030    2    1    2    0    0  0.00000000000E+00  0.00000000000E+00 -0.74875233204E+03  0.19488429727E+04  0.17992662052E+04 0.  0.
        4    1    3    3  502    0 -0.75159603979E+03  0.22450105752E+03  0.10274416636E+03  0.79111017467E+03  0.12699999809E+01 0. -1.
       -4    1    3    3    0  502  0.75159603979E+03 -0.22450105752E+03 -0.85149649840E+03  0.11577327980E+04  0.12699999809E+01 0.  1.
</event>
<event>
 5   0  0.3909859E-05  0.1803406E+04  0.7818609E-02  0.8704490E-01
        2   -1    0    0  501    0  0.00000000000E+00  0.00000000000E+00  0.14354962765E+04  0.14354962765E+04  0.25500000920E-02 0. -1.
       -2   -1    0    0    0  501  0.00000000000E+00  0.00000000000E+00 -0.56640251375E+03  0.56640251375E+03  0.25500000920E-02 0.  1.
    10030    2    1    2    0    0  0.00000000000E+00  0.00000000000E+00  0.86909376272E+03  0.20018987902E+04  0.18034064428E+04 0.  0.
        4    1    3    3  502    0  0.88975920495E+02  0.76098619401E+03 -0.93230927112E+02  0.77182272613E+03  0.12699999809E+01 0.  1.
       -4    1    3    3    0  502 -0.88975920495E+02 -0.76098619401E+03  0.96232468984E+03  0.12300760641E+04  0.12699999809E+01 0. -1.
</event>
<event>
 5   0  0.3983176E-05  0.1802081E+04  0.7818609E-02  0.8705194E-01
        2   -1    0    0  501    0  0.00000000000E+00  0.00000000000E+00  0.55533887577E+03  0.55533887577E+03  0.25500000920E-02 0. -1.
       -2   -1    0    0    0  501  0.00000000000E+00  0.00000000000E+00 -0.14619429274E+04  0.14619429274E+04  0.25500000920E-02 0.  1.
    10030    2    1    2    0    0  0.00000000000E+00  0.00000000000E+00 -0.90660405160E+03  0.20172818031E+04  0.18020807326E+04 0.  0.
        3    1    3    3  502    0  0.35788077330E+03  0.72396027054E+03 -0.90061652955E+03  0.12096723791E+04  0.10100000352E+00 0.  1.
       -3    1    3    3    0  502 -0.35788077330E+03 -0.72396027054E+03 -0.59875220545E+01  0.80760942406E+03  0.10100000352E+00 0. -1.
</event>
<event>
 5   0  0.2001811E-05  0.1799761E+04  0.7818609E-02  0.8706426E-01
        1   -1    0    0  501    0  0.00000000000E+00  0.00000000000E+00  0.20172207836E+04  0.20172207836E+04  0.50400001928E-02 0.  1.
       -1   -1    0    0    0  501  0.00000000000E+00  0.00000000000E+00 -0.40143611959E+03  0.40143611962E+03  0.50400001928E-02 0. -1.
    10030    2    1    2    0    0  0.00000000000E+00  0.00000000000E+00  0.16157846640E+04  0.24186569033E+04  0.17997614106E+04 0.  0.
        2    1    3    3  502    0  0.41348632477E+03  0.99790379916E+02 -0.25780778144E+03  0.49738708555E+03  0.25500000920E-02 0. -1.
       -2    1    3    3    0  502 -0.41348632477E+03 -0.99790379916E+02  0.18735924455E+04  0.19212698177E+04  0.25500000920E-02 0.  1.
</event>
<event>
 5   0  0.2038338E-05  0.1798410E+04  0.7818609E-02  0.8707145E-01
        1   -1    0    0  501    0  0.00000000000E+00  0.00000000000E+00  0.10780935095E+04  0.10780935095E+04  0.50400001928E-02 0.  1.
       -1   -1    0    0    0  501  0.00000000000E+00  0.00000000000E+00 -0.74999995283E+03  0.74999995284E+03  0.50400001928E-02 0. -1.
    10030    2    1    2    0    0  0.00000000000E+00  0.00000000000E+00  0.32809355666E+03  0.18280934623E+04  0.17984104996E+04 0.  0.
        1    1    3    3  502    0 -0.48878417068E+03  0.63802502152E+03  0.57391921990E+03  0.98760779897E+03  0.50400001928E-02 0.  1.
       -1    1    3    3    0  502  0.48878417068E+03 -0.63802502152E+03 -0.24582566324E+03  0.84048566337E+03  0.50400001928E-02 0. -1.
</event>
<event>
 5   0  0.2054876E-05  0.1801563E+04  0.7818609E-02  0.8705469E-01
       -1   -1    0    0    0  501  0.00000000000E+00  0.00000000000E+00  0.10911476722E+04  0.10911476722E+04  0.50400001928E-02 0.  1.
        1   -1    0    0  501    0  0.00000000000E+00  0.00000000000E+00 -0.74362733953E+03  0.74362733955E+03  0.50400001928E-02 0. -1.
    10030    2    1    2    0    0  0.00000000000E+00  0.00000000000E+00  0.34752033270E+03  0.18347750118E+04  0.18015629221E+04 0.  0.
        5    1    3    3  502    0 -0.41924152942E+03 -0.54874188602E+03  0.76278561791E+03  0.10289534034E+04  0.46999998093E+01 0.  1.
       -5    1    3    3    0  502  0.41924152942E+03  0.54874188602E+03 -0.41526528521E+03  0.80582160840E+03  0.46999998093E+01 0. -1.
</event>
<event>
 5   0  0.3984648E-05  0.1815020E+04  0.7818609E-02  0.8698353E-01
       -2   -1    0    0    0  501  0.00000000000E+00  0.00000000000E+00  0.36226174864E+03  0.36226174865E+03  0.25500000920E-02 0. -1.
        2   -1    0    0  501    0  0.00000000000E+00  0.00000000000E+00 -0.22734238213E+04  0.22734238213E+04  0.25500000920E-02 0.  1.
    10030    2    1    2    0    0  0.00000000000E+00  0.00000000000E+00 -0.19111620727E+04  0.26356855700E+04  0.18150200979E+04 0.  0.
        1    1    3    3  502    0  0.66987940943E+03 -0.31777668057E+03 -0.19565426905E+03  0.76681225532E+03  0.50400001928E-02 0. -1.
       -1    1    3    3    0  502 -0.66987940943E+03  0.31777668057E+03 -0.17155078036E+04  0.18688733146E+04  0.50400001928E-02 0.  1.
</event>
<event>
 5   0  0.3993393E-05  0.1807162E+04  0.7818609E-02  0.8702500E-01
        2   -1    0    0  501    0  0.00000000000E+00  0.00000000000E+00  0.70700091324E+03  0.70700091324E+03  0.25500000920E-02 0. -1.
       -2   -1    0    0    0  501  0.00000000000E+00  0.00000000000E+00 -0.11548191582E+04  0.11548191582E+04  0.25500000920E-02 0.  1.
    10030    2    1    2    0    0  0.00000000000E+00  0.00000000000E+00 -0.44781824500E+03  0.18618200715E+04  0.18071615307E+04 0.  0.
        5    1    3    3  502    0 -0.90156777696E+03 -0.15203413470E+02 -0.16400843594E+03  0.91650229531E+03  0.46999998093E+01 0. -1.
       -5    1    3    3    0  502  0.90156777696E+03  0.15203413470E+02 -0.28380980906E+03  0.94531777618E+03  0.46999998093E+01 0.  1.
</event>
<event>
 5   0  0.3909859E-05  0.1801787E+04  0.7818609E-02  0.8705350E-01
       -2   -1    0    0    0  501  0.00000000000E+00  0.00000000000E+00  0.94119240050E+03  0.94119240050E+03  0.25500000920E-02 0. -1.
        2   -1    0    0  501    0  0.00000000000E+00  0.00000000000E+00 -0.86232019039E+03  0.86232019039E+03  0.25500000920E-02 0.  1.
    10030    2    1    2    0    0  0.00000000000E+00  0.00000000000E+00  0.78872210109E+02  0.18035125909E+04  0.18017871239E+04 0.  0.
        4    1    3    3  502    0  0.31766237823E+03 -0.18307296605E+03  0.86313515048E+03  0.93777875767E+03  0.12699999809E+01 0. -1.
       -4    1    3    3    0  502 -0.31766237823E+03  0.18307296605E+03 -0.78426294037E+03  0.86573383322E+03  0.12699999809E+01 0.  1.
</event>
<event>
 5   0  0.2054876E-05  0.1806840E+04  0.7818609E-02  0.8702671E-01
        1   -1    0    0  501    0  0.00000000000E+00  0.00000000000E+00  0.10181207491E+04  0.10181207491E+04  0.50400001928E-02 0.  1.
       -1   -1    0    0    0  501  0.00000000000E+00  0.00000000000E+00 -0.80164096730E+03  0.80164096732E+03  0.50400001928E-02 0. -1.
    10030    2    1    2    0    0  0.00000000000E+00  0.00000000000E+00  0.21647978177E+03  0.18197617164E+04  0.18068395636E+04 0.  0.
        5    1    3    3  502    0 -0.84875094883E+03 -0.30909109404E+03  0.92974493030E+02  0.90806487869E+03  0.46999998093E+01 0.  1.
       -5    1    3    3    0  502  0.84875094883E+03  0.30909109404E+03  0.12350528874E+03  0.91169683771E+03  0.46999998093E+01 0. -1.
</event>
<event>
 5   0  0.2038338E-05  0.1797779E+04  0.7818609E-02  0.8707481E-01
        1   -1    0    0  501    0  0.00000000000E+00  0.00000000000E+00  0.13952542301E+04  0.13952542301E+04  0.50400001928E-02 0.  1.
       -1   -1    0    0    0  501  0.00000000000E+00  0.00000000000E+00 -0.57910789715E+03  0.57910789717E+03  0.50400001928E-02 0. -1.
    10030    2    1    2    0    0  0.00000000000E+00  0.00000000000E+00  0.81614633293E+03  0.19743621273E+04  0.17977794561E+04 0.  0.
        1    1    3    3  502    0 -0.49495535306E+03  0.73146815686E+03  0.22438323198E+03  0.91124875904E+03  0.50400001928E-02 0. -1.
       -1    1    3    3    0  502  0.49495535306E+03 -0.73146815686E+03  0.59176310095E+03  0.10631133682E+04  0.50400001928E-02 0.  1.
</event>
<event>
 5   0  0.2001811E-05  0.1802427E+04  0.7818609E-02  0.8705010E-01
       -1   -1    0    0    0  501  0.00000000000E+00  0.00000000000E+00  0.71498559114E+03  0.71498559116E+03  0.50400001928E-02 0.  1.
        1   -1    0    0  501    0  0.00000000000E+00  0.00000000000E+00 -0.11359468779E+04  0.11359468779E+04  0.50400001928E-02 0. -1.
    10030    2    1    2    0    0  0.00000000000E+00  0.00000000000E+00 -0.42096128674E+03  0.18509324690E+04  0.18024268640E+04 0.  0.
        2    1    3    3  502    0  0.53318050553E+03  0.30378016765E+03  0.46729776396E+03  0.77131773087E+03  0.25500000920E-02 0.  1.
       -2    1    3    3    0  502 -0.53318050553E+03 -0.30378016765E+03 -0.88825905070E+03  0.10796147382E+04  0.25500000920E-02 0. -1.
</event>
<event>
 5   0  0.2001811E-05  0.1802074E+04  0.7818609E-02  0.8705198E-01
       -1   -1    0    0    0  501  0.00000000000E+00  0.00000000000E+00  0.15926452477E+04  0.15926452477E+04  0.50400001928E-02 0. -1.
        1   -1    0    0  501    0  0.00000000000E+00  0.00000000000E+00 -0.50976028748E+03  0.50976028750E+03  0.50400001928E-02 0.  1.
    10030    2    1    2    0    0  0.00000000000E+00  0.00000000000E+00  0.10828849602E+04  0.21024055352E+04  0.18020735827E+04 0.  0.
        2    1    3    3  502    0 -0.67344316266E+03 -0.41518927393E+03  0.10445410980E+04  0.13103335193E+04  0.25500000920E-02 0.  1.
       -2    1    3    3    0  502  0.67344316266E+03  0.41518927393E+03  0.38343862233E+02  0.79207201585E+03  0.25500000920E-02 0. -1.
</event>
<event>
 5   0  0.2054876E-05  0.1792826E+04  0.7818609E-02  0.8710124E-01
        1   -1    0    0  501    0  0.00000000000E+00  0.00000000000E+00  0.12762168408E+04  0.12762168408E+04  0.50400001928E-02 0.  1.
       -1   -1    0    0    0  501  0.00000000000E+00  0.00000000000E+00 -0.62963894428E+03  0.62963894430E+03  0.50400001928E-02 0. -1.
    10030    2    1    2    0    0  0.00000000000E+00  0.00000000000E+00  0.64657789653E+03  0.19058557851E+04  0.17928255067E+04 0.  0.
        5    1    3    3  502    0 -0.10340553631E+03 -0.56594751135E+03 -0.40746865544E+03  0.70501211742E+03  0.46999998093E+01 0. -1.
       -5    1    3    3    0  502  0.10340553631E+03  0.56594751135E+03  0.10540465520E+04  0.12008436677E+04  0.46999998093E+01 0.  1.
</event>
<event>
 5   0  0.3984648E-05  0.1799346E+04  0.7818609E-02  0.8706647E-01
       -2   -1    0    0    0  501  0.00000000000E+00  0.00000000000E+00  0.41907977893E+03  0.41907977894E+03  0.25500000920E-02 0. -1.
        2   -1    0    0  501    0  0.00000000000E+00  0.00000000000E+00 -0.19314013113E+04  0.19314013113E+04  0.25500000920E-02 0.  1.
    10030    2    1    2    0    0  0.00000000000E+00  0.00000000000E+00 -0.15123215324E+04  0.23504810902E+04  0.17993456973E+04 0.  0.
        1    1    3    3  502    0  0.48038837353E+03  0.25502881836E+03  0.18000777930E+03  0.57290094105E+03  0.50400001928E-02 0. -1.
       -1    1    3    3    0  502 -0.48038837353E+03 -0.25502881836E+03 -0.16923293117E+04  0.17775801492E+04  0.50400001928E-02 0.  1.
</event>
<event>
 5   0  0.2001811E-05  0.1811950E+04  0.7818609E-02  0.8699970E-01
       -1   -1    0    0    0  501  0.00000000000E+00  0.00000000000E+00  0.17467081816E+04  0.17467081816E+04  0.50400001928E-02 0. -1.
        1   -1    0    0  501    0  0.00000000000E+00  0.00000000000E+00 -0.46990699838E+03  0.46990699841E+03  0.50400001928E-02 0.  1.
    10030    2    1    2    0    0  0.00000000000E+00  0.00000000000E+00  0.12768011832E+04  0.22166151800E+04  0.18119496668E+04 0.  0.
        2    1    3    3  502    0 -0.24764515531E+02 -0.79464322492E+03  0.11698382050E+04  0.14144230491E+04  0.25500000920E-02 0. -1.
       -2    1    3    3    0  502  0.24764515531E+02  0.79464322492E+03  0.10696297828E+03  0.80219213090E+03  0.25500000920E-02 0.  1.
</event>
<event>
 5   0  0.2038338E-05  0.1782751E+04  0.7818609E-02  0.8715526E-01
       -1   -1    0    0    0  501  0.00000000000E+00  0.00000000000E+00  0.12413016056E+04  0.12413016057E+04  0.50400001928E-02 0. -1.
        1   -1    0    0  501    0  0.00000000000E+00  0.00000000000E+00 -0.64009438160E+03  0.64009438162E+03  0.50400001928E-02 0.  1.
    10030    2    1    2    0    0  0.00000000000E+00  0.00000000000E+00  0.60120722404E+03  0.18813959873E+04  0.17827508897E+04 0.  0.
        1    1    3    3  502    0  0.28181570238E+03 -0.80652721253E+03  0.56892388741E+03  0.10264407554E+04  0.50400001928E-02 0. -1.
       -1    1    3    3    0  502 -0.28181570238E+03  0.80652721253E+03  0.32283336629E+02  0.85495523187E+03  0.50400001928E-02 0.  1.
</event>
<event>
 5   0  0.3909859E-05  0.1801508E+04  0.7818609E-02  0.8705498E-01
       -2   -1    0    0    0  501  0.00000000000E+00  0.00000000000E+00  0.89192848272E+03  0.89192848272E+03  0.25500000920E-02 0. -1.
        2   -1    0    0  501    0  0.00000000000E+00  0.00000000000E+00 -0.90966720746E+03  0.90966720746E+03  0.25500000920E-02 0.  1.
    10030    2    1    2    0    0  0.00000000000E+00  0.00000000000E+00 -0.17738724742E+02  0.18015956902E+04  0.18015083593E+04 0.  0.
        4    1    3    3  502    0  0.53981706144E+02 -0.87329253504E+02 -0.90379600719E+03  0.90960939893E+03  0.12699999809E+01 0.  1.
       -4    1    3    3    0  502 -0.53981706144E+02  0.87329253504E+02  0.88605728244E+03  0.89198629126E+03  0.12699999809E+01 0. -1.
</event>
<event>
 5   0  0.2054876E-05  0.1800039E+04  0.7818609E-02  0.8706279E-01
        1   -1    0    0  501    0  0.00000000000E+00  0.00000000000E+00  0.26406631800E+04  0.26406631800E+04  0.50400001928E-02 0. -1.
       -1   -1    0    0    0  501  0.00000000000E+00  0.00000000000E+00 -0.30675430769E+03  0.30675430773E+03  0.50400001928E-02 0.  1.
    10030    2    1    2    0    0  0.00000000000E+00  0.00000000000E+00  0.23339088723E+04  0.29474174878E+04  0.18000386726E+04 0.  0.
        5    1    3    3  502    0  0.14314434990E+03  0.14649954304E+03 -0.26806398978E+03  0.33739118784E+03  0.46999998093E+01 0.  1.
       -5    1    3    3    0  502 -0.14314434990E+03 -0.14649954304E+03  0.26019728621E+04  0.26100262999E+04  0.46999998093E+01 0. -1.
</event>
<event>
 5   0  0.2054876E-05  0.1796849E+04  0.7818609E-02  0.8707977E-01
       -1   -1    0    0    0  501  0.00000000000E+00  0.00000000000E+00  0.14823496058E+04  0.14823496058E+04  0.50400001928E-02 0.  1.
        1   -1    0    0  501    0  0.00000000000E+00  0.00000000000E+00 -0.54451812590E+03  0.54451812592E+03  0.50400001928E-02 0. -1.
    10030    2    1    2    0    0  0.00000000000E+00  0.00000000000E+00  0.93783147991E+03  0.20268677317E+04  0.17968486072E+04 0.  0.
        5    1    3    3  502    0 -0.83954549457E+03 -0.26433187067E+03  0.26576020216E+03  0.91943382054E+03  0.46999998093E+01 0. -1.
       -5    1    3    3    0  502  0.83954549457E+03  0.26433187067E+03  0.67207127775E+03  0.11074339112E+04  0.46999998093E+01 0.  1.
</event>
<event>
 5   0  0.2001811E-05  0.1795613E+04  0.7818609E-02  0.8708636E-01
        1   -1    0    0  501    0  0.00000000000E+00  0.00000000000E+00  0.12907654465E+04  0.12907654465E+04  0.50400001928E-02 0.  1.
       -1   -1    0    0    0  501  0.00000000000E+00  0.00000000000E+00 -0.62447938242E+03  0.62447938244E+03  0.50400001928E-02 0. -1.
    10030    2    1    2    0    0  0.00000000000E+00  0.00000000000E+00  0.66628606403E+03  0.19152448289E+04  0.17956128858E+04 0.  0.
        2    1    3    3  502    0 -0.49604397916E+03 -0.68475215074E+03  0.65509985948E+03  0.10696265531E+04  0.25500000920E-02 0.  1.
       -2    1    3    3    0  502  0.49604397916E+03  0.68475215074E+03  0.11186204556E+02  0.84561827581E+03  0.25500000920E-02 0. -1.
</event>
<event>
 5   0  0.3984648E-05  0.1797730E+04  0.7818609E-02  0.8707508E-01
        2   -1    0    0  501    0  0.00000000000E+00  0.00000000000E+00  0.82627569911E+03  0.82627569911E+03  0.25500000920E-02 0. -1.
       -2   -1    0    0    0  501  0.00000000000E+00  0.00000000000E+00 -0.97783104061E+03  0.97783104061E+03  0.25500000920E-02 0.  1.
    10030    2    1    2    0    0  0.00000000000E+00  0.00000000000E+00 -0.15155534149E+03  0.18041067397E+04  0.17977297090E+04 0.  0.
        1    1    3    3  502    0 -0.34227640543E+02 -0.43050543008E+03  0.71534071572E+03  0.83559487570E+03  0.50400001928E-02 0. -1.
       -1    1    3    3    0  502  0.34227640543E+02  0.43050543008E+03 -0.86689605722E+03  0.96851186402E+03  0.50400001928E-02 0.  1.
</event>
<event>
 5   0  0.1906857E-05  0.1798603E+04  0.7818609E-02  0.8707043E-01
       -1   -1    0    0    0  501  0.00000000000E+00  0.00000000000E+00  0.67106687657E+03  0.67106687659E+03  0.50400001928E-02 0.  1.
        1   -1    0    0  501    0  0.00000000000E+00  0.00000000000E+00 -0.12051602257E+04  0.12051602257E+04  0.50400001928E-02 0. -1.
    10030    2    1    2    0    0  0.00000000000E+00  0.00000000000E+00 -0.53409334910E+03  0.18762271023E+04  0.17986029116E+04 0.  0.
        4    1    3    3  502    0  0.64199699630E+03  0.18214454040E+02  0.38960419496E+03  0.75118902496E+03  0.12699999809E+01 0.  1.
       -4    1    3    3    0  502 -0.64199699630E+03 -0.18214454040E+02 -0.92369754405E+03  0.11250380773E+04  0.12699999809E+01 0. -1.
</event>
<event>
 5   0  0.3984648E-05  0.1853962E+04  0.7818609E-02  0.8678118E-01
        2   -1    0    0  501    0  0.00000000000E+00  0.00000000000E+00  0.13671583547E+04  0.13671583547E+04  0.25500000920E-02 0. -1.
       -2   -1    0    0    0  501  0.00000000000E+00  0.00000000000E+00 -0.62852544736E+03  0.62852544736E+03  0.25500000920E-02 0.  1.
    10030    2    1    2    0    0  0.00000000000E+00  0.00000000000E+00  0.73863290732E+03  0.19956838020E+04  0.18539620454E+04 0.  0.
        1    1    3    3  502    0  0.19509284234E+03 -0.64967687871E+03 -0.31076408773E+03  0.74613375618E+03  0.50400001928E-02 0.  1.
       -1    1    3    3    0  502 -0.19509284234E+03  0.64967687871E+03  0.10493969951E+04  0.12495500459E+04  0.50400001928E-02 0. -1.
</event>
<event>
 5   0  0.3983176E-05  0.1802011E+04  0.7818609E-02  0.8705231E-01
       -2   -1    0    0    0  501  0.00000000000E+00  0.00000000000E+00  0.41945110134E+03  0.41945110134E+03  0.25500000920E-02 0.  1.
        2   -1    0    0  501    0  0.00000000000E+00  0.00000000000E+00 -0.19354115710E+04  0.19354115710E+04  0.25500000920E-02 0. -1.
    10030    2    1    2    0    0  0.00000000000E+00  0.00000000000E+00 -0.15159604696E+04  0.23548626723E+04  0.18020105604E+04 0.  0.
        3    1    3    3  502    0 -0.74437452647E+03  0.21288718870E+03 -0.15572367763E+03  0.78972417004E+03  0.10100000352E+00 0.  1.
       -3    1    3    3    0  502  0.74437452647E+03 -0.21288718870E+03 -0.13602367920E+04  0.15651385023E+04  0.10100000352E+00 0. -1.
</event>
<event>
 5   0  0.3983176E-05  0.1799112E+04  0.7818609E-02  0.8706772E-01
        2   -1    0    0  501    0  0.00000000000E+00  0.00000000000E+00  0.11838254496E+04  0.11838254496E+04  0.25500000920E-02 0.  1.
       -2   -1    0    0    0  501  0.00000000000E+00  0.00000000000E+00 -0.68354739224E+03  0.68354739224E+03  0.25500000920E-02 0. -1.
    10030    2    1    2    0    0  0.00000000000E+00  0.00000000000E+00  0.50027805733E+03  0.18673728418E+04  0.17991117796E+04 0.  0.
        3    1    3    3  502    0  0.52235256245E+03  0.73088228650E+03  0.20190352245E+03  0.92076389959E+03  0.10100000352E+00 0. -1.
       -3    1    3    3    0  502 -0.52235256245E+03 -0.73088228650E+03  0.29837453488E+03  0.94660894221E+03  0.10100000352E+00 0.  1.
</event>
<event>
 5   0  0.2038338E-05  0.1795601E+04  0.7818609E-02  0.8708642E-01
       -1   -1    0    0    0  501  0.00000000000E+00  0.00000000000E+00  0.47914814673E+03  0.47914814675E+03  0.50400001928E-02 0. -1.
        1   -1    0    0  501    0  0.00000000000E+00  0.00000000000E+00 -0.16822471928E+04  0.16822471928E+04  0.50400001928E-02 0.  1.
    10030    2    1    2    0    0  0.00000000000E+00  0.00000000000E+00 -0.12030990460E+04  0.21613953395E+04  0.17956008741E+04 0.  0.
        1    1    3    3  502    0 -0.50179648808E+03  0.23382368811E+03 -0.14523419539E+04  0.15542748739E+04  0.50400001928E-02 0.  1.
       -1    1    3    3    0  502  0.50179648808E+03 -0.23382368811E+03  0.24924290790E+03  0.60712046559E+03  0.50400001928E-02 0. -1.
</event>
<event>
 5   0  0.2054876E-05  0.1799042E+04  0.7818609E-02  0.8706809E-01
        1   -1    0    0  501    0  0.00000000000E+00  0.00000000000E+00  0.76667642887E+03  0.76667642888E+03  0.50400001928E-02 0.  1.
       -1   -1    0    0    0  501  0.00000000000E+00  0.00000000000E+00 -0.10553835658E+04  0.10553835658E+04  0.50400001928E-02 0. -1.
    10030    2    1    2    0    0  0.00000000000E+00  0.00000000000E+00 -0.28870713689E+03  0.18220599947E+04  0.17990416374E+04 0.  0.
        5    1    3    3  502    0  0.47005681364E+03 -0.62864963186E+03 -0.58924821525E+03  0.98152397671E+03  0.46999998093E+01 0. -1.
       -5    1    3    3    0  502 -0.47005681364E+03  0.62864963186E+03  0.30054107835E+03  0.84053601795E+03  0.46999998093E+01 0.  1.
</event>
<event>
 5   0  0.3983176E-05  0.1801316E+04  0.7818609E-02  0.8705600E-01
       -2   -1    0    0    0  501  0.00000000000E+00  0.00000000000E+00  0.98889095212E+03  0.98889095213E+03  0.25500000920E-02 0.  1.
        2   -1    0    0  501    0  0.00000000000E+00  0.00000000000E+00 -0.82029758575E+03  0.82029758576E+03  0.25500000920E-02 0. -1.
    10030    2    1    2    0    0  0.00000000000E+00  0.00000000000E+00  0.16859336637E+03  0.18091885379E+04  0.18013160307E+04 0.  0.
        3    1    3    3  502    0  0.23969634656E+03  0.16489327764E+03  0.94039549292E+03  0.98437179199E+03  0.10100000352E+00 0.  1.
       -3    1    3    3    0  502 -0.23969634656E+03 -0.16489327764E+03 -0.77180212655E+03  0.82481674589E+03  0.10100000352E+00 0. -1.
</event>
<event>
 5   0  0.2054876E-05  0.1808663E+04  0.7818609E-02  0.8701706E-01
        1   -1    0    0  501    0  0.00000000000E+00  0.00000000000E+00  0.69883805190E+03  0.69883805191E+03  0.50400001928E-02 0.  1.
       -1   -1    0    0    0  501  0.00000000000E+00  0.00000000000E+00 -0.11702499426E+04  0.11702499426E+04  0.50400001928E-02 0. -1.
    10030    2    1    2    0    0  0.00000000000E+00  0.00000000000E+00 -0.47141189067E+03  0.18690879945E+04  0.18086626995E+04 0.  0.
        5    1    3    3  502    0 -0.17995627355E+02  0.83424170883E+03  0.12452268572E+03  0.84368895963E+03  0.46999998093E+01 0.  1.
       -5    1    3    3    0  502  0.17995627355E+02 -0.83424170883E+03 -0.59593457639E+03  0.10253990349E+04  0.46999998093E+01 0. -1.
</event>
<event>
 5   0  0.4015729E-05  0.1804067E+04  0.7818609E-02  0.8704140E-01
        2   -1    0    0  501    0  0.00000000000E+00  0.00000000000E+00  0.12932128929E+04  0.12932128929E+04  0.25500000920E-02 0.  1.
       -2   -1    0    0    0  501  0.00000000000E+00  0.00000000000E+00 -0.62918080019E+03  0.62918080019E+03  0.25500000920E-02 0. -1.
    10030    2    1    2    0    0  0.00000000000E+00  0.00000000000E+00  0.66403209268E+03  0.19223936931E+04  0.18040673189E+04 0.  0.
        2    1    3    3  502    0  0.16621181302E+03 -0.88118302471E+03  0.43617608740E+03  0.99717574632E+03  0.25500000920E-02 0.  1.
       -2    1    3    3    0  502 -0.16621181302E+03  0.88118302471E+03  0.22785600528E+03  0.92521794674E+03  0.25500000920E-02 0. -1.
</event>
<event>
 5   0  0.2038338E-05  0.1791355E+04  0.7818609E-02  0.8710911E-01
       -1   -1    0    0    0  501  0.00000000000E+00  0.00000000000E+00  0.67262127224E+03  0.67262127225E+03  0.50400001928E-02 0. -1.
        1   -1    0    0  501    0  0.00000000000E+00  0.00000000000E+00 -0.11927036174E+04  0.11927036174E+04  0.50400001928E-02 0.  1.
    10030    2    1    2    0    0  0.00000000000E+00  0.00000000000E+00 -0.52008234512E+03  0.18653248896E+04  0.17913545987E+04 0.  0.
        1    1    3    3  502    0 -0.31525210546E+02 -0.10645488614E+03  0.66542829914E+03  0.67462678794E+03  0.50400001928E-02 0. -1.
       -1    1    3    3    0  502  0.31525210546E+02  0.10645488614E+03 -0.11855106443E+04  0.11906981017E+04  0.50400001928E-02 0.  1.
</event>
<event>
 5   0  0.2038338E-05  0.1798436E+04  0.7818609E-02  0.8707132E-01
        1   -1    0    0  501    0  0.00000000000E+00  0.00000000000E+00  0.79754939527E+03  0.79754939528E+03  0.50400001928E-02 0.  1.
       -1   -1    0    0    0  501  0.00000000000E+00  0.00000000000E+00 -0.10138469050E+04  0.10138469050E+04  0.50400001928E-02 0. -1.
    10030    2    1    2    0    0  0.00000000000E+00  0.00000000000E+00 -0.21629750974E+03  0.18113963003E+04  0.17984359716E+04 0.  0.
        1    1    3    3  502    0 -0.54848858037E+03 -0.69800219134E+03 -0.25252119420E+03  0.92293755772E+03  0.50400001928E-02 0. -1.
       -1    1    3    3    0  502  0.54848858037E+03  0.69800219134E+03  0.36223684459E+02  0.88845874257E+03  0.50400001928E-02 0.  1.
</event>
<event>
 5   0  0.1906857E-05  0.1799139E+04  0.7818609E-02  0.8706757E-01
        1   -1    0    0  501    0  0.00000000000E+00  0.00000000000E+00  0.15806549205E+04  0.15806549205E+04  0.50400001928E-02 0. -1.
       -1   -1    0    0    0  501  0.00000000000E+00  0.00000000000E+00 -0.51195583175E+03  0.51195583177E+03  0.50400001928E-02 0.  1.
    10030    2    1    2    0    0  0.00000000000E+00  0.00000000000E+00  0.10686990888E+04  0.20926107523E+04  0.17991392437E+04 0.  0.
        4    1    3    3  502    0  0.59168295142E+03  0.42715197576E+03  0.11461498751E+04  0.13587526171E+04  0.12699999809E+01 0. -1.
       -4    1    3    3    0  502 -0.59168295142E+03 -0.42715197576E+03 -0.77450786321E+02  0.73385813520E+03  0.12699999809E+01 0.  1.
</event>
<event>
 5   0  0.3909859E-05  0.1801369E+04  0.7818609E-02  0.8705572E-01
       -2   -1    0    0    0  501  0.00000000000E+00  0.00000000000E+00  0.66401719868E+03  0.66401719868E+03  0.25500000920E-02 0.  1.
        2   -1    0    0  501    0  0.00000000000E+00  0.00000000000E+00 -0.12217043226E+04  0.12217043226E+04  0.25500000920E-02 0. -1.
    10030    2    1    2    0    0  0.00000000000E+00  0.00000000000E+00 -0.55768712392E+03  0.18857215213E+04  0.18013691259E+04 0.  0.
        4    1    3    3  502    0  0.20587547837E+03  0.42422796639E+03 -0.10821608892E+04  0.11804354634E+04  0.12699999809E+01 0. -1.
       -4    1    3    3    0  502 -0.20587547837E+03 -0.42422796639E+03  0.52447376533E+03  0.70528605791E+03  0.12699999809E+01 0.  1.
</event>
<event>
 5   0  0.1960300E-05  0.1805266E+04  0.7818609E-02  0.8703504E-01
       -1   -1    0    0    0  501  0.00000000000E+00  0.00000000000E+00  0.53597446673E+03  0.53597446676E+03  0.50400001928E-02 0.  1.
        1   -1    0    0  501    0  0.00000000000E+00  0.00000000000E+00 -0.15201221072E+04  0.15201221072E+04  0.50400001928E-02 0. -1.
    10030    2    1    2    0    0  0.00000000000E+00  0.00000000000E+00 -0.98414764043E+03  0.20560965739E+04  0.18052663358E+04 0.  0.
        3    1    3    3  502    0  0.46097999252E+03 -0.79900042459E+02  0.38709922020E+03  0.60723338740E+03  0.10100000352E+00 0.  1.
       -3    1    3    3    0  502 -0.46097999252E+03  0.79900042459E+02 -0.13712468606E+04  0.14488631865E+04  0.10100000352E+00 0. -1.
</event>
<event>
 5   0  0.2054876E-05  0.1801289E+04  0.7818609E-02  0.8705614E-01
       -1   -1    0    0    0  501  0.00000000000E+00  0.00000000000E+00  0.86124764232E+03  0.86124764233E+03  0.50400001928E-02 0.  1.
        1   -1    0    0  501    0  0.00000000000E+00  0.00000000000E+00 -0.94184325927E+03  0.94184325928E+03  0.50400001928E-02 0. -1.
    10030    2    1    2    0    0  0.00000000000E+00  0.00000000000E+00 -0.80595616946E+02  0.18030909016E+04  0.18012887459E+04 0.  0.
        5    1    3    3  502    0  0.45906069051E+03 -0.77460724051E+03 -0.20654162229E+02  0.90066740756E+03  0.46999998093E+01 0.  1.
       -5    1    3    3    0  502 -0.45906069051E+03  0.77460724051E+03 -0.59941454717E+02  0.90242349405E+03  0.46999998093E+01 0. -1.
</event>
<event>
 5   0  0.1906857E-05  0.1796111E+04  0.7818609E-02  0.8708370E-01
       -1   -1    0    0    0  501  0.00000000000E+00  0.00000000000E+00  0.85206185932E+03  0.85206185933E+03  0.50400001928E-02 0.  1.
        1   -1    0    0  501    0  0.00000000000E+00  0.00000000000E+00 -0.94653229457E+03  0.94653229459E+03  0.50400001928E-02 0. -1.
    10030    2    1    2    0    0  0.00000000000E+00  0.00000000000E+00 -0.94470435256E+02  0.17985941539E+04  0.17961114296E+04 0.  0.
        4    1    3    3  502    0  0.72345544961E+03 -0.42465393438E+03  0.27380691351E+03  0.88243446802E+03  0.12699999809E+01 0. -1.
       -4    1    3    3    0  502 -0.72345544961E+03  0.42465393438E+03 -0.36827734877E+03  0.91615968590E+03  0.12699999809E+01 0.  1.
</event>
<event>
 5   0  0.4015729E-05  0.1797751E+04  0.7818609E-02  0.8707497E-01
       -2   -1    0    0    0  501  0.00000000000E+00  0.00000000000E+00  0.55338998156E+03  0.55338998157E+03  0.25500000920E-02 0.  1.
        2   -1    0    0  501    0  0.00000000000E+00  0.00000000000E+00 -0.14600495632E+04  0.14600495632E+04  0.25500000920E-02 0. -1.
    10030    2    1    2    0    0  0.00000000000E+00  0.00000000000E+00 -0.90665958167E+03  0.20134395448E+04  0.17977505955E+04 0.  0.
        2    1    3    3  502    0  0.32500999368E+03  0.63985593697E+03  0.15283519296E+03  0.73376134559E+03  0.25500000920E-02 0.  1.
       -2    1    3    3    0  502 -0.32500999368E+03 -0.63985593697E+03 -0.10594947746E+04  0.12796781992E+04  0.25500000920E-02 0. -1.
</event>
<event>
 5   0  0.3909859E-05  0.1798832E+04  0.7818609E-02  0.8706921E-01
        2   -1    0    0  501    0  0.00000000000E+00  0.00000000000E+00  0.16891526143E+04  0.16891526143E+04  0.25500000920E-02 0. -1.
       -2   -1    0    0    0  501  0.00000000000E+00  0.00000000000E+00 -0.47890844202E+03  0.47890844203E+03  0.25500000920E-02 0.  1.
    10030    2    1    2    0    0  0.00000000000E+00  0.00000000000E+00  0.12102441723E+04  0.21680610564E+04  0.17988323400E+04 0.  0.
        4    1    3    3  502    0  0.50703104700E+03  0.49666853482E+03 -0.60709429235E+02  0.71235339811E+03  0.12699999809E+01 0.  1.
       -4    1    3    3    0  502 -0.50703104700E+03 -0.49666853482E+03  0.12709536015E+04  0.14557076582E+04  0.12699999809E+01 0. -1.
</event>
<event>
 5   0  0.3909859E-05  0.1802705E+04  0.7818609E-02  0.8704862E-01
        2   -1    0    0  501    0  0.00000000000E+00  0.00000000000E+00  0.51093925355E+03  0.51093925355E+03  0.25500000920E-02 0. -1.
       -2   -1    0    0    0  501  0.00000000000E+00  0.00000000000E+00 -0.15900844879E+04  0.15900844879E+04  0.25500000920E-02 0.  1.
    10030    2    1    2    0    0  0.00000000000E+00  0.00000000000E+00 -0.10791452344E+04  0.21010237415E+04  0.18027052797E+04 0.  0.
        4    1    3    3  502    0  0.74502982482E+02 -0.52542875857E+03 -0.13887048457E+04  0.14866502064E+04  0.12699999809E+01 0.  1.
       -4    1    3    3    0  502 -0.74502982482E+02  0.52542875857E+03  0.30955961135E+03  0.61437353508E+03  0.12699999809E+01 0. -1.
</event>
<event>
 5   0  0.1906857E-05  0.1799950E+04  0.7818609E-02  0.8706326E-01
        1   -1    0    0  501    0  0.00000000000E+00  0.00000000000E+00  0.17505014070E+04  0.17505014070E+04  0.50400001928E-02 0. -1.
       -1   -1    0    0    0  501  0.00000000000E+00  0.00000000000E+00 -0.46269860352E+03  0.46269860355E+03  0.50400001928E-02 0.  1.
    10030    2    1    2    0    0  0.00000000000E+00  0.00000000000E+00  0.12878028035E+04  0.22132000106E+04  0.17999495065E+04 0.  0.
        4    1    3    3  502    0  0.39485204883E+03  0.39303942943E+03  0.15129744080E+04  0.16122907013E+04  0.12699999809E+01 0. -1.
       -4    1    3    3    0  502 -0.39485204883E+03 -0.39303942943E+03 -0.22517160449E+03  0.60090930923E+03  0.12699999809E+01 0.  1.
</event>
<event>
 5   0  0.4015729E-05  0.1804275E+04  0.7818609E-02  0.8704030E-01
        2   -1    0    0  501    0  0.00000000000E+00  0.00000000000E+00  0.74857768676E+03  0.74857768676E+03  0.25500000920E-02 0.  1.
       -2   -1    0    0    0  501  0.00000000000E+00  0.00000000000E+00 -0.10871974747E+04  0.10871974747E+04  0.25500000920E-02 0. -1.
    10030    2    1    2    0    0  0.00000000000E+00  0.00000000000E+00 -0.33861978796E+03  0.18357751615E+04  0.18042746694E+04 0.  0.
        2    1    3    3  502    0 -0.26429978537E+03  0.13891767874E+03  0.69684537206E+03  0.75812002386E+03  0.25500000920E-02 0.  1.
       -2    1    3    3    0  502  0.26429978537E+03 -0.13891767874E+03 -0.10354651600E+04  0.10776551376E+04  0.25500000920E-02 0. -1.
</event>
<event>
 5   0  0.3909859E-05  0.1796934E+04  0.7818609E-02  0.8707931E-01
        2   -1    0    0  501    0  0.00000000000E+00  0.00000000000E+00  0.11307747884E+04  0.11307747884E+04  0.25500000920E-02 0. -1.
       -2   -1    0    0    0  501  0.00000000000E+00  0.00000000000E+00 -0.71388508439E+03  0.71388508440E+03  0.25500000920E-02 0.  1.
    10030    2    1    2    0    0  0.00000000000E+00  0.00000000000E+00  0.41688970397E+03  0.18446598728E+04  0.17969343396E+04 0.  0.
        4    1    3    3  502    0  0.25695432099E+03  0.56026474034E+03 -0.46261378205E+03  0.77067193188E+03  0.12699999809E+01 0.  1.
       -4    1    3    3    0  502 -0.25695432099E+03 -0.56026474034E+03  0.87950348602E+03  0.10739879409E+04  0.12699999809E+01 0. -1.
</event>
<event>
 5   0  0.3993393E-05  0.1806762E+04  0.7818609E-02  0.8702712E-01
        2   -1    0    0  501    0  0.00000000000E+00  0.00000000000E+00  0.12299947084E+04  0.12299947084E+04  0.25500000920E-02 0.  1.
       -2   -1    0    0    0  501  0.00000000000E+00  0.00000000000E+00 -0.66349620412E+03  0.66349620413E+03  0.25500000920E-02 0. -1.
    10030    2    1    2    0    0  0.00000000000E+00  0.00000000000E+00  0.56649850429E+03  0.18934909125E+04  0.18067615450E+04 0.  0.
        5    1    3    3  502    0  0.67909359560E+03 -0.17154505211E+03  0.88114272946E+03  0.11256244561E+04  0.46999998093E+01 0.  1.
       -5    1    3    3    0  502 -0.67909359560E+03  0.17154505211E+03 -0.31464422517E+03  0.76786645644E+03  0.46999998093E+01 0. -1.
</event>
<event>
 5   0  0.1446750E-05  0.1799980E+04  0.7818609E-02  0.8706310E-01
        4   -1    0    0  501    0  0.00000000000E+00  0.00000000000E+00  0.68672746838E+03  0.68672864271E+03  0.12699999809E+01 0. -1.
       -4   -1    0    0    0  501  0.00000000000E+00  0.00000000000E+00 -0.11794781290E+04  0.11794788127E+04  0.12699999809E+01 0.  1.
    10030    2    1    2    0    0  0.00000000000E+00  0.00000000000E+00 -0.49275066061E+03  0.18662074554E+04  0.17999797369E+04 0.  0.
        3    1    3    3  502    0 -0.18373749701E+03 -0.88099270551E+03 -0.25530248600E+03  0.93546084072E+03  0.10100000352E+00 0.  1.
       -3    1    3    3    0  502  0.18373749701E+03  0.88099270551E+03 -0.23744817461E+03  0.93074661471E+03  0.10100000352E+00 0. -1.
</event>
<event>
 5   0  0.3993393E-05  0.1802106E+04  0.7818609E-02  0.8705180E-01
        2   -1    0    0  501    0  0.00000000000E+00  0.00000000000E+00  0.91713290699E+03  0.91713290699E+03  0.25500000920E-02 0. -1.
       -2   -1    0    0    0  501  0.00000000000E+00  0.00000000000E+00 -0.88525472554E+03  0.88525472554E+03  0.25500000920E-02 0.  1.
    10030    2    1    2    0    0  0.00000000000E+00  0.00000000000E+00  0.31878181450E+02  0.18023876325E+04  0.18021057015E+04 0.  0.
        5    1    3    3  502    0 -0.76483932500E+03 -0.11795571574E+03  0.47751037562E+03  0.90935746148E+03  0.46999998093E+01 0.  1.
       -5    1    3    3    0  502  0.76483932500E+03  0.11795571574E+03 -0.44563219417E+03  0.89303017105E+03  0.46999998093E+01 0. -1.
</event>
<event>
 5   0  0.2054876E-05  0.1805366E+04  0.7818609E-02  0.8703451E-01
        1   -1    0    0  501    0  0.00000000000E+00  0.00000000000E+00  0.93531468424E+03  0.93531468425E+03  0.50400001928E-02 0.  1.
       -1   -1    0    0    0  501  0.00000000000E+00  0.00000000000E+00 -0.87119024572E+03  0.87119024573E+03  0.50400001928E-02 0. -1.
    10030    2    1    2    0    0  0.00000000000E+00  0.00000000000E+00  0.64124438517E+02  0.18065049300E+04  0.18053664776E+04 0.  0.
        5    1    3    3  502    0  0.52257802885E+03 -0.57819994641E+03  0.48777444545E+03  0.91942861273E+03  0.46999998093E+01 0.  1.
       -5    1    3    3    0  502 -0.52257802885E+03  0.57819994641E+03 -0.42365000694E+03  0.88707631726E+03  0.46999998093E+01 0. -1.
</event>
<event>
 5   0  0.2001811E-05  0.1800941E+04  0.7818609E-02  0.8705799E-01
       -1   -1    0    0    0  501  0.00000000000E+00  0.00000000000E+00  0.81065969523E+03  0.81065969525E+03  0.50400001928E-02 0. -1.
        1   -1    0    0  501    0  0.00000000000E+00  0.00000000000E+00 -0.10002306979E+04  0.10002306979E+04  0.50400001928E-02 0.  1.
    10030    2    1    2    0    0  0.00000000000E+00  0.00000000000E+00 -0.18957100263E+03  0.18108903931E+04  0.18009405462E+04 0.  0.
        2    1    3    3  502    0  0.16049612807E+03  0.53092825683E+03  0.61850157118E+03  0.83077555007E+03  0.25500000920E-02 0. -1.
       -2    1    3    3    0  502 -0.16049612807E+03 -0.53092825683E+03 -0.80807257382E+03  0.98011484306E+03  0.25500000920E-02 0.  1.
</event>
<event>
 5   0  0.3984648E-05  0.1795537E+04  0.7818609E-02  0.8708676E-01
        2   -1    0    0  501    0  0.00000000000E+00  0.00000000000E+00  0.19585481466E+04  0.19585481467E+04  0.25500000920E-02 0. -1.
       -2   -1    0    0    0  501  0.00000000000E+00  0.00000000000E+00 -0.41152353369E+03  0.41152353370E+03  0.25500000920E-02 0.  1.
    10030    2    1    2    0    0  0.00000000000E+00  0.00000000000E+00  0.15470246130E+04  0.23700716803E+04  0.17955374173E+04 0.  0.
        1    1    3    3  502    0  0.14617600720E+03  0.87608450313E+03  0.94610768698E+03  0.12976945854E+04  0.50400001928E-02 0. -1.
       -1    1    3    3    0  502 -0.14617600720E+03 -0.87608450313E+03  0.60091692598E+03  0.10723770949E+04  0.50400001928E-02 0.  1.
</event>
<event>
 5   0  0.1906857E-05  0.1807875E+04  0.7818609E-02  0.8702123E-01
       -1   -1    0    0    0  501  0.00000000000E+00  0.00000000000E+00  0.93110599460E+03  0.93110599461E+03  0.50400001928E-02 0.  1.
        1   -1    0    0  501    0  0.00000000000E+00  0.00000000000E+00 -0.87756175438E+03  0.87756175439E+03  0.50400001928E-02 0. -1.
    10030    2    1    2    0    0  0.00000000000E+00  0.00000000000E+00  0.53544240224E+02  0.18086677490E+04  0.18078750069E+04 0.  0.
        4    1    3    3  502    0  0.10257449885E+03 -0.88788338221E+03  0.16189788156E+03  0.90833417043E+03  0.12699999809E+01 0.  1.
       -4    1    3    3    0  502 -0.10257449885E+03  0.88788338221E+03 -0.10835364133E+03  0.90033357857E+03  0.12699999809E+01 0. -1.
</event>
<event>
 5   0  0.3983176E-05  0.1802904E+04  0.7818609E-02  0.8704757E-01
       -2   -1    0    0    0  501  0.00000000000E+00  0.00000000000E+00  0.80290712547E+03  0.80290712548E+03  0.25500000920E-02 0. -1.
        2   -1    0    0  501    0  0.00000000000E+00  0.00000000000E+00 -0.10120917761E+04  0.10120917761E+04  0.25500000920E-02 0.  1.
    10030    2    1    2    0    0  0.00000000000E+00  0.00000000000E+00 -0.20918465061E+03  0.18149989016E+04  0.18029039893E+04 0.  0.
        3    1    3    3  502    0 -0.62606274055E+03  0.41548684207E+03 -0.60596131017E+03  0.96528389123E+03  0.10100000352E+00 0.  1.
       -3    1    3    3    0  502  0.62606274055E+03 -0.41548684207E+03  0.39677665956E+03  0.84971501034E+03  0.10100000352E+00 0. -1.
</event>
<event>
 5   0  0.2054876E-05  0.1800572E+04  0.7818609E-02  0.8705995E-01
        1   -1    0    0  501    0  0.00000000000E+00  0.00000000000E+00  0.15925408070E+04  0.15925408070E+04  0.50400001928E-02 0.  1.
       -1   -1    0    0    0  501  0.00000000000E+00  0.00000000000E+00 -0.50894472418E+03  0.50894472421E+03  0.50400001928E-02 0. -1.
    10030    2    1    2    0    0  0.00000000000E+00  0.00000000000E+00  0.10835960828E+04  0.21014855312E+04  0.18005723999E+04 0.  0.
        5    1    3    3  502    0 -0.78792493153E+03 -0.15679963490E+03  0.67594499834E+02  0.80622759171E+03  0.46999998093E+01 0. -1.
       -5    1    3    3    0  502  0.78792493153E+03  0.15679963490E+03  0.10160015830E+04  0.12952579395E+04  0.46999998093E+01 0.  1.
</event>
<event>
 5   0  0.1960300E-05  0.1812142E+04  0.7818609E-02  0.8699869E-01
       -1   -1    0    0    0  501  0.00000000000E+00  0.00000000000E+00  0.67289754181E+03  0.67289754183E+03  0.50400001928E-02 0. -1.
        1   -1    0    0  501    0  0.00000000000E+00  0.00000000000E+00 -0.12200443441E+04  0.12200443441E+04  0.50400001928E-02 0.  1.
    10030    2    1    2    0    0  0.00000000000E+00  0.00000000000E+00 -0.54714680233E+03  0.18929418860E+04  0.18121422020E+04 0.  0.
        3    1    3    3  502    0 -0.81002603268E+03  0.40132255264E+03 -0.20949608305E+03  0.92794966668E+03  0.10100000352E+00 0.  1.
       -3    1    3    3    0  502  0.81002603268E+03 -0.40132255264E+03 -0.33765071928E+03  0.96499221930E+03  0.10100000352E+00 0. -1.
</event>
<event>
 5   0  0.1446750E-05  0.1798957E+04  0.7818609E-02  0.8706854E-01
        3   -1    0    0  501    0  0.00000000000E+00  0.00000000000E+00  0.50468680617E+03  0.50468681628E+03  0.10100000352E+00 0.  1.
       -3   -1    0    0    0  501  0.00000000000E+00  0.00000000000E+00 -0.16030969216E+04  0.16030969248E+04  0.10100000352E+00 0. -1.
    10030    2    1    2    0    0  0.00000000000E+00  0.00000000000E+00 -0.10984101154E+04  0.21077837410E+04  0.17989573417E+04 0.  0.
        4    1    3    3  502    0  0.81641328309E+03 -0.81124619476E+02 -0.98121352329E+03  0.12790205017E+04  0.12699999809E+01 0. -1.
       -4    1    3    3    0  502 -0.81641328309E+03  0.81124619476E+02 -0.11719659211E+03  0.82876323929E+03  0.12699999809E+01 0.  1.
</event>
<event>
 5   0  0.4015729E-05  0.1800751E+04  0.7818609E-02  0.8705900E-01
       -2   -1    0    0    0  501  0.00000000000E+00  0.00000000000E+00  0.14204479947E+04  0.14204479947E+04  0.25500000920E-02 0. -1.
        2   -1    0    0  501    0  0.00000000000E+00  0.00000000000E+00 -0.57071878390E+03  0.57071878391E+03  0.25500000920E-02 0.  1.
    10030    2    1    2    0    0  0.00000000000E+00  0.00000000000E+00  0.84972921078E+03  0.19911667786E+04  0.18007513456E+04 0.  0.
        2    1    3    3  502    0  0.33244837086E+03  0.78079902596E+03  0.92208324546E+02  0.85362252393E+03  0.25500000920E-02 0.  1.
       -2    1    3    3    0  502 -0.33244837086E+03 -0.78079902596E+03  0.75752088624E+03  0.11375442547E+04  0.25500000920E-02 0. -1.
</event>
<event>
 5   0  0.3993393E-05  0.1798593E+04  0.7818609E-02  0.8707048E-01
        2   -1    0    0  501    0  0.00000000000E+00  0.00000000000E+00  0.23920673830E+04  0.23920673830E+04  0.25500000920E-02 0.  1.
       -2   -1    0    0    0  501  0.00000000000E+00  0.00000000000E+00 -0.33808999640E+03  0.33808999640E+03  0.25500000920E-02 0. -1.
    10030    2    1    2    0    0  0.00000000000E+00  0.00000000000E+00  0.20539773866E+04  0.27301573794E+04  0.17985928421E+04 0.  0.
        5    1    3    3  502    0  0.74455807198E+03  0.22448334943E+03  0.34146999927E+03  0.84934289137E+03  0.46999998093E+01 0. -1.
       -5    1    3    3    0  502 -0.74455807198E+03 -0.22448334943E+03  0.17125073873E+04  0.18808144880E+04  0.46999998093E+01 0.  1.
</event>
<event>
 5   0  0.1906857E-05  0.1797665E+04  0.7818609E-02  0.8707542E-01
        1   -1    0    0  501    0  0.00000000000E+00  0.00000000000E+00  0.99574980240E+03  0.99574980241E+03  0.50400001928E-02 0.  1.
       -1   -1    0    0    0  501  0.00000000000E+00  0.00000000000E+00 -0.81134863601E+03  0.81134863603E+03  0.50400001928E-02 0. -1.
    10030    2    1    2    0    0  0.00000000000E+00  0.00000000000E+00  0.18440116639E+03  0.18070984384E+04  0.17976654238E+04 0.  0.
        4    1    3    3  502    0  0.55913775836E+03  0.59440379664E+03  0.47093708481E+03  0.94219650659E+03  0.12699999809E+01 0.  1.
       -4    1    3    3    0  502 -0.55913775836E+03 -0.59440379664E+03 -0.28653591842E+03  0.86490193185E+03  0.12699999809E+01 0. -1.
</event>
<event>
 5   0  0.3909859E-05  0.1804063E+04  0.7818609E-02  0.8704142E-01
       -2   -1    0    0    0  501  0.00000000000E+00  0.00000000000E+00  0.71563943713E+03  0.71563943713E+03  0.25500000920E-02 0.  1.
        2   -1    0    0  501    0  0.00000000000E+00  0.00000000000E+00 -0.11369704424E+04  0.11369704424E+04  0.25500000920E-02 0. -1.
    10030    2    1    2    0    0  0.00000000000E+00  0.00000000000E+00 -0.42133100523E+03  0.18526098795E+04  0.18040630670E+04 0.  0.
        4    1    3    3  502    0 -0.43887582589E+03  0.32504165519E+03 -0.94789456539E+03  0.10939697382E+04  0.12699999809E+01 0. -1.
       -4    1    3    3    0  502  0.43887582589E+03 -0.32504165519E+03  0.52656356016E+03  0.75864014127E+03  0.12699999809E+01 0.  1.
</event>
<event>
 5   0  0.2054876E-05  0.1801608E+04  0.7818609E-02  0.8705445E-01
        1   -1    0    0  501    0  0.00000000000E+00  0.00000000000E+00  0.12337973251E+04  0.12337973252E+04  0.50400001928E-02 0. -1.
       -1   -1    0    0    0  501  0.00000000000E+00  0.00000000000E+00 -0.65768319486E+03  0.65768319488E+03  0.50400001928E-02 0.  1.
    10030    2    1    2    0    0  0.00000000000E+00  0.00000000000E+00  0.57611413028E+03  0.18914805200E+04  0.18016079114E+04 0.  0.
        5    1    3    3  502    0 -0.47895658298E+03 -0.76042997063E+03  0.22357219498E+03  0.92609921984E+03  0.46999998093E+01 0.  1.
       -5    1    3    3    0  502  0.47895658298E+03  0.76042997063E+03  0.35254193530E+03  0.96538130019E+03  0.46999998093E+01 0. -1.
</event>
<event>
 5   0  0.4015729E-05  0.1813862E+04  0.7818609E-02  0.8698962E-01
        2   -1    0    0  501    0  0.00000000000E+00  0.00000000000E+00  0.71052841920E+03  0.71052841920E+03  0.25500000920E-02 0.  1.
       -2   -1    0    0    0  501  0.00000000000E+00  0.00000000000E+00 -0.11576230209E+04  0.11576230209E+04  0.25500000920E-02 0. -1.
    10030    2    1    2    0    0  0.00000000000E+00  0.00000000000E+00 -0.44709460167E+03  0.18681514401E+04  0.18138622385E+04 0.  0.
        2    1    3    3  502    0 -0.66011589161E+03 -0.61146428432E+03 -0.34044548061E+03  0.96205233050E+03  0.25500000920E-02 0. -1.
       -2    1    3    3    0  502  0.66011589161E+03  0.61146428432E+03 -0.10664912106E+03  0.90609910958E+03  0.25500000920E-02 0.  1.
</event>
<event>
 5   0  0.3983176E-05  0.1799840E+04  0.7818609E-02  0.8706384E-01
        2   -1    0    0  501    0  0.00000000000E+00  0.00000000000E+00  0.25410617505E+04  0.25410617505E+04  0.25500000920E-02 0. -1.
       -2   -1    0    0    0  501  0.00000000000E+00  0.00000000000E+00 -0.31870782698E+03  0.31870782699E+03  0.25500000920E-02 0.  1.
    10030    2    1    2    0    0  0.00000000000E+00  0.00000000000E+00  0.22223539235E+04  0.28597695775E+04  0.17998402915E+04 0.  0.
        3    1    3    3  502    0 -0.16436398299E+03 -0.28276493219E+02 -0.29393808041E+03  0.33795663078E+03  0.10100000352E+00 0.  1.
       -3    1    3    3    0  502  0.16436398299E+03  0.28276493219E+02  0.25162920039E+04  0.25218129467E+04  0.10100000352E+00 0. -1.
</event>
<event>
 5   0  0.2001811E-05  0.1801800E+04  0.7818609E-02  0.8705343E-01
       -1   -1    0    0    0  501  0.00000000000E+00  0.00000000000E+00  0.51887715747E+03  0.51887715749E+03  0.50400001928E-02 0.  1.
        1   -1    0    0  501    0  0.00000000000E+00  0.00000000000E+00 -0.15641875296E+04  0.15641875296E+04  0.50400001928E-02 0. -1.
    10030    2    1    2    0    0  0.00000000000E+00  0.00000000000E+00 -0.10453103721E+04  0.20830646871E+04  0.18018004098E+04 0.  0.
        2    1    3    3  502    0  0.77646790593E+03 -0.36614688462E+03 -0.20677223146E+03  0.88301795326E+03  0.25500000920E-02 0.  1.
       -2    1    3    3    0  502 -0.77646790593E+03  0.36614688462E+03 -0.83853814068E+03  0.12000467339E+04  0.25500000920E-02 0. -1.
</event>
<event>
 5   0  0.2054876E-05  0.1801931E+04  0.7818609E-02  0.8705273E-01
       -1   -1    0    0    0  501  0.00000000000E+00  0.00000000000E+00  0.62410363758E+03  0.62410363760E+03  0.50400001928E-02 0.  1.
        1   -1    0    0  501    0  0.00000000000E+00  0.00000000000E+00 -0.13006479460E+04  0.13006479460E+04  0.50400001928E-02 0. -1.
    10030    2    1    2    0    0  0.00000000000E+00  0.00000000000E+00 -0.67654430843E+03  0.19247515836E+04  0.18019313132E+04 0.  0.
        5    1    3    3  502    0  0.41505010945E+03  0.11367269303E+03  0.50721502192E+03  0.66518962932E+03  0.46999998093E+01 0.  1.
       -5    1    3    3    0  502 -0.41505010945E+03 -0.11367269303E+03 -0.11837593304E+04  0.12595619543E+04  0.46999998093E+01 0. -1.
</event>
<event>
 5   0  0.3983176E-05  0.1800999E+04  0.7818609E-02  0.8705768E-01
       -2   -1    0    0    0  501  0.00000000000E+00  0.00000000000E+00  0.56588102379E+03  0.56588102380E+03  0.25500000920E-02 0.  1.
        2   -1    0    0  501    0  0.00000000000E+00  0.00000000000E+00 -0.14329860888E+04  0.14329860888E+04  0.25500000920E-02 0. -1.
    10030    2    1    2    0    0  0.00000000000E+00  0.00000000000E+00 -0.86710506503E+03  0.19988671126E+04  0.18009993171E+04 0.  0.
        3    1    3    3  502    0  0.41470752187E+02  0.78194834305E+03 -0.92708291655E+03  0.12135261756E+04  0.10100000352E+00 0.  1.
       -3    1    3    3    0  502 -0.41470752187E+02 -0.78194834305E+03  0.59977851523E+02  0.78534093703E+03  0.10100000352E+00 0. -1.
</event>
<event>
 5   0  0.3983176E-05  0.1801373E+04  0.7818609E-02  0.8705570E-01
        2   -1    0    0  501    0  0.00000000000E+00  0.00000000000E+00  0.11599261784E+04  0.11599261784E+04  0.25500000920E-02 0.  1.
       -2   -1    0    0    0  501  0.00000000000E+00  0.00000000000E+00 -0.69938577884E+03  0.69938577885E+03  0.25500000920E-02 0. -1.
    10030    2    1    2    0    0  0.00000000000E+00  0.00000000000E+00  0.46054039956E+03  0.18593119573E+04  0.18013726696E+04 0.  0.
        3    1    3    3  502    0  0.15395067971E+03  0.29582279939E+03 -0.63331488712E+03  0.71575114172E+03  0.10100000352E+00 0. -1.
       -3    1    3    3    0  502 -0.15395067971E+03 -0.29582279939E+03  0.10938552867E+04  0.11435608155E+04  0.10100000352E+00 0.  1.
</event>
<event>
 5   0  0.4015729E-05  0.1801686E+04  0.7818609E-02  0.8705403E-01
        2   -1    0    0  501    0  0.00000000000E+00  0.00000000000E+00  0.20245735860E+04  0.20245735860E+04  0.25500000920E-02 0. -1.
       -2   -1    0    0    0  501  0.00000000000E+00  0.00000000000E+00 -0.40083430717E+03  0.40083430718E+03  0.25500000920E-02 0.  1.
    10030    2    1    2    0    0  0.00000000000E+00  0.00000000000E+00  0.16237392788E+04  0.24254078931E+04  0.18016864884E+04 0.  0.
        2    1    3    3  502    0  0.85508461803E+02 -0.73020999123E+01 -0.39531875649E+03  0.40452680621E+03  0.25500000920E-02 0.  1.
       -2    1    3    3    0  502 -0.85508461803E+02  0.73020999123E+01  0.20190580353E+04  0.20208810869E+04  0.25500000920E-02 0. -1.
</event>
<event>
 5   0  0.2038338E-05  0.1803325E+04  0.7818609E-02  0.8704533E-01
        1   -1    0    0  501    0  0.00000000000E+00  0.00000000000E+00  0.15219306367E+04  0.15219306367E+04  0.50400001928E-02 0. -1.
       -1   -1    0    0    0  501  0.00000000000E+00  0.00000000000E+00 -0.53418666669E+03  0.53418666671E+03  0.50400001928E-02 0.  1.
    10030    2    1    2    0    0  0.00000000000E+00  0.00000000000E+00  0.98774396998E+03  0.20561173034E+04  0.18033247669E+04 0.  0.
        1    1    3    3  502    0 -0.49193015565E+03  0.74027357100E+03  0.32097440763E+03  0.94499989859E+03  0.50400001928E-02 0.  1.
       -1    1    3    3    0  502  0.49193015565E+03 -0.74027357100E+03  0.66676956236E+03  0.11111174048E+04  0.50400001928E-02 0. -1.
</event>
<event>
 5   0  0.3909859E-05  0.1799895E+04  0.7818609E-02  0.8706355E-01
        2   -1    0    0  501    0  0.00000000000E+00  0.00000000000E+00  0.15310602957E+04  0.15310602957E+04  0.25500000920E-02 0. -1.
       -2   -1    0    0    0  501  0.00000000000E+00  0.00000000000E+00 -0.52898343369E+03  0.52898343370E+03  0.25500000920E-02 0.  1.
    10030    2    1    2    0    0  0.00000000000E+00  0.00000000000E+00  0.10020768620E+04  0.20600437294E+04  0.17998950330E+04 0.  0.
        4    1    3    3  502    0 -0.66114961966E+03  0.17972632835E+03  0.11688859641E+04  0.13548861143E+04  0.12699999809E+01 0. -1.
       -4    1    3    3    0  502  0.66114961966E+03 -0.17972632835E+03 -0.16680910212E+03  0.70515761510E+03  0.12699999809E+01 0.  1.
</event>
<event>
 5   0  0.3983176E-05  0.1799812E+04  0.7818609E-02  0.8706399E-01
        2   -1    0    0  501    0  0.00000000000E+00  0.00000000000E+00  0.20646734884E+04  0.20646734884E+04  0.25500000920E-02 0.  1.
       -2   -1    0    0    0  501  0.00000000000E+00  0.00000000000E+00 -0.39223191266E+03  0.39223191267E+03  0.25500000920E-02 0. -1.
    10030    2    1    2    0    0  0.00000000000E+00  0.00000000000E+00  0.16724415757E+04  0.24569054011E+04  0.17998120251E+04 0.  0.
        3    1    3    3  502    0 -0.20221933948E+02 -0.89405941822E+03  0.97327236566E+03  0.13217451637E+04  0.10100000352E+00 0. -1.
       -3    1    3    3    0  502  0.20221933948E+02  0.89405941822E+03  0.69916921008E+03  0.11351602373E+04  0.10100000352E+00 0.  1.
</event>
<event>
 5   0  0.2001811E-05  0.1800431E+04  0.7818609E-02  0.8706070E-01
       -1   -1    0    0    0  501  0.00000000000E+00  0.00000000000E+00  0.86983361961E+03  0.86983361963E+03  0.50400001928E-02 0.  1.
        1   -1    0    0  501    0  0.00000000000E+00  0.00000000000E+00 -0.93165905770E+03  0.93165905772E+03  0.50400001928E-02 0. -1.
    10030    2    1    2    0    0  0.00000000000E+00  0.00000000000E+00 -0.61825438092E+02  0.18014926773E+04  0.18004314710E+04 0.  0.
        2    1    3    3  502    0  0.56362985357E+02  0.22135166557E+03 -0.90218139100E+03  0.93064741350E+03  0.25500000920E-02 0. -1.
       -2    1    3    3    0  502 -0.56362985357E+02 -0.22135166557E+03  0.84035595291E+03  0.87084526385E+03  0.25500000920E-02 0.  1.
</event>
<event>
 5   0  0.2038338E-05  0.1799574E+04  0.7818609E-02  0.8706526E-01
        1   -1    0    0  501    0  0.00000000000E+00  0.00000000000E+00  0.11337303510E+04  0.11337303510E+04  0.50400001928E-02 0.  1.
       -1   -1    0    0    0  501  0.00000000000E+00  0.00000000000E+00 -0.71411717965E+03  0.71411717967E+03  0.50400001928E-02 0. -1.
    10030    2    1    2    0    0  0.00000000000E+00  0.00000000000E+00  0.41961317133E+03  0.18478475307E+04  0.17995736392E+04 0.  0.
        1    1    3    3  502    0 -0.84178828392E+03  0.21434137409E+02 -0.11579477958E+03  0.84998551058E+03  0.50400001928E-02 0. -1.
       -1    1    3    3    0  502  0.84178828392E+03 -0.21434137409E+02  0.53540795091E+03  0.99786202008E+03  0.50400001928E-02 0.  1.
</event>
<event>
 5   0  0.3984648E-05  0.1797556E+04  0.7818609E-02  0.8707600E-01
       -2   -1    0    0    0  501  0.00000000000E+00  0.00000000000E+00  0.50461289598E+03  0.50461289599E+03  0.25500000920E-02 0. -1.
        2   -1    0    0  501    0  0.00000000000E+00  0.00000000000E+00 -0.16008357039E+04  0.16008357039E+04  0.25500000920E-02 0.  1.
    10030    2    1    2    0    0  0.00000000000E+00  0.00000000000E+00 -0.10962228079E+04  0.21054485999E+04  0.17975564976E+04 0.  0.
        1    1    3    3  502    0  0.69820291349E+03 -0.31358047167E+03  0.37389013563E+01  0.76539793573E+03  0.50400001928E-02 0. -1.
       -1    1    3    3    0  502 -0.69820291349E+03  0.31358047167E+03 -0.10999617092E+04  0.13400506641E+04  0.50400001928E-02 0.  1.
</event>
<event>
 5   0  0.2054876E-05  0.1805244E+04  0.7818609E-02  0.8703516E-01
        1   -1    0    0  501    0  0.00000000000E+00  0.00000000000E+00  0.68893585830E+03  0.68893585832E+03  0.50400001928E-02 0. -1.
       -1   -1    0    0    0  501  0.00000000000E+00  0.00000000000E+00 -0.11825866989E+04  0.11825866989E+04  0.50400001928E-02 0.  1.
    10030    2    1    2    0    0  0.00000000000E+00  0.00000000000E+00 -0.49365084061E+03  0.18715225572E+04  0.18052438976E+04 0.  0.
        5    1    3    3  502    0 -0.85289806049E+03 -0.27642399632E+03 -0.35485766496E+03  0.96425690545E+03  0.46999998093E+01 0.  1.
       -5    1    3    3    0  502  0.85289806049E+03  0.27642399632E+03 -0.13879317565E+03  0.90726565180E+03  0.46999998093E+01 0. -1.
</event>
<event>
 5   0  0.1906857E-05  0.1803689E+04  0.7818609E-02  0.8704340E-01
        1   -1    0    0  501    0  0.00000000000E+00  0.00000000000E+00  0.81321908039E+03  0.81321908041E+03  0.50400001928E-02 0. -1.
       -1   -1    0    0    0  501  0.00000000000E+00  0.00000000000E+00 -0.10001284352E+04  0.10001284352E+04  0.50400001928E-02 0.  1.
    10030    2    1    2    0    0  0.00000000000E+00  0.00000000000E+00 -0.18690935476E+03  0.18133475156E+04  0.18036890268E+04 0.  0.
        4    1    3    3  502    0  0.15765602944E+03 -0.51324452645E+03  0.63502641022E+03  0.83158614834E+03  0.12699999809E+01 0. -1.
       -4    1    3    3    0  502 -0.15765602944E+03  0.51324452645E+03 -0.82193576498E+03  0.98176136724E+03  0.12699999809E+01 0.  1.
</event>
<event>
 5   0  0.3983176E-05  0.1799686E+04  0.7818609E-02  0.8706466E-01
       -2   -1    0    0    0  501  0.00000000000E+00  0.00000000000E+00  0.12904564273E+04  0.12904564273E+04  0.25500000920E-02 0. -1.
        2   -1    0    0  501    0  0.00000000000E+00  0.00000000000E+00 -0.62746623429E+03  0.62746623430E+03  0.25500000920E-02 0.  1.
    10030    2    1    2    0    0  0.00000000000E+00  0.00000000000E+00  0.66299019298E+03  0.19179226616E+04  0.17996864560E+04 0.  0.
        3    1    3    3  502    0 -0.88419091989E+01 -0.38183037291E+03  0.11997908077E+04  0.12591150089E+04  0.10100000352E+00 0. -1.
       -3    1    3    3    0  502  0.88419091989E+01  0.38183037291E+03 -0.53680061476E+03  0.65880765269E+03  0.10100000352E+00 0.  1.
</event>
<event>
 5   0  0.1906857E-05  0.1795420E+04  0.7818609E-02  0.8708739E-01
       -1   -1    0    0    0  501  0.00000000000E+00  0.00000000000E+00  0.12572640987E+04  0.12572640987E+04  0.50400001928E-02 0. -1.
        1   -1    0    0  501    0  0.00000000000E+00  0.00000000000E+00 -0.64098170407E+03  0.64098170409E+03  0.50400001928E-02 0.  1.
    10030    2    1    2    0    0  0.00000000000E+00  0.00000000000E+00  0.61628239460E+03  0.18982458028E+04  0.17954200450E+04 0.  0.
        4    1    3    3  502    0 -0.37962229181E+03 -0.27178767379E+03  0.11188000437E+04  0.12123105109E+04  0.12699999809E+01 0. -1.
       -4    1    3    3    0  502  0.37962229181E+03  0.27178767379E+03 -0.50251764914E+03  0.68593529188E+03  0.12699999809E+01 0.  1.
</event>
<event>
 5   0  0.2038338E-05  0.1798650E+04  0.7818609E-02  0.8707018E-01
        1   -1    0    0  501    0  0.00000000000E+00  0.00000000000E+00  0.88951641806E+03  0.88951641808E+03  0.50400001928E-02 0.  1.
       -1   -1    0    0    0  501  0.00000000000E+00  0.00000000000E+00 -0.90924165670E+03  0.90924165672E+03  0.50400001928E-02 0. -1.
    10030    2    1    2    0    0  0.00000000000E+00  0.00000000000E+00 -0.19725238640E+02  0.17987580748E+04  0.17986499177E+04 0.  0.
        1    1    3    3  502    0 -0.74677649585E+03 -0.44218132850E+03 -0.24564345997E+03  0.90196461765E+03  0.50400001928E-02 0. -1.
       -1    1    3    3    0  502  0.74677649585E+03  0.44218132850E+03  0.22591822133E+03  0.89679345715E+03  0.50400001928E-02 0.  1.
</event>
<event>
 5   0  0.2001811E-05  0.1801318E+04  0.7818609E-02  0.8705599E-01
       -1   -1    0    0    0  501  0.00000000000E+00  0.00000000000E+00  0.11586160519E+04  0.11586160519E+04  0.50400001928E-02 0. -1.
        1   -1    0    0  501    0  0.00000000000E+00  0.00000000000E+00 -0.70013419188E+03  0.70013419190E+03  0.50400001928E-02 0.  1.
    10030    2    1    2    0    0  0.00000000000E+00  0.00000000000E+00  0.45848185999E+03  0.18587502438E+04  0.18013180876E+04 0.  0.
        2    1    3    3  502    0 -0.61503413126E+03  0.59177756258E+03  0.52602008210E+03  0.10025790707E+04  0.25500000920E-02 0.  1.
       -2    1    3    3    0  502  0.61503413126E+03 -0.59177756258E+03 -0.67538222103E+02  0.85617117310E+03  0.25500000920E-02 0. -1.
</event>
<event>
 5   0  0.3984648E-05  0.1800023E+04  0.7818609E-02  0.8706287E-01
       -2   -1    0    0    0  501  0.00000000000E+00  0.00000000000E+00  0.11871935554E+04  0.11871935554E+04  0.25500000920E-02 0. -1.
        2   -1    0    0  501    0  0.00000000000E+00  0.00000000000E+00 -0.68229887410E+03  0.68229887411E+03  0.25500000920E-02 0.  1.
    10030    2    1    2    0    0  0.00000000000E+00  0.00000000000E+00  0.50489468130E+03  0.18694924295E+04  0.18000231401E+04 0.  0.
        1    1    3    3  502    0 -0.24035672146E+03  0.39440121777E+03  0.10547211324E+04  0.11514166671E+04  0.50400001928E-02 0. -1.
       -1    1    3    3    0  502  0.24035672146E+03 -0.39440121777E+03 -0.54982645113E+03  0.71807576238E+03  0.50400001928E-02 0.  1.
</event>
<event>
 5   0  0.1446750E-05  0.1797736E+04  0.7818609E-02  0.8707504E-01
       -3   -1    0    0    0  501  0.00000000000E+00  0.00000000000E+00  0.13548900687E+04  0.13548900725E+04  0.10100000352E+00 0.  1.
        3   -1    0    0  501    0  0.00000000000E+00  0.00000000000E+00 -0.59633183259E+03  0.59633184115E+03  0.10100000352E+00 0. -1.
    10030    2    1    2    0    0  0.00000000000E+00  0.00000000000E+00  0.75855823611E+03  0.19512219136E+04  0.17977364542E+04 0.  0.
        4    1    3    3  502    0 -0.48571188137E+03 -0.64501277745E+03  0.80797552712E+03  0.11422712375E+04  0.12699999809E+01 0.  1.
       -4    1    3    3    0  502  0.48571188137E+03  0.64501277745E+03 -0.49417291010E+02  0.80895067608E+03  0.12699999809E+01 0. -1.
</event>
<event>
 5   0  0.3983176E-05  0.1800847E+04  0.7818609E-02  0.8705849E-01
        2   -1    0    0  501    0  0.00000000000E+00  0.00000000000E+00  0.83827385458E+03  0.83827385458E+03  0.25500000920E-02 0. -1.
       -2   -1    0    0    0  501  0.00000000000E+00  0.00000000000E+00 -0.96718093684E+03  0.96718093684E+03  0.25500000920E-02 0.  1.
    10030    2    1    2    0    0  0.00000000000E+00  0.00000000000E+00 -0.12890708226E+03  0.18054547914E+04  0.18008470141E+04 0.  0.
        3    1    3    3  502    0 -0.10828577704E+03 -0.89380220439E+03 -0.76906745106E+02  0.90361653799E+03  0.10100000352E+00 0.  1.
       -3    1    3    3    0  502  0.10828577704E+03  0.89380220439E+03 -0.52000337153E+02  0.90183825343E+03  0.10100000352E+00 0. -1.
</event>
<event>
 5   0  0.4015729E-05  0.1798542E+04  0.7818609E-02  0.8707075E-01
        2   -1    0    0  501    0  0.00000000000E+00  0.00000000000E+00  0.85914710917E+03  0.85914710917E+03  0.25500000920E-02 0.  1.
       -2   -1    0    0    0  501  0.00000000000E+00  0.00000000000E+00 -0.94126884429E+03  0.94126884430E+03  0.25500000920E-02 0. -1.
    10030    2    1    2    0    0  0.00000000000E+00  0.00000000000E+00 -0.82121735124E+02  0.18004159535E+04  0.17985420835E+04 0.  0.
        2    1    3    3  502    0  0.53349539060E+03  0.21222885682E+02 -0.76543116992E+03  0.93324842274E+03  0.25500000920E-02 0. -1.
       -2    1    3    3    0  502 -0.53349539060E+03 -0.21222885682E+02  0.68330943479E+03  0.86716753073E+03  0.25500000920E-02 0.  1.
</event>
<event>
 5   0  0.3909859E-05  0.1794300E+04  0.7818609E-02  0.8709336E-01
       -2   -1    0    0    0  501  0.00000000000E+00  0.00000000000E+00  0.84697539386E+03  0.84697539387E+03  0.25500000920E-02 0.  1.
        2   -1    0    0  501    0  0.00000000000E+00  0.00000000000E+00 -0.95029711341E+03  0.95029711341E+03  0.25500000920E-02 0. -1.
    10030    2    1    2    0    0  0.00000000000E+00  0.00000000000E+00 -0.10332171955E+03  0.17972725073E+04  0.17943001666E+04 0.  0.
        4    1    3    3  502    0 -0.59704031114E+03 -0.32778031503E+03  0.53324103235E+03  0.86501137538E+03  0.12699999809E+01 0.  1.
       -4    1    3    3    0  502  0.59704031114E+03  0.32778031503E+03 -0.63656275190E+03  0.93226113190E+03  0.12699999809E+01 0. -1.
</event>
<event>
 5   0  0.3983176E-05  0.1785004E+04  0.7818609E-02  0.8714315E-01
       -2   -1    0    0    0  501  0.00000000000E+00  0.00000000000E+00  0.31104271411E+03  0.31104271412E+03  0.25500000920E-02 0.  1.
        2   -1    0    0  501    0  0.00000000000E+00  0.00000000000E+00 -0.25609351667E+04  0.25609351667E+04  0.25500000920E-02 0. -1.
    10030    2    1    2    0    0  0.00000000000E+00  0.00000000000E+00 -0.22498924526E+04  0.28719778809E+04  0.17850044537E+04 0.  0.
        3    1    3    3  502    0  0.16768661026E+03 -0.86499770093E+03 -0.13537359856E+04  0.16152216414E+04  0.10100000352E+00 0.  1.
       -3    1    3    3    0  502 -0.16768661026E+03  0.86499770093E+03 -0.89615646704E+03  0.12567562395E+04  0.10100000352E+00 0. -1.
</event>
<event>
 5   0  0.2038338E-05  0.1797212E+04  0.7818609E-02  0.8707783E-01
       -1   -1    0    0    0  501  0.00000000000E+00  0.00000000000E+00  0.75352703635E+03  0.75352703636E+03  0.50400001928E-02 0.  1.
        1   -1    0    0  501    0  0.00000000000E+00  0.00000000000E+00 -0.10716177469E+04  0.10716177469E+04  0.50400001928E-02 0. -1.
    10030    2    1    2    0    0  0.00000000000E+00  0.00000000000E+00 -0.31809071055E+03  0.18251447833E+04  0.17972122245E+04 0.  0.
        1    1    3    3  502    0 -0.28773693070E+03  0.78961543635E+03 -0.48212164895E+03  0.96887892072E+03  0.50400001928E-02 0. -1.
       -1    1    3    3    0  502  0.28773693070E+03 -0.78961543635E+03  0.16403093839E+03  0.85626586256E+03  0.50400001928E-02 0.  1.
</event>
<event>
 5   0  0.1446750E-05  0.1799377E+04  0.7818609E-02  0.8706631E-01
        3   -1    0    0  501    0  0.00000000000E+00  0.00000000000E+00  0.18078345342E+04  0.18078345370E+04  0.10100000352E+00 0.  1.
       -3   -1    0    0    0  501  0.00000000000E+00  0.00000000000E+00 -0.44773993166E+03  0.44773994305E+03  0.10100000352E+00 0. -1.
    10030    2    1    2    0    0  0.00000000000E+00  0.00000000000E+00  0.13600946025E+04  0.22555744801E+04  0.17993773666E+04 0.  0.
        2    1    3    3  502    0  0.11002585691E+03  0.48455938494E+03  0.16202254904E+04  0.16947076817E+04  0.25500000920E-02 0.  1.
       -2    1    3    3    0  502 -0.11002585691E+03 -0.48455938494E+03 -0.26013088784E+03  0.56086679839E+03  0.25500000920E-02 0. -1.
</event>
<event>
 5   0  0.1446750E-05  0.1799531E+04  0.7818609E-02  0.8706549E-01
        3   -1    0    0  501    0  0.00000000000E+00  0.00000000000E+00  0.16562154638E+04  0.16562154669E+04  0.10100000352E+00 0. -1.
       -3   -1    0    0    0  501  0.00000000000E+00  0.00000000000E+00 -0.48881206439E+03  0.48881207483E+03  0.10100000352E+00 0.  1.
    10030    2    1    2    0    0  0.00000000000E+00  0.00000000000E+00  0.11674033994E+04  0.21450275417E+04  0.17995311772E+04 0.  0.
        3    1    3    3  502    0 -0.17631370726E+03  0.88231738255E+03  0.58699153588E+03  0.10743042215E+04  0.10100000352E+00 0. -1.
       -3    1    3    3    0  502  0.17631370726E+03 -0.88231738255E+03  0.58041186351E+03  0.10707233202E+04  0.10100000352E+00 0.  1.
</event>
<event>
 5   0  0.3909859E-05  0.1802500E+04  0.7818609E-02  0.8704971E-01
       -2   -1    0    0    0  501  0.00000000000E+00  0.00000000000E+00  0.99076119908E+03  0.99076119908E+03  0.25500000920E-02 0. -1.
        2   -1    0    0  501    0  0.00000000000E+00  0.00000000000E+00 -0.81982611593E+03  0.81982611593E+03  0.25500000920E-02 0.  1.
    10030    2    1    2    0    0  0.00000000000E+00  0.00000000000E+00  0.17093508315E+03  0.18105873150E+04  0.18025003808E+04 0.  0.
        4    1    3    3  502    0 -0.31527083788E+03  0.50282385910E+03  0.76676029104E+03  0.96961357835E+03  0.12699999809E+01 0. -1.
       -4    1    3    3    0  502  0.31527083788E+03 -0.50282385910E+03 -0.59582520789E+03  0.84097373666E+03  0.12699999809E+01 0.  1.
</event>
<event>
 5   0  0.4015729E-05  0.1805182E+04  0.7818609E-02  0.8703548E-01
        2   -1    0    0  501    0  0.00000000000E+00  0.00000000000E+00  0.13381226673E+04  0.13381226673E+04  0.25500000920E-02 0.  1.
       -2   -1    0    0    0  501  0.00000000000E+00  0.00000000000E+00 -0.60881619962E+03  0.60881619962E+03  0.25500000920E-02 0. -1.
    10030    2    1    2    0    0  0.00000000000E+00  0.00000000000E+00  0.72930646768E+03  0.19469388669E+04  0.18051822699E+04 0.  0.
        2    1    3    3  502    0  0.54051567996E+03 -0.72280039251E+03  0.35542887620E+03  0.97001406884E+03  0.25500000920E-02 0. -1.
       -2    1    3    3    0  502 -0.54051567996E+03  0.72280039251E+03  0.37387759147E+03  0.97692479808E+03  0.25500000920E-02 0.  1.
</event>
<event>
 5   0  0.2001811E-05  0.1800617E+04  0.7818609E-02  0.8705971E-01
       -1   -1    0    0    0  501  0.00000000000E+00  0.00000000000E+00  0.82211489954E+03  0.82211489956E+03  0.50400001928E-02 0. -1.
        1   -1    0    0  501    0  0.00000000000E+00  0.00000000000E+00 -0.98593963661E+03  0.98593963663E+03  0.50400001928E-02 0.  1.
    10030    2    1    2    0    0  0.00000000000E+00  0.00000000000E+00 -0.16382473707E+03  0.18080545362E+04  0.18006173001E+04 0.  0.
        2    1    3    3  502    0 -0.50905921847E+03 -0.51715277559E+03  0.45317455505E+03  0.85554395478E+03  0.25500000920E-02 0. -1.
       -2    1    3    3    0  502  0.50905921847E+03  0.51715277559E+03 -0.61699929212E+03  0.95251058141E+03  0.25500000920E-02 0.  1.
</event>
<event>
 5   0  0.1446750E-05  0.1805724E+04  0.7818609E-02  0.8703261E-01
       -4   -1    0    0    0  501  0.00000000000E+00  0.00000000000E+00  0.55631542406E+03  0.55631687369E+03  0.12699999809E+01 0. -1.
        4   -1    0    0  501    0  0.00000000000E+00  0.00000000000E+00 -0.14652804845E+04  0.14652810349E+04  0.12699999809E+01 0.  1.
    10030    2    1    2    0    0  0.00000000000E+00  0.00000000000E+00 -0.90896506045E+03  0.20215979086E+04  0.18057244039E+04 0.  0.
        5    1    3    3  502    0 -0.50643654621E+03 -0.53839538570E+03  0.12594802808E+03  0.74982168711E+03  0.46999998093E+01 0. -1.
       -5    1    3    3    0  502  0.50643654621E+03  0.53839538570E+03 -0.10349130885E+04  0.12717762215E+04  0.46999998093E+01 0.  1.
</event>
<event>
 5   0  0.3984648E-05  0.1830179E+04  0.7818609E-02  0.8690413E-01
        2   -1    0    0  501    0  0.00000000000E+00  0.00000000000E+00  0.54622132208E+03  0.54622132208E+03  0.25500000920E-02 0.  1.
       -2   -1    0    0    0  501  0.00000000000E+00  0.00000000000E+00 -0.15330581821E+04  0.15330581821E+04  0.25500000920E-02 0. -1.
    10030    2    1    2    0    0  0.00000000000E+00  0.00000000000E+00 -0.98683685998E+03  0.20792795041E+04  0.18301792995E+04 0.  0.
        1    1    3    3  502    0  0.58071670415E+03  0.60986297157E+03 -0.90024045491E+03  0.12327195996E+04  0.50400001928E-02 0. -1.
       -1    1    3    3    0  502 -0.58071670415E+03 -0.60986297157E+03 -0.86596405072E+02  0.84655990454E+03  0.50400001928E-02 0.  1.
</event>
<event>
 5   0  0.1906857E-05  0.1801160E+04  0.7818609E-02  0.8705683E-01
        1   -1    0    0  501    0  0.00000000000E+00  0.00000000000E+00  0.19571074322E+04  0.19571074322E+04  0.50400001928E-02 0. -1.
       -1   -1    0    0    0  501  0.00000000000E+00  0.00000000000E+00 -0.41440991477E+03  0.41440991480E+03  0.50400001928E-02 0.  1.
    10030    2    1    2    0    0  0.00000000000E+00  0.00000000000E+00  0.15426975175E+04  0.23715173470E+04  0.18011604306E+04 0.  0.
        4    1    3    3  502    0 -0.18337266151E+03  0.41445093441E+03 -0.25332131493E+03  0.51919977997E+03  0.12699999809E+01 0.  1.
       -4    1    3    3    0  502  0.18337266151E+03 -0.41445093441E+03  0.17960188324E+04  0.18523175671E+04  0.12699999809E+01 0. -1.
</event>
<event>
 5   0  0.2054876E-05  0.1807153E+04  0.7818609E-02  0.8702505E-01
        1   -1    0    0  501    0  0.00000000000E+00  0.00000000000E+00  0.13554780923E+04  0.13554780923E+04  0.50400001928E-02 0. -1.
       -1   -1    0    0    0  501  0.00000000000E+00  0.00000000000E+00 -0.60233370042E+03  0.60233370044E+03  0.50400001928E-02 0.  1.
    10030    2    1    2    0    0  0.00000000000E+00  0.00000000000E+00  0.75314439191E+03  0.19578117928E+04  0.18071526059E+04 0.  0.
        5    1    3    3  502    0 -0.31946157670E+03 -0.82776371740E+03  0.19151090459E+03  0.90771525679E+03  0.46999998093E+01 0. -1.
       -5    1    3    3    0  502  0.31946157670E+03  0.82776371740E+03  0.56163348732E+03  0.10500965360E+04  0.46999998093E+01 0.  1.
</event>
<event>
 5   0  0.2038338E-05  0.1801546E+04  0.7818609E-02  0.8705478E-01
       -1   -1    0    0    0  501  0.00000000000E+00  0.00000000000E+00  0.47401119546E+03  0.47401119549E+03  0.50400001928E-02 0.  1.
        1   -1    0    0  501    0  0.00000000000E+00  0.00000000000E+00 -0.17117576974E+04  0.17117576974E+04  0.50400001928E-02 0. -1.
    10030    2    1    2    0    0  0.00000000000E+00  0.00000000000E+00 -0.12377465019E+04  0.21857688929E+04  0.18015463497E+04 0.  0.
        1    1    3    3  502    0 -0.20598071995E+03 -0.76949169001E+03 -0.10865334652E+03  0.80395961821E+03  0.50400001928E-02 0.  1.
       -1    1    3    3    0  502  0.20598071995E+03  0.76949169001E+03 -0.11290931554E+04  0.13818092747E+04  0.50400001928E-02 0. -1.
</event>
<event>
 5   0  0.1960300E-05  0.1798728E+04  0.7818609E-02  0.8706976E-01
       -1   -1    0    0    0  501  0.00000000000E+00  0.00000000000E+00  0.66693339517E+03  0.66693339519E+03  0.50400001928E-02 0. -1.
        1   -1    0    0  501    0  0.00000000000E+00  0.00000000000E+00 -0.12127987061E+04  0.12127987061E+04  0.50400001928E-02 0.  1.
    10030    2    1    2    0    0  0.00000000000E+00  0.00000000000E+00 -0.54586531090E+03  0.18797321013E+04  0.17987283939E+04 0.  0.
        3    1    3    3  502    0  0.15431731435E+03  0.66459457503E+03 -0.88528698564E+03  0.11176908516E+04  0.10100000352E+00 0.  1.
       -3    1    3    3    0  502 -0.15431731435E+03 -0.66459457503E+03  0.33942167474E+03  0.76204124964E+03  0.10100000352E+00 0. -1.
</event>
<event>
 5   0  0.3983176E-05  0.1798872E+04  0.7818609E-02  0.8706900E-01
       -2   -1    0    0    0  501  0.00000000000E+00  0.00000000000E+00  0.80231466652E+03  0.80231466653E+03  0.25500000920E-02 0. -1.
        2   -1    0    0  501    0  0.00000000000E+00  0.00000000000E+00 -0.10083135798E+04  0.10083135798E+04  0.25500000920E-02 0.  1.
    10030    2    1    2    0    0  0.00000000000E+00  0.00000000000E+00 -0.20599891327E+03  0.18106282463E+04  0.17988716169E+04 0.  0.
        3    1    3    3  502    0  0.86689229113E+03 -0.23490484279E+03 -0.15129464107E+03  0.91080876599E+03  0.10100000352E+00 0. -1.
       -3    1    3    3    0  502 -0.86689229113E+03  0.23490484279E+03 -0.54704272206E+02  0.89981948033E+03  0.10100000352E+00 0.  1.
</event>
<event>
 5   0  0.3984648E-05  0.1799765E+04  0.7818609E-02  0.8706425E-01
        2   -1    0    0  501    0  0.00000000000E+00  0.00000000000E+00  0.77596120039E+03  0.77596120040E+03  0.25500000920E-02 0.  1.
       -2   -1    0    0    0  501  0.00000000000E+00  0.00000000000E+00 -0.10435936362E+04  0.10435936362E+04  0.25500000920E-02 0. -1.
    10030    2    1    2    0    0  0.00000000000E+00  0.00000000000E+00 -0.26763243578E+03  0.18195548366E+04  0.17997646187E+04 0.  0.
        1    1    3    3  502    0 -0.31864887000E+03  0.56627275137E+03  0.49559374583E+03  0.81719954247E+03  0.50400001928E-02 0.  1.
       -1    1    3    3    0  502  0.31864887000E+03 -0.56627275137E+03 -0.76322618161E+03  0.10023552941E+04  0.50400001928E-02 0. -1.
</event>
<event>
 5   0  0.1446750E-05  0.1800121E+04  0.7818609E-02  0.8706235E-01
       -3   -1    0    0    0  501  0.00000000000E+00  0.00000000000E+00  0.74879424690E+03  0.74879425371E+03  0.10100000352E+00 0. -1.
        3   -1    0    0  501    0  0.00000000000E+00  0.00000000000E+00 -0.10818846870E+04  0.10818846918E+04  0.10100000352E+00 0.  1.
    10030    2    1    2    0    0  0.00000000000E+00  0.00000000000E+00 -0.33309044014E+03  0.18306789455E+04  0.18001211515E+04 0.  0.
        1    1    3    3  502    0 -0.20340126716E+03  0.18183740723E+03  0.70572812455E+03  0.75663009717E+03  0.50400001928E-02 0. -1.
       -1    1    3    3    0  502  0.20340126716E+03 -0.18183740723E+03 -0.10388185647E+04  0.10740488483E+04  0.50400001928E-02 0.  1.
</event>
<event>
 5   0  0.3909859E-05  0.1801601E+04  0.7818609E-02  0.8705448E-01
       -2   -1    0    0    0  501  0.00000000000E+00  0.00000000000E+00  0.71159056303E+03  0.71159056304E+03  0.25500000920E-02 0. -1.
        2   -1    0    0  501    0  0.00000000000E+00  0.00000000000E+00 -0.11403212663E+04  0.11403212663E+04  0.25500000920E-02 0.  1.
    10030    2    1    2    0    0  0.00000000000E+00  0.00000000000E+00 -0.42873070326E+03  0.18519118293E+04  0.18016013454E+04 0.  0.
        4    1    3    3  502    0  0.64968988015E+03  0.18244000937E+03  0.39900468487E+03  0.78395640749E+03  0.12699999809E+01 0. -1.
       -4    1    3    3    0  502 -0.64968988015E+03 -0.18244000937E+03 -0.82773538813E+03  0.10679554218E+04  0.12699999809E+01 0.  1.
</event>
<event>
 5   0  0.2001811E-05  0.1799214E+04  0.7818609E-02  0.8706717E-01
        1   -1    0    0  501    0  0.00000000000E+00  0.00000000000E+00  0.21912144365E+04  0.21912144366E+04  0.50400001928E-02 0.  1.
       -1   -1    0    0    0  501  0.00000000000E+00  0.00000000000E+00 -0.36933540006E+03  0.36933540009E+03  0.50400001928E-02 0. -1.
    10030    2    1    2    0    0  0.00000000000E+00  0.00000000000E+00  0.18218790365E+04  0.25605498366E+04  0.17992143403E+04 0.  0.
        2    1    3    3  502    0  0.87190632513E+02  0.83867201535E+03  0.13571825994E+04  0.15977852058E+04  0.25500000920E-02 0.  1.
       -2    1    3    3    0  502 -0.87190632513E+02 -0.83867201535E+03  0.46469643704E+03  0.96276463081E+03  0.25500000920E-02 0. -1.
</event>
<event>
 5   0  0.3993393E-05  0.1800548E+04  0.7818609E-02  0.8706008E-01
        2   -1    0    0  501    0  0.00000000000E+00  0.00000000000E+00  0.27122313660E+04  0.27122313660E+04  0.25500000920E-02 0.  1.
       -2   -1    0    0    0  501  0.00000000000E+00  0.00000000000E+00 -0.29882898243E+03  0.29882898244E+03  0.25500000920E-02 0. -1.
    10030    2    1    2    0    0  0.00000000000E+00  0.00000000000E+00  0.24134023836E+04  0.30110603484E+04  0.18005480713E+04 0.  0.
        5    1    3    3  502    0  0.46944250927E+03 -0.21830096549E+03 -0.24957738067E+02  0.51834019691E+03  0.46999998093E+01 0. -1.
       -5    1    3    3    0  502 -0.46944250927E+03  0.21830096549E+03  0.24383601216E+04  0.24927201515E+04  0.46999998093E+01 0.  1.
</event>
<event>
 5   0  0.3993393E-05  0.1797670E+04  0.7818609E-02  0.8707540E-01
       -2   -1    0    0    0  501  0.00000000000E+00  0.00000000000E+00  0.47511792623E+03  0.47511792624E+03  0.25500000920E-02 0. -1.
        2   -1    0    0  501    0  0.00000000000E+00  0.00000000000E+00 -0.17004289298E+04  0.17004289298E+04  0.25500000920E-02 0.  1.
    10030    2    1    2    0    0  0.00000000000E+00  0.00000000000E+00 -0.12253110035E+04  0.21755468560E+04  0.17976698994E+04 0.  0.
        5    1    3    3  502    0  0.67720826971E+03  0.29470979803E+03 -0.12326027011E+04  0.14369399480E+04  0.46999998093E+01 0.  1.
       -5    1    3    3    0  502 -0.67720826971E+03 -0.29470979803E+03  0.72916975472E+01  0.73860690795E+03  0.46999998093E+01 0. -1.
</event>
<event>
 5   0  0.3983176E-05  0.1798329E+04  0.7818609E-02  0.8707189E-01
       -2   -1    0    0    0  501  0.00000000000E+00  0.00000000000E+00  0.60774199767E+03  0.60774199768E+03  0.25500000920E-02 0.  1.
        2   -1    0    0  501    0  0.00000000000E+00  0.00000000000E+00 -0.13303284313E+04  0.13303284313E+04  0.25500000920E-02 0. -1.
    10030    2    1    2    0    0  0.00000000000E+00  0.00000000000E+00 -0.72258643367E+03  0.19380704290E+04  0.17983286223E+04 0.  0.
        3    1    3    3  502    0  0.73969240041E+03  0.14672353870E+03 -0.88906557731E+03  0.11658088415E+04  0.10100000352E+00 0. -1.
       -3    1    3    3    0  502 -0.73969240041E+03 -0.14672353870E+03  0.16647914364E+03  0.77226158749E+03  0.10100000352E+00 0.  1.
</event>
<event>
 5   0  0.3993393E-05  0.1790328E+04  0.7818609E-02  0.8711460E-01
       -2   -1    0    0    0  501  0.00000000000E+00  0.00000000000E+00  0.35989394175E+03  0.35989394176E+03  0.25500000920E-02 0.  1.
        2   -1    0    0  501    0  0.00000000000E+00  0.00000000000E+00 -0.22265420045E+04  0.22265420045E+04  0.25500000920E-02 0. -1.
    10030    2    1    2    0    0  0.00000000000E+00  0.00000000000E+00 -0.18666480627E+04  0.25864359462E+04  0.17903284374E+04 0.  0.
        5    1    3    3  502    0 -0.57388259712E+02  0.31645468305E+03  0.27352554522E+03  0.42222658924E+03  0.46999998093E+01 0.  1.
       -5    1    3    3    0  502  0.57388259712E+02 -0.31645468305E+03 -0.21401736079E+04  0.21642093570E+04  0.46999998093E+01 0. -1.
</event>
<event>
 5   0  0.4015729E-05  0.1799848E+04  0.7818609E-02  0.8706380E-01
       -2   -1    0    0    0  501  0.00000000000E+00  0.00000000000E+00  0.72005911277E+03  0.72005911277E+03  0.25500000920E-02 0. -1.
        2   -1    0    0  501    0  0.00000000000E+00  0.00000000000E+00 -0.11247178532E+04  0.11247178532E+04  0.25500000920E-02 0.  1.
    10030    2    1    2    0    0  0.00000000000E+00  0.00000000000E+00 -0.40465874044E+03  0.18447769660E+04  0.17998481486E+04 0.  0.
        2    1    3    3  502    0 -0.57930336488E+03 -0.46435952315E+03  0.31893356081E+03  0.80804750574E+03  0.25500000920E-02 0. -1.
       -2    1    3    3    0  502  0.57930336488E+03  0.46435952315E+03 -0.72359230125E+03  0.10367294602E+04  0.25500000920E-02 0.  1.
</event>
<event>
 5   0  0.3993393E-05  0.1802460E+04  0.7818609E-02  0.8704992E-01
        2   -1    0    0  501    0  0.00000000000E+00  0.00000000000E+00  0.10101615414E+04  0.10101615414E+04  0.25500000920E-02 0. -1.
       -2   -1    0    0    0  501  0.00000000000E+00  0.00000000000E+00 -0.80404527676E+03  0.80404527676E+03  0.25500000920E-02 0.  1.
    10030    2    1    2    0    0  0.00000000000E+00  0.00000000000E+00  0.20611626467E+03  0.18142068182E+04  0.18024601146E+04 0.  0.
        5    1    3    3  502    0 -0.34072207412E+03  0.72746420480E+03  0.51425184940E+03  0.95382008559E+03  0.46999998093E+01 0. -1.
       -5    1    3    3    0  502  0.34072207412E+03 -0.72746420480E+03 -0.30813558473E+03  0.86038673260E+03  0.46999998093E+01 0.  1.
</event>
<event>
 5   0  0.4015729E-05  0.1799580E+04  0.7818609E-02  0.8706523E-01
        2   -1    0    0  501    0  0.00000000000E+00  0.00000000000E+00  0.18530118943E+04  0.18530118943E+04  0.25500000920E-02 0.  1.
       -2   -1    0    0    0  501  0.00000000000E+00  0.00000000000E+00 -0.43692227133E+03  0.43692227134E+03  0.25500000920E-02 0. -1.
    10030    2    1    2    0    0  0.00000000000E+00  0.00000000000E+00  0.14160896229E+04  0.22899341656E+04  0.17995801351E+04 0.  0.
        2    1    3    3  502    0 -0.60796606093E+03  0.49850483444E+03  0.15120851399E+03  0.80062089400E+03  0.25500000920E-02 0. -1.
       -2    1    3    3    0  502  0.60796606093E+03 -0.49850483444E+03  0.12648811089E+04  0.14893132716E+04  0.25500000920E-02 0.  1.
</event>
<event>
 5   0  0.3909859E-05  0.1805685E+04  0.7818609E-02  0.8703282E-01
        2   -1    0    0  501    0  0.00000000000E+00  0.00000000000E+00  0.98285837117E+03  0.98285837117E+03  0.25500000920E-02 0.  1.
       -2   -1    0    0    0  501  0.00000000000E+00  0.00000000000E+00 -0.82934049019E+03  0.82934049019E+03  0.25500000920E-02 0. -1.
    10030    2    1    2    0    0  0.00000000000E+00  0.00000000000E+00  0.15351788098E+03  0.18121988614E+04  0.18056846273E+04 0.  0.
        4    1    3    3  502    0  0.52070586064E+03 -0.13789676882E+03  0.80392271802E+03  0.96770008866E+03  0.12699999809E+01 0.  1.
       -4    1    3    3    0  502 -0.52070586064E+03  0.13789676882E+03 -0.65040483704E+03  0.84449877270E+03  0.12699999809E+01 0. -1.
</event>
<event>
 5   0  0.3984648E-05  0.1799774E+04  0.7818609E-02  0.8706420E-01
        2   -1    0    0  501    0  0.00000000000E+00  0.00000000000E+00  0.86767111680E+03  0.86767111680E+03  0.25500000920E-02 0. -1.
       -2   -1    0    0    0  501  0.00000000000E+00  0.00000000000E+00 -0.93329874490E+03  0.93329874491E+03  0.25500000920E-02 0.  1.
    10030    2    1    2    0    0  0.00000000000E+00  0.00000000000E+00 -0.65627628105E+02  0.18009698617E+04  0.17997737239E+04 0.  0.
        1    1    3    3  502    0  0.71247926806E+03  0.49656383401E+03 -0.26875434945E+03  0.90908264148E+03  0.50400001928E-02 0.  1.
       -1    1    3    3    0  502 -0.71247926806E+03 -0.49656383401E+03  0.20312672135E+03  0.89188722023E+03  0.50400001928E-02 0. -1.
</event>
<event>
 5   0  0.2038338E-05  0.1798360E+04  0.7818609E-02  0.8707172E-01
       -1   -1    0    0    0  501  0.00000000000E+00  0.00000000000E+00  0.81120960476E+03  0.81120960478E+03  0.50400001928E-02 0. -1.
        1   -1    0    0  501    0  0.00000000000E+00  0.00000000000E+00 -0.99669025842E+03  0.99669025844E+03  0.50400001928E-02 0.  1.
    10030    2    1    2    0    0  0.00000000000E+00  0.00000000000E+00 -0.18548065366E+03  0.18078998632E+04  0.17983600425E+04 0.  0.
        1    1    3    3  502    0 -0.25557837509E+03 -0.69793273277E+03 -0.60148243824E+03  0.95614409418E+03  0.50400001928E-02 0.  1.
       -1    1    3    3    0  502  0.25557837509E+03  0.69793273277E+03  0.41600178458E+03  0.85175576904E+03  0.50400001928E-02 0. -1.
</event>
<event>
 5   0  0.2054876E-05  0.1800017E+04  0.7818609E-02  0.8706291E-01
        1   -1    0    0  501    0  0.00000000000E+00  0.00000000000E+00  0.15062277993E+04  0.15062277993E+04  0.50400001928E-02 0.  1.
       -1   -1    0    0    0  501  0.00000000000E+00  0.00000000000E+00 -0.53777730302E+03  0.53777730304E+03  0.50400001928E-02 0. -1.
    10030    2    1    2    0    0  0.00000000000E+00  0.00000000000E+00  0.96845049624E+03  0.20440051023E+04  0.18000168040E+04 0.  0.
        5    1    3    3  502    0  0.12862605678E+03 -0.87600932701E+03  0.66752401372E+03  0.11088495851E+04  0.46999998093E+01 0.  1.
       -5    1    3    3    0  502 -0.12862605678E+03  0.87600932701E+03  0.30092648252E+03  0.93515551721E+03  0.46999998093E+01 0. -1.
</event>
<event>
 5   0  0.2001811E-05  0.1802029E+04  0.7818609E-02  0.8705221E-01
        1   -1    0    0  501    0  0.00000000000E+00  0.00000000000E+00  0.62431889033E+03  0.62431889035E+03  0.50400001928E-02 0. -1.
       -1   -1    0    0    0  501  0.00000000000E+00  0.00000000000E+00 -0.13003406183E+04  0.13003406183E+04  0.50400001928E-02 0.  1.
    10030    2    1    2    0    0  0.00000000000E+00  0.00000000000E+00 -0.67602172794E+03  0.19246595086E+04  0.18020290918E+04 0.  0.
        2    1    3    3  502    0  0.23827464473E+03 -0.72553618755E+03  0.17270268370E+03  0.78294558095E+03  0.25500000920E-02 0. -1.
       -2    1    3    3    0  502 -0.23827464473E+03  0.72553618755E+03 -0.84872441164E+03  0.11417139277E+04  0.25500000920E-02 0.  1.
</event>
<event>
 5   0  0.2054876E-05  0.1801381E+04  0.7818609E-02  0.8705565E-01
        1   -1    0    0  501    0  0.00000000000E+00  0.00000000000E+00  0.93112095121E+03  0.93112095122E+03  0.50400001928E-02 0. -1.
       -1   -1    0    0    0  501  0.00000000000E+00  0.00000000000E+00 -0.87125444703E+03  0.87125444705E+03  0.50400001928E-02 0.  1.
    10030    2    1    2    0    0  0.00000000000E+00  0.00000000000E+00  0.59866504176E+02  0.18023753983E+04  0.18013808809E+04 0.  0.
        5    1    3    3  502    0 -0.28991519489E+03 -0.36649645186E+03 -0.74045982943E+03  0.87559883420E+03  0.46999998093E+01 0.  1.
       -5    1    3    3    0  502  0.28991519489E+03  0.36649645186E+03  0.80032633360E+03  0.92677656407E+03  0.46999998093E+01 0. -1.
</event>
<event>
 5   0  0.3984648E-05  0.1800099E+04  0.7818609E-02  0.8706247E-01
       -2   -1    0    0    0  501  0.00000000000E+00  0.00000000000E+00  0.10788915686E+04  0.10788915686E+04  0.25500000920E-02 0. -1.
        2   -1    0    0  501    0  0.00000000000E+00  0.00000000000E+00 -0.75085320568E+03  0.75085320568E+03  0.25500000920E-02 0.  1.
    10030    2    1    2    0    0  0.00000000000E+00  0.00000000000E+00  0.32803836290E+03  0.18297447743E+04  0.18000991004E+04 0.  0.
        1    1    3    3  502    0 -0.78096141583E+03 -0.38971540872E+03 -0.59396800829E+02  0.87481815984E+03  0.50400001928E-02 0.  1.
       -1    1    3    3    0  502  0.78096141583E+03  0.38971540872E+03  0.38743516373E+03  0.95492661442E+03  0.50400001928E-02 0. -1.
</event>
<event>
 5   0  0.3909859E-05  0.1804275E+04  0.7818609E-02  0.8704029E-01
       -2   -1    0    0    0  501  0.00000000000E+00  0.00000000000E+00  0.31458479481E+03  0.31458479482E+03  0.25500000920E-02 0. -1.
        2   -1    0    0  501    0  0.00000000000E+00  0.00000000000E+00 -0.25870668354E+04  0.25870668354E+04  0.25500000920E-02 0.  1.
    10030    2    1    2    0    0  0.00000000000E+00  0.00000000000E+00 -0.22724820406E+04  0.29016516302E+04  0.18042748012E+04 0.  0.
        4    1    3    3  502    0 -0.88381374359E+03 -0.16188312019E+03 -0.12660724181E+04  0.15525056711E+04  0.12699999809E+01 0. -1.
       -4    1    3    3    0  502  0.88381374359E+03  0.16188312019E+03 -0.10064096225E+04  0.13491459592E+04  0.12699999809E+01 0.  1.
</event>
<event>
 5   0  0.1906857E-05  0.1800813E+04  0.7818609E-02  0.8705867E-01
        1   -1    0    0  501    0  0.00000000000E+00  0.00000000000E+00  0.17156275936E+04  0.17156275936E+04  0.50400001928E-02 0. -1.
       -1   -1    0    0    0  501  0.00000000000E+00  0.00000000000E+00 -0.47255714179E+03  0.47255714182E+03  0.50400001928E-02 0.  1.
    10030    2    1    2    0    0  0.00000000000E+00  0.00000000000E+00  0.12430704518E+04  0.21881847354E+04  0.18008132297E+04 0.  0.
        4    1    3    3  502    0  0.28735989387E+03 -0.80526592750E+03  0.27849214935E+03  0.89921544289E+03  0.12699999809E+01 0.  1.
       -4    1    3    3    0  502 -0.28735989387E+03  0.80526592750E+03  0.96457830245E+03  0.12889692925E+04  0.12699999809E+01 0. -1.
</event>
<event>
 5   0  0.2001811E-05  0.1797752E+04  0.7818609E-02  0.8707496E-01
        1   -1    0    0  501    0  0.00000000000E+00  0.00000000000E+00  0.25630874290E+04  0.25630874290E+04  0.50400001928E-02 0.  1.
       -1   -1    0    0    0  501  0.00000000000E+00  0.00000000000E+00 -0.31523624557E+03  0.31523624561E+03  0.50400001928E-02 0. -1.
    10030    2    1    2    0    0  0.00000000000E+00  0.00000000000E+00  0.22478511835E+04  0.28783236746E+04  0.17977519943E+04 0.  0.
        2    1    3    3  502    0  0.51484032126E+03  0.20223703753E+03  0.22583337937E+04  0.23250875037E+04  0.25500000920E-02 0.  1.
       -2    1    3    3    0  502 -0.51484032126E+03 -0.20223703753E+03 -0.10482610282E+02  0.55323617097E+03  0.25500000920E-02 0. -1.
</event>
<event>
 5   0  0.2001811E-05  0.1784668E+04  0.7818609E-02  0.8714496E-01
       -1   -1    0    0    0  501  0.00000000000E+00  0.00000000000E+00  0.52144306402E+03  0.52144306405E+03  0.50400001928E-02 0. -1.
        1   -1    0    0  501    0  0.00000000000E+00  0.00000000000E+00 -0.15270316849E+04  0.15270316849E+04  0.50400001928E-02 0.  1.
    10030    2    1    2    0    0  0.00000000000E+00  0.00000000000E+00 -0.10055886209E+04  0.20484747490E+04  0.17846681268E+04 0.  0.
        2    1    3    3  502    0  0.60482744277E+03 -0.49401877524E+03 -0.72487038825E+01  0.78097588281E+03  0.25500000920E-02 0. -1.
       -2    1    3    3    0  502 -0.60482744277E+03  0.49401877524E+03 -0.99833991701E+03  0.12674988662E+04  0.25500000920E-02 0.  1.
</event>
<event>
 5   0  0.4015729E-05  0.1799473E+04  0.7818609E-02  0.8706580E-01
       -2   -1    0    0    0  501  0.00000000000E+00  0.00000000000E+00  0.93162246200E+03  0.93162246200E+03  0.25500000920E-02 0.  1.
        2   -1    0    0  501    0  0.00000000000E+00  0.00000000000E+00 -0.86894179102E+03  0.86894179103E+03  0.25500000920E-02 0. -1.
    10030    2    1    2    0    0  0.00000000000E+00  0.00000000000E+00  0.62680670978E+02  0.18005642530E+04  0.17994729125E+04 0.  0.
        2    1    3    3  502    0 -0.29526153388E+03  0.14281907447E+03  0.86967244187E+03  0.92946587758E+03  0.25500000920E-02 0.  1.
       -2    1    3    3    0  502  0.29526153388E+03 -0.14281907447E+03 -0.80699177089E+03  0.87109837545E+03  0.25500000920E-02 0. -1.
</event>
<event>
 5   0  0.2038338E-05  0.1848166E+04  0.7818609E-02  0.8681097E-01
        1   -1    0    0  501    0  0.00000000000E+00  0.00000000000E+00  0.73882145442E+03  0.73882145444E+03  0.50400001928E-02 0.  1.
       -1   -1    0    0    0  501  0.00000000000E+00  0.00000000000E+00 -0.11557993881E+04  0.11557993881E+04  0.50400001928E-02 0. -1.
    10030    2    1    2    0    0  0.00000000000E+00  0.00000000000E+00 -0.41697793371E+03  0.18946208426E+04  0.18481659936E+04 0.  0.
        1    1    3    3  502    0  0.43986240325E+03 -0.68159035341E+02 -0.10386620160E+04  0.11300191907E+04  0.50400001928E-02 0. -1.
       -1    1    3    3    0  502 -0.43986240325E+03  0.68159035341E+02  0.62168408227E+03  0.76460165188E+03  0.50400001928E-02 0.  1.
</event>
<event>
 5   0  0.2001811E-05  0.1796751E+04  0.7818609E-02  0.8708029E-01
        1   -1    0    0  501    0  0.00000000000E+00  0.00000000000E+00  0.82986247498E+03  0.82986247499E+03  0.50400001928E-02 0. -1.
       -1   -1    0    0    0  501  0.00000000000E+00  0.00000000000E+00 -0.97254514886E+03  0.97254514887E+03  0.50400001928E-02 0.  1.
    10030    2    1    2    0    0  0.00000000000E+00  0.00000000000E+00 -0.14268267388E+03  0.18024076239E+04  0.17967512062E+04 0.  0.
        2    1    3    3  502    0  0.50208352862E+03  0.74398499639E+03 -0.10989642834E+03  0.90425592038E+03  0.25500000920E-02 0. -1.
       -2    1    3    3    0  502 -0.50208352862E+03 -0.74398499639E+03 -0.32786245540E+02  0.89815170349E+03  0.25500000920E-02 0.  1.
</event>
<event>
 5   0  0.1960300E-05  0.1801415E+04  0.7818609E-02  0.8705547E-01
        1   -1    0    0  501    0  0.00000000000E+00  0.00000000000E+00  0.19143729824E+04  0.19143729824E+04  0.50400001928E-02 0. -1.
       -1   -1    0    0    0  501  0.00000000000E+00  0.00000000000E+00 -0.42378050083E+03  0.42378050086E+03  0.50400001928E-02 0.  1.
    10030    2    1    2    0    0  0.00000000000E+00  0.00000000000E+00  0.14905924815E+04  0.23381534832E+04  0.18014149342E+04 0.  0.
        3    1    3    3  502    0  0.37795762275E+03 -0.77741565621E+03  0.41681680043E+03  0.95966833981E+03  0.10100000352E+00 0.  1.
       -3    1    3    3    0  502 -0.37795762275E+03  0.77741565621E+03  0.10737756811E+04  0.13784851434E+04  0.10100000352E+00 0. -1.
</event>
<event>
 5   0  0.1906857E-05  0.1799351E+04  0.7818609E-02  0.8706645E-01
       -1   -1    0    0    0  501  0.00000000000E+00  0.00000000000E+00  0.10045991363E+04  0.10045991364E+04  0.50400001928E-02 0.  1.
        1   -1    0    0  501    0  0.00000000000E+00  0.00000000000E+00 -0.80571017565E+03  0.80571017567E+03  0.50400001928E-02 0. -1.
    10030    2    1    2    0    0  0.00000000000E+00  0.00000000000E+00  0.19888896069E+03  0.18103093120E+04  0.17993507125E+04 0.  0.
        4    1    3    3  502    0 -0.43702592891E+02 -0.88707791125E+03  0.24383507750E+03  0.92101807538E+03  0.12699999809E+01 0.  1.
       -4    1    3    3    0  502  0.43702592891E+02  0.88707791125E+03 -0.44946116810E+02  0.88929123664E+03  0.12699999809E+01 0. -1.
</event>
<event>
 5   0  0.3909859E-05  0.1796389E+04  0.7818609E-02  0.8708222E-01
       -2   -1    0    0    0  501  0.00000000000E+00  0.00000000000E+00  0.10541013693E+04  0.10541013693E+04  0.25500000920E-02 0. -1.
        2   -1    0    0  501    0  0.00000000000E+00  0.00000000000E+00 -0.76534741577E+03  0.76534741578E+03  0.25500000920E-02 0.  1.
    10030    2    1    2    0    0  0.00000000000E+00  0.00000000000E+00  0.28875395352E+03  0.18194487851E+04  0.17963894444E+04 0.  0.
        4    1    3    3  502    0 -0.61325457299E+02 -0.60149051025E+03 -0.52837865037E+03  0.80295532672E+03  0.12699999809E+01 0.  1.
       -4    1    3    3    0  502  0.61325457299E+02  0.60149051025E+03  0.81713260389E+03  0.10164934584E+04  0.12699999809E+01 0. -1.
</event>
<event>
 5   0  0.4015729E-05  0.1802517E+04  0.7818609E-02  0.8704962E-01
       -2   -1    0    0    0  501  0.00000000000E+00  0.00000000000E+00  0.59542750042E+03  0.59542750043E+03  0.25500000920E-02 0.  1.
        2   -1    0    0  501    0  0.00000000000E+00  0.00000000000E+00 -0.13641736566E+04  0.13641736566E+04  0.25500000920E-02 0. -1.
    10030    2    1    2    0    0  0.00000000000E+00  0.00000000000E+00 -0.76874615618E+03  0.19596011570E+04  0.18025165858E+04 0.  0.
        2    1    3    3  502    0  0.29816573169E+03  0.42532593780E+03 -0.11850787398E+04  0.12939152122E+04  0.25500000920E-02 0. -1.
       -2    1    3    3    0  502 -0.29816573169E+03 -0.42532593780E+03  0.41633258362E+03  0.66568594480E+03  0.25500000920E-02 0.  1.
</event>
<event>
 5   0  0.3993393E-05  0.1782400E+04  0.7818609E-02  0.8715715E-01
       -2   -1    0    0    0  501  0.00000000000E+00  0.00000000000E+00  0.60918956601E+03  0.60918956601E+03  0.25500000920E-02 0. -1.
        2   -1    0    0  501    0  0.00000000000E+00  0.00000000000E+00 -0.13037603818E+04  0.13037603818E+04  0.25500000920E-02 0.  1.
    10030    2    1    2    0    0  0.00000000000E+00  0.00000000000E+00 -0.69457081575E+03  0.19129499478E+04  0.17823997544E+04 0.  0.
        5    1    3    3  502    0  0.34683288522E+03  0.16203217435E+03  0.51643781708E+03  0.64286669279E+03  0.46999998093E+01 0. -1.
       -5    1    3    3    0  502 -0.34683288522E+03 -0.16203217435E+03 -0.12110086328E+04  0.12700832550E+04  0.46999998093E+01 0.  1.
</event>
<event>
 5   0  0.3983176E-05  0.1801614E+04  0.7818609E-02  0.8705442E-01
        2   -1    0    0  501    0  0.00000000000E+00  0.00000000000E+00  0.57087543020E+03  0.57087543020E+03  0.25500000920E-02 0. -1.
       -2   -1    0    0    0  501  0.00000000000E+00  0.00000000000E+00 -0.14214185423E+04  0.14214185423E+04  0.25500000920E-02 0.  1.
    10030    2    1    2    0    0  0.00000000000E+00  0.00000000000E+00 -0.85054311212E+03  0.19922939725E+04  0.18016136343E+04 0.  0.
        3    1    3    3  502    0 -0.24126098962E+03 -0.66401832677E+03 -0.10432817346E+04  0.12599857108E+04  0.10100000352E+00 0.  1.
       -3    1    3    3    0  502  0.24126098962E+03  0.66401832677E+03  0.19273862250E+03  0.73230826173E+03  0.10100000352E+00 0. -1.
</event>
<event>
 5   0  0.3984648E-05  0.1802637E+04  0.7818609E-02  0.8704898E-01
        2   -1    0    0  501    0  0.00000000000E+00  0.00000000000E+00  0.91709447210E+03  0.91709447210E+03  0.25500000920E-02 0. -1.
       -2   -1    0    0    0  501  0.00000000000E+00  0.00000000000E+00 -0.88581397844E+03  0.88581397845E+03  0.25500000920E-02 0.  1.
    10030    2    1    2    0    0  0.00000000000E+00  0.00000000000E+00  0.31280493657E+02  0.18029084506E+04  0.18026370716E+04 0.  0.
        1    1    3    3  502    0 -0.43862532232E+03  0.63878338149E+01 -0.77184232328E+03  0.88779138869E+03  0.50400001928E-02 0.  1.
       -1    1    3    3    0  502  0.43862532232E+03 -0.63878338149E+01  0.80312281694E+03  0.91511706186E+03  0.50400001928E-02 0. -1.
</event>
<event>
 5   0  0.1960300E-05  0.1799865E+04  0.7818609E-02  0.8706371E-01
        1   -1    0    0  501    0  0.00000000000E+00  0.00000000000E+00  0.87225174259E+03  0.87225174260E+03  0.50400001928E-02 0. -1.
       -1   -1    0    0    0  501  0.00000000000E+00  0.00000000000E+00 -0.92849175717E+03  0.92849175718E+03  0.50400001928E-02 0.  1.
    10030    2    1    2    0    0  0.00000000000E+00  0.00000000000E+00 -0.56240014578E+02  0.18007434998E+04  0.17998650540E+04 0.  0.
        3    1    3    3  502    0 -0.10640510684E+03  0.20650372004E+03  0.84173673634E+03  0.87320477361E+03  0.10100000352E+00 0. -1.
       -3    1    3    3    0  502  0.10640510684E+03 -0.20650372004E+03 -0.89797675092E+03  0.92753872617E+03  0.10100000352E+00 0.  1.
</event>
<event>
 5   0  0.1960300E-05  0.1802313E+04  0.7818609E-02  0.8705071E-01
       -1   -1    0    0    0  501  0.00000000000E+00  0.00000000000E+00  0.37570529451E+03  0.37570529454E+03  0.50400001928E-02 0.  1.
        1   -1    0    0  501    0  0.00000000000E+00  0.00000000000E+00 -0.21614882809E+04  0.21614882809E+04  0.50400001928E-02 0. -1.
    10030    2    1    2    0    0  0.00000000000E+00  0.00000000000E+00 -0.17857829864E+04  0.25371935754E+04  0.18023125047E+04 0.  0.
        3    1    3    3  502    0 -0.28322513275E+03 -0.72349452980E+02  0.30710690386E+03  0.42398771181E+03  0.10100000352E+00 0.  1.
       -3    1    3    3    0  502  0.28322513275E+03  0.72349452980E+02 -0.20928898902E+04  0.21132058636E+04  0.10100000352E+00 0. -1.
</event>
<event>
 5   0  0.3993393E-05  0.1800300E+04  0.7818609E-02  0.8706140E-01
        2   -1    0    0  501    0  0.00000000000E+00  0.00000000000E+00  0.25835199588E+04  0.25835199588E+04  0.25500000920E-02 0.  1.
       -2   -1    0    0    0  501  0.00000000000E+00  0.00000000000E+00 -0.31363036755E+03  0.31363036756E+03  0.25500000920E-02 0. -1.
    10030    2    1    2    0    0  0.00000000000E+00  0.00000000000E+00  0.22698895912E+04  0.28971503263E+04  0.18003003241E+04 0.  0.
        5    1    3    3  502    0  0.12088207487E+03  0.72839101700E+03  0.30639919650E+03  0.79941760506E+03  0.46999998093E+01 0. -1.
       -5    1    3    3    0  502 -0.12088207487E+03 -0.72839101700E+03  0.19634903947E+04  0.20977327212E+04  0.46999998093E+01 0.  1.
</event>
<event>
 5   0  0.1906857E-05  0.1803641E+04  0.7818609E-02  0.8704366E-01
        1   -1    0    0  501    0  0.00000000000E+00  0.00000000000E+00  0.71808059981E+03  0.71808059983E+03  0.50400001928E-02 0.  1.
       -1   -1    0    0    0  501  0.00000000000E+00  0.00000000000E+00 -0.11325747191E+04  0.11325747191E+04  0.50400001928E-02 0. -1.
    10030    2    1    2    0    0  0.00000000000E+00  0.00000000000E+00 -0.41449411932E+03  0.18506553190E+04  0.18036406889E+04 0.  0.
        4    1    3    3  502    0 -0.40349390968E+03 -0.28382949124E+03 -0.98185035866E+03  0.10988167522E+04  0.12699999809E+01 0. -1.
       -4    1    3    3    0  502  0.40349390968E+03  0.28382949124E+03  0.56735623934E+03  0.75183856676E+03  0.12699999809E+01 0.  1.
</event>
<event>
 5   0  0.3984648E-05  0.1796472E+04  0.7818609E-02  0.8708178E-01
       -2   -1    0    0    0  501  0.00000000000E+00  0.00000000000E+00  0.67759335513E+03  0.67759335513E+03  0.25500000920E-02 0.  1.
        2   -1    0    0  501    0  0.00000000000E+00  0.00000000000E+00 -0.11907263753E+04  0.11907263753E+04  0.25500000920E-02 0. -1.
    10030    2    1    2    0    0  0.00000000000E+00  0.00000000000E+00 -0.51313302020E+03  0.18683197305E+04  0.17964724097E+04 0.  0.
        1    1    3    3  502    0 -0.80056886899E+03 -0.27405230987E+03  0.56837747616E+02  0.84808355256E+03  0.50400001928E-02 0.  1.
       -1    1    3    3    0  502  0.80056886899E+03  0.27405230987E+03 -0.56997076782E+03  0.10202361779E+04  0.50400001928E-02 0. -1.
</event>
<event>
 5   0  0.3983176E-05  0.1793863E+04  0.7818609E-02  0.8709570E-01
       -2   -1    0    0    0  501  0.00000000000E+00  0.00000000000E+00  0.13267690829E+04  0.13267690829E+04  0.25500000920E-02 0. -1.
        2   -1    0    0  501    0  0.00000000000E+00  0.00000000000E+00 -0.60634955504E+03  0.60634955505E+03  0.25500000920E-02 0.  1.
    10030    2    1    2    0    0  0.00000000000E+00  0.00000000000E+00  0.72041952783E+03  0.19331186379E+04  0.17938626960E+04 0.  0.
        3    1    3    3  502    0  0.20471793090E+03 -0.53039340148E+03 -0.38737226079E+03  0.68795629963E+03  0.10100000352E+00 0.  1.
       -3    1    3    3    0  502 -0.20471793090E+03  0.53039340148E+03  0.11077917886E+04  0.12451623383E+04  0.10100000352E+00 0. -1.
</event>
<event>
 5   0  0.2038338E-05  0.1801240E+04  0.7818609E-02  0.8705640E-01
        1   -1    0    0  501    0  0.00000000000E+00  0.00000000000E+00  0.71691322370E+03  0.71691322371E+03  0.50400001928E-02 0.  1.
       -1   -1    0    0    0  501  0.00000000000E+00  0.00000000000E+00 -0.11314015356E+04  0.11314015356E+04  0.50400001928E-02 0. -1.
    10030    2    1    2    0    0  0.00000000000E+00  0.00000000000E+00 -0.41448831188E+03  0.18483147593E+04  0.18012403751E+04 0.  0.
        1    1    3    3  502    0  0.32828903462E+03 -0.81686793498E+03 -0.12360159112E+02  0.88045425038E+03  0.50400001928E-02 0.  1.
       -1    1    3    3    0  502 -0.32828903462E+03  0.81686793498E+03 -0.40212815276E+03  0.96786050892E+03  0.50400001928E-02 0. -1.
</event>
<event>
 5   0  0.3983176E-05  0.1801624E+04  0.7818609E-02  0.8705436E-01
        2   -1    0    0  501    0  0.00000000000E+00  0.00000000000E+00  0.10328124367E+04  0.10328124367E+04  0.25500000920E-02 0. -1.
       -2   -1    0    0    0  501  0.00000000000E+00  0.00000000000E+00 -0.78568195038E+03  0.78568195039E+03  0.25500000920E-02 0.  1.
    10030    2    1    2    0    0  0.00000000000E+00  0.00000000000E+00  0.24713048634E+03  0.18184943871E+04  0.18016238117E+04 0.  0.
        3    1    3    3  502    0 -0.53539555169E+03  0.43410197999E+03  0.70896957665E+03  0.98880270864E+03  0.10100000352E+00 0. -1.
       -3    1    3    3    0  502  0.53539555169E+03 -0.43410197999E+03 -0.46183909031E+03  0.82969167848E+03  0.10100000352E+00 0.  1.
</event>
<event>
 5   0  0.3984648E-05  0.1777454E+04  0.7818609E-02  0.8718382E-01
       -2   -1    0    0    0  501  0.00000000000E+00  0.00000000000E+00  0.60155474193E+03  0.60155474193E+03  0.25500000920E-02 0. -1.
        2   -1    0    0  501    0  0.00000000000E+00  0.00000000000E+00 -0.13129908877E+04  0.13129908877E+04  0.25500000920E-02 0.  1.
    10030    2    1    2    0    0  0.00000000000E+00  0.00000000000E+00 -0.71143614574E+03  0.19145456296E+04  0.17774542409E+04 0.  0.
        1    1    3    3  502    0  0.68266257702E+03 -0.52430150897E+03 -0.59394514329E+03  0.10457968730E+04  0.50400001928E-02 0.  1.
       -1    1    3    3    0  502 -0.68266257702E+03  0.52430150897E+03 -0.11749100245E+03  0.86874875657E+03  0.50400001928E-02 0. -1.
</event>
<event>
 5   0  0.2001811E-05  0.1809242E+04  0.7818609E-02  0.8701400E-01
        1   -1    0    0  501    0  0.00000000000E+00  0.00000000000E+00  0.12640470745E+04  0.12640470745E+04  0.50400001928E-02 0. -1.
       -1   -1    0    0    0  501  0.00000000000E+00  0.00000000000E+00 -0.64739638389E+03  0.64739638391E+03  0.50400001928E-02 0.  1.
    10030    2    1    2    0    0  0.00000000000E+00  0.00000000000E+00  0.61665069057E+03  0.19114434584E+04  0.18092423885E+04 0.  0.
        2    1    3    3  502    0  0.15815167219E+03 -0.42866201084E+03  0.11331825767E+04  0.12218288846E+04  0.25500000920E-02 0. -1.
       -2    1    3    3    0  502 -0.15815167219E+03  0.42866201084E+03 -0.51653188618E+03  0.68961457380E+03  0.25500000920E-02 0.  1.
</event>
<event>
 5   0  0.3909859E-05  0.1799949E+04  0.7818609E-02  0.8706326E-01
       -2   -1    0    0    0  501  0.00000000000E+00  0.00000000000E+00  0.38876780020E+03  0.38876780021E+03  0.25500000920E-02 0.  1.
        2   -1    0    0  501    0  0.00000000000E+00  0.00000000000E+00 -0.20833889469E+04  0.20833889469E+04  0.25500000920E-02 0. -1.
    10030    2    1    2    0    0  0.00000000000E+00  0.00000000000E+00 -0.16946211467E+04  0.24721567471E+04  0.17999494858E+04 0.  0.
        4    1    3    3  502    0 -0.68682879407E+03  0.57573805361E+03 -0.73451265911E+03  0.11587573335E+04  0.12699999809E+01 0. -1.
       -4    1    3    3    0  502  0.68682879407E+03 -0.57573805361E+03 -0.96010848758E+03  0.13133994136E+04  0.12699999809E+01 0.  1.
</event>
<event>
 5   0  0.4015729E-05  0.1782770E+04  0.7818609E-02  0.8715516E-01
        2   -1    0    0  501    0  0.00000000000E+00  0.00000000000E+00  0.66167873958E+03  0.66167873959E+03  0.25500000920E-02 0.  1.
       -2   -1    0    0    0  501  0.00000000000E+00  0.00000000000E+00 -0.12008349453E+04  0.12008349453E+04  0.25500000920E-02 0. -1.
    10030    2    1    2    0    0  0.00000000000E+00  0.00000000000E+00 -0.53915620569E+03  0.18625136849E+04  0.17827697025E+04 0.  0.
        2    1    3    3  502    0 -0.68808712321E+03 -0.20653805084E+03 -0.82086036052E+03  0.10908407707E+04  0.25500000920E-02 0. -1.
       -2    1    3    3    0  502  0.68808712321E+03  0.20653805084E+03  0.28170415483E+03  0.77167291415E+03  0.25500000920E-02 0.  1.
</event>
<event>
 5   0  0.1960300E-05  0.1798293E+04  0.7818609E-02  0.8707208E-01
       -1   -1    0    0    0  501  0.00000000000E+00  0.00000000000E+00  0.48314584799E+03  0.48314584801E+03  0.50400001928E-02 0.  1.
        1   -1    0    0  501    0  0.00000000000E+00  0.00000000000E+00 -0.16733335374E+04  0.16733335374E+04  0.50400001928E-02 0. -1.
    10030    2    1    2    0    0  0.00000000000E+00  0.00000000000E+00 -0.11901876894E+04  0.21564793854E+04  0.17982926913E+04 0.  0.
        3    1    3    3  502    0  0.68404308445E+03 -0.56458763767E+03 -0.41807743244E+03  0.98054214173E+03  0.10100000352E+00 0.  1.
       -3    1    3    3    0  502 -0.68404308445E+03  0.56458763767E+03 -0.77211025700E+03  0.11759372437E+04  0.10100000352E+00 0. -1.
</event>
<event>
 5   0  0.1906857E-05  0.1799923E+04  0.7818609E-02  0.8706341E-01
       -1   -1    0    0    0  501  0.00000000000E+00  0.00000000000E+00  0.13001882026E+04  0.13001882026E+04  0.50400001928E-02 0. -1.
        1   -1    0    0  501    0  0.00000000000E+00  0.00000000000E+00 -0.62293324289E+03  0.62293324291E+03  0.50400001928E-02 0.  1.
    10030    2    1    2    0    0  0.00000000000E+00  0.00000000000E+00  0.67725495974E+03  0.19231214456E+04  0.17999227244E+04 0.  0.
        4    1    3    3  502    0  0.43607272377E+03 -0.78240482847E+03  0.43184664795E+03  0.99438919758E+03  0.12699999809E+01 0.  1.
       -4    1    3    3    0  502 -0.43607272377E+03  0.78240482847E+03  0.24540831179E+03  0.92873224797E+03  0.12699999809E+01 0. -1.
</event>
<event>
 5   0  0.2054876E-05  0.1800656E+04  0.7818609E-02  0.8705951E-01
        1   -1    0    0  501    0  0.00000000000E+00  0.00000000000E+00  0.10931477443E+04  0.10931477443E+04  0.50400001928E-02 0. -1.
       -1   -1    0    0    0  501  0.00000000000E+00  0.00000000000E+00 -0.74151931782E+03  0.74151931784E+03  0.50400001928E-02 0.  1.
    10030    2    1    2    0    0  0.00000000000E+00  0.00000000000E+00  0.35162842645E+03  0.18346670621E+04  0.18006556246E+04 0.  0.
        5    1    3    3  502    0 -0.39832657523E+03 -0.73913224971E+02  0.99501620570E+03  0.10743400602E+04  0.46999998093E+01 0. -1.
       -5    1    3    3    0  502  0.39832657523E+03  0.73913224971E+02 -0.64338777925E+03  0.76032700192E+03  0.46999998093E+01 0.  1.
</event>
<event>
 5   0  0.1906857E-05  0.1804560E+04  0.7818609E-02  0.8703878E-01
       -1   -1    0    0    0  501  0.00000000000E+00  0.00000000000E+00  0.48882951706E+03  0.48882951709E+03  0.50400001928E-02 0. -1.
        1   -1    0    0  501    0  0.00000000000E+00  0.00000000000E+00 -0.16654265175E+04  0.16654265175E+04  0.50400001928E-02 0.  1.
    10030    2    1    2    0    0  0.00000000000E+00  0.00000000000E+00 -0.11765970004E+04  0.21542560346E+04  0.18045604897E+04 0.  0.
        4    1    3    3  502    0 -0.33842747702E+03 -0.29767658907E+03  0.34481293804E+03  0.56748751882E+03  0.12699999809E+01 0. -1.
       -4    1    3    3    0  502  0.33842747702E+03  0.29767658907E+03 -0.15214099384E+04  0.15867685157E+04  0.12699999809E+01 0.  1.
</event>
<event>
 5   0  0.2038338E-05  0.1800483E+04  0.7818609E-02  0.8706043E-01
        1   -1    0    0  501    0  0.00000000000E+00  0.00000000000E+00  0.13318642243E+04  0.13318642243E+04  0.50400001928E-02 0.  1.
       -1   -1    0    0    0  501  0.00000000000E+00  0.00000000000E+00 -0.60849648354E+03  0.60849648356E+03  0.50400001928E-02 0. -1.
    10030    2    1    2    0    0  0.00000000000E+00  0.00000000000E+00  0.72336774075E+03  0.19403607078E+04  0.18004829319E+04 0.  0.
        1    1    3    3  502    0  0.41931386924E+02 -0.57326003716E+03 -0.38499940174E+03  0.69181634180E+03  0.50400001928E-02 0. -1.
       -1    1    3    3    0  502 -0.41931386924E+02  0.57326003716E+03  0.11083671425E+04  0.12485443660E+04  0.50400001928E-02 0.  1.
</event>
<event>
 5   0  0.3993393E-05  0.1806483E+04  0.7818609E-02  0.8702860E-01
        2   -1    0    0  501    0  0.00000000000E+00  0.00000000000E+00  0.71984914940E+03  0.71984914941E+03  0.25500000920E-02 0. -1.
       -2   -1    0    0    0  501  0.00000000000E+00  0.00000000000E+00 -0.11333553838E+04  0.11333553838E+04  0.25500000920E-02 0.  1.
    10030    2    1    2    0    0  0.00000000000E+00  0.00000000000E+00 -0.41350623438E+03  0.18532045332E+04  0.18064826697E+04 0.  0.
        5    1    3    3  502    0  0.68062768356E+03 -0.59190932235E+03 -0.15850339404E+03  0.91583628746E+03  0.46999998093E+01 0. -1.
       -5    1    3    3    0  502 -0.68062768356E+03  0.59190932235E+03 -0.25500284034E+03  0.93736824572E+03  0.46999998093E+01 0.  1.
</event>
<event>
 5   0  0.1906857E-05  0.1797065E+04  0.7818609E-02  0.8707862E-01
        1   -1    0    0  501    0  0.00000000000E+00  0.00000000000E+00  0.15278923043E+04  0.15278923043E+04  0.50400001928E-02 0.  1.
       -1   -1    0    0    0  501  0.00000000000E+00  0.00000000000E+00 -0.52841455763E+03  0.52841455766E+03  0.50400001928E-02 0. -1.
    10030    2    1    2    0    0  0.00000000000E+00  0.00000000000E+00  0.99947774662E+03  0.20563068619E+04  0.17970648693E+04 0.  0.
        4    1    3    3  502    0  0.48379710757E+03 -0.45398530137E+02 -0.36509524109E+03  0.60779668953E+03  0.12699999809E+01 0. -1.
       -4    1    3    3    0  502 -0.48379710757E+03  0.45398530137E+02  0.13645729877E+04  0.14485101724E+04  0.12699999809E+01 0.  1.
</event>
<event>
 5   0  0.1446750E-05  0.1848248E+04  0.7818609E-02  0.8681054E-01
        4   -1    0    0  501    0  0.00000000000E+00  0.00000000000E+00  0.61827223220E+03  0.61827353656E+03  0.12699999809E+01 0.  1.
       -4   -1    0    0    0  501  0.00000000000E+00  0.00000000000E+00 -0.13812735306E+04  0.13812741144E+04  0.12699999809E+01 0. -1.
    10030    2    1    2    0    0  0.00000000000E+00  0.00000000000E+00 -0.76300129836E+03  0.19995476510E+04  0.18482477721E+04 0.  0.
        4    1    3    3  502    0 -0.39988054400E+03 -0.78845968567E+03 -0.67266048413E+03  0.11108766202E+04  0.12699999809E+01 0. -1.
       -4    1    3    3    0  502  0.39988054400E+03  0.78845968567E+03 -0.90340814230E+02  0.88867103082E+03  0.12699999809E+01 0.  1.
</event>
<event>
 5   0  0.3983176E-05  0.1799187E+04  0.7818609E-02  0.8706732E-01
       -2   -1    0    0    0  501  0.00000000000E+00  0.00000000000E+00  0.90597315613E+03  0.90597315613E+03  0.25500000920E-02 0.  1.
        2   -1    0    0  501    0  0.00000000000E+00  0.00000000000E+00 -0.89325859593E+03  0.89325859594E+03  0.25500000920E-02 0. -1.
    10030    2    1    2    0    0  0.00000000000E+00  0.00000000000E+00  0.12714560195E+02  0.17992317521E+04  0.17991868268E+04 0.  0.
        3    1    3    3  502    0  0.50472262554E+03 -0.26030404957E+03 -0.69134572361E+03  0.89468544568E+03  0.10100000352E+00 0. -1.
       -3    1    3    3    0  502 -0.50472262554E+03  0.26030404957E+03  0.70406028381E+03  0.90454630638E+03  0.10100000352E+00 0.  1.
</event>
<event>
 5   0  0.3983176E-05  0.1797366E+04  0.7818609E-02  0.8707702E-01
       -2   -1    0    0    0  501  0.00000000000E+00  0.00000000000E+00  0.50992851642E+03  0.50992851642E+03  0.25500000920E-02 0. -1.
        2   -1    0    0  501    0  0.00000000000E+00  0.00000000000E+00 -0.15838116881E+04  0.15838116881E+04  0.25500000920E-02 0.  1.
    10030    2    1    2    0    0  0.00000000000E+00  0.00000000000E+00 -0.10738831716E+04  0.20937402045E+04  0.17973655659E+04 0.  0.
        3    1    3    3  502    0  0.21484291939E+03  0.48300656112E+03 -0.13835381366E+04  0.14810910181E+04  0.10100000352E+00 0.  1.
       -3    1    3    3    0  502 -0.21484291939E+03 -0.48300656112E+03  0.30965496498E+03  0.61264918643E+03  0.10100000352E+00 0. -1.
</event>
<event>
 5   0  0.2054876E-05  0.1798884E+04  0.7818609E-02  0.8706893E-01
       -1   -1    0    0    0  501  0.00000000000E+00  0.00000000000E+00  0.43996478163E+03  0.43996478166E+03  0.50400001928E-02 0. -1.
        1   -1    0    0  501    0  0.00000000000E+00  0.00000000000E+00 -0.18387741182E+04  0.18387741182E+04  0.50400001928E-02 0.  1.
    10030    2    1    2    0    0  0.00000000000E+00  0.00000000000E+00 -0.13988093366E+04  0.22787388999E+04  0.17988839356E+04 0.  0.
        5    1    3    3  502    0  0.40471395480E+03  0.38869522239E+02  0.31689761440E+03  0.51550985730E+03  0.46999998093E+01 0. -1.
       -5    1    3    3    0  502 -0.40471395480E+03 -0.38869522239E+02 -0.17157069509E+04  0.17632290426E+04  0.46999998093E+01 0.  1.
</event>
<event>
 5   0  0.3993393E-05  0.1799913E+04  0.7818609E-02  0.8706346E-01
        2   -1    0    0  501    0  0.00000000000E+00  0.00000000000E+00  0.68791479806E+03  0.68791479806E+03  0.25500000920E-02 0.  1.
       -2   -1    0    0    0  501  0.00000000000E+00  0.00000000000E+00 -0.11773570967E+04  0.11773570967E+04  0.25500000920E-02 0. -1.
    10030    2    1    2    0    0  0.00000000000E+00  0.00000000000E+00 -0.48944229867E+03  0.18652718948E+04  0.17999126306E+04 0.  0.
        5    1    3    3  502    0  0.69626129081E+03  0.53739929680E+03 -0.47218670398E+02  0.88081183127E+03  0.46999998093E+01 0. -1.
       -5    1    3    3    0  502 -0.69626129081E+03 -0.53739929680E+03 -0.44222362827E+03  0.98446006353E+03  0.46999998093E+01 0.  1.
</event>
<event>
 5   0  0.3983176E-05  0.1806882E+04  0.7818609E-02  0.8702648E-01
       -2   -1    0    0    0  501  0.00000000000E+00  0.00000000000E+00  0.48019651996E+03  0.48019651996E+03  0.25500000920E-02 0.  1.
        2   -1    0    0  501    0  0.00000000000E+00  0.00000000000E+00 -0.16997331473E+04  0.16997331473E+04  0.25500000920E-02 0. -1.
    10030    2    1    2    0    0  0.00000000000E+00  0.00000000000E+00 -0.12195366274E+04  0.21799296673E+04  0.18068823340E+04 0.  0.
        3    1    3    3  502    0 -0.76317151415E+02  0.84512486070E+03 -0.23567727567E+03  0.88068389689E+03  0.10100000352E+00 0.  1.
       -3    1    3    3    0  502  0.76317151415E+02 -0.84512486070E+03 -0.98385935171E+03  0.12992457704E+04  0.10100000352E+00 0. -1.
</event>
<event>
 5   0  0.1960300E-05  0.1770894E+04  0.7818609E-02  0.8721932E-01
        1   -1    0    0  501    0  0.00000000000E+00  0.00000000000E+00  0.13069209660E+04  0.13069209661E+04  0.50400001928E-02 0. -1.
       -1   -1    0    0    0  501  0.00000000000E+00  0.00000000000E+00 -0.59989603421E+03  0.59989603423E+03  0.50400001928E-02 0.  1.
    10030    2    1    2    0    0  0.00000000000E+00  0.00000000000E+00  0.70702493184E+03  0.19068170003E+04  0.17708943555E+04 0.  0.
        3    1    3    3  502    0  0.87262654979E+02  0.23294367019E+03 -0.56149958271E+03  0.61413297910E+03  0.10100000352E+00 0.  1.
       -3    1    3    3    0  502 -0.87262654979E+02 -0.23294367019E+03  0.12685245145E+04  0.12926840212E+04  0.10100000352E+00 0. -1.
</event>
<event>
 5   0  0.1960300E-05  0.1796864E+04  0.7818609E-02  0.8707969E-01
       -1   -1    0    0    0  501  0.00000000000E+00  0.00000000000E+00  0.29301346402E+03  0.29301346406E+03  0.50400001928E-02 0. -1.
        1   -1    0    0  501    0  0.00000000000E+00  0.00000000000E+00 -0.27547540811E+04  0.27547540811E+04  0.50400001928E-02 0.  1.
    10030    2    1    2    0    0  0.00000000000E+00  0.00000000000E+00 -0.24617406171E+04  0.30477675452E+04  0.17968639747E+04 0.  0.
        3    1    3    3  502    0  0.10525611076E+03 -0.31463010789E+03 -0.26470455770E+04  0.26677558453E+04  0.10100000352E+00 0.  1.
       -3    1    3    3    0  502 -0.10525611076E+03  0.31463010789E+03  0.18530495988E+03  0.38001169982E+03  0.10100000352E+00 0. -1.
</event>
<event>
 5   0  0.1906857E-05  0.1802093E+04  0.7818609E-02  0.8705187E-01
        1   -1    0    0  501    0  0.00000000000E+00  0.00000000000E+00  0.11734384615E+04  0.11734384615E+04  0.50400001928E-02 0.  1.
       -1   -1    0    0    0  501  0.00000000000E+00  0.00000000000E+00 -0.69188497235E+03  0.69188497237E+03  0.50400001928E-02 0. -1.
    10030    2    1    2    0    0  0.00000000000E+00  0.00000000000E+00  0.48155348910E+03  0.18653234338E+04  0.18020926031E+04 0.  0.
        4    1    3    3  502    0 -0.61195183877E+03 -0.66052910478E+03  0.20646124051E+03  0.92380279712E+03  0.12699999809E+01 0. -1.
       -4    1    3    3    0  502  0.61195183877E+03  0.66052910478E+03  0.27509224860E+03  0.94152063672E+03  0.12699999809E+01 0.  1.
</event>
<event>
 5   0  0.3984648E-05  0.1782375E+04  0.7818609E-02  0.8715729E-01
       -2   -1    0    0    0  501  0.00000000000E+00  0.00000000000E+00  0.96091494834E+03  0.96091494835E+03  0.25500000920E-02 0.  1.
        2   -1    0    0  501    0  0.00000000000E+00  0.00000000000E+00 -0.82651986764E+03  0.82651986765E+03  0.25500000920E-02 0. -1.
    10030    2    1    2    0    0  0.00000000000E+00  0.00000000000E+00  0.13439508070E+03  0.17874348160E+04  0.17823751523E+04 0.  0.
        1    1    3    3  502    0  0.69869400833E+03 -0.54199070654E+03 -0.43968625135E+02  0.88535895730E+03  0.50400001928E-02 0.  1.
       -1    1    3    3    0  502 -0.69869400833E+03  0.54199070654E+03  0.17836370584E+03  0.90207585869E+03  0.50400001928E-02 0. -1.
</event>
<event>
 5   0  0.1446750E-05  0.1774926E+04  0.7818609E-02  0.8719748E-01
        4   -1    0    0  501    0  0.00000000000E+00  0.00000000000E+00  0.11906418323E+04  0.11906425096E+04  0.12699999809E+01 0.  1.
       -4   -1    0    0    0  501  0.00000000000E+00  0.00000000000E+00 -0.66148245611E+03  0.66148367527E+03  0.12699999809E+01 0. -1.
    10030    2    1    2    0    0  0.00000000000E+00  0.00000000000E+00  0.52915937616E+03  0.18521261849E+04  0.17749258461E+04 0.  0.
        2    1    3    3  502    0 -0.28084420181E+03  0.78799797251E+02  0.11391925529E+04  0.11759432581E+04  0.25500000920E-02 0.  1.
       -2    1    3    3    0  502  0.28084420181E+03 -0.78799797251E+02 -0.61003317672E+03  0.67618292676E+03  0.25500000920E-02 0. -1.
</event>
<event>
 5   0  0.4015729E-05  0.1800200E+04  0.7818609E-02  0.8706193E-01
       -2   -1    0    0    0  501  0.00000000000E+00  0.00000000000E+00  0.85498069437E+03  0.85498069437E+03  0.25500000920E-02 0.  1.
        2   -1    0    0  501    0  0.00000000000E+00  0.00000000000E+00 -0.94760074563E+03  0.94760074563E+03  0.25500000920E-02 0. -1.
    10030    2    1    2    0    0  0.00000000000E+00  0.00000000000E+00 -0.92620051265E+02  0.18025814400E+04  0.18002003705E+04 0.  0.
        2    1    3    3  502    0 -0.73121207640E+02  0.48983749309E+03  0.70627763293E+03  0.86262133954E+03  0.25500000920E-02 0.  1.
       -2    1    3    3    0  502  0.73121207640E+02 -0.48983749309E+03 -0.79889768419E+03  0.93996010046E+03  0.25500000920E-02 0. -1.
</event>
<event>
 5   0  0.3983176E-05  0.1801059E+04  0.7818609E-02  0.8705736E-01
       -2   -1    0    0    0  501  0.00000000000E+00  0.00000000000E+00  0.42428784823E+03  0.42428784824E+03  0.25500000920E-02 0.  1.
        2   -1    0    0  501    0  0.00000000000E+00  0.00000000000E+00 -0.19113288254E+04  0.19113288254E+04  0.25500000920E-02 0. -1.
    10030    2    1    2    0    0  0.00000000000E+00  0.00000000000E+00 -0.14870409771E+04  0.23356166736E+04  0.18010592379E+04 0.  0.
        3    1    3    3  502    0 -0.64781457869E+03  0.17792432140E+03  0.34163597468E+02  0.67267224865E+03  0.10100000352E+00 0.  1.
       -3    1    3    3    0  502  0.64781457869E+03 -0.17792432140E+03 -0.15212045746E+04  0.16629444250E+04  0.10100000352E+00 0. -1.
</event>
<event>
 5   0  0.2001811E-05  0.1800171E+04  0.7818609E-02  0.8706209E-01
       -1   -1    0    0    0  501  0.00000000000E+00  0.00000000000E+00  0.43243412233E+03  0.43243412236E+03  0.50400001928E-02 0. -1.
        1   -1    0    0  501    0  0.00000000000E+00  0.00000000000E+00 -0.18734730733E+04  0.18734730733E+04  0.50400001928E-02 0.  1.
    10030    2    1    2    0    0  0.00000000000E+00  0.00000000000E+00 -0.14410389510E+04  0.23059071957E+04  0.18001707521E+04 0.  0.
        2    1    3    3  502    0 -0.42288559043E+03 -0.70982732110E+03 -0.26319295694E+03  0.86715487716E+03  0.25500000920E-02 0. -1.
       -2    1    3    3    0  502  0.42288559043E+03  0.70982732110E+03 -0.11778459941E+04  0.14387523185E+04  0.25500000920E-02 0.  1.
</event>
<event>
 5   0  0.2038338E-05  0.1798492E+04  0.7818609E-02  0.8707102E-01
       -1   -1    0    0    0  501  0.00000000000E+00  0.00000000000E+00  0.74393196299E+03  0.74393196300E+03  0.50400001928E-02 0.  1.
        1   -1    0    0  501    0  0.00000000000E+00  0.00000000000E+00 -0.10869857865E+04  0.10869857865E+04  0.50400001928E-02 0. -1.
    10030    2    1    2    0    0  0.00000000000E+00  0.00000000000E+00 -0.34305382354E+03  0.18309177495E+04  0.17984921128E+04 0.  0.
        1    1    3    3  502    0  0.50154294402E+03 -0.49491859464E+03 -0.74030723229E+03  0.10220296171E+04  0.50400001928E-02 0. -1.
       -1    1    3    3    0  502 -0.50154294402E+03  0.49491859464E+03  0.39725340875E+03  0.80888813244E+03  0.50400001928E-02 0.  1.
</event>
<event>
 5   0  0.3983176E-05  0.1799844E+04  0.7818609E-02  0.8706383E-01
        2   -1    0    0  501    0  0.00000000000E+00  0.00000000000E+00  0.14404446789E+04  0.14404446789E+04  0.25500000920E-02 0.  1.
       -2   -1    0    0    0  501  0.00000000000E+00  0.00000000000E+00 -0.56222867037E+03  0.56222867037E+03  0.25500000920E-02 0. -1.
    10030    2    1    2    0    0  0.00000000000E+00  0.00000000000E+00  0.87821600851E+03  0.20026733493E+04  0.17998436561E+04 0.  0.
        3    1    3    3  502    0  0.53003789143E+03  0.71339414506E+03  0.28179701188E+03  0.93235236829E+03  0.10100000352E+00 0. -1.
       -3    1    3    3    0  502 -0.53003789143E+03 -0.71339414506E+03  0.59641899663E+03  0.10703209810E+04  0.10100000352E+00 0.  1.
</event>
<event>
 5   0  0.3993393E-05  0.1797000E+04  0.7818609E-02  0.8707897E-01
        2   -1    0    0  501    0  0.00000000000E+00  0.00000000000E+00  0.17541529199E+04  0.17541529199E+04  0.25500000920E-02 0.  1.
       -2   -1    0    0    0  501  0.00000000000E+00  0.00000000000E+00 -0.46022332319E+03  0.46022332320E+03  0.25500000920E-02 0. -1.
    10030    2    1    2    0    0  0.00000000000E+00  0.00000000000E+00  0.12939295967E+04  0.22143762431E+04  0.17969998177E+04 0.  0.
        5    1    3    3  502    0 -0.56319452295E+03 -0.16878223280E+03  0.14841824756E+04  0.15964007090E+04  0.46999998093E+01 0.  1.
       -5    1    3    3    0  502  0.56319452295E+03  0.16878223280E+03 -0.19025287892E+03  0.61797553408E+03  0.46999998093E+01 0. -1.
</event>
<event>
 5   0  0.1960300E-05  0.1798755E+04  0.7818609E-02  0.8706962E-01
       -1   -1    0    0    0  501  0.00000000000E+00  0.00000000000E+00  0.70133481830E+03  0.70133481832E+03  0.50400001928E-02 0.  1.
        1   -1    0    0  501    0  0.00000000000E+00  0.00000000000E+00 -0.11533439641E+04  0.11533439641E+04  0.50400001928E-02 0. -1.
    10030    2    1    2    0    0  0.00000000000E+00  0.00000000000E+00 -0.45200914580E+03  0.18546787824E+04  0.17987554359E+04 0.  0.
        3    1    3    3  502    0 -0.60972891423E+03  0.60363374428E+03 -0.50408789505E+03  0.99511188427E+03  0.10100000352E+00 0.  1.
       -3    1    3    3    0  502  0.60972891423E+03 -0.60363374428E+03  0.52078749255E+02  0.85956689816E+03  0.10100000352E+00 0. -1.
</event>
<event>
 5   0  0.2001811E-05  0.1801302E+04  0.7818609E-02  0.8705607E-01
        1   -1    0    0  501    0  0.00000000000E+00  0.00000000000E+00  0.78651331780E+03  0.78651331782E+03  0.50400001928E-02 0. -1.
       -1   -1    0    0    0  501  0.00000000000E+00  0.00000000000E+00 -0.10313525607E+04  0.10313525607E+04  0.50400001928E-02 0.  1.
    10030    2    1    2    0    0  0.00000000000E+00  0.00000000000E+00 -0.24483924293E+03  0.18178658786E+04  0.18013023337E+04 0.  0.
        2    1    3    3  502    0  0.39831974775E+03  0.79455415293E+03  0.24513120355E+02  0.88914330480E+03  0.25500000920E-02 0. -1.
       -2    1    3    3    0  502 -0.39831974775E+03 -0.79455415293E+03 -0.26935236328E+03  0.92872257376E+03  0.25500000920E-02 0.  1.
</event>
<event>
 5   0  0.2001811E-05  0.1794733E+04  0.7818609E-02  0.8709105E-01
       -1   -1    0    0    0  501  0.00000000000E+00  0.00000000000E+00  0.53279086610E+03  0.53279086613E+03  0.50400001928E-02 0.  1.
        1   -1    0    0  501    0  0.00000000000E+00  0.00000000000E+00 -0.15114121056E+04  0.15114121056E+04  0.50400001928E-02 0. -1.
    10030    2    1    2    0    0  0.00000000000E+00  0.00000000000E+00 -0.97862123946E+03  0.20442029717E+04  0.17947329214E+04 0.  0.
        2    1    3    3  502    0  0.52024940776E+02  0.24813373572E+03  0.49115021022E+03  0.55272549631E+03  0.25500000920E-02 0.  1.
       -2    1    3    3    0  502 -0.52024940776E+02 -0.24813373572E+03 -0.14697714497E+04  0.14914774754E+04  0.25500000920E-02 0. -1.
</event>
<event>
 5   0  0.3909859E-05  0.1792752E+04  0.7818609E-02  0.8710163E-01
       -2   -1    0    0    0  501  0.00000000000E+00  0.00000000000E+00  0.43321794869E+03  0.43321794870E+03  0.25500000920E-02 0.  1.
        2   -1    0    0  501    0  0.00000000000E+00  0.00000000000E+00 -0.18547013887E+04  0.18547013887E+04  0.25500000920E-02 0. -1.
    10030    2    1    2    0    0  0.00000000000E+00  0.00000000000E+00 -0.14214834400E+04  0.22879193374E+04  0.17927519974E+04 0.  0.
        4    1    3    3  502    0  0.29590255072E+03  0.84588882897E+03 -0.68515109696E+03  0.11280602240E+04  0.12699999809E+01 0. -1.
       -4    1    3    3    0  502 -0.29590255072E+03 -0.84588882897E+03 -0.73633234301E+03  0.11598591133E+04  0.12699999809E+01 0.  1.
</event>
<event>
 5   0  0.2054876E-05  0.1789586E+04  0.7818609E-02  0.8711857E-01
       -1   -1    0    0    0  501  0.00000000000E+00  0.00000000000E+00  0.80883091890E+03  0.80883091892E+03  0.50400001928E-02 0. -1.
        1   -1    0    0  501    0  0.00000000000E+00  0.00000000000E+00 -0.98989153689E+03  0.98989153690E+03  0.50400001928E-02 0.  1.
    10030    2    1    2    0    0  0.00000000000E+00  0.00000000000E+00 -0.18106061799E+03  0.17987224558E+04  0.17895864119E+04 0.  0.
        5    1    3    3  502    0 -0.88628026378E+03 -0.43185873180E+02 -0.20633597923E+03  0.91101830494E+03  0.46999998093E+01 0. -1.
       -5    1    3    3    0  502  0.88628026378E+03  0.43185873180E+02  0.25275361245E+02  0.88770415088E+03  0.46999998093E+01 0.  1.
</event>
<event>
 5   0  0.3993393E-05  0.1801251E+04  0.7818609E-02  0.8705635E-01
        2   -1    0    0  501    0  0.00000000000E+00  0.00000000000E+00  0.10075952507E+04  0.10075952507E+04  0.25500000920E-02 0. -1.
       -2   -1    0    0    0  501  0.00000000000E+00  0.00000000000E+00 -0.80501196792E+03  0.80501196792E+03  0.25500000920E-02 0.  1.
    10030    2    1    2    0    0  0.00000000000E+00  0.00000000000E+00  0.20258328282E+03  0.18126072187E+04  0.18012509383E+04 0.  0.
        5    1    3    3  502    0  0.37453739666E+03  0.68452502336E+03 -0.35126738171E+03  0.85572403995E+03  0.46999998093E+01 0.  1.
       -5    1    3    3    0  502 -0.37453739666E+03 -0.68452502336E+03  0.55385066454E+03  0.95688317871E+03  0.46999998093E+01 0. -1.
</event>
<event>
 5   0  0.2001811E-05  0.1797956E+04  0.7818609E-02  0.8707387E-01
       -1   -1    0    0    0  501  0.00000000000E+00  0.00000000000E+00  0.11483735964E+04  0.11483735964E+04  0.50400001928E-02 0.  1.
        1   -1    0    0  501    0  0.00000000000E+00  0.00000000000E+00 -0.70374467018E+03  0.70374467020E+03  0.50400001928E-02 0. -1.
    10030    2    1    2    0    0  0.00000000000E+00  0.00000000000E+00  0.44462892618E+03  0.18521182666E+04  0.17979563931E+04 0.  0.
        2    1    3    3  502    0 -0.74405255351E+03 -0.19456755861E+03 -0.25720921667E+03  0.81094224110E+03  0.25500000920E-02 0.  1.
       -2    1    3    3    0  502  0.74405255351E+03  0.19456755861E+03  0.70183814285E+03  0.10411760255E+04  0.25500000920E-02 0. -1.
</event>
<event>
 5   0  0.3984648E-05  0.1802161E+04  0.7818609E-02  0.8705151E-01
       -2   -1    0    0    0  501  0.00000000000E+00  0.00000000000E+00  0.47465270588E+03  0.47465270589E+03  0.25500000920E-02 0.  1.
        2   -1    0    0  501    0  0.00000000000E+00  0.00000000000E+00 -0.17106111345E+04  0.17106111345E+04  0.25500000920E-02 0. -1.
    10030    2    1    2    0    0  0.00000000000E+00  0.00000000000E+00 -0.12359584286E+04  0.21852638404E+04  0.18021611512E+04 0.  0.
        1    1    3    3  502    0 -0.26437640117E+01 -0.32176572039E+03  0.40261095880E+03  0.51539863453E+03  0.50400001928E-02 0.  1.
       -1    1    3    3    0  502  0.26437640117E+01  0.32176572039E+03 -0.16385693874E+04  0.16698652058E+04  0.50400001928E-02 0. -1.
</event>
<event>
 5   0  0.2054876E-05  0.1798842E+04  0.7818609E-02  0.8706915E-01
       -1   -1    0    0    0  501  0.00000000000E+00  0.00000000000E+00  0.42665798774E+03  0.42665798777E+03  0.50400001928E-02 0. -1.
        1   -1    0    0  501    0  0.00000000000E+00  0.00000000000E+00 -0.18960350436E+04  0.18960350436E+04  0.50400001928E-02 0.  1.
    10030    2    1    2    0    0  0.00000000000E+00  0.00000000000E+00 -0.14693770558E+04  0.23226930314E+04  0.17988424016E+04 0.  0.
        5    1    3    3  502    0 -0.26633927602E+03  0.58320135614E+03  0.79776720706E+02  0.64610126676E+03  0.46999998093E+01 0. -1.
       -5    1    3    3    0  502  0.26633927602E+03 -0.58320135614E+03 -0.15491537765E+04  0.16765917646E+04  0.46999998093E+01 0.  1.
</event>
<event>
 5   0  0.2001811E-05  0.1800917E+04  0.7818609E-02  0.8705812E-01
        1   -1    0    0  501    0  0.00000000000E+00  0.00000000000E+00  0.59952263754E+03  0.59952263756E+03  0.50400001928E-02 0. -1.
       -1   -1    0    0    0  501  0.00000000000E+00  0.00000000000E+00 -0.13524512499E+04  0.13524512499E+04  0.50400001928E-02 0.  1.
    10030    2    1    2    0    0  0.00000000000E+00  0.00000000000E+00 -0.75292861239E+03  0.19519738875E+04  0.18009165894E+04 0.  0.
        2    1    3    3  502    0  0.72091569110E+03 -0.15323182125E+03  0.18425347169E+03  0.75970307789E+03  0.25500000920E-02 0. -1.
       -2    1    3    3    0  502 -0.72091569110E+03  0.15323182125E+03 -0.93718208408E+03  0.11922708096E+04  0.25500000920E-02 0.  1.
</event>
<event>
 5   0  0.4015729E-05  0.1799606E+04  0.7818609E-02  0.8706509E-01
        2   -1    0    0  501    0  0.00000000000E+00  0.00000000000E+00  0.45427455362E+03  0.45427455362E+03  0.25500000920E-02 0.  1.
       -2   -1    0    0    0  501  0.00000000000E+00  0.00000000000E+00 -0.17822823592E+04  0.17822823592E+04  0.25500000920E-02 0. -1.
    10030    2    1    2    0    0  0.00000000000E+00  0.00000000000E+00 -0.13280078056E+04  0.22365569128E+04  0.17996060937E+04 0.  0.
        2    1    3    3  502    0  0.70242720356E+03 -0.31348571503E+03 -0.83775317318E+02  0.77375420750E+03  0.25500000920E-02 0.  1.
       -2    1    3    3    0  502 -0.70242720356E+03  0.31348571503E+03 -0.12442324882E+04  0.14628027053E+04  0.25500000920E-02 0. -1.
</event>
<event>
 5   0  0.4015729E-05  0.1798949E+04  0.7818609E-02  0.8706859E-01
       -2   -1    0    0    0  501  0.00000000000E+00  0.00000000000E+00  0.52512927829E+03  0.52512927829E+03  0.25500000920E-02 0. -1.
        2   -1    0    0  501    0  0.00000000000E+00  0.00000000000E+00 -0.15406759209E+04  0.15406759209E+04  0.25500000920E-02 0.  1.
    10030    2    1    2    0    0  0.00000000000E+00  0.00000000000E+00 -0.10155466426E+04  0.20658051992E+04  0.17989486201E+04 0.  0.
        2    1    3    3  502    0 -0.66475558405E+02  0.26965280668E+02  0.52183906134E+03  0.52674674386E+03  0.25500000920E-02 0. -1.
       -2    1    3    3    0  502  0.66475558405E+02 -0.26965280668E+02 -0.15373857039E+04  0.15390584553E+04  0.25500000920E-02 0.  1.
</event>
<event>
 5   0  0.3909859E-05  0.1812714E+04  0.7818609E-02  0.8699568E-01
        2   -1    0    0  501    0  0.00000000000E+00  0.00000000000E+00  0.88005253958E+03  0.88005253958E+03  0.25500000920E-02 0.  1.
       -2   -1    0    0    0  501  0.00000000000E+00  0.00000000000E+00 -0.93344746063E+03  0.93344746063E+03  0.25500000920E-02 0. -1.
    10030    2    1    2    0    0  0.00000000000E+00  0.00000000000E+00 -0.53394921047E+02  0.18135000002E+04  0.18127137759E+04 0.  0.
        4    1    3    3  502    0  0.43404764787E+03  0.73921023974E+03  0.26779742797E+03  0.89807918052E+03  0.12699999809E+01 0.  1.
       -4    1    3    3    0  502 -0.43404764787E+03 -0.73921023974E+03 -0.32119234901E+03  0.91542081969E+03  0.12699999809E+01 0. -1.
</event>
<event>
 5   0  0.4015729E-05  0.1797981E+04  0.7818609E-02  0.8707374E-01
       -2   -1    0    0    0  501  0.00000000000E+00  0.00000000000E+00  0.31749226164E+03  0.31749226165E+03  0.25500000920E-02 0.  1.
        2   -1    0    0  501    0  0.00000000000E+00  0.00000000000E+00 -0.25455239929E+04  0.25455239929E+04  0.25500000920E-02 0. -1.
    10030    2    1    2    0    0  0.00000000000E+00  0.00000000000E+00 -0.22280317313E+04  0.28630162545E+04  0.17979812786E+04 0.  0.
        2    1    3    3  502    0  0.19695391000E+03  0.60500134594E+03 -0.21253360345E+04  0.22185289564E+04  0.25500000920E-02 0. -1.
       -2    1    3    3    0  502 -0.19695391000E+03 -0.60500134594E+03 -0.10269569680E+03  0.64448729809E+03  0.25500000920E-02 0.  1.
</event>
<event>
 5   0  0.4015729E-05  0.1801188E+04  0.7818609E-02  0.8705668E-01
       -2   -1    0    0    0  501  0.00000000000E+00  0.00000000000E+00  0.15367106269E+04  0.15367106269E+04  0.25500000920E-02 0.  1.
        2   -1    0    0  501    0  0.00000000000E+00  0.00000000000E+00 -0.52779602001E+03  0.52779602002E+03  0.25500000920E-02 0. -1.
    10030    2    1    2    0    0  0.00000000000E+00  0.00000000000E+00  0.10089146069E+04  0.20645066470E+04  0.18011882221E+04 0.  0.
        2    1    3    3  502    0  0.45490446692E+03  0.38279715559E+03  0.12798099144E+04  0.14111644671E+04  0.25500000920E-02 0.  1.
       -2    1    3    3    0  502 -0.45490446692E+03 -0.38279715559E+03 -0.27089530744E+03  0.65334217983E+03  0.25500000920E-02 0. -1.
</event>
<event>
 5   0  0.3983176E-05  0.1797973E+04  0.7818609E-02  0.8707378E-01
       -2   -1    0    0    0  501  0.00000000000E+00  0.00000000000E+00  0.75303379506E+03  0.75303379507E+03  0.25500000920E-02 0.  1.
        2   -1    0    0  501    0  0.00000000000E+00  0.00000000000E+00 -0.10732282688E+04  0.10732282688E+04  0.25500000920E-02 0. -1.
    10030    2    1    2    0    0  0.00000000000E+00  0.00000000000E+00 -0.32019447376E+03  0.18262620639E+04  0.17979734773E+04 0.  0.
        3    1    3    3  502    0  0.36642526105E+03  0.41303158850E+03  0.56051158220E+03  0.78678828729E+03  0.10100000352E+00 0.  1.
       -3    1    3    3    0  502 -0.36642526105E+03 -0.41303158850E+03 -0.88070605596E+03  0.10394737766E+04  0.10100000352E+00 0. -1.
</event>
<event>
 5   0  0.1906857E-05  0.1798954E+04  0.7818609E-02  0.8706856E-01
       -1   -1    0    0    0  501  0.00000000000E+00  0.00000000000E+00  0.71926492862E+03  0.71926492863E+03  0.50400001928E-02 0.  1.
        1   -1    0    0  501    0  0.00000000000E+00  0.00000000000E+00 -0.11248413497E+04  0.11248413497E+04  0.50400001928E-02 0. -1.
    10030    2    1    2    0    0  0.00000000000E+00  0.00000000000E+00 -0.40557642111E+03  0.18441062784E+04  0.17989540663E+04 0.  0.
        4    1    3    3  502    0 -0.21906754372E+03  0.46988628636E+03  0.55069355914E+03  0.75633902438E+03  0.12699999809E+01 0.  1.
       -4    1    3    3    0  502  0.21906754372E+03 -0.46988628636E+03 -0.95626998025E+03  0.10877672540E+04  0.12699999809E+01 0. -1.
</event>
<event>
 5   0  0.2038338E-05  0.1799043E+04  0.7818609E-02  0.8706808E-01
       -1   -1    0    0    0  501  0.00000000000E+00  0.00000000000E+00  0.63756039658E+03  0.63756039660E+03  0.50400001928E-02 0.  1.
        1   -1    0    0  501    0  0.00000000000E+00  0.00000000000E+00 -0.12691176517E+04  0.12691176517E+04  0.50400001928E-02 0. -1.
    10030    2    1    2    0    0  0.00000000000E+00  0.00000000000E+00 -0.63155725516E+03  0.19066780483E+04  0.17990432495E+04 0.  0.
        1    1    3    3  502    0  0.21727190253E+03 -0.63103599959E+02  0.60691186119E+03  0.64771224416E+03  0.50400001928E-02 0.  1.
       -1    1    3    3    0  502 -0.21727190253E+03  0.63103599959E+02 -0.12384691163E+04  0.12589658042E+04  0.50400001928E-02 0. -1.
</event>
<event>
 5   0  0.1960300E-05  0.1798022E+04  0.7818609E-02  0.8707352E-01
       -1   -1    0    0    0  501  0.00000000000E+00  0.00000000000E+00  0.37340767965E+03  0.37340767969E+03  0.50400001928E-02 0. -1.
        1   -1    0    0  501    0  0.00000000000E+00  0.00000000000E+00 -0.21644468606E+04  0.21644468606E+04  0.50400001928E-02 0.  1.
    10030    2    1    2    0    0  0.00000000000E+00  0.00000000000E+00 -0.17910391810E+04  0.25378545403E+04  0.17980223358E+04 0.  0.
        3    1    3    3  502    0  0.62569079337E+03 -0.82144215074E+02 -0.17992841886E+04  0.19067407381E+04  0.10100000352E+00 0.  1.
       -3    1    3    3    0  502 -0.62569079337E+03  0.82144215074E+02  0.82450075884E+01  0.63111380220E+03  0.10100000352E+00 0. -1.
</event>
<event>
 5   0  0.2001811E-05  0.1836106E+04  0.7818609E-02  0.8687331E-01
        1   -1    0    0  501    0  0.00000000000E+00  0.00000000000E+00  0.90421875491E+03  0.90421875492E+03  0.50400001928E-02 0. -1.
       -1   -1    0    0    0  501  0.00000000000E+00  0.00000000000E+00 -0.93209925447E+03  0.93209925448E+03  0.50400001928E-02 0.  1.
    10030    2    1    2    0    0  0.00000000000E+00  0.00000000000E+00 -0.27880499561E+02  0.18363180094E+04  0.18361063448E+04 0.  0.
        2    1    3    3  502    0  0.76248342648E+03  0.46706915291E+03  0.19413915537E+03  0.91499977099E+03  0.25500000920E-02 0.  1.
       -2    1    3    3    0  502 -0.76248342648E+03 -0.46706915291E+03 -0.22201965493E+03  0.92131823842E+03  0.25500000920E-02 0. -1.
</event>
<event>
 5   0  0.2038338E-05  0.1796239E+04  0.7818609E-02  0.8708302E-01
       -1   -1    0    0    0  501  0.00000000000E+00  0.00000000000E+00  0.58282869029E+03  0.58282869031E+03  0.50400001928E-02 0. -1.
        1   -1    0    0  501    0  0.00000000000E+00  0.00000000000E+00 -0.13839727836E+04  0.13839727836E+04  0.50400001928E-02 0.  1.
    10030    2    1    2    0    0  0.00000000000E+00  0.00000000000E+00 -0.80114409329E+03  0.19668014739E+04  0.17962394550E+04 0.  0.
        1    1    3    3  502    0 -0.46503438007E+03 -0.75717226614E+03 -0.54355586130E+03  0.10416428321E+04  0.50400001928E-02 0.  1.
       -1    1    3    3    0  502  0.46503438007E+03  0.75717226614E+03 -0.25758823199E+03  0.92515864182E+03  0.50400001928E-02 0. -1.
</event>
<event>
 5   0  0.3909859E-05  0.1819410E+04  0.7818609E-02  0.8696045E-01
        2   -1    0    0  501    0  0.00000000000E+00  0.00000000000E+00  0.22300584228E+04  0.22300584228E+04  0.25500000920E-02 0.  1.
       -2   -1    0    0    0  501  0.00000000000E+00  0.00000000000E+00 -0.37109477259E+03  0.37109477260E+03  0.25500000920E-02 0. -1.
    10030    2    1    2    0    0  0.00000000000E+00  0.00000000000E+00  0.18589636502E+04  0.26011531954E+04  0.18194098200E+04 0.  0.
        4    1    3    3  502    0 -0.21822483527E+03 -0.73471232453E+03  0.16300736349E+04  0.18012678720E+04  0.12699999809E+01 0.  1.
       -4    1    3    3    0  502  0.21822483527E+03  0.73471232453E+03  0.22889001524E+03  0.79988532336E+03  0.12699999809E+01 0. -1.
</event>
<event>
 5   0  0.3909859E-05  0.1801079E+04  0.7818609E-02  0.8705726E-01
       -2   -1    0    0    0  501  0.00000000000E+00  0.00000000000E+00  0.32841809320E+03  0.32841809321E+03  0.25500000920E-02 0.  1.
        2   -1    0    0  501    0  0.00000000000E+00  0.00000000000E+00 -0.24693263220E+04  0.24693263220E+04  0.25500000920E-02 0. -1.
    10030    2    1    2    0    0  0.00000000000E+00  0.00000000000E+00 -0.21409082288E+04  0.27977444152E+04  0.18010790568E+04 0.  0.
        4    1    3    3  502    0  0.53407656160E+03  0.10966999168E+03  0.42896535204E+02  0.54690676204E+03  0.12699999809E+01 0.  1.
       -4    1    3    3    0  502 -0.53407656160E+03 -0.10966999168E+03 -0.21838047640E+04  0.22508376532E+04  0.12699999809E+01 0. -1.
</event>
<event>
 5   0  0.4015729E-05  0.1808611E+04  0.7818609E-02  0.8701734E-01
        2   -1    0    0  501    0  0.00000000000E+00  0.00000000000E+00  0.21171715882E+04  0.21171715882E+04  0.25500000920E-02 0.  1.
       -2   -1    0    0    0  501  0.00000000000E+00  0.00000000000E+00 -0.38625520765E+03  0.38625520766E+03  0.25500000920E-02 0. -1.
    10030    2    1    2    0    0  0.00000000000E+00  0.00000000000E+00  0.17309163805E+04  0.25034267958E+04  0.18086111262E+04 0.  0.
        2    1    3    3  502    0 -0.68639823344E+03  0.58685089372E+03  0.80006369674E+03  0.12064984149E+04  0.25500000920E-02 0. -1.
       -2    1    3    3    0  502  0.68639823344E+03 -0.58685089372E+03  0.93085268378E+03  0.12969283809E+04  0.25500000920E-02 0.  1.
</event>
<event>
 5   0  0.1446750E-05  0.1808354E+04  0.7818609E-02  0.8701870E-01
        3   -1    0    0  501    0  0.00000000000E+00  0.00000000000E+00  0.14243527108E+04  0.14243527144E+04  0.10100000352E+00 0. -1.
       -3   -1    0    0    0  501  0.00000000000E+00  0.00000000000E+00 -0.57396996806E+03  0.57396997695E+03  0.10100000352E+00 0.  1.
    10030    2    1    2    0    0  0.00000000000E+00  0.00000000000E+00  0.85038274273E+03  0.19983226913E+04  0.18083536074E+04 0.  0.
        2    1    3    3  502    0  0.87132528275E+02 -0.40924939443E+03  0.13109284368E+04  0.13760852120E+04  0.25500000920E-02 0. -1.
       -2    1    3    3    0  502 -0.87132528275E+02  0.40924939443E+03 -0.46054569407E+03  0.62223747931E+03  0.25500000920E-02 0.  1.
</event>
<event>
 5   0  0.1906857E-05  0.1801179E+04  0.7818609E-02  0.8705673E-01
       -1   -1    0    0    0  501  0.00000000000E+00  0.00000000000E+00  0.65237532736E+03  0.65237532738E+03  0.50400001928E-02 0.  1.
        1   -1    0    0  501    0  0.00000000000E+00  0.00000000000E+00 -0.12432440909E+04  0.12432440909E+04  0.50400001928E-02 0. -1.
    10030    2    1    2    0    0  0.00000000000E+00  0.00000000000E+00 -0.59086876356E+03  0.18956194183E+04  0.18011793590E+04 0.  0.
        4    1    3    3  502    0  0.39440815638E+02 -0.40131409643E+03  0.55205245705E+03  0.68364618785E+03  0.12699999809E+01 0.  1.
       -4    1    3    3    0  502 -0.39440815638E+02  0.40131409643E+03 -0.11429212206E+04  0.12119732305E+04  0.12699999809E+01 0. -1.
</event>
<event>
 5   0  0.1960300E-05  0.1801138E+04  0.7818609E-02  0.8705694E-01
        1   -1    0    0  501    0  0.00000000000E+00  0.00000000000E+00  0.11671149923E+04  0.11671149923E+04  0.50400001928E-02 0. -1.
       -1   -1    0    0    0  501  0.00000000000E+00  0.00000000000E+00 -0.69489709296E+03  0.69489709298E+03  0.50400001928E-02 0.  1.
    10030    2    1    2    0    0  0.00000000000E+00  0.00000000000E+00  0.47221789929E+03  0.18620120852E+04  0.18011383237E+04 0.  0.
        3    1    3    3  502    0  0.38025095424E+03 -0.11589671736E+03 -0.59928759265E+03  0.71914425966E+03  0.10100000352E+00 0.  1.
       -3    1    3    3    0  502 -0.38025095424E+03  0.11589671736E+03  0.10715054919E+04  0.11428678256E+04  0.10100000352E+00 0. -1.
</event>
<event>
 5   0  0.1906857E-05  0.1801703E+04  0.7818609E-02  0.8705394E-01
       -1   -1    0    0    0  501  0.00000000000E+00  0.00000000000E+00  0.11259657440E+04  0.11259657440E+04  0.50400001928E-02 0. -1.
        1   -1    0    0  501    0  0.00000000000E+00  0.00000000000E+00 -0.72074424099E+03  0.72074424100E+03  0.50400001928E-02 0.  1.
    10030    2    1    2    0    0  0.00000000000E+00  0.00000000000E+00  0.40522150296E+03  0.18467099850E+04  0.18017028895E+04 0.  0.
        4    1    3    3  502    0  0.60234571837E+03  0.66770606498E+03  0.25761657527E+03  0.93542485877E+03  0.12699999809E+01 0. -1.
       -4    1    3    3    0  502 -0.60234571837E+03 -0.66770606498E+03  0.14760492769E+03  0.91128512620E+03  0.12699999809E+01 0.  1.
</event>
<event>
 5   0  0.1906857E-05  0.1799753E+04  0.7818609E-02  0.8706431E-01
        1   -1    0    0  501    0  0.00000000000E+00  0.00000000000E+00  0.10072064530E+04  0.10072064530E+04  0.50400001928E-02 0. -1.
       -1   -1    0    0    0  501  0.00000000000E+00  0.00000000000E+00 -0.80398406791E+03  0.80398406793E+03  0.50400001928E-02 0.  1.
    10030    2    1    2    0    0  0.00000000000E+00  0.00000000000E+00  0.20322238508E+03  0.18111905209E+04  0.17997532512E+04 0.  0.
        4    1    3    3  502    0 -0.89083641469E+03  0.11798567459E+03  0.53704139981E+02  0.90021990907E+03  0.12699999809E+01 0. -1.
       -4    1    3    3    0  502  0.89083641469E+03 -0.11798567459E+03  0.14951824510E+03  0.91097061185E+03  0.12699999809E+01 0.  1.
</event>
<event>
 5   0  0.3984648E-05  0.1821265E+04  0.7818609E-02  0.8695072E-01
       -2   -1    0    0    0  501  0.00000000000E+00  0.00000000000E+00  0.46064953644E+03  0.46064953645E+03  0.25500000920E-02 0.  1.
        2   -1    0    0  501    0  0.00000000000E+00  0.00000000000E+00 -0.18001790396E+04  0.18001790396E+04  0.25500000920E-02 0. -1.
    10030    2    1    2    0    0  0.00000000000E+00  0.00000000000E+00 -0.13395295032E+04  0.22608285761E+04  0.18212650989E+04 0.  0.
        1    1    3    3  502    0 -0.97307046388E+02  0.88704090514E+03 -0.89506702309E+03  0.12639047450E+04  0.50400001928E-02 0.  1.
       -1    1    3    3    0  502  0.97307046388E+02 -0.88704090514E+03 -0.44446248008E+03  0.99692383103E+03  0.50400001928E-02 0. -1.
</event>
<event>
 5   0  0.4015729E-05  0.1806338E+04  0.7818609E-02  0.8702936E-01
        2   -1    0    0  501    0  0.00000000000E+00  0.00000000000E+00  0.16015085310E+04  0.16015085310E+04  0.25500000920E-02 0. -1.
       -2   -1    0    0    0  501  0.00000000000E+00  0.00000000000E+00 -0.50934101429E+03  0.50934101430E+03  0.25500000920E-02 0.  1.
    10030    2    1    2    0    0  0.00000000000E+00  0.00000000000E+00  0.10921675167E+04  0.21108495453E+04  0.18063377088E+04 0.  0.
        2    1    3    3  502    0 -0.19304926265E+02  0.66190704034E+03  0.12638051639E+04  0.14267785752E+04  0.25500000920E-02 0. -1.
       -2    1    3    3    0  502  0.19304926265E+02 -0.66190704034E+03 -0.17163764721E+03  0.68407097013E+03  0.25500000920E-02 0.  1.
</event>
<event>
 5   0  0.3983176E-05  0.1796667E+04  0.7818609E-02  0.8708074E-01
       -2   -1    0    0    0  501  0.00000000000E+00  0.00000000000E+00  0.63360692294E+03  0.63360692295E+03  0.25500000920E-02 0.  1.
        2   -1    0    0  501    0  0.00000000000E+00  0.00000000000E+00 -0.12736648554E+04  0.12736648554E+04  0.25500000920E-02 0. -1.
    10030    2    1    2    0    0  0.00000000000E+00  0.00000000000E+00 -0.64005793247E+03  0.19072717784E+04  0.17966667692E+04 0.  0.
        3    1    3    3  502    0 -0.40566363166E+02 -0.32599900912E+03 -0.12076121569E+04  0.12514983482E+04  0.10100000352E+00 0. -1.
       -3    1    3    3    0  502  0.40566363166E+02  0.32599900912E+03  0.56755422448E+03  0.65577343015E+03  0.10100000352E+00 0.  1.
</event>
<event>
 5   0  0.3993393E-05  0.1789665E+04  0.7818609E-02  0.8711815E-01
        2   -1    0    0  501    0  0.00000000000E+00  0.00000000000E+00  0.84371419301E+03  0.84371419301E+03  0.25500000920E-02 0.  1.
       -2   -1    0    0    0  501  0.00000000000E+00  0.00000000000E+00 -0.94904756661E+03  0.94904756661E+03  0.25500000920E-02 0. -1.
    10030    2    1    2    0    0  0.00000000000E+00  0.00000000000E+00 -0.10533337360E+03  0.17927617596E+04  0.17896646633E+04 0.  0.
        5    1    3    3  502    0 -0.81697310632E+03  0.19852411963E+03  0.25420628307E+03  0.87835061728E+03  0.46999998093E+01 0.  1.
       -5    1    3    3    0  502  0.81697310632E+03 -0.19852411963E+03 -0.35953965667E+03  0.91441114234E+03  0.46999998093E+01 0. -1.
</event>
<event>
 5   0  0.2054876E-05  0.1799059E+04  0.7818609E-02  0.8706800E-01
        1   -1    0    0  501    0  0.00000000000E+00  0.00000000000E+00  0.11375466699E+04  0.11375466700E+04  0.50400001928E-02 0.  1.
       -1   -1    0    0    0  501  0.00000000000E+00  0.00000000000E+00 -0.71131416199E+03  0.71131416201E+03  0.50400001928E-02 0. -1.
    10030    2    1    2    0    0  0.00000000000E+00  0.00000000000E+00  0.42623250796E+03  0.18488608320E+04  0.17990587053E+04 0.  0.
        5    1    3    3  502    0 -0.39995992426E+03 -0.80561782729E+03  0.22540303889E+03  0.92726298567E+03  0.46999998093E+01 0. -1.
       -5    1    3    3    0  502  0.39995992426E+03  0.80561782729E+03  0.20082946906E+03  0.92159784630E+03  0.46999998093E+01 0.  1.
</event>
<event>
 5   0  0.2001811E-05  0.1799251E+04  0.7818609E-02  0.8706698E-01
       -1   -1    0    0    0  501  0.00000000000E+00  0.00000000000E+00  0.12387471697E+04  0.12387471697E+04  0.50400001928E-02 0. -1.
        1   -1    0    0  501    0  0.00000000000E+00  0.00000000000E+00 -0.65334232549E+03  0.65334232551E+03  0.50400001928E-02 0.  1.
    10030    2    1    2    0    0  0.00000000000E+00  0.00000000000E+00  0.58540484417E+03  0.18920894952E+04  0.17992509070E+04 0.  0.
        2    1    3    3  502    0 -0.43029584444E+02  0.78842939625E+03  0.74605419099E+03  0.10863099530E+04  0.25500000920E-02 0. -1.
       -2    1    3    3    0  502  0.43029584444E+02 -0.78842939625E+03 -0.16064934682E+03  0.80577954222E+03  0.25500000920E-02 0.  1.
</event>
<event>
 5   0  0.2054876E-05  0.1807706E+04  0.7818609E-02  0.8702212E-01
        1   -1    0    0  501    0  0.00000000000E+00  0.00000000000E+00  0.17292056569E+04  0.17292056569E+04  0.50400001928E-02 0.  1.
       -1   -1    0    0    0  501  0.00000000000E+00  0.00000000000E+00 -0.47244257820E+03  0.47244257822E+03  0.50400001928E-02 0. -1.
    10030    2    1    2    0    0  0.00000000000E+00  0.00000000000E+00  0.12567630787E+04  0.22016482351E+04  0.18077061474E+04 0.  0.
        5    1    3    3  502    0 -0.25562936697E+03 -0.59214701382E+03 -0.14280930270E+03  0.66060657442E+03  0.46999998093E+01 0. -1.
       -5    1    3    3    0  502  0.25562936697E+03  0.59214701382E+03  0.13995723814E+04  0.15410416607E+04  0.46999998093E+01 0.  1.
</event>
<event>
 5   0  0.4015729E-05  0.1800936E+04  0.7818609E-02  0.8705802E-01
        2   -1    0    0  501    0  0.00000000000E+00  0.00000000000E+00  0.84179141783E+03  0.84179141783E+03  0.25500000920E-02 0.  1.
       -2   -1    0    0    0  501  0.00000000000E+00  0.00000000000E+00 -0.96323491096E+03  0.96323491097E+03  0.25500000920E-02 0. -1.
    10030    2    1    2    0    0  0.00000000000E+00  0.00000000000E+00 -0.12144349313E+03  0.18050263288E+04  0.18009362914E+04 0.  0.
        2    1    3    3  502    0  0.43542186976E+03 -0.25880157966E+03 -0.80690728086E+03  0.95271707354E+03  0.25500000920E-02 0. -1.
       -2    1    3    3    0  502 -0.43542186976E+03  0.25880157966E+03  0.68546378773E+03  0.85230925526E+03  0.25500000920E-02 0.  1.
</event>
<event>
 5   0  0.3984648E-05  0.1795014E+04  0.7818609E-02  0.8708956E-01
       -2   -1    0    0    0  501  0.00000000000E+00  0.00000000000E+00  0.17654638320E+04  0.17654638320E+04  0.25500000920E-02 0. -1.
        2   -1    0    0  501    0  0.00000000000E+00  0.00000000000E+00 -0.45626456104E+03  0.45626456105E+03  0.25500000920E-02 0.  1.
    10030    2    1    2    0    0  0.00000000000E+00  0.00000000000E+00  0.13091992710E+04  0.22217283931E+04  0.17950137385E+04 0.  0.
        1    1    3    3  502    0  0.23203727811E+03 -0.56507986360E+03 -0.15925522552E+03  0.63128343678E+03  0.50400001928E-02 0.  1.
       -1    1    3    3    0  502 -0.23203727811E+03  0.56507986360E+03  0.14684544965E+04  0.15904449563E+04  0.50400001928E-02 0. -1.
</event>
<event>
 5   0  0.3984648E-05  0.1793708E+04  0.7818609E-02  0.8709653E-01
       -2   -1    0    0    0  501  0.00000000000E+00  0.00000000000E+00  0.74100903846E+03  0.74100903846E+03  0.25500000920E-02 0.  1.
        2   -1    0    0  501    0  0.00000000000E+00  0.00000000000E+00 -0.10854748799E+04  0.10854748800E+04  0.25500000920E-02 0. -1.
    10030    2    1    2    0    0  0.00000000000E+00  0.00000000000E+00 -0.34446584149E+03  0.18264839184E+04  0.17937075537E+04 0.  0.
        1    1    3    3  502    0  0.20271969669E+03  0.74894591628E+02 -0.10585646572E+04  0.10803997449E+04  0.50400001928E-02 0. -1.
       -1    1    3    3    0  502 -0.20271969669E+03 -0.74894591628E+02  0.71409881573E+03  0.74608417349E+03  0.50400001928E-02 0.  1.
</event>
<event>
 5   0  0.3983176E-05  0.1795672E+04  0.7818609E-02  0.8708604E-01
       -2   -1    0    0    0  501  0.00000000000E+00  0.00000000000E+00  0.37425764244E+03  0.37425764245E+03  0.25500000920E-02 0. -1.
        2   -1    0    0  501    0  0.00000000000E+00  0.00000000000E+00 -0.21538891004E+04  0.21538891004E+04  0.25500000920E-02 0.  1.
    10030    2    1    2    0    0  0.00000000000E+00  0.00000000000E+00 -0.17796314579E+04  0.25281467428E+04  0.17956719709E+04 0.  0.
        3    1    3    3  502    0  0.36328145317E+03  0.63838248117E+03 -0.16285914380E+03  0.75234880036E+03  0.10100000352E+00 0.  1.
       -3    1    3    3    0  502 -0.36328145317E+03 -0.63838248117E+03 -0.16167723141E+04  0.17757979424E+04  0.10100000352E+00 0. -1.
</event>
<event>
 5   0  0.1906857E-05  0.1798341E+04  0.7818609E-02  0.8707182E-01
        1   -1    0    0  501    0  0.00000000000E+00  0.00000000000E+00  0.94505137661E+03  0.94505137662E+03  0.50400001928E-02 0. -1.
       -1   -1    0    0    0  501  0.00000000000E+00  0.00000000000E+00 -0.85551742063E+03  0.85551742065E+03  0.50400001928E-02 0.  1.
    10030    2    1    2    0    0  0.00000000000E+00  0.00000000000E+00  0.89533955977E+02  0.18005687973E+04  0.17983413648E+04 0.  0.
        4    1    3    3  502    0 -0.32732466804E+02  0.14386082037E+03 -0.84331470512E+03  0.85612420523E+03  0.12699999809E+01 0.  1.
       -4    1    3    3    0  502  0.32732466804E+02 -0.14386082037E+03  0.93284866109E+03  0.94444459203E+03  0.12699999809E+01 0. -1.
</event>
<event>
 5   0  0.3983176E-05  0.1797245E+04  0.7818609E-02  0.8707766E-01
        2   -1    0    0  501    0  0.00000000000E+00  0.00000000000E+00  0.85058537892E+03  0.85058537893E+03  0.25500000920E-02 0. -1.
       -2   -1    0    0    0  501  0.00000000000E+00  0.00000000000E+00 -0.94937228619E+03  0.94937228619E+03  0.25500000920E-02 0.  1.
    10030    2    1    2    0    0  0.00000000000E+00  0.00000000000E+00 -0.98786907268E+02  0.17999576651E+04  0.17972447644E+04 0.  0.
        3    1    3    3  502    0  0.53084736352E+03 -0.50410657568E+03  0.47254560326E+03  0.87133330038E+03  0.10100000352E+00 0.  1.
       -3    1    3    3    0  502 -0.53084736352E+03  0.50410657568E+03 -0.57133251053E+03  0.92862436474E+03  0.10100000352E+00 0. -1.
</event>
<event>
 5   0  0.2001811E-05  0.1801339E+04  0.7818609E-02  0.8705588E-01
       -1   -1    0    0    0  501  0.00000000000E+00  0.00000000000E+00  0.97310667603E+03  0.97310667604E+03  0.50400001928E-02 0.  1.
        1   -1    0    0  501    0  0.00000000000E+00  0.00000000000E+00 -0.83362462415E+03  0.83362462416E+03  0.50400001928E-02 0. -1.
    10030    2    1    2    0    0  0.00000000000E+00  0.00000000000E+00  0.13948205188E+03  0.18067313002E+04  0.18013391542E+04 0.  0.
        2    1    3    3  502    0 -0.37275619751E+03 -0.44448492773E+03  0.76078212454E+03  0.95671493915E+03  0.25500000920E-02 0.  1.
       -2    1    3    3    0  502  0.37275619751E+03  0.44448492773E+03 -0.62130007267E+03  0.85001636105E+03  0.25500000920E-02 0. -1.
</event>
<event>
 5   0  0.3993393E-05  0.1799878E+04  0.7818609E-02  0.8706364E-01
        2   -1    0    0  501    0  0.00000000000E+00  0.00000000000E+00  0.50938727613E+03  0.50938727614E+03  0.25500000920E-02 0.  1.
       -2   -1    0    0    0  501  0.00000000000E+00  0.00000000000E+00 -0.15899301115E+04  0.15899301115E+04  0.25500000920E-02 0. -1.
    10030    2    1    2    0    0  0.00000000000E+00  0.00000000000E+00 -0.10805428353E+04  0.20993173876E+04  0.17998779611E+04 0.  0.
        5    1    3    3  502    0 -0.76254435532E+03 -0.45241501342E+03 -0.71988747031E+03  0.11421091446E+04  0.46999998093E+01 0. -1.
       -5    1    3    3    0  502  0.76254435532E+03  0.45241501342E+03 -0.36065536502E+03  0.95720824303E+03  0.46999998093E+01 0.  1.
</event>
<event>
 5   0  0.3983176E-05  0.1798505E+04  0.7818609E-02  0.8707095E-01
       -2   -1    0    0    0  501  0.00000000000E+00  0.00000000000E+00  0.50530507662E+03  0.50530507663E+03  0.25500000920E-02 0. -1.
        2   -1    0    0  501    0  0.00000000000E+00  0.00000000000E+00 -0.16003308215E+04  0.16003308215E+04  0.25500000920E-02 0.  1.
    10030    2    1    2    0    0  0.00000000000E+00  0.00000000000E+00 -0.10950257449E+04  0.21056358981E+04  0.17985052554E+04 0.  0.
        3    1    3    3  502    0  0.13940600416E+03 -0.37974436099E+03 -0.14877916380E+04  0.15418053645E+04  0.10100000352E+00 0.  1.
       -3    1    3    3    0  502 -0.13940600416E+03  0.37974436099E+03  0.39276589310E+03  0.56383053366E+03  0.10100000352E+00 0. -1.
</event>
<event>
 5   0  0.2001811E-05  0.1800106E+04  0.7818609E-02  0.8706243E-01
       -1   -1    0    0    0  501  0.00000000000E+00  0.00000000000E+00  0.54202118270E+03  0.54202118273E+03  0.50400001928E-02 0.  1.
        1   -1    0    0  501    0  0.00000000000E+00  0.00000000000E+00 -0.14945832325E+04  0.14945832325E+04  0.50400001928E-02 0. -1.
    10030    2    1    2    0    0  0.00000000000E+00  0.00000000000E+00 -0.95256204977E+03  0.20366044152E+04  0.18001064095E+04 0.  0.
        2    1    3    3  502    0  0.20034586916E+03  0.77676491485E+03 -0.93806368547E+03  0.12342875185E+04  0.25500000920E-02 0. -1.
       -2    1    3    3    0  502 -0.20034586916E+03 -0.77676491485E+03 -0.14498364304E+02  0.80231689675E+03  0.25500000920E-02 0.  1.
</event>
<event>
 5   0  0.2001811E-05  0.1798222E+04  0.7818609E-02  0.8707245E-01
       -1   -1    0    0    0  501  0.00000000000E+00  0.00000000000E+00  0.61747549375E+03  0.61747549377E+03  0.50400001928E-02 0. -1.
        1   -1    0    0  501    0  0.00000000000E+00  0.00000000000E+00 -0.13092033663E+04  0.13092033663E+04  0.50400001928E-02 0.  1.
    10030    2    1    2    0    0  0.00000000000E+00  0.00000000000E+00 -0.69172787256E+03  0.19266788601E+04  0.17982224502E+04 0.  0.
        2    1    3    3  502    0  0.78153230234E+02 -0.63279474174E+03 -0.10250760215E+04  0.12071942522E+04  0.25500000920E-02 0.  1.
       -2    1    3    3    0  502 -0.78153230234E+02  0.63279474174E+03  0.33334814898E+03  0.71948460790E+03  0.25500000920E-02 0. -1.
</event>
<event>
 5   0  0.2054876E-05  0.1794313E+04  0.7818609E-02  0.8709329E-01
        1   -1    0    0  501    0  0.00000000000E+00  0.00000000000E+00  0.51319741321E+03  0.51319741323E+03  0.50400001928E-02 0. -1.
       -1   -1    0    0    0  501  0.00000000000E+00  0.00000000000E+00 -0.15683827420E+04  0.15683827420E+04  0.50400001928E-02 0.  1.
    10030    2    1    2    0    0  0.00000000000E+00  0.00000000000E+00 -0.10551853288E+04  0.20815801553E+04  0.17943132014E+04 0.  0.
        5    1    3    3  502    0 -0.78015740952E+03 -0.20425410540E+03 -0.71594896846E+02  0.80963772297E+03  0.46999998093E+01 0. -1.
       -5    1    3    3    0  502  0.78015740952E+03  0.20425410540E+03 -0.98359043198E+03  0.12719424323E+04  0.46999998093E+01 0.  1.
</event>
<event>
 5   0  0.4015729E-05  0.1804291E+04  0.7818609E-02  0.8704021E-01
       -2   -1    0    0    0  501  0.00000000000E+00  0.00000000000E+00  0.44654532250E+03  0.44654532250E+03  0.25500000920E-02 0.  1.
        2   -1    0    0  501    0  0.00000000000E+00  0.00000000000E+00 -0.18225833689E+04  0.18225833689E+04  0.25500000920E-02 0. -1.
    10030    2    1    2    0    0  0.00000000000E+00  0.00000000000E+00 -0.13760380464E+04  0.22691286914E+04  0.18042905290E+04 0.  0.
        2    1    3    3  502    0 -0.27468286106E+03 -0.17700527134E+03 -0.17455383862E+04  0.17758619873E+04  0.25500000920E-02 0. -1.
       -2    1    3    3    0  502  0.27468286106E+03  0.17700527134E+03  0.36950033981E+03  0.49326670409E+03  0.25500000920E-02 0.  1.
</event>
<event>
 5   0  0.4015729E-05  0.1803934E+04  0.7818609E-02  0.8704210E-01
       -2   -1    0    0    0  501  0.00000000000E+00  0.00000000000E+00  0.85682787603E+03  0.85682787603E+03  0.25500000920E-02 0.  1.
        2   -1    0    0  501    0  0.00000000000E+00  0.00000000000E+00 -0.94948400621E+03  0.94948400621E+03  0.25500000920E-02 0. -1.
    10030    2    1    2    0    0  0.00000000000E+00  0.00000000000E+00 -0.92656130178E+02  0.18063118822E+04  0.18039338839E+04 0.  0.
        2    1    3    3  502    0  0.82415142497E+03  0.29484386051E+03  0.17164189679E+03  0.89197500755E+03  0.25500000920E-02 0.  1.
       -2    1    3    3    0  502 -0.82415142497E+03 -0.29484386051E+03 -0.26429802696E+03  0.91433687469E+03  0.25500000920E-02 0. -1.
</event>
<event>
 5   0  0.1960300E-05  0.1802881E+04  0.7818609E-02  0.8704769E-01
       -1   -1    0    0    0  501  0.00000000000E+00  0.00000000000E+00  0.70172278855E+03  0.70172278857E+03  0.50400001928E-02 0. -1.
        1   -1    0    0  501    0  0.00000000000E+00  0.00000000000E+00 -0.11579995020E+04  0.11579995020E+04  0.50400001928E-02 0.  1.
    10030    2    1    2    0    0  0.00000000000E+00  0.00000000000E+00 -0.45627671343E+03  0.18597222906E+04  0.18028806280E+04 0.  0.
        3    1    3    3  502    0  0.18969329871E+03 -0.49782398155E+03  0.52196240395E+03  0.74582640441E+03  0.10100000352E+00 0. -1.
       -3    1    3    3    0  502 -0.18969329871E+03  0.49782398155E+03 -0.97823911738E+03  0.11138958861E+04  0.10100000352E+00 0.  1.
</event>
<event>
 5   0  0.3909859E-05  0.1795874E+04  0.7818609E-02  0.8708497E-01
       -2   -1    0    0    0  501  0.00000000000E+00  0.00000000000E+00  0.49541456263E+03  0.49541456264E+03  0.25500000920E-02 0.  1.
        2   -1    0    0  501    0  0.00000000000E+00  0.00000000000E+00 -0.16275066040E+04  0.16275066040E+04  0.25500000920E-02 0. -1.
    10030    2    1    2    0    0  0.00000000000E+00  0.00000000000E+00 -0.11320920414E+04  0.21229211667E+04  0.17958735729E+04 0.  0.
        4    1    3    3  502    0 -0.22188868296E+03  0.79553820823E+03 -0.14949126347E+03  0.83932406085E+03  0.12699999809E+01 0.  1.
       -4    1    3    3    0  502  0.22188868296E+03 -0.79553820823E+03 -0.98260077793E+03  0.12835971058E+04  0.12699999809E+01 0. -1.
</event>
<event>
 5   0  0.2038338E-05  0.1801350E+04  0.7818609E-02  0.8705582E-01
        1   -1    0    0  501    0  0.00000000000E+00  0.00000000000E+00  0.11734202371E+04  0.11734202371E+04  0.50400001928E-02 0. -1.
       -1   -1    0    0    0  501  0.00000000000E+00  0.00000000000E+00 -0.69132523886E+03  0.69132523888E+03  0.50400001928E-02 0.  1.
    10030    2    1    2    0    0  0.00000000000E+00  0.00000000000E+00  0.48209499821E+03  0.18647454760E+04  0.18013495227E+04 0.  0.
        1    1    3    3  502    0  0.81292863033E+03  0.38618988880E+03  0.27719691972E+03  0.94171849326E+03  0.50400001928E-02 0.  1.
       -1    1    3    3    0  502 -0.81292863033E+03 -0.38618988880E+03  0.20489807848E+03  0.92302698271E+03  0.50400001928E-02 0. -1.
</event>
<event>
 5   0  0.4015729E-05  0.1795806E+04  0.7818609E-02  0.8708533E-01
        2   -1    0    0  501    0  0.00000000000E+00  0.00000000000E+00  0.55052414317E+03  0.55052414317E+03  0.25500000920E-02 0. -1.
       -2   -1    0    0    0  501  0.00000000000E+00  0.00000000000E+00 -0.14644762979E+04  0.14644762979E+04  0.25500000920E-02 0.  1.
    10030    2    1    2    0    0  0.00000000000E+00  0.00000000000E+00 -0.91395215476E+03  0.20150004411E+04  0.17958057346E+04 0.  0.
        2    1    3    3  502    0 -0.76244174453E+03 -0.72156937861E+02  0.68964013812E+02  0.76894737966E+03  0.25500000920E-02 0. -1.
       -2    1    3    3    0  502  0.76244174453E+03  0.72156937861E+02 -0.98291616858E+03  0.12460530614E+04  0.25500000920E-02 0.  1.
</event>
<event>
 5   0  0.1960300E-05  0.1805561E+04  0.7818609E-02  0.8703348E-01
        1   -1    0    0  501    0  0.00000000000E+00  0.00000000000E+00  0.20001587381E+04  0.20001587381E+04  0.50400001928E-02 0.  1.
       -1   -1    0    0    0  501  0.00000000000E+00  0.00000000000E+00 -0.40747386828E+03  0.40747386831E+03  0.50400001928E-02 0. -1.
    10030    2    1    2    0    0  0.00000000000E+00  0.00000000000E+00  0.15926848698E+04  0.24076326064E+04  0.18055607641E+04 0.  0.
        3    1    3    3  502    0 -0.36062347135E+03 -0.50493405854E+03 -0.78066762733E+02  0.62538158048E+03  0.10100000352E+00 0. -1.
       -3    1    3    3    0  502  0.36062347135E+03  0.50493405854E+03  0.16707516326E+04  0.17822510260E+04  0.10100000352E+00 0.  1.
</event>
<event>
 5   0  0.3984648E-05  0.1799613E+04  0.7818609E-02  0.8706505E-01
        2   -1    0    0  501    0  0.00000000000E+00  0.00000000000E+00  0.11962630138E+04  0.11962630138E+04  0.25500000920E-02 0.  1.
       -2   -1    0    0    0  501  0.00000000000E+00  0.00000000000E+00 -0.67681764126E+03  0.67681764126E+03  0.25500000920E-02 0. -1.
    10030    2    1    2    0    0  0.00000000000E+00  0.00000000000E+00  0.51944537253E+03  0.18730806550E+04  0.17996131932E+04 0.  0.
        1    1    3    3  502    0 -0.17493964158E+03 -0.17615266464E+03 -0.64046571617E+03  0.68689880846E+03  0.50400001928E-02 0. -1.
       -1    1    3    3    0  502  0.17493964158E+03  0.17615266464E+03  0.11599110887E+04  0.11861818466E+04  0.50400001928E-02 0.  1.
</event>
<event>
 5   0  0.3993393E-05  0.1801341E+04  0.7818609E-02  0.8705587E-01
        2   -1    0    0  501    0  0.00000000000E+00  0.00000000000E+00  0.81539439620E+03  0.81539439620E+03  0.25500000920E-02 0. -1.
       -2   -1    0    0    0  501  0.00000000000E+00  0.00000000000E+00 -0.99486475414E+03  0.99486475414E+03  0.25500000920E-02 0.  1.
    10030    2    1    2    0    0  0.00000000000E+00  0.00000000000E+00 -0.17947035794E+03  0.18102591503E+04  0.18013407734E+04 0.  0.
        5    1    3    3  502    0  0.37886536709E+03 -0.68231212629E+02  0.72853844871E+03  0.82400535557E+03  0.46999998093E+01 0. -1.
       -5    1    3    3    0  502 -0.37886536709E+03  0.68231212629E+02 -0.90800880665E+03  0.98625379478E+03  0.46999998093E+01 0.  1.
</event>
<event>
 5   0  0.2038338E-05  0.1808556E+04  0.7818609E-02  0.8701763E-01
       -1   -1    0    0    0  501  0.00000000000E+00  0.00000000000E+00  0.69996833532E+03  0.69996833534E+03  0.50400001928E-02 0. -1.
        1   -1    0    0  501    0  0.00000000000E+00  0.00000000000E+00 -0.11682221627E+04  0.11682221627E+04  0.50400001928E-02 0.  1.
    10030    2    1    2    0    0  0.00000000000E+00  0.00000000000E+00 -0.46825382734E+03  0.18681904980E+04  0.18085558023E+04 0.  0.
        1    1    3    3  502    0  0.59578389427E+03  0.34507755861E+03  0.37144727530E+03  0.78231071096E+03  0.50400001928E-02 0. -1.
       -1    1    3    3    0  502 -0.59578389427E+03 -0.34507755861E+03 -0.83970110264E+03  0.10858797870E+04  0.50400001928E-02 0.  1.
</event>
<event>
 5   0  0.1906857E-05  0.1807318E+04  0.7818609E-02  0.8702417E-01
       -1   -1    0    0    0  501  0.00000000000E+00  0.00000000000E+00  0.68462334678E+03  0.68462334680E+03  0.50400001928E-02 0. -1.
        1   -1    0    0  501    0  0.00000000000E+00  0.00000000000E+00 -0.11927723017E+04  0.11927723017E+04  0.50400001928E-02 0.  1.
    10030    2    1    2    0    0  0.00000000000E+00  0.00000000000E+00 -0.50814895492E+03  0.18773956485E+04  0.18073181957E+04 0.  0.
        4    1    3    3  502    0  0.29057188218E+03 -0.81683326599E+03  0.10659238780E+02  0.86704315661E+03  0.12699999809E+01 0. -1.
       -4    1    3    3    0  502 -0.29057188218E+03  0.81683326599E+03 -0.51880819370E+03  0.10103524919E+04  0.12699999809E+01 0.  1.
</event>
<event>
 5   0  0.1906857E-05  0.1800257E+04  0.7818609E-02  0.8706163E-01
       -1   -1    0    0    0  501  0.00000000000E+00  0.00000000000E+00  0.12997779685E+04  0.12997779685E+04  0.50400001928E-02 0.  1.
        1   -1    0    0  501    0  0.00000000000E+00  0.00000000000E+00 -0.62336108382E+03  0.62336108384E+03  0.50400001928E-02 0. -1.
    10030    2    1    2    0    0  0.00000000000E+00  0.00000000000E+00  0.67641688471E+03  0.19231390524E+04  0.18002566519E+04 0.  0.
        4    1    3    3  502    0 -0.82508895795E+03 -0.17079472730E+03  0.67650538221E+03  0.10805571584E+04  0.12699999809E+01 0.  1.
       -4    1    3    3    0  502  0.82508895795E+03  0.17079472730E+03 -0.88497498805E-01  0.84258189402E+03  0.12699999809E+01 0. -1.
</event>
<event>
 5   0  0.4015729E-05  0.1800785E+04  0.7818609E-02  0.8705882E-01
       -2   -1    0    0    0  501  0.00000000000E+00  0.00000000000E+00  0.41659201325E+03  0.41659201326E+03  0.25500000920E-02 0. -1.
        2   -1    0    0  501    0  0.00000000000E+00  0.00000000000E+00 -0.19460447264E+04  0.19460447264E+04  0.25500000920E-02 0.  1.
    10030    2    1    2    0    0  0.00000000000E+00  0.00000000000E+00 -0.15294527131E+04  0.23626367396E+04  0.18007850404E+04 0.  0.
        2    1    3    3  502    0  0.35306776141E+02 -0.11044817493E+03  0.40675512221E+03  0.42295992392E+03  0.25500000920E-02 0. -1.
       -2    1    3    3    0  502 -0.35306776141E+02  0.11044817493E+03 -0.19362078353E+04  0.19396768157E+04  0.25500000920E-02 0.  1.
</event>
<event>
 5   0  0.4015729E-05  0.1802476E+04  0.7818609E-02  0.8704984E-01
        2   -1    0    0  501    0  0.00000000000E+00  0.00000000000E+00  0.29716604313E+04  0.29716604313E+04  0.25500000920E-02 0. -1.
       -2   -1    0    0    0  501  0.00000000000E+00  0.00000000000E+00 -0.27332539123E+03  0.27332539124E+03  0.25500000920E-02 0.  1.
    10030    2    1    2    0    0  0.00000000000E+00  0.00000000000E+00  0.26983350400E+04  0.32449858225E+04  0.18024763521E+04 0.  0.
        2    1    3    3  502    0  0.43887953992E+03  0.61072481418E+03  0.22432268843E+04  0.23659389053E+04  0.25500000920E-02 0. -1.
       -2    1    3    3    0  502 -0.43887953992E+03 -0.61072481418E+03  0.45510815575E+03  0.87904691721E+03  0.25500000920E-02 0.  1.
</event>
<event>
 5   0  0.3909859E-05  0.1799712E+04  0.7818609E-02  0.8706453E-01
        2   -1    0    0  501    0  0.00000000000E+00  0.00000000000E+00  0.15627929425E+04  0.15627929425E+04  0.25500000920E-02 0.  1.
       -2   -1    0    0    0  501  0.00000000000E+00  0.00000000000E+00 -0.51813686164E+03  0.51813686164E+03  0.25500000920E-02 0. -1.
    10030    2    1    2    0    0  0.00000000000E+00  0.00000000000E+00  0.10446560808E+04  0.20809298041E+04  0.17997117887E+04 0.  0.
        4    1    3    3  502    0 -0.82935830935E+02 -0.15212437471E+03 -0.49866664879E+03  0.52791118282E+03  0.12699999809E+01 0. -1.
       -4    1    3    3    0  502  0.82935830935E+02  0.15212437471E+03  0.15433227296E+04  0.15530186213E+04  0.12699999809E+01 0.  1.
</event>
<event>
 5   0  0.3993393E-05  0.1799444E+04  0.7818609E-02  0.8706595E-01
        2   -1    0    0  501    0  0.00000000000E+00  0.00000000000E+00  0.18568263806E+04  0.18568263806E+04  0.25500000920E-02 0.  1.
       -2   -1    0    0    0  501  0.00000000000E+00  0.00000000000E+00 -0.43595862761E+03  0.43595862762E+03  0.25500000920E-02 0. -1.
    10030    2    1    2    0    0  0.00000000000E+00  0.00000000000E+00  0.14208677530E+04  0.22927850082E+04  0.17994437814E+04 0.  0.
        5    1    3    3  502    0 -0.19492126969E+03 -0.32275342675E+03 -0.33042043527E+03  0.50136197493E+03  0.46999998093E+01 0. -1.
       -5    1    3    3    0  502  0.19492126969E+03  0.32275342675E+03  0.17512881883E+04  0.17914230333E+04  0.46999998093E+01 0.  1.
</event>
<event>
 5   0  0.4015729E-05  0.1796969E+04  0.7818609E-02  0.8707913E-01
        2   -1    0    0  501    0  0.00000000000E+00  0.00000000000E+00  0.12374441106E+04  0.12374441106E+04  0.25500000920E-02 0. -1.
       -2   -1    0    0    0  501  0.00000000000E+00  0.00000000000E+00 -0.65237241622E+03  0.65237241622E+03  0.25500000920E-02 0.  1.
    10030    2    1    2    0    0  0.00000000000E+00  0.00000000000E+00  0.58507169434E+03  0.18898165268E+04  0.17969690085E+04 0.  0.
        2    1    3    3  502    0  0.13166513650E+03  0.63832358022E+03  0.94294162079E+03  0.11462685556E+04  0.25500000920E-02 0. -1.
       -2    1    3    3    0  502 -0.13166513650E+03 -0.63832358022E+03 -0.35786992646E+03  0.74354797122E+03  0.25500000920E-02 0.  1.
</event>
<event>
 5   0  0.3984648E-05  0.1797879E+04  0.7818609E-02  0.8707428E-01
        2   -1    0    0  501    0  0.00000000000E+00  0.00000000000E+00  0.96488460595E+03  0.96488460595E+03  0.25500000920E-02 0. -1.
       -2   -1    0    0    0  501  0.00000000000E+00  0.00000000000E+00 -0.83750152978E+03  0.83750152979E+03  0.25500000920E-02 0.  1.
    10030    2    1    2    0    0  0.00000000000E+00  0.00000000000E+00  0.12738307617E+03  0.18023861357E+04  0.17978791211E+04 0.  0.
        1    1    3    3  502    0 -0.69747187152E+03  0.30506841173E+03 -0.41558494474E+03  0.86732035241E+03  0.50400001928E-02 0. -1.
       -1    1    3    3    0  502  0.69747187152E+03 -0.30506841173E+03  0.54296802091E+03  0.93506578333E+03  0.50400001928E-02 0.  1.
</event>
<event>
 5   0  0.3909859E-05  0.1800579E+04  0.7818609E-02  0.8705992E-01
        2   -1    0    0  501    0  0.00000000000E+00  0.00000000000E+00  0.21197623008E+04  0.21197623008E+04  0.25500000920E-02 0. -1.
       -2   -1    0    0    0  501  0.00000000000E+00  0.00000000000E+00 -0.38236422842E+03  0.38236422843E+03  0.25500000920E-02 0.  1.
    10030    2    1    2    0    0  0.00000000000E+00  0.00000000000E+00  0.17373980724E+04  0.25021265293E+04  0.18005791031E+04 0.  0.
        4    1    3    3  502    0 -0.25591002574E+03 -0.56962658954E+03 -0.32474857952E+02  0.62531641758E+03  0.12699999809E+01 0.  1.
       -4    1    3    3    0  502  0.25591002574E+03  0.56962658954E+03  0.17698729304E+04  0.18768101117E+04  0.12699999809E+01 0. -1.
</event>
<event>
 5   0  0.3909859E-05  0.1798342E+04  0.7818609E-02  0.8707182E-01
       -2   -1    0    0    0  501  0.00000000000E+00  0.00000000000E+00  0.48180900144E+03  0.48180900145E+03  0.25500000920E-02 0. -1.
        2   -1    0    0  501    0  0.00000000000E+00  0.00000000000E+00 -0.16780689250E+04  0.16780689250E+04  0.25500000920E-02 0.  1.
    10030    2    1    2    0    0  0.00000000000E+00  0.00000000000E+00 -0.11962599236E+04  0.21598779265E+04  0.17983422512E+04 0.  0.
        4    1    3    3  502    0 -0.77167617557E+03 -0.22440897251E+03 -0.10825276247E+04  0.13482251956E+04  0.12699999809E+01 0.  1.
       -4    1    3    3    0  502  0.77167617557E+03  0.22440897251E+03 -0.11373229893E+03  0.81165273092E+03  0.12699999809E+01 0. -1.
</event>
<event>
 5   0  0.3993393E-05  0.1799774E+04  0.7818609E-02  0.8706419E-01
       -2   -1    0    0    0  501  0.00000000000E+00  0.00000000000E+00  0.14226955241E+04  0.14226955241E+04  0.25500000920E-02 0. -1.
        2   -1    0    0  501    0  0.00000000000E+00  0.00000000000E+00 -0.56919901533E+03  0.56919901533E+03  0.25500000920E-02 0.  1.
    10030    2    1    2    0    0  0.00000000000E+00  0.00000000000E+00  0.85349650880E+03  0.19918945395E+04  0.17997743097E+04 0.  0.
        5    1    3    3  502    0  0.60229052832E+03  0.58529661275E+03  0.78443266480E+03  0.11492095984E+04  0.46999998093E+01 0.  1.
       -5    1    3    3    0  502 -0.60229052832E+03 -0.58529661275E+03  0.69063844004E+02  0.84268494109E+03  0.46999998093E+01 0. -1.
</event>
<event>
 5   0  0.1906857E-05  0.1798755E+04  0.7818609E-02  0.8706962E-01
        1   -1    0    0  501    0  0.00000000000E+00  0.00000000000E+00  0.11310035452E+04  0.11310035452E+04  0.50400001928E-02 0. -1.
       -1   -1    0    0    0  501  0.00000000000E+00  0.00000000000E+00 -0.71518757849E+03  0.71518757851E+03  0.50400001928E-02 0.  1.
    10030    2    1    2    0    0  0.00000000000E+00  0.00000000000E+00  0.41581596672E+03  0.18461911237E+04  0.17987547768E+04 0.  0.
        4    1    3    3  502    0  0.70197630366E+03  0.50940653531E+02  0.78259588532E+03  0.10525320013E+04  0.12699999809E+01 0. -1.
       -4    1    3    3    0  502 -0.70197630366E+03 -0.50940653531E+02 -0.36677991860E+03  0.79365912246E+03  0.12699999809E+01 0.  1.
</event>
<event>
 5   0  0.3993393E-05  0.1798111E+04  0.7818609E-02  0.8707305E-01
        2   -1    0    0  501    0  0.00000000000E+00  0.00000000000E+00  0.59766532853E+03  0.59766532854E+03  0.25500000920E-02 0. -1.
       -2   -1    0    0    0  501  0.00000000000E+00  0.00000000000E+00 -0.13524300179E+04  0.13524300179E+04  0.25500000920E-02 0.  1.
    10030    2    1    2    0    0  0.00000000000E+00  0.00000000000E+00 -0.75476468941E+03  0.19500953465E+04  0.17981107096E+04 0.  0.
        5    1    3    3  502    0  0.65660124200E+03  0.19460332904E+03  0.25433141469E+03  0.73054924896E+03  0.46999998093E+01 0. -1.
       -5    1    3    3    0  502 -0.65660124200E+03 -0.19460332904E+03 -0.10090961041E+04  0.12195460975E+04  0.46999998093E+01 0.  1.
</event>
<event>
 5   0  0.3983176E-05  0.1800616E+04  0.7818609E-02  0.8705972E-01
       -2   -1    0    0    0  501  0.00000000000E+00  0.00000000000E+00  0.58824780984E+03  0.58824780985E+03  0.25500000920E-02 0.  1.
        2   -1    0    0  501    0  0.00000000000E+00  0.00000000000E+00 -0.13779136933E+04  0.13779136933E+04  0.25500000920E-02 0. -1.
    10030    2    1    2    0    0  0.00000000000E+00  0.00000000000E+00 -0.78966588347E+03  0.19661615032E+04  0.18006162415E+04 0.  0.
        3    1    3    3  502    0  0.28188023884E+03 -0.84942274356E+03 -0.28796106021E+03  0.94015799137E+03  0.10100000352E+00 0. -1.
       -3    1    3    3    0  502 -0.28188023884E+03  0.84942274356E+03 -0.50170482327E+03  0.10260035118E+04  0.10100000352E+00 0.  1.
</event>
<event>
 5   0  0.1446750E-05  0.1797572E+04  0.7818609E-02  0.8707592E-01
        4   -1    0    0  501    0  0.00000000000E+00  0.00000000000E+00  0.10670607312E+04  0.10670614869E+04  0.12699999809E+01 0. -1.
       -4   -1    0    0    0  501  0.00000000000E+00  0.00000000000E+00 -0.75704657748E+03  0.75704764274E+03  0.12699999809E+01 0.  1.
    10030    2    1    2    0    0  0.00000000000E+00  0.00000000000E+00  0.31001415369E+03  0.18241091297E+04  0.17975720685E+04 0.  0.
        4    1    3    3  502    0  0.84425379533E+03 -0.17056089919E+03  0.41562381107E+03  0.95634735138E+03  0.12699999809E+01 0. -1.
       -4    1    3    3    0  502 -0.84425379533E+03  0.17056089919E+03 -0.10560965737E+03  0.86776177831E+03  0.12699999809E+01 0.  1.
</event>
<event>
 5   0  0.2038338E-05  0.1801204E+04  0.7818609E-02  0.8705660E-01
        1   -1    0    0  501    0  0.00000000000E+00  0.00000000000E+00  0.65955593634E+03  0.65955593636E+03  0.50400001928E-02 0. -1.
       -1   -1    0    0    0  501  0.00000000000E+00  0.00000000000E+00 -0.12297418709E+04  0.12297418709E+04  0.50400001928E-02 0.  1.
    10030    2    1    2    0    0  0.00000000000E+00  0.00000000000E+00 -0.57018593457E+03  0.18892978073E+04  0.18012035434E+04 0.  0.
        1    1    3    3  502    0 -0.43212086154E+00 -0.42901013587E+03  0.54549007119E+03  0.69398076429E+03  0.50400001928E-02 0. -1.
       -1    1    3    3    0  502  0.43212086154E+00  0.42901013587E+03 -0.11156760058E+04  0.11953170430E+04  0.50400001928E-02 0.  1.
</event>
<event>
 5   0  0.2054876E-05  0.1801546E+04  0.7818609E-02  0.8705478E-01
        1   -1    0    0  501    0  0.00000000000E+00  0.00000000000E+00  0.93740009969E+03  0.93740009971E+03  0.50400001928E-02 0.  1.
       -1   -1    0    0    0  501  0.00000000000E+00  0.00000000000E+00 -0.86557713520E+03  0.86557713522E+03  0.50400001928E-02 0. -1.
    10030    2    1    2    0    0  0.00000000000E+00  0.00000000000E+00  0.71822964491E+02  0.18029772349E+04  0.18015461058E+04 0.  0.
        5    1    3    3  502    0 -0.11820601990E+03  0.82735203143E+03 -0.30034047366E+03  0.88809376598E+03  0.46999998093E+01 0. -1.
       -5    1    3    3    0  502  0.11820601990E+03 -0.82735203143E+03  0.37216343815E+03  0.91488346894E+03  0.46999998093E+01 0.  1.
</event>
<event>
 5   0  0.2054876E-05  0.1799690E+04  0.7818609E-02  0.8706464E-01
       -1   -1    0    0    0  501  0.00000000000E+00  0.00000000000E+00  0.79240523137E+03  0.79240523138E+03  0.50400001928E-02 0.  1.
        1   -1    0    0  501    0  0.00000000000E+00  0.00000000000E+00 -0.10218525965E+04  0.10218525965E+04  0.50400001928E-02 0. -1.
    10030    2    1    2    0    0  0.00000000000E+00  0.00000000000E+00 -0.22944736516E+03  0.18142578279E+04  0.17996903547E+04 0.  0.
        5    1    3    3  502    0 -0.52846336072E+03 -0.72650430768E+03 -0.16629656121E+03  0.91365128412E+03  0.46999998093E+01 0.  1.
       -5    1    3    3    0  502  0.52846336072E+03  0.72650430768E+03 -0.63150803942E+02  0.90060654380E+03  0.46999998093E+01 0. -1.
</event>
<event>
 5   0  0.3984648E-05  0.1801384E+04  0.7818609E-02  0.8705564E-01
        2   -1    0    0  501    0  0.00000000000E+00  0.00000000000E+00  0.15028051127E+04  0.15028051127E+04  0.25500000920E-02 0.  1.
       -2   -1    0    0    0  501  0.00000000000E+00  0.00000000000E+00 -0.53982097930E+03  0.53982097931E+03  0.25500000920E-02 0. -1.
    10030    2    1    2    0    0  0.00000000000E+00  0.00000000000E+00  0.96298413338E+03  0.20426260920E+04  0.18013836100E+04 0.  0.
        1    1    3    3  502    0 -0.16013425997E+03  0.70879491241E+03  0.10849387314E+04  0.13058044493E+04  0.50400001928E-02 0.  1.
       -1    1    3    3    0  502  0.16013425997E+03 -0.70879491241E+03 -0.12195459800E+03  0.73682164265E+03  0.50400001928E-02 0. -1.
</event>
<event>
 5   0  0.3984648E-05  0.1812667E+04  0.7818609E-02  0.8699592E-01
        2   -1    0    0  501    0  0.00000000000E+00  0.00000000000E+00  0.73313323457E+03  0.73313323457E+03  0.25500000920E-02 0.  1.
       -2   -1    0    0    0  501  0.00000000000E+00  0.00000000000E+00 -0.11204522363E+04  0.11204522363E+04  0.25500000920E-02 0. -1.
    10030    2    1    2    0    0  0.00000000000E+00  0.00000000000E+00 -0.38731900174E+03  0.18535854709E+04  0.18126673961E+04 0.  0.
        1    1    3    3  502    0 -0.15511926003E+03  0.19686192039E+03  0.69699205618E+03  0.74068517396E+03  0.50400001928E-02 0.  1.
       -1    1    3    3    0  502  0.15511926003E+03 -0.19686192039E+03 -0.10843110579E+04  0.11129002969E+04  0.50400001928E-02 0. -1.
</event>
<event>
 5   0  0.1906857E-05  0.1801269E+04  0.7818609E-02  0.8705625E-01
        1   -1    0    0  501    0  0.00000000000E+00  0.00000000000E+00  0.16746784054E+04  0.16746784054E+04  0.50400001928E-02 0.  1.
       -1   -1    0    0    0  501  0.00000000000E+00  0.00000000000E+00 -0.48435724627E+03  0.48435724629E+03  0.50400001928E-02 0. -1.
    10030    2    1    2    0    0  0.00000000000E+00  0.00000000000E+00  0.11903211592E+04  0.21590356517E+04  0.18012691313E+04 0.  0.
        4    1    3    3  502    0  0.20059320745E+03  0.72068920246E+03 -0.59567127230E+01  0.74810938822E+03  0.12699999809E+01 0. -1.
       -4    1    3    3    0  502 -0.20059320745E+03 -0.72068920246E+03  0.11962778719E+04  0.14109262635E+04  0.12699999809E+01 0.  1.
</event>
<event>
 5   0  0.4015729E-05  0.1799899E+04  0.7818609E-02  0.8706353E-01
       -2   -1    0    0    0  501  0.00000000000E+00  0.00000000000E+00  0.72225800219E+03  0.72225800219E+03  0.25500000920E-02 0. -1.
        2   -1    0    0  501    0  0.00000000000E+00  0.00000000000E+00 -0.11213574299E+04  0.11213574299E+04  0.25500000920E-02 0.  1.
    10030    2    1    2    0    0  0.00000000000E+00  0.00000000000E+00 -0.39909942770E+03  0.18436154321E+04  0.17998993050E+04 0.  0.
        2    1    3    3  502    0  0.46892952276E+03 -0.44210925325E+03  0.44384174183E+03  0.78252858153E+03  0.25500000920E-02 0. -1.
       -2    1    3    3    0  502 -0.46892952276E+03  0.44210925325E+03 -0.84294116953E+03  0.10610868506E+04  0.25500000920E-02 0.  1.
</event>
<event>
 5   0  0.1446750E-05  0.1823981E+04  0.7818609E-02  0.8693650E-01
        3   -1    0    0  501    0  0.00000000000E+00  0.00000000000E+00  0.10090574976E+04  0.10090575026E+04  0.10100000352E+00 0. -1.
       -3   -1    0    0    0  501  0.00000000000E+00  0.00000000000E+00 -0.82426070518E+03  0.82426071136E+03  0.10100000352E+00 0.  1.
    10030    2    1    2    0    0  0.00000000000E+00  0.00000000000E+00  0.18479679240E+03  0.18333182140E+04  0.18239807618E+04 0.  0.
        1    1    3    3  502    0  0.41655987873E+03 -0.23347011595E+03  0.87335474301E+03  0.99537878959E+03  0.50400001928E-02 0. -1.
       -1    1    3    3    0  502 -0.41655987873E+03  0.23347011595E+03 -0.68855795060E+03  0.83793942441E+03  0.50400001928E-02 0.  1.
</event>
<event>
 5   0  0.3993393E-05  0.1800471E+04  0.7818609E-02  0.8706049E-01
        2   -1    0    0  501    0  0.00000000000E+00  0.00000000000E+00  0.13113906993E+04  0.13113906993E+04  0.25500000920E-02 0.  1.
       -2   -1    0    0    0  501  0.00000000000E+00  0.00000000000E+00 -0.61798803010E+03  0.61798803010E+03  0.25500000920E-02 0. -1.
    10030    2    1    2    0    0  0.00000000000E+00  0.00000000000E+00  0.69340266919E+03  0.19293787294E+04  0.18004707773E+04 0.  0.
        5    1    3    3  502    0  0.58293589200E+03  0.18999894108E+03  0.10530517569E+04  0.12185458319E+04  0.46999998093E+01 0.  1.
       -5    1    3    3    0  502 -0.58293589200E+03 -0.18999894108E+03 -0.35964908773E+03  0.71083289745E+03  0.46999998093E+01 0. -1.
</event>
<event>
 5   0  0.3993393E-05  0.1808524E+04  0.7818609E-02  0.8701779E-01
        2   -1    0    0  501    0  0.00000000000E+00  0.00000000000E+00  0.13561833279E+04  0.13561833279E+04  0.25500000920E-02 0. -1.
       -2   -1    0    0    0  501  0.00000000000E+00  0.00000000000E+00 -0.60293478368E+03  0.60293478369E+03  0.25500000920E-02 0.  1.
    10030    2    1    2    0    0  0.00000000000E+00  0.00000000000E+00  0.75324854417E+03  0.19591181115E+04  0.18085243724E+04 0.  0.
        5    1    3    3  502    0 -0.82957002246E+03 -0.31840533630E+03  0.19503651570E+03  0.90974156375E+03  0.46999998093E+01 0.  1.
       -5    1    3    3    0  502  0.82957002246E+03  0.31840533630E+03  0.55821202847E+03  0.10493765478E+04  0.46999998093E+01 0. -1.
</event>
<event>
 5   0  0.2038338E-05  0.1802562E+04  0.7818609E-02  0.8704938E-01
        1   -1    0    0  501    0  0.00000000000E+00  0.00000000000E+00  0.14204676928E+04  0.14204676928E+04  0.50400001928E-02 0.  1.
       -1   -1    0    0    0  501  0.00000000000E+00  0.00000000000E+00 -0.57185897521E+03  0.57185897523E+03  0.50400001928E-02 0. -1.
    10030    2    1    2    0    0  0.00000000000E+00  0.00000000000E+00  0.84860871756E+03  0.19923266680E+04  0.18025617317E+04 0.  0.
        1    1    3    3  502    0  0.69137790103E+03  0.24676604489E+03  0.10022378333E+04  0.12423274759E+04  0.50400001928E-02 0.  1.
       -1    1    3    3    0  502 -0.69137790103E+03 -0.24676604489E+03 -0.15362911570E+03  0.74999919211E+03  0.50400001928E-02 0. -1.
</event>
<event>
 5   0  0.1906857E-05  0.1799097E+04  0.7818609E-02  0.8706780E-01
       -1   -1    0    0    0  501  0.00000000000E+00  0.00000000000E+00  0.54375726926E+03  0.54375726928E+03  0.50400001928E-02 0.  1.
        1   -1    0    0  501    0  0.00000000000E+00  0.00000000000E+00 -0.14881408572E+04  0.14881408572E+04  0.50400001928E-02 0. -1.
    10030    2    1    2    0    0  0.00000000000E+00  0.00000000000E+00 -0.94438358797E+03  0.20318981265E+04  0.17990968944E+04 0.  0.
        4    1    3    3  502    0 -0.62951987656E+03  0.15195368573E+03 -0.11773208757E+04  0.13436782557E+04  0.12699999809E+01 0. -1.
       -4    1    3    3    0  502  0.62951987656E+03 -0.15195368573E+03  0.23293728778E+03  0.68821987077E+03  0.12699999809E+01 0.  1.
</event>
<event>
 5   0  0.3983176E-05  0.1801400E+04  0.7818609E-02  0.8705556E-01
        2   -1    0    0  501    0  0.00000000000E+00  0.00000000000E+00  0.16020473336E+04  0.16020473336E+04  0.25500000920E-02 0.  1.
       -2   -1    0    0    0  501  0.00000000000E+00  0.00000000000E+00 -0.50638956827E+03  0.50638956828E+03  0.25500000920E-02 0. -1.
    10030    2    1    2    0    0  0.00000000000E+00  0.00000000000E+00  0.10956577653E+04  0.21084369018E+04  0.18013995199E+04 0.  0.
        3    1    3    3  502    0 -0.60409596897E+03 -0.12664611375E+02  0.13296360304E+04  0.14604876979E+04  0.10100000352E+00 0.  1.
       -3    1    3    3    0  502  0.60409596897E+03  0.12664611375E+02 -0.23397826516E+03  0.64794920393E+03  0.10100000352E+00 0. -1.
</event>
<event>
 5   0  0.3984648E-05  0.1801095E+04  0.7818609E-02  0.8705718E-01
       -2   -1    0    0    0  501  0.00000000000E+00  0.00000000000E+00  0.43252967019E+03  0.43252967020E+03  0.25500000920E-02 0. -1.
        2   -1    0    0  501    0  0.00000000000E+00  0.00000000000E+00 -0.18749821163E+04  0.18749821163E+04  0.25500000920E-02 0.  1.
    10030    2    1    2    0    0  0.00000000000E+00  0.00000000000E+00 -0.14424524461E+04  0.23075117865E+04  0.18010945521E+04 0.  0.
        1    1    3    3  502    0  0.77406568020E+03  0.33010869069E+03 -0.11320730554E+04  0.14105810249E+04  0.50400001928E-02 0.  1.
       -1    1    3    3    0  502 -0.77406568020E+03 -0.33010869069E+03 -0.31037939068E+03  0.89693076161E+03  0.50400001928E-02 0. -1.
</event>
<event>
 5   0  0.3993393E-05  0.1799333E+04  0.7818609E-02  0.8706654E-01
        2   -1    0    0  501    0  0.00000000000E+00  0.00000000000E+00  0.14339961317E+04  0.14339961317E+04  0.25500000920E-02 0.  1.
       -2   -1    0    0    0  501  0.00000000000E+00  0.00000000000E+00 -0.56443655532E+03  0.56443655532E+03  0.25500000920E-02 0. -1.
    10030    2    1    2    0    0  0.00000000000E+00  0.00000000000E+00  0.86955957640E+03  0.19984326870E+04  0.17993330286E+04 0.  0.
        5    1    3    3  502    0 -0.47044428396E+03  0.63463711021E+03  0.91287082035E+03  0.12072436832E+04  0.46999998093E+01 0.  1.
       -5    1    3    3    0  502  0.47044428396E+03 -0.63463711021E+03 -0.43311243948E+02  0.79118900385E+03  0.46999998093E+01 0. -1.
</event>
<event>
 5   0  0.1446750E-05  0.1800067E+04  0.7818609E-02  0.8706264E-01
        4   -1    0    0  501    0  0.00000000000E+00  0.00000000000E+00  0.50951078802E+03  0.50951237081E+03  0.12699999809E+01 0.  1.
       -4   -1    0    0    0  501  0.00000000000E+00  0.00000000000E+00 -0.15898738797E+04  0.15898743869E+04  0.12699999809E+01 0. -1.
    10030    2    1    2    0    0  0.00000000000E+00  0.00000000000E+00 -0.10803630916E+04  0.20993867577E+04  0.18000667623E+04 0.  0.
        1    1    3    3  502    0 -0.70484320555E+03  0.43684375167E+03 -0.94825331840E+03  0.12596907413E+04  0.50400001928E-02 0. -1.
       -1    1    3    3    0  502  0.70484320555E+03 -0.43684375167E+03 -0.13210977323E+03  0.83969601642E+03  0.50400001928E-02 0.  1.
</event>
<event>
 5   0  0.3983176E-05  0.1792797E+04  0.7818609E-02  0.8710139E-01
       -2   -1    0    0    0  501  0.00000000000E+00  0.00000000000E+00  0.50690071968E+03  0.50690071969E+03  0.25500000920E-02 0. -1.
        2   -1    0    0  501    0  0.00000000000E+00  0.00000000000E+00 -0.15851823556E+04  0.15851823556E+04  0.25500000920E-02 0.  1.
    10030    2    1    2    0    0  0.00000000000E+00  0.00000000000E+00 -0.10782816359E+04  0.20920830753E+04  0.17927967837E+04 0.  0.
        3    1    3    3  502    0  0.15725556399E+03 -0.11518299955E+03  0.48186918982E+03  0.51980223363E+03  0.10100000352E+00 0. -1.
       -3    1    3    3    0  502 -0.15725556399E+03  0.11518299955E+03 -0.15601508258E+04  0.15722808417E+04  0.10100000352E+00 0.  1.
</event>
<event>
 5   0  0.3909859E-05  0.1798362E+04  0.7818609E-02  0.8707171E-01
        2   -1    0    0  501    0  0.00000000000E+00  0.00000000000E+00  0.14788384723E+04  0.14788384723E+04  0.25500000920E-02 0. -1.
       -2   -1    0    0    0  501  0.00000000000E+00  0.00000000000E+00 -0.54673090382E+03  0.54673090382E+03  0.25500000920E-02 0.  1.
    10030    2    1    2    0    0  0.00000000000E+00  0.00000000000E+00  0.93210756845E+03  0.20255693761E+04  0.17983622489E+04 0.  0.
        4    1    3    3  502    0  0.22752821972E+03 -0.72697147588E+02  0.14424500083E+04  0.14620935693E+04  0.12699999809E+01 0. -1.
       -4    1    3    3    0  502 -0.22752821972E+03  0.72697147588E+02 -0.51034243985E+03  0.56347580680E+03  0.12699999809E+01 0.  1.
</event>
<event>
 5   0  0.1446750E-05  0.1796850E+04  0.7818609E-02  0.8707977E-01
        3   -1    0    0  501    0  0.00000000000E+00  0.00000000000E+00  0.56295939637E+03  0.56295940543E+03  0.10100000352E+00 0.  1.
       -3   -1    0    0    0  501  0.00000000000E+00  0.00000000000E+00 -0.14337927513E+04  0.14337927549E+04  0.10100000352E+00 0. -1.
    10030    2    1    2    0    0  0.00000000000E+00  0.00000000000E+00 -0.87083335496E+03  0.19967521603E+04  0.17968495924E+04 0.  0.
        2    1    3    3  502    0 -0.16476846376E+03  0.74348917017E+03 -0.96514969933E+03  0.12294058463E+04  0.25500000920E-02 0. -1.
       -2    1    3    3    0  502  0.16476846376E+03 -0.74348917017E+03  0.94316344364E+02  0.76734631402E+03  0.25500000920E-02 0.  1.
</event>
<event>
 5   0  0.3983176E-05  0.1814798E+04  0.7818609E-02  0.8698469E-01
       -2   -1    0    0    0  501  0.00000000000E+00  0.00000000000E+00  0.67999807071E+03  0.67999807071E+03  0.25500000920E-02 0.  1.
        2   -1    0    0  501    0  0.00000000000E+00  0.00000000000E+00 -0.12108458667E+04  0.12108458667E+04  0.25500000920E-02 0. -1.
    10030    2    1    2    0    0  0.00000000000E+00  0.00000000000E+00 -0.53084779596E+03  0.18908439374E+04  0.18147978987E+04 0.  0.
        3    1    3    3  502    0  0.37740802954E+03  0.37384813203E+03 -0.10318948799E+04  0.11606060055E+04  0.10100000352E+00 0. -1.
       -3    1    3    3    0  502 -0.37740802954E+03 -0.37384813203E+03  0.50104708398E+03  0.73023793187E+03  0.10100000352E+00 0.  1.
</event>
<event>
 5   0  0.3909859E-05  0.1803968E+04  0.7818609E-02  0.8704192E-01
       -2   -1    0    0    0  501  0.00000000000E+00  0.00000000000E+00  0.43250718458E+03  0.43250718459E+03  0.25500000920E-02 0. -1.
        2   -1    0    0  501    0  0.00000000000E+00  0.00000000000E+00 -0.18810669493E+04  0.18810669493E+04  0.25500000920E-02 0.  1.
    10030    2    1    2    0    0  0.00000000000E+00  0.00000000000E+00 -0.14485597647E+04  0.23135741339E+04  0.18039678160E+04 0.  0.
        4    1    3    3  502    0 -0.83323462434E+03  0.14002422765E+03 -0.11292034929E+04  0.14103151651E+04  0.12699999809E+01 0.  1.
       -4    1    3    3    0  502  0.83323462434E+03 -0.14002422765E+03 -0.31935627183E+03  0.90325896884E+03  0.12699999809E+01 0. -1.
</event>
<event>
 5   0  0.3984648E-05  0.1757709E+04  0.7818609E-02  0.8729119E-01
       -2   -1    0    0    0  501  0.00000000000E+00  0.00000000000E+00  0.76228541230E+03  0.76228541231E+03  0.25500000920E-02 0. -1.
        2   -1    0    0  501    0  0.00000000000E+00  0.00000000000E+00 -0.10132489747E+04  0.10132489747E+04  0.25500000920E-02 0.  1.
    10030    2    1    2    0    0  0.00000000000E+00  0.00000000000E+00 -0.25096356243E+03  0.17755343870E+04  0.17577086362E+04 0.  0.
        1    1    3    3  502    0  0.29540410060E+03 -0.19827938945E+03  0.68628905602E+03  0.77302714530E+03  0.50400001928E-02 0. -1.
       -1    1    3    3    0  502 -0.29540410060E+03  0.19827938945E+03 -0.93725261845E+03  0.10025072417E+04  0.50400001928E-02 0.  1.
</event>
<event>
 5   0  0.1906857E-05  0.1802743E+04  0.7818609E-02  0.8704842E-01
       -1   -1    0    0    0  501  0.00000000000E+00  0.00000000000E+00  0.51061333441E+03  0.51061333444E+03  0.50400001928E-02 0. -1.
        1   -1    0    0  501    0  0.00000000000E+00  0.00000000000E+00 -0.15911659088E+04  0.15911659088E+04  0.50400001928E-02 0.  1.
    10030    2    1    2    0    0  0.00000000000E+00  0.00000000000E+00 -0.10805525744E+04  0.21017792432E+04  0.18027429438E+04 0.  0.
        4    1    3    3  502    0  0.66710497079E+03 -0.44954030838E+02  0.16449607212E+03  0.68855680781E+03  0.12699999809E+01 0. -1.
       -4    1    3    3    0  502 -0.66710497079E+03  0.44954030838E+02 -0.12450486465E+04  0.14132224354E+04  0.12699999809E+01 0.  1.
</event>
<event>
 5   0  0.3983176E-05  0.1801396E+04  0.7818609E-02  0.8705558E-01
       -2   -1    0    0    0  501  0.00000000000E+00  0.00000000000E+00  0.64619941593E+03  0.64619941593E+03  0.25500000920E-02 0. -1.
        2   -1    0    0  501    0  0.00000000000E+00  0.00000000000E+00 -0.12554276136E+04  0.12554276136E+04  0.25500000920E-02 0.  1.
    10030    2    1    2    0    0  0.00000000000E+00  0.00000000000E+00 -0.60922819767E+03  0.19016270295E+04  0.18013956708E+04 0.  0.
        3    1    3    3  502    0  0.19598154766E+03 -0.70863063137E+03  0.24461392361E+03  0.77485619347E+03  0.10100000352E+00 0. -1.
       -3    1    3    3    0  502 -0.19598154766E+03  0.70863063137E+03 -0.85384212128E+03  0.11267708361E+04  0.10100000352E+00 0.  1.
</event>
<event>
 5   0  0.3993393E-05  0.1765808E+04  0.7818609E-02  0.8724697E-01
       -2   -1    0    0    0  501  0.00000000000E+00  0.00000000000E+00  0.92690262774E+03  0.92690262775E+03  0.25500000920E-02 0.  1.
        2   -1    0    0  501    0  0.00000000000E+00  0.00000000000E+00 -0.84099377585E+03  0.84099377585E+03  0.25500000920E-02 0. -1.
    10030    2    1    2    0    0  0.00000000000E+00  0.00000000000E+00  0.85908851895E+02  0.17678964036E+04  0.17658078500E+04 0.  0.
        5    1    3    3  502    0  0.19251937342E+03  0.47199119848E+03 -0.67877118253E+03  0.84887679248E+03  0.46999998093E+01 0. -1.
       -5    1    3    3    0  502 -0.19251937342E+03 -0.47199119848E+03  0.76468003442E+03  0.91901961112E+03  0.46999998093E+01 0.  1.
</event>
<event>
 5   0  0.1960300E-05  0.1801690E+04  0.7818609E-02  0.8705401E-01
       -1   -1    0    0    0  501  0.00000000000E+00  0.00000000000E+00  0.68128847307E+03  0.68128847308E+03  0.50400001928E-02 0. -1.
        1   -1    0    0  501    0  0.00000000000E+00  0.00000000000E+00 -0.11911568498E+04  0.11911568498E+04  0.50400001928E-02 0.  1.
    10030    2    1    2    0    0  0.00000000000E+00  0.00000000000E+00 -0.50986837671E+03  0.18724453229E+04  0.18016896863E+04 0.  0.
        3    1    3    3  502    0  0.33135695098E+03  0.74723838857E+03 -0.64843107892E+03  0.10433721832E+04  0.10100000352E+00 0.  1.
       -3    1    3    3    0  502 -0.33135695098E+03 -0.74723838857E+03  0.13856270221E+03  0.82907313969E+03  0.10100000352E+00 0. -1.
</event>
<event>
 5   0  0.1906857E-05  0.1808530E+04  0.7818609E-02  0.8701776E-01
       -1   -1    0    0    0  501  0.00000000000E+00  0.00000000000E+00  0.68542231292E+03  0.68542231294E+03  0.50400001928E-02 0.  1.
        1   -1    0    0  501    0  0.00000000000E+00  0.00000000000E+00 -0.11929802163E+04  0.11929802163E+04  0.50400001928E-02 0. -1.
    10030    2    1    2    0    0  0.00000000000E+00  0.00000000000E+00 -0.50755790340E+03  0.18784025293E+04  0.18085300762E+04 0.  0.
        4    1    3    3  502    0 -0.71697223496E+03 -0.35430683323E+03 -0.69211628017E+03  0.10576431704E+04  0.12699999809E+01 0. -1.
       -4    1    3    3    0  502  0.71697223496E+03  0.35430683323E+03  0.18455837677E+03  0.82075935884E+03  0.12699999809E+01 0.  1.
</event>
<event>
 5   0  0.3909859E-05  0.1802039E+04  0.7818609E-02  0.8705216E-01
        2   -1    0    0  501    0  0.00000000000E+00  0.00000000000E+00  0.98636901576E+03  0.98636901576E+03  0.25500000920E-02 0.  1.
       -2   -1    0    0    0  501  0.00000000000E+00  0.00000000000E+00 -0.82305482829E+03  0.82305482830E+03  0.25500000920E-02 0. -1.
    10030    2    1    2    0    0  0.00000000000E+00  0.00000000000E+00  0.16331418747E+03  0.18094238441E+04  0.18020386021E+04 0.  0.
        4    1    3    3  502    0  0.40308191431E+03  0.37715923348E+03  0.79669213957E+03  0.96924924307E+03  0.12699999809E+01 0.  1.
       -4    1    3    3    0  502 -0.40308191431E+03 -0.37715923348E+03 -0.63337795210E+03  0.84017460099E+03  0.12699999809E+01 0. -1.
</event>
<event>
 5   0  0.1960300E-05  0.1802170E+04  0.7818609E-02  0.8705146E-01
       -1   -1    0    0    0  501  0.00000000000E+00  0.00000000000E+00  0.36739520668E+03  0.36739520671E+03  0.50400001928E-02 0.  1.
        1   -1    0    0  501    0  0.00000000000E+00  0.00000000000E+00 -0.22100297148E+04  0.22100297148E+04  0.50400001928E-02 0. -1.
    10030    2    1    2    0    0  0.00000000000E+00  0.00000000000E+00 -0.18426345081E+04  0.25774249215E+04  0.18021701628E+04 0.  0.
        3    1    3    3  502    0 -0.27789096519E+03 -0.31772363073E+03 -0.20598889700E+04  0.21026921489E+04  0.10100000352E+00 0. -1.
       -3    1    3    3    0  502  0.27789096519E+03  0.31772363073E+03  0.21725446184E+03  0.47473277267E+03  0.10100000352E+00 0.  1.
</event>
<event>
 5   0  0.3993393E-05  0.1801494E+04  0.7818609E-02  0.8705505E-01
       -2   -1    0    0    0  501  0.00000000000E+00  0.00000000000E+00  0.10107217887E+04  0.10107217887E+04  0.25500000920E-02 0. -1.
        2   -1    0    0  501    0  0.00000000000E+00  0.00000000000E+00 -0.80273822236E+03  0.80273822236E+03  0.25500000920E-02 0.  1.
    10030    2    1    2    0    0  0.00000000000E+00  0.00000000000E+00  0.20798356630E+03  0.18134600110E+04  0.18014938378E+04 0.  0.
        5    1    3    3  502    0 -0.16017907748E+03 -0.13531639091E+03  0.98579845991E+03  0.10078633618E+04  0.46999998093E+01 0. -1.
       -5    1    3    3    0  502  0.16017907748E+03  0.13531639091E+03 -0.77781489361E+03  0.80559664922E+03  0.46999998093E+01 0.  1.
</event>
<event>
 5   0  0.4015729E-05  0.1801438E+04  0.7818609E-02  0.8705535E-01
        2   -1    0    0  501    0  0.00000000000E+00  0.00000000000E+00  0.13367731361E+04  0.13367731361E+04  0.25500000920E-02 0. -1.
       -2   -1    0    0    0  501  0.00000000000E+00  0.00000000000E+00 -0.60690550826E+03  0.60690550826E+03  0.25500000920E-02 0.  1.
    10030    2    1    2    0    0  0.00000000000E+00  0.00000000000E+00  0.72986762787E+03  0.19436786444E+04  0.18014382916E+04 0.  0.
        2    1    3    3  502    0  0.16566443643E+01 -0.85079885338E+03  0.45894560967E+02  0.85203740770E+03  0.25500000920E-02 0.  1.
       -2    1    3    3    0  502 -0.16566443643E+01  0.85079885338E+03  0.68397306690E+03  0.10916412367E+04  0.25500000920E-02 0. -1.
</event>
<event>
 5   0  0.3993393E-05  0.1798161E+04  0.7818609E-02  0.8707278E-01
       -2   -1    0    0    0  501  0.00000000000E+00  0.00000000000E+00  0.65197773754E+03  0.65197773755E+03  0.25500000920E-02 0.  1.
        2   -1    0    0  501    0  0.00000000000E+00  0.00000000000E+00 -0.12398361334E+04  0.12398361334E+04  0.25500000920E-02 0. -1.
    10030    2    1    2    0    0  0.00000000000E+00  0.00000000000E+00 -0.58785839581E+03  0.18918138709E+04  0.17981607905E+04 0.  0.
        5    1    3    3  502    0  0.54327983454E+03  0.59569671060E+03  0.12468328336E+03  0.81582814415E+03  0.46999998093E+01 0.  1.
       -5    1    3    3    0  502 -0.54327983454E+03 -0.59569671060E+03 -0.71254167918E+03  0.10759857268E+04  0.46999998093E+01 0. -1.
</event>
<event>
 5   0  0.2054876E-05  0.1795474E+04  0.7818609E-02  0.8708710E-01
        1   -1    0    0  501    0  0.00000000000E+00  0.00000000000E+00  0.59712991832E+03  0.59712991834E+03  0.50400001928E-02 0.  1.
       -1   -1    0    0    0  501  0.00000000000E+00  0.00000000000E+00 -0.13496749324E+04  0.13496749324E+04  0.50400001928E-02 0. -1.
    10030    2    1    2    0    0  0.00000000000E+00  0.00000000000E+00 -0.75254501408E+03  0.19468048507E+04  0.17954735110E+04 0.  0.
        5    1    3    3  502    0 -0.85438438950E+03  0.27363315374E+03 -0.34094737098E+03  0.95974735614E+03  0.46999998093E+01 0. -1.
       -5    1    3    3    0  502  0.85438438950E+03 -0.27363315374E+03 -0.41159764309E+03  0.98705749460E+03  0.46999998093E+01 0.  1.
</event>
<event>
 5   0  0.1906857E-05  0.1787040E+04  0.7818609E-02  0.8713222E-01
        1   -1    0    0  501    0  0.00000000000E+00  0.00000000000E+00  0.49206154124E+03  0.49206154127E+03  0.50400001928E-02 0.  1.
       -1   -1    0    0    0  501  0.00000000000E+00  0.00000000000E+00 -0.16225167906E+04  0.16225167907E+04  0.50400001928E-02 0. -1.
    10030    2    1    2    0    0  0.00000000000E+00  0.00000000000E+00 -0.11304552494E+04  0.21145783319E+04  0.17870401369E+04 0.  0.
        4    1    3    3  502    0 -0.56645641134E+03  0.63957945910E+03 -0.25566392984E+03  0.89179616975E+03  0.12699999809E+01 0.  1.
       -4    1    3    3    0  502  0.56645641134E+03 -0.63957945910E+03 -0.87479131956E+03  0.12227821622E+04  0.12699999809E+01 0. -1.
</event>
<event>
 5   0  0.3983176E-05  0.1797410E+04  0.7818609E-02  0.8707678E-01
       -2   -1    0    0    0  501  0.00000000000E+00  0.00000000000E+00  0.85382178642E+03  0.85382178643E+03  0.25500000920E-02 0.  1.
        2   -1    0    0  501    0  0.00000000000E+00  0.00000000000E+00 -0.94594742122E+03  0.94594742122E+03  0.25500000920E-02 0. -1.
    10030    2    1    2    0    0  0.00000000000E+00  0.00000000000E+00 -0.92125634797E+02  0.17997692077E+04  0.17974098220E+04 0.  0.
        3    1    3    3  502    0 -0.28942668408E+03 -0.36819073118E+03 -0.81410179776E+03  0.93919857715E+03  0.10100000352E+00 0. -1.
       -3    1    3    3    0  502  0.28942668408E+03  0.36819073118E+03  0.72197616297E+03  0.86057063050E+03  0.10100000352E+00 0.  1.
</event>
<event>
 5   0  0.2001811E-05  0.1799999E+04  0.7818609E-02  0.8706300E-01
        1   -1    0    0  501    0  0.00000000000E+00  0.00000000000E+00  0.13155351330E+04  0.13155351330E+04  0.50400001928E-02 0. -1.
       -1   -1    0    0    0  501  0.00000000000E+00  0.00000000000E+00 -0.61571828993E+03  0.61571828995E+03  0.50400001928E-02 0.  1.
    10030    2    1    2    0    0  0.00000000000E+00  0.00000000000E+00  0.69981684305E+03  0.19312534229E+04  0.17999989361E+04 0.  0.
        2    1    3    3  502    0 -0.54725742516E+03 -0.34609583036E+03 -0.32075279141E+03  0.72260318736E+03  0.25500000920E-02 0.  1.
       -2    1    3    3    0  502  0.54725742516E+03  0.34609583036E+03  0.10205696345E+04  0.12086502356E+04  0.25500000920E-02 0. -1.
</event>
<event>
 5   0  0.3909859E-05  0.1801221E+04  0.7818609E-02  0.8705650E-01
       -2   -1    0    0    0  501  0.00000000000E+00  0.00000000000E+00  0.59505930544E+03  0.59505930545E+03  0.25500000920E-02 0.  1.
        2   -1    0    0  501    0  0.00000000000E+00  0.00000000000E+00 -0.13630568489E+04  0.13630568489E+04  0.25500000920E-02 0. -1.
    10030    2    1    2    0    0  0.00000000000E+00  0.00000000000E+00 -0.76799754341E+03  0.19581161543E+04  0.18012214320E+04 0.  0.
        4    1    3    3  502    0 -0.86663703824E+03 -0.80812678157E+02 -0.63546466891E+03  0.10776861340E+04  0.12699999809E+01 0. -1.
       -4    1    3    3    0  502  0.86663703824E+03  0.80812678157E+02 -0.13253287450E+03  0.88043002034E+03  0.12699999809E+01 0.  1.
</event>
<event>
 5   0  0.1906857E-05  0.1825856E+04  0.7818609E-02  0.8692669E-01
       -1   -1    0    0    0  501  0.00000000000E+00  0.00000000000E+00  0.98184905841E+03  0.98184905843E+03  0.50400001928E-02 0.  1.
        1   -1    0    0  501    0  0.00000000000E+00  0.00000000000E+00 -0.84884471561E+03  0.84884471562E+03  0.50400001928E-02 0. -1.
    10030    2    1    2    0    0  0.00000000000E+00  0.00000000000E+00  0.13300434281E+03  0.18306937741E+04  0.18258558374E+04 0.  0.
        4    1    3    3  502    0  0.20574934748E+03 -0.74238829676E+03 -0.42465557149E+03  0.87966308576E+03  0.12699999809E+01 0. -1.
       -4    1    3    3    0  502 -0.20574934748E+03  0.74238829676E+03  0.55765991429E+03  0.95103068829E+03  0.12699999809E+01 0.  1.
</event>
<event>
 5   0  0.2038338E-05  0.1803082E+04  0.7818609E-02  0.8704662E-01
        1   -1    0    0  501    0  0.00000000000E+00  0.00000000000E+00  0.18068446547E+04  0.18068446547E+04  0.50400001928E-02 0. -1.
       -1   -1    0    0    0  501  0.00000000000E+00  0.00000000000E+00 -0.44983164652E+03  0.44983164655E+03  0.50400001928E-02 0.  1.
    10030    2    1    2    0    0  0.00000000000E+00  0.00000000000E+00  0.13570130082E+04  0.22566763013E+04  0.18030817021E+04 0.  0.
        1    1    3    3  502    0  0.89326775532E+03  0.95840950977E+02  0.58432137485E+03  0.10717015628E+04  0.50400001928E-02 0.  1.
       -1    1    3    3    0  502 -0.89326775532E+03 -0.95840950977E+02  0.77269163337E+03  0.11849747385E+04  0.50400001928E-02 0. -1.
</event>
<event>
 5   0  0.2054876E-05  0.1800756E+04  0.7818609E-02  0.8705897E-01
       -1   -1    0    0    0  501  0.00000000000E+00  0.00000000000E+00  0.51833106383E+03  0.51833106385E+03  0.50400001928E-02 0. -1.
        1   -1    0    0  501    0  0.00000000000E+00  0.00000000000E+00 -0.15640209653E+04  0.15640209653E+04  0.50400001928E-02 0.  1.
    10030    2    1    2    0    0  0.00000000000E+00  0.00000000000E+00 -0.10456899015E+04  0.20823520291E+04  0.18007561199E+04 0.  0.
        5    1    3    3  502    0  0.18218711469E+03 -0.13692518599E+03  0.48441001907E+03  0.53536511643E+03  0.46999998093E+01 0. -1.
       -5    1    3    3    0  502 -0.18218711469E+03  0.13692518599E+03 -0.15300999205E+04  0.15469869127E+04  0.46999998093E+01 0.  1.
</event>
<event>
 5   0  0.1960300E-05  0.1805169E+04  0.7818609E-02  0.8703555E-01
       -1   -1    0    0    0  501  0.00000000000E+00  0.00000000000E+00  0.79979708699E+03  0.79979708701E+03  0.50400001928E-02 0.  1.
        1   -1    0    0  501    0  0.00000000000E+00  0.00000000000E+00 -0.10185821675E+04  0.10185821675E+04  0.50400001928E-02 0. -1.
    10030    2    1    2    0    0  0.00000000000E+00  0.00000000000E+00 -0.21878508053E+03  0.18183792545E+04  0.18051693001E+04 0.  0.
        3    1    3    3  502    0  0.19018148182E+03 -0.22486087067E+03  0.75003770225E+03  0.80578407293E+03  0.10100000352E+00 0.  1.
       -3    1    3    3    0  502 -0.19018148182E+03  0.22486087067E+03 -0.96882278278E+03  0.10125951816E+04  0.10100000352E+00 0. -1.
</event>
<event>
 5   0  0.4015729E-05  0.1804564E+04  0.7818609E-02  0.8703876E-01
        2   -1    0    0  501    0  0.00000000000E+00  0.00000000000E+00  0.14248754663E+04  0.14248754663E+04  0.25500000920E-02 0.  1.
       -2   -1    0    0    0  501  0.00000000000E+00  0.00000000000E+00 -0.57135705702E+03  0.57135705703E+03  0.25500000920E-02 0. -1.
    10030    2    1    2    0    0  0.00000000000E+00  0.00000000000E+00  0.85351840931E+03  0.19962325234E+04  0.18045638288E+04 0.  0.
        2    1    3    3  502    0 -0.84595144543E+03  0.14618243097E+03  0.73393912819E+03  0.11294555303E+04  0.25500000920E-02 0. -1.
       -2    1    3    3    0  502  0.84595144543E+03 -0.14618243097E+03  0.11957928112E+03  0.86677699302E+03  0.25500000920E-02 0.  1.
</event>
<event>
 5   0  0.1906857E-05  0.1839984E+04  0.7818609E-02  0.8685321E-01
        1   -1    0    0  501    0  0.00000000000E+00  0.00000000000E+00  0.18947199656E+04  0.18947199656E+04  0.50400001928E-02 0. -1.
       -1   -1    0    0    0  501  0.00000000000E+00  0.00000000000E+00 -0.44670716333E+03  0.44670716336E+03  0.50400001928E-02 0.  1.
    10030    2    1    2    0    0  0.00000000000E+00  0.00000000000E+00  0.14480128023E+04  0.23414271290E+04  0.18399836751E+04 0.  0.
        4    1    3    3  502    0 -0.27664416016E+03  0.71003757677E+03  0.13799414424E+04  0.15763645991E+04  0.12699999809E+01 0. -1.
       -4    1    3    3    0  502  0.27664416016E+03 -0.71003757677E+03  0.68071359880E+02  0.76506252993E+03  0.12699999809E+01 0.  1.
</event>
<event>
 5   0  0.3983176E-05  0.1800378E+04  0.7818609E-02  0.8706098E-01
        2   -1    0    0  501    0  0.00000000000E+00  0.00000000000E+00  0.10558665329E+04  0.10558665329E+04  0.25500000920E-02 0. -1.
       -2   -1    0    0    0  501  0.00000000000E+00  0.00000000000E+00 -0.76746500771E+03  0.76746500772E+03  0.25500000920E-02 0.  1.
    10030    2    1    2    0    0  0.00000000000E+00  0.00000000000E+00  0.28840152517E+03  0.18233315406E+04  0.18003784233E+04 0.  0.
        3    1    3    3  502    0  0.37776091360E+03 -0.12407500428E+03  0.96211252914E+03  0.10410371960E+04  0.10100000352E+00 0. -1.
       -3    1    3    3    0  502 -0.37776091360E+03  0.12407500428E+03 -0.67371100397E+03  0.78229434460E+03  0.10100000352E+00 0.  1.
</event>
<event>
 5   0  0.3909859E-05  0.1798340E+04  0.7818609E-02  0.8707183E-01
        2   -1    0    0  501    0  0.00000000000E+00  0.00000000000E+00  0.51031156393E+03  0.51031156394E+03  0.25500000920E-02 0.  1.
       -2   -1    0    0    0  501  0.00000000000E+00  0.00000000000E+00 -0.15843396141E+04  0.15843396141E+04  0.25500000920E-02 0. -1.
    10030    2    1    2    0    0  0.00000000000E+00  0.00000000000E+00 -0.10740280502E+04  0.20946511781E+04  0.17983401528E+04 0.  0.
        4    1    3    3  502    0  0.42144194478E+03 -0.59938026022E+03  0.70047762321E+02  0.73605591572E+03  0.12699999809E+01 0.  1.
       -4    1    3    3    0  502 -0.42144194478E+03  0.59938026022E+03 -0.11440758125E+04  0.13585952623E+04  0.12699999809E+01 0. -1.
</event>
<event>
 5   0  0.2038338E-05  0.1797006E+04  0.7818609E-02  0.8707893E-01
        1   -1    0    0  501    0  0.00000000000E+00  0.00000000000E+00  0.75657522710E+03  0.75657522711E+03  0.50400001928E-02 0. -1.
       -1   -1    0    0    0  501  0.00000000000E+00  0.00000000000E+00 -0.10670555326E+04  0.10670555326E+04  0.50400001928E-02 0.  1.
    10030    2    1    2    0    0  0.00000000000E+00  0.00000000000E+00 -0.31048030547E+03  0.18236307597E+04  0.17970061568E+04 0.  0.
        1    1    3    3  502    0 -0.78689134566E+01  0.49515361920E+03  0.60558010204E+03  0.78228274071E+03  0.50400001928E-02 0. -1.
       -1    1    3    3    0  502  0.78689134566E+01 -0.49515361920E+03 -0.91606040751E+03  0.10413480190E+04  0.50400001928E-02 0.  1.
</event>
<event>
 5   0  0.3993393E-05  0.1803605E+04  0.7818609E-02  0.8704385E-01
        2   -1    0    0  501    0  0.00000000000E+00  0.00000000000E+00  0.19488929857E+04  0.19488929857E+04  0.25500000920E-02 0. -1.
       -2   -1    0    0    0  501  0.00000000000E+00  0.00000000000E+00 -0.41728700534E+03  0.41728700535E+03  0.25500000920E-02 0.  1.
    10030    2    1    2    0    0  0.00000000000E+00  0.00000000000E+00  0.15316059804E+04  0.23661799911E+04  0.18036049654E+04 0.  0.
        5    1    3    3  502    0  0.54869712125E+03 -0.10983026023E+03 -0.16194998487E+03  0.58256424927E+03  0.46999998093E+01 0.  1.
       -5    1    3    3    0  502 -0.54869712125E+03  0.10983026023E+03  0.16935559653E+04  0.17836157418E+04  0.46999998093E+01 0. -1.
</event>
<event>
 5   0  0.1446750E-05  0.1795134E+04  0.7818609E-02  0.8708892E-01
       -3   -1    0    0    0  501  0.00000000000E+00  0.00000000000E+00  0.53169828344E+03  0.53169829303E+03  0.10100000352E+00 0. -1.
        3   -1    0    0  501    0  0.00000000000E+00  0.00000000000E+00 -0.15151943212E+04  0.15151943245E+04  0.10100000352E+00 0.  1.
    10030    2    1    2    0    0  0.00000000000E+00  0.00000000000E+00 -0.98349603774E+03  0.20468926176E+04  0.17951336807E+04 0.  0.
        5    1    3    3  502    0 -0.31747373745E+03  0.19717874850E+03 -0.14222433979E+04  0.14705330346E+04  0.46999998093E+01 0.  1.
       -5    1    3    3    0  502  0.31747373745E+03 -0.19717874850E+03  0.43874736019E+03  0.57635958299E+03  0.46999998093E+01 0. -1.
</event>
<event>
 5   0  0.3984648E-05  0.1803718E+04  0.7818609E-02  0.8704325E-01
       -2   -1    0    0    0  501  0.00000000000E+00  0.00000000000E+00  0.56544870751E+03  0.56544870751E+03  0.25500000920E-02 0. -1.
        2   -1    0    0  501    0  0.00000000000E+00  0.00000000000E+00 -0.14384149020E+04  0.14384149020E+04  0.25500000920E-02 0.  1.
    10030    2    1    2    0    0  0.00000000000E+00  0.00000000000E+00 -0.87296619454E+03  0.20038636096E+04  0.18037182122E+04 0.  0.
        1    1    3    3  502    0  0.25445374982E+03 -0.81990488135E+03 -0.74347712797E+03  0.11356711518E+04  0.50400001928E-02 0.  1.
       -1    1    3    3    0  502 -0.25445374982E+03  0.81990488135E+03 -0.12948906657E+03  0.86819245773E+03  0.50400001928E-02 0. -1.
</event>
<event>
 5   0  0.3983176E-05  0.1800739E+04  0.7818609E-02  0.8705906E-01
        2   -1    0    0  501    0  0.00000000000E+00  0.00000000000E+00  0.13621152509E+04  0.13621152509E+04  0.25500000920E-02 0.  1.
       -2   -1    0    0    0  501  0.00000000000E+00  0.00000000000E+00 -0.59515196535E+03  0.59515196536E+03  0.25500000920E-02 0. -1.
    10030    2    1    2    0    0  0.00000000000E+00  0.00000000000E+00  0.76696328553E+03  0.19572672162E+04  0.18007393688E+04 0.  0.
        3    1    3    3  502    0 -0.55407705804E+03 -0.54719025681E+03 -0.10773955554E+03  0.78614654195E+03  0.10100000352E+00 0.  1.
       -3    1    3    3    0  502  0.55407705804E+03  0.54719025681E+03  0.87470284107E+03  0.11711206743E+04  0.10100000352E+00 0. -1.
</event>
<event>
 5   0  0.2038338E-05  0.1799896E+04  0.7818609E-02  0.8706355E-01
        1   -1    0    0  501    0  0.00000000000E+00  0.00000000000E+00  0.55397048071E+03  0.55397048073E+03  0.50400001928E-02 0.  1.
       -1   -1    0    0    0  501  0.00000000000E+00  0.00000000000E+00 -0.14620021948E+04  0.14620021948E+04  0.50400001928E-02 0. -1.
    10030    2    1    2    0    0  0.00000000000E+00  0.00000000000E+00 -0.90803171408E+03  0.20159726755E+04  0.17998956177E+04 0.  0.
        1    1    3    3  502    0 -0.60454866296E+03 -0.10212072644E+03  0.28385668751E+03  0.67563477391E+03  0.50400001928E-02 0.  1.
       -1    1    3    3    0  502  0.60454866296E+03  0.10212072644E+03 -0.11918884016E+04  0.13403379016E+04  0.50400001928E-02 0. -1.
</event>
<event>
 5   0  0.2001811E-05  0.1793094E+04  0.7818609E-02  0.8709981E-01
       -1   -1    0    0    0  501  0.00000000000E+00  0.00000000000E+00  0.23054235021E+04  0.23054235022E+04  0.50400001928E-02 0.  1.
        1   -1    0    0  501    0  0.00000000000E+00  0.00000000000E+00 -0.34865446663E+03  0.34865446666E+03  0.50400001928E-02 0. -1.
    10030    2    1    2    0    0  0.00000000000E+00  0.00000000000E+00  0.19567690355E+04  0.26540779688E+04  0.17930936412E+04 0.  0.
        2    1    3    3  502    0  0.78869853096E+03  0.26179017599E+03  0.14764265711E+04  0.16942298808E+04  0.25500000920E-02 0.  1.
       -2    1    3    3    0  502 -0.78869853096E+03 -0.26179017599E+03  0.48034246439E+03  0.95984808803E+03  0.25500000920E-02 0. -1.
</event>
<event>
 5   0  0.3984648E-05  0.1797510E+04  0.7818609E-02  0.8707625E-01
       -2   -1    0    0    0  501  0.00000000000E+00  0.00000000000E+00  0.45195877115E+03  0.45195877116E+03  0.25500000920E-02 0. -1.
        2   -1    0    0  501    0  0.00000000000E+00  0.00000000000E+00 -0.17872444963E+04  0.17872444963E+04  0.25500000920E-02 0.  1.
    10030    2    1    2    0    0  0.00000000000E+00  0.00000000000E+00 -0.13352857252E+04  0.22392032675E+04  0.17975103074E+04 0.  0.
        1    1    3    3  502    0 -0.59895806251E+03 -0.62956847127E+03 -0.38179418468E+03  0.94914383533E+03  0.50400001928E-02 0.  1.
       -1    1    3    3    0  502  0.59895806251E+03  0.62956847127E+03 -0.95349154048E+03  0.12900594321E+04  0.50400001928E-02 0. -1.
</event>
<event>
 5   0  0.3983176E-05  0.1795046E+04  0.7818609E-02  0.8708938E-01
        2   -1    0    0  501    0  0.00000000000E+00  0.00000000000E+00  0.76304652241E+03  0.76304652242E+03  0.25500000920E-02 0. -1.
       -2   -1    0    0    0  501  0.00000000000E+00  0.00000000000E+00 -0.10556996739E+04  0.10556996739E+04  0.25500000920E-02 0.  1.
    10030    2    1    2    0    0  0.00000000000E+00  0.00000000000E+00 -0.29265315151E+03  0.18187461963E+04  0.17950464784E+04 0.  0.
        3    1    3    3  502    0 -0.44899235584E+03 -0.76650922621E+03 -0.27614876355E+03  0.93026269369E+03  0.10100000352E+00 0.  1.
       -3    1    3    3    0  502  0.44899235584E+03  0.76650922621E+03 -0.16504387962E+02  0.88848350265E+03  0.10100000352E+00 0. -1.
</event>
<event>
 5   0  0.2054876E-05  0.1799157E+04  0.7818609E-02  0.8706748E-01
        1   -1    0    0  501    0  0.00000000000E+00  0.00000000000E+00  0.15270214309E+04  0.15270214309E+04  0.50400001928E-02 0. -1.
       -1   -1    0    0    0  501  0.00000000000E+00  0.00000000000E+00 -0.52994757510E+03  0.52994757512E+03  0.50400001928E-02 0.  1.
    10030    2    1    2    0    0  0.00000000000E+00  0.00000000000E+00  0.99707385581E+03  0.20569690060E+04  0.17991568075E+04 0.  0.
        5    1    3    3  502    0 -0.66792366036E+03 -0.41990132564E+03  0.99264733859E+03  0.12679944669E+04  0.46999998093E+01 0.  1.
       -5    1    3    3    0  502  0.66792366036E+03  0.41990132564E+03  0.44265172263E+01  0.78897453912E+03  0.46999998093E+01 0. -1.
</event>
<event>
 5   0  0.3983176E-05  0.1805418E+04  0.7818609E-02  0.8703423E-01
       -2   -1    0    0    0  501  0.00000000000E+00  0.00000000000E+00  0.31434471625E+03  0.31434471626E+03  0.25500000920E-02 0.  1.
        2   -1    0    0  501    0  0.00000000000E+00  0.00000000000E+00 -0.25923259301E+04  0.25923259301E+04  0.25500000920E-02 0. -1.
    10030    2    1    2    0    0  0.00000000000E+00  0.00000000000E+00 -0.22779812138E+04  0.29066706463E+04  0.18054184655E+04 0.  0.
        3    1    3    3  502    0  0.12444926516E+03  0.87974518176E+03 -0.13958035987E+04  0.16546017348E+04  0.10100000352E+00 0. -1.
       -3    1    3    3    0  502 -0.12444926516E+03 -0.87974518176E+03 -0.88217761512E+03  0.12520689115E+04  0.10100000352E+00 0.  1.
</event>
<event>
 5   0  0.1906857E-05  0.1800561E+04  0.7818609E-02  0.8706001E-01
       -1   -1    0    0    0  501  0.00000000000E+00  0.00000000000E+00  0.50795168132E+03  0.50795168135E+03  0.50400001928E-02 0. -1.
        1   -1    0    0  501    0  0.00000000000E+00  0.00000000000E+00 -0.15956332674E+04  0.15956332675E+04  0.50400001928E-02 0.  1.
    10030    2    1    2    0    0  0.00000000000E+00  0.00000000000E+00 -0.10876815861E+04  0.21035849488E+04  0.18005605805E+04 0.  0.
        4    1    3    3  502    0 -0.18634466801E+03  0.67568868871E+03  0.11624397231E+03  0.71048843294E+03  0.12699999809E+01 0. -1.
       -4    1    3    3    0  502  0.18634466801E+03 -0.67568868871E+03 -0.12039255584E+04  0.13930965159E+04  0.12699999809E+01 0.  1.
</event>
<event>
 5   0  0.1906857E-05  0.1801575E+04  0.7818609E-02  0.8705462E-01
       -1   -1    0    0    0  501  0.00000000000E+00  0.00000000000E+00  0.76679362688E+03  0.76679362689E+03  0.50400001928E-02 0. -1.
        1   -1    0    0  501    0  0.00000000000E+00  0.00000000000E+00 -0.10581966029E+04  0.10581966029E+04  0.50400001928E-02 0.  1.
    10030    2    1    2    0    0  0.00000000000E+00  0.00000000000E+00 -0.29140297603E+03  0.18249902298E+04  0.18015753230E+04 0.  0.
        4    1    3    3  502    0 -0.14298750524E+03 -0.88735259160E+03 -0.85118261801E+02  0.90282156590E+03  0.12699999809E+01 0. -1.
       -4    1    3    3    0  502  0.14298750524E+03  0.88735259160E+03 -0.20628471423E+03  0.92216866391E+03  0.12699999809E+01 0.  1.
</event>
<event>
 5   0  0.3983176E-05  0.1782247E+04  0.7818609E-02  0.8715798E-01
       -2   -1    0    0    0  501  0.00000000000E+00  0.00000000000E+00  0.63236000353E+03  0.63236000353E+03  0.25500000920E-02 0.  1.
        2   -1    0    0  501    0  0.00000000000E+00  0.00000000000E+00 -0.12557741066E+04  0.12557741066E+04  0.25500000920E-02 0. -1.
    10030    2    1    2    0    0  0.00000000000E+00  0.00000000000E+00 -0.62341410308E+03  0.18881341101E+04  0.17822472539E+04 0.  0.
        3    1    3    3  502    0  0.85283905147E+03  0.73331945350E+02 -0.57419609259E+03  0.10307342940E+04  0.10100000352E+00 0. -1.
       -3    1    3    3    0  502 -0.85283905147E+03 -0.73331945350E+02 -0.49218010492E+02  0.85739981612E+03  0.10100000352E+00 0.  1.
</event>
<event>
 5   0  0.1960300E-05  0.1799522E+04  0.7818609E-02  0.8706554E-01
        1   -1    0    0  501    0  0.00000000000E+00  0.00000000000E+00  0.16045419514E+04  0.16045419514E+04  0.50400001928E-02 0.  1.
       -1   -1    0    0    0  501  0.00000000000E+00  0.00000000000E+00 -0.50454872283E+03  0.50454872286E+03  0.50400001928E-02 0. -1.
    10030    2    1    2    0    0  0.00000000000E+00  0.00000000000E+00  0.10999932286E+04  0.21090906743E+04  0.17995217057E+04 0.  0.
        3    1    3    3  502    0  0.12248750171E+02 -0.87215930710E+03  0.80879391215E+03  0.11895206982E+04  0.10100000352E+00 0.  1.
       -3    1    3    3    0  502 -0.12248750171E+02  0.87215930710E+03  0.29119931640E+03  0.91956997608E+03  0.10100000352E+00 0. -1.
</event>
<event>
 5   0  0.2038338E-05  0.1800822E+04  0.7818609E-02  0.8705862E-01
       -1   -1    0    0    0  501  0.00000000000E+00  0.00000000000E+00  0.10262107430E+04  0.10262107430E+04  0.50400001928E-02 0.  1.
        1   -1    0    0  501    0  0.00000000000E+00  0.00000000000E+00 -0.79003285794E+03  0.79003285796E+03  0.50400001928E-02 0. -1.
    10030    2    1    2    0    0  0.00000000000E+00  0.00000000000E+00  0.23617788502E+03  0.18162436009E+04  0.18008222635E+04 0.  0.
        1    1    3    3  502    0 -0.47937213821E+02  0.44383024019E+03 -0.67056447202E+03  0.80556810373E+03  0.50400001928E-02 0. -1.
       -1    1    3    3    0  502  0.47937213821E+02 -0.44383024019E+03  0.90674235704E+03  0.10106754972E+04  0.50400001928E-02 0.  1.
</event>
<event>
 5   0  0.1906857E-05  0.1797143E+04  0.7818609E-02  0.8707820E-01
       -1   -1    0    0    0  501  0.00000000000E+00  0.00000000000E+00  0.50919086576E+03  0.50919086578E+03  0.50400001928E-02 0. -1.
        1   -1    0    0  501    0  0.00000000000E+00  0.00000000000E+00 -0.15857136796E+04  0.15857136796E+04  0.50400001928E-02 0.  1.
    10030    2    1    2    0    0  0.00000000000E+00  0.00000000000E+00 -0.10765228138E+04  0.20949045453E+04  0.17971432012E+04 0.  0.
        4    1    3    3  502    0 -0.87878722521E+03 -0.14825983583E+03 -0.67209384041E+03  0.11162256534E+04  0.12699999809E+01 0. -1.
       -4    1    3    3    0  502  0.87878722521E+03  0.14825983583E+03 -0.40442897340E+03  0.97867889194E+03  0.12699999809E+01 0.  1.
</event>
<event>
 5   0  0.4015729E-05  0.1800921E+04  0.7818609E-02  0.8705810E-01
       -2   -1    0    0    0  501  0.00000000000E+00  0.00000000000E+00  0.14606537683E+04  0.14606537683E+04  0.25500000920E-02 0.  1.
        2   -1    0    0  501    0  0.00000000000E+00  0.00000000000E+00 -0.55511381657E+03  0.55511381657E+03  0.25500000920E-02 0. -1.
    10030    2    1    2    0    0  0.00000000000E+00  0.00000000000E+00  0.90553995174E+03  0.20157675849E+04  0.18009209733E+04 0.  0.
        2    1    3    3  502    0 -0.25193660728E+03 -0.22947519449E+02  0.14200602216E+04  0.14424179962E+04  0.25500000920E-02 0.  1.
       -2    1    3    3    0  502  0.25193660728E+03  0.22947519449E+02 -0.51452026987E+03  0.57334958869E+03  0.25500000920E-02 0. -1.
</event>
<event>
 5   0  0.4015729E-05  0.1801421E+04  0.7818609E-02  0.8705544E-01
       -2   -1    0    0    0  501  0.00000000000E+00  0.00000000000E+00  0.44817663152E+03  0.44817663153E+03  0.25500000920E-02 0. -1.
        2   -1    0    0  501    0  0.00000000000E+00  0.00000000000E+00 -0.18101774975E+04  0.18101774975E+04  0.25500000920E-02 0.  1.
    10030    2    1    2    0    0  0.00000000000E+00  0.00000000000E+00 -0.13620008660E+04  0.22583541290E+04  0.18014208318E+04 0.  0.
        2    1    3    3  502    0  0.72845795131E+03  0.25867884902E+03 -0.12605530371E+04  0.14787020299E+04  0.25500000920E-02 0. -1.
       -2    1    3    3    0  502 -0.72845795131E+03 -0.25867884902E+03 -0.10144782889E+03  0.77965209918E+03  0.25500000920E-02 0.  1.
</event>
<event>
 5   0  0.4015729E-05  0.1801699E+04  0.7818609E-02  0.8705396E-01
       -2   -1    0    0    0  501  0.00000000000E+00  0.00000000000E+00  0.42113675767E+03  0.42113675768E+03  0.25500000920E-02 0.  1.
        2   -1    0    0  501    0  0.00000000000E+00  0.00000000000E+00 -0.19269986059E+04  0.19269986059E+04  0.25500000920E-02 0. -1.
    10030    2    1    2    0    0  0.00000000000E+00  0.00000000000E+00 -0.15058618482E+04  0.23481353636E+04  0.18016991369E+04 0.  0.
        2    1    3    3  502    0  0.16849033074E+03 -0.64538399345E+03 -0.15420621057E+04  0.16801383956E+04  0.25500000920E-02 0. -1.
       -2    1    3    3    0  502 -0.16849033074E+03  0.64538399345E+03  0.36200257494E+02  0.66799696796E+03  0.25500000920E-02 0.  1.
</event>
<event>
 5   0  0.2001811E-05  0.1801962E+04  0.7818609E-02  0.8705257E-01
        1   -1    0    0  501    0  0.00000000000E+00  0.00000000000E+00  0.80625490952E+03  0.80625490953E+03  0.50400001928E-02 0.  1.
       -1   -1    0    0    0  501  0.00000000000E+00  0.00000000000E+00 -0.10068358591E+04  0.10068358591E+04  0.50400001928E-02 0. -1.
    10030    2    1    2    0    0  0.00000000000E+00  0.00000000000E+00 -0.20058094959E+03  0.18130907686E+04  0.18019615473E+04 0.  0.
        2    1    3    3  502    0 -0.28711994492E+03  0.60075983077E+03 -0.71101215614E+03  0.97410909205E+03  0.25500000920E-02 0. -1.
       -2    1    3    3    0  502  0.28711994492E+03 -0.60075983077E+03  0.51043120655E+03  0.83898167659E+03  0.25500000920E-02 0.  1.
</event>
<event>
 5   0  0.1906857E-05  0.1818374E+04  0.7818609E-02  0.8696589E-01
       -1   -1    0    0    0  501  0.00000000000E+00  0.00000000000E+00  0.11131373259E+04  0.11131373259E+04  0.50400001928E-02 0.  1.
        1   -1    0    0  501    0  0.00000000000E+00  0.00000000000E+00 -0.74260446571E+03  0.74260446572E+03  0.50400001928E-02 0. -1.
    10030    2    1    2    0    0  0.00000000000E+00  0.00000000000E+00  0.37053286016E+03  0.18557417916E+04  0.18183737230E+04 0.  0.
        4    1    3    3  502    0 -0.54857356794E+03  0.69271640423E+03  0.40374562596E+03  0.97149427148E+03  0.12699999809E+01 0.  1.
       -4    1    3    3    0  502  0.54857356794E+03 -0.69271640423E+03 -0.33212765798E+02  0.88424752012E+03  0.12699999809E+01 0. -1.
</event>
<event>
 5   0  0.1960300E-05  0.1779785E+04  0.7818609E-02  0.8717124E-01
        1   -1    0    0  501    0  0.00000000000E+00  0.00000000000E+00  0.72454707368E+03  0.72454707370E+03  0.50400001928E-02 0. -1.
       -1   -1    0    0    0  501  0.00000000000E+00  0.00000000000E+00 -0.10929707776E+04  0.10929707777E+04  0.50400001928E-02 0.  1.
    10030    2    1    2    0    0  0.00000000000E+00  0.00000000000E+00 -0.36842370396E+03  0.18175178514E+04  0.17797851315E+04 0.  0.
        3    1    3    3  502    0 -0.32638755414E+03 -0.36474347755E+03 -0.94316539967E+03  0.10626041696E+04  0.10100000352E+00 0.  1.
       -3    1    3    3    0  502  0.32638755414E+03  0.36474347755E+03  0.57474169571E+03  0.75491368176E+03  0.10100000352E+00 0. -1.
</event>
<event>
 5   0  0.3993393E-05  0.1797089E+04  0.7818609E-02  0.8707849E-01
       -2   -1    0    0    0  501  0.00000000000E+00  0.00000000000E+00  0.46897565929E+03  0.46897565930E+03  0.25500000920E-02 0. -1.
        2   -1    0    0  501    0  0.00000000000E+00  0.00000000000E+00 -0.17215858340E+04  0.17215858340E+04  0.25500000920E-02 0.  1.
    10030    2    1    2    0    0  0.00000000000E+00  0.00000000000E+00 -0.12526101748E+04  0.21905614933E+04  0.17970885916E+04 0.  0.
        5    1    3    3  502    0  0.17442837592E+03  0.76180659970E+03 -0.11667623784E+04  0.14043258494E+04  0.46999998093E+01 0.  1.
       -5    1    3    3    0  502 -0.17442837592E+03 -0.76180659970E+03 -0.85847796367E+02  0.78623564394E+03  0.46999998093E+01 0. -1.
</event>
<event>
 5   0  0.1906857E-05  0.1799208E+04  0.7818609E-02  0.8706721E-01
       -1   -1    0    0    0  501  0.00000000000E+00  0.00000000000E+00  0.43564907813E+03  0.43564907816E+03  0.50400001928E-02 0. -1.
        1   -1    0    0  501    0  0.00000000000E+00  0.00000000000E+00 -0.18576597148E+04  0.18576597148E+04  0.50400001928E-02 0.  1.
    10030    2    1    2    0    0  0.00000000000E+00  0.00000000000E+00 -0.14220106367E+04  0.22933087930E+04  0.17992084285E+04 0.  0.
        4    1    3    3  502    0  0.14543326859E+03  0.19128116619E+03 -0.18159971737E+04  0.18318260474E+04  0.12699999809E+01 0.  1.
       -4    1    3    3    0  502 -0.14543326859E+03 -0.19128116619E+03  0.39398653705E+03  0.46148274554E+03  0.12699999809E+01 0. -1.
</event>
<event>
 5   0  0.3993393E-05  0.1799643E+04  0.7818609E-02  0.8706489E-01
        2   -1    0    0  501    0  0.00000000000E+00  0.00000000000E+00  0.15830539034E+04  0.15830539034E+04  0.25500000920E-02 0.  1.
       -2   -1    0    0    0  501  0.00000000000E+00  0.00000000000E+00 -0.51146653989E+03  0.51146653990E+03  0.25500000920E-02 0. -1.
    10030    2    1    2    0    0  0.00000000000E+00  0.00000000000E+00  0.10715873635E+04  0.20945204433E+04  0.17996434118E+04 0.  0.
        5    1    3    3  502    0  0.78280437989E+03  0.37037129612E+03  0.25142406522E+03  0.90177255710E+03  0.46999998093E+01 0. -1.
       -5    1    3    3    0  502 -0.78280437989E+03 -0.37037129612E+03  0.82016329830E+03  0.11927478862E+04  0.46999998093E+01 0.  1.
</event>
<event>
 5   0  0.1906857E-05  0.1799404E+04  0.7818609E-02  0.8706616E-01
        1   -1    0    0  501    0  0.00000000000E+00  0.00000000000E+00  0.18973943410E+04  0.18973943410E+04  0.50400001928E-02 0. -1.
       -1   -1    0    0    0  501  0.00000000000E+00  0.00000000000E+00 -0.42661867965E+03  0.42661867968E+03  0.50400001928E-02 0.  1.
    10030    2    1    2    0    0  0.00000000000E+00  0.00000000000E+00  0.14707756613E+04  0.23240130207E+04  0.17994041998E+04 0.  0.
        4    1    3    3  502    0  0.30310369557E+02  0.68233183228E+03  0.14917605785E+04  0.16406848217E+04  0.12699999809E+01 0. -1.
       -4    1    3    3    0  502 -0.30310369557E+02 -0.68233183228E+03 -0.20984917126E+02  0.68332819896E+03  0.12699999809E+01 0.  1.
</event>
<event>
 5   0  0.2054876E-05  0.1799286E+04  0.7818609E-02  0.8706679E-01
        1   -1    0    0  501    0  0.00000000000E+00  0.00000000000E+00  0.12451735519E+04  0.12451735519E+04  0.50400001928E-02 0.  1.
       -1   -1    0    0    0  501  0.00000000000E+00  0.00000000000E+00 -0.64999580522E+03  0.64999580524E+03  0.50400001928E-02 0. -1.
    10030    2    1    2    0    0  0.00000000000E+00  0.00000000000E+00  0.59517774669E+03  0.18951693572E+04  0.17992860646E+04 0.  0.
        5    1    3    3  502    0 -0.45460990354E+03  0.69910707191E+03  0.65308720528E+03  0.10592288941E+04  0.46999998093E+01 0.  1.
       -5    1    3    3    0  502  0.45460990354E+03 -0.69910707191E+03 -0.57909458592E+02  0.83594046306E+03  0.46999998093E+01 0. -1.
</event>
<event>
 5   0  0.1960300E-05  0.1800558E+04  0.7818609E-02  0.8706003E-01
        1   -1    0    0  501    0  0.00000000000E+00  0.00000000000E+00  0.15172609769E+04  0.15172609769E+04  0.50400001928E-02 0.  1.
       -1   -1    0    0    0  501  0.00000000000E+00  0.00000000000E+00 -0.53418761867E+03  0.53418761870E+03  0.50400001928E-02 0. -1.
    10030    2    1    2    0    0  0.00000000000E+00  0.00000000000E+00  0.98307335823E+03  0.20514485956E+04  0.18005577227E+04 0.  0.
        3    1    3    3  502    0 -0.47860072702E+03 -0.66003767607E+03  0.56503017729E+02  0.81725209755E+03  0.10100000352E+00 0. -1.
       -3    1    3    3    0  502  0.47860072702E+03  0.66003767607E+03  0.92657034050E+03  0.12341964981E+04  0.10100000352E+00 0.  1.
</event>
<event>
 5   0  0.2038338E-05  0.1801939E+04  0.7818609E-02  0.8705269E-01
       -1   -1    0    0    0  501  0.00000000000E+00  0.00000000000E+00  0.51009540414E+03  0.51009540416E+03  0.50400001928E-02 0.  1.
        1   -1    0    0  501    0  0.00000000000E+00  0.00000000000E+00 -0.15913612334E+04  0.15913612334E+04  0.50400001928E-02 0. -1.
    10030    2    1    2    0    0  0.00000000000E+00  0.00000000000E+00 -0.10812658293E+04  0.21014566376E+04  0.18019390129E+04 0.  0.
        1    1    3    3  502    0  0.53528334264E+03 -0.45917208328E+03  0.11326050318E+03  0.71427949752E+03  0.50400001928E-02 0. -1.
       -1    1    3    3    0  502 -0.53528334264E+03  0.45917208328E+03 -0.11945263325E+04  0.13871771401E+04  0.50400001928E-02 0.  1.
</event>
<event>
 5   0  0.3909859E-05  0.1846784E+04  0.7818609E-02  0.8681809E-01
        2   -1    0    0  501    0  0.00000000000E+00  0.00000000000E+00  0.55307160801E+03  0.55307160801E+03  0.25500000920E-02 0. -1.
       -2   -1    0    0    0  501  0.00000000000E+00  0.00000000000E+00 -0.15416673470E+04  0.15416673470E+04  0.25500000920E-02 0.  1.
    10030    2    1    2    0    0  0.00000000000E+00  0.00000000000E+00 -0.98859573898E+03  0.20947389550E+04  0.18467836242E+04 0.  0.
        4    1    3    3  502    0  0.71503657996E+03  0.22135270485E+03  0.11901929912E+03  0.75791921541E+03  0.12699999809E+01 0. -1.
       -4    1    3    3    0  502 -0.71503657996E+03 -0.22135270485E+03 -0.11076150381E+04  0.13368197396E+04  0.12699999809E+01 0.  1.
</event>
<event>
 5   0  0.4015729E-05  0.1798699E+04  0.7818609E-02  0.8706991E-01
       -2   -1    0    0    0  501  0.00000000000E+00  0.00000000000E+00  0.88193945512E+03  0.88193945512E+03  0.25500000920E-02 0. -1.
        2   -1    0    0  501    0  0.00000000000E+00  0.00000000000E+00 -0.91710362822E+03  0.91710362822E+03  0.25500000920E-02 0.  1.
    10030    2    1    2    0    0  0.00000000000E+00  0.00000000000E+00 -0.35164173103E+02  0.17990430833E+04  0.17986993903E+04 0.  0.
        2    1    3    3  502    0  0.87192988910E+03  0.17093285816E+03 -0.15671330571E+03  0.90224100644E+03  0.25500000920E-02 0.  1.
       -2    1    3    3    0  502 -0.87192988910E+03 -0.17093285816E+03  0.12154913260E+03  0.89680207691E+03  0.25500000920E-02 0. -1.
</event>
<event>
 5   0  0.1960300E-05  0.1801444E+04  0.7818609E-02  0.8705532E-01
       -1   -1    0    0    0  501  0.00000000000E+00  0.00000000000E+00  0.62599217111E+03  0.62599217113E+03  0.50400001928E-02 0. -1.
        1   -1    0    0  501    0  0.00000000000E+00  0.00000000000E+00 -0.12960226543E+04  0.12960226543E+04  0.50400001928E-02 0.  1.
    10030    2    1    2    0    0  0.00000000000E+00  0.00000000000E+00 -0.67003048320E+03  0.19220148255E+04  0.18014439044E+04 0.  0.
        3    1    3    3  502    0 -0.23553333909E+03 -0.86114777329E+03 -0.46237195406E+03  0.10054050305E+04  0.10100000352E+00 0.  1.
       -3    1    3    3    0  502  0.23553333909E+03  0.86114777329E+03 -0.20765852915E+03  0.91660979495E+03  0.10100000352E+00 0. -1.
</event>
<event>
 5   0  0.3983176E-05  0.1803114E+04  0.7818609E-02  0.8704645E-01
        2   -1    0    0  501    0  0.00000000000E+00  0.00000000000E+00  0.10730725020E+04  0.10730725020E+04  0.25500000920E-02 0.  1.
       -2   -1    0    0    0  501  0.00000000000E+00  0.00000000000E+00 -0.75745574224E+03  0.75745574224E+03  0.25500000920E-02 0. -1.
    10030    2    1    2    0    0  0.00000000000E+00  0.00000000000E+00  0.31561675975E+03  0.18305282442E+04  0.18031138938E+04 0.  0.
        3    1    3    3  502    0 -0.40529503053E+03  0.36280924424E+03  0.88770419083E+03  0.10411115935E+04  0.10100000352E+00 0.  1.
       -3    1    3    3    0  502  0.40529503053E+03 -0.36280924424E+03 -0.57208743108E+03  0.78941665075E+03  0.10100000352E+00 0. -1.
</event>
<event>
 5   0  0.2038338E-05  0.1790531E+04  0.7818609E-02  0.8711351E-01
        1   -1    0    0  501    0  0.00000000000E+00  0.00000000000E+00  0.16492986180E+04  0.16492986180E+04  0.50400001928E-02 0. -1.
       -1   -1    0    0    0  501  0.00000000000E+00  0.00000000000E+00 -0.48596442010E+03  0.48596442012E+03  0.50400001928E-02 0.  1.
    10030    2    1    2    0    0  0.00000000000E+00  0.00000000000E+00  0.11633341979E+04  0.21352630381E+04  0.17905311463E+04 0.  0.
        1    1    3    3  502    0 -0.33731390152E+03 -0.23576903651E+03 -0.36647546748E+03  0.55106440189E+03  0.50400001928E-02 0.  1.
       -1    1    3    3    0  502  0.33731390152E+03  0.23576903651E+03  0.15298096653E+04  0.15841986362E+04  0.50400001928E-02 0. -1.
</event>
<event>
 5   0  0.1906857E-05  0.1796351E+04  0.7818609E-02  0.8708242E-01
       -1   -1    0    0    0  501  0.00000000000E+00  0.00000000000E+00  0.80400711902E+03  0.80400711903E+03  0.50400001928E-02 0.  1.
        1   -1    0    0  501    0  0.00000000000E+00  0.00000000000E+00 -0.10033731319E+04  0.10033731319E+04  0.50400001928E-02 0. -1.
    10030    2    1    2    0    0  0.00000000000E+00  0.00000000000E+00 -0.19936601291E+03  0.18073802510E+04  0.17963509024E+04 0.  0.
        4    1    3    3  502    0 -0.39207358060E+02 -0.86859561815E+03  0.12691515629E+03  0.87869484725E+03  0.12699999809E+01 0.  1.
       -4    1    3    3    0  502  0.39207358060E+02  0.86859561815E+03 -0.32628116920E+03  0.92868540371E+03  0.12699999809E+01 0. -1.
</event>
<event>
 5   0  0.2054876E-05  0.1799663E+04  0.7818609E-02  0.8706479E-01
        1   -1    0    0  501    0  0.00000000000E+00  0.00000000000E+00  0.22109145859E+04  0.22109145859E+04  0.50400001928E-02 0. -1.
       -1   -1    0    0    0  501  0.00000000000E+00  0.00000000000E+00 -0.36622719129E+03  0.36622719132E+03  0.50400001928E-02 0.  1.
    10030    2    1    2    0    0  0.00000000000E+00  0.00000000000E+00  0.18446873946E+04  0.25771417772E+04  0.17996633452E+04 0.  0.
        5    1    3    3  502    0 -0.89214667276E+03  0.10152695191E+03  0.10063522563E+04  0.13487032147E+04  0.46999998093E+01 0. -1.
       -5    1    3    3    0  502  0.89214667276E+03 -0.10152695191E+03  0.83833513830E+03  0.12284385625E+04  0.46999998093E+01 0.  1.
</event>
<event>
 5   0  0.3983176E-05  0.1796449E+04  0.7818609E-02  0.8708190E-01
       -2   -1    0    0    0  501  0.00000000000E+00  0.00000000000E+00  0.66934563664E+03  0.66934563664E+03  0.25500000920E-02 0. -1.
        2   -1    0    0  501    0  0.00000000000E+00  0.00000000000E+00 -0.12053668811E+04  0.12053668811E+04  0.25500000920E-02 0.  1.
    10030    2    1    2    0    0  0.00000000000E+00  0.00000000000E+00 -0.53602124447E+03  0.18747125178E+04  0.17964487885E+04 0.  0.
        3    1    3    3  502    0  0.50164830313E+03  0.61827848318E+03  0.16590166509E+03  0.81329126116E+03  0.10100000352E+00 0.  1.
       -3    1    3    3    0  502 -0.50164830313E+03 -0.61827848318E+03 -0.70192290956E+03  0.10614212566E+04  0.10100000352E+00 0. -1.
</event>
<event>
 5   0  0.2038338E-05  0.1803340E+04  0.7818609E-02  0.8704525E-01
        1   -1    0    0  501    0  0.00000000000E+00  0.00000000000E+00  0.11863394543E+04  0.11863394544E+04  0.50400001928E-02 0.  1.
       -1   -1    0    0    0  501  0.00000000000E+00  0.00000000000E+00 -0.68530855132E+03  0.68530855134E+03  0.50400001928E-02 0. -1.
    10030    2    1    2    0    0  0.00000000000E+00  0.00000000000E+00  0.50103090302E+03  0.18716480057E+04  0.18033397604E+04 0.  0.
        1    1    3    3  502    0 -0.72080083218E+03 -0.50582177887E+03  0.49265808735E+02  0.88195047003E+03  0.50400001928E-02 0. -1.
       -1    1    3    3    0  502  0.72080083218E+03  0.50582177887E+03  0.45176509429E+03  0.98969753566E+03  0.50400001928E-02 0.  1.
</event>
<event>
 5   0  0.3984648E-05  0.1812430E+04  0.7818609E-02  0.8699717E-01
        2   -1    0    0  501    0  0.00000000000E+00  0.00000000000E+00  0.97593857674E+03  0.97593857675E+03  0.25500000920E-02 0.  1.
       -2   -1    0    0    0  501  0.00000000000E+00  0.00000000000E+00 -0.84147270496E+03  0.84147270496E+03  0.25500000920E-02 0. -1.
    10030    2    1    2    0    0  0.00000000000E+00  0.00000000000E+00  0.13446587179E+03  0.18174112817E+04  0.18124300528E+04 0.  0.
        1    1    3    3  502    0  0.71463132615E+03 -0.54857237777E+02 -0.48883459332E+03  0.86756354724E+03  0.50400001928E-02 0. -1.
       -1    1    3    3    0  502 -0.71463132615E+03  0.54857237777E+02  0.62330046511E+03  0.94984773447E+03  0.50400001928E-02 0.  1.
</event>
<event>
 5   0  0.1906857E-05  0.1801921E+04  0.7818609E-02  0.8705278E-01
       -1   -1    0    0    0  501  0.00000000000E+00  0.00000000000E+00  0.49820656108E+03  0.49820656111E+03  0.50400001928E-02 0. -1.
        1   -1    0    0  501    0  0.00000000000E+00  0.00000000000E+00 -0.16293045692E+04  0.16293045693E+04  0.50400001928E-02 0.  1.
    10030    2    1    2    0    0  0.00000000000E+00  0.00000000000E+00 -0.11310980082E+04  0.21275111304E+04  0.18019214483E+04 0.  0.
        4    1    3    3  502    0 -0.36610994162E+03 -0.60894029460E+02  0.40375675440E+03  0.54842109897E+03  0.12699999809E+01 0. -1.
       -4    1    3    3    0  502  0.36610994162E+03  0.60894029460E+02 -0.15348547626E+04  0.15790900314E+04  0.12699999809E+01 0.  1.
</event>
<event>
 5   0  0.2054876E-05  0.1796768E+04  0.7818609E-02  0.8708020E-01
        1   -1    0    0  501    0  0.00000000000E+00  0.00000000000E+00  0.86005231578E+03  0.86005231579E+03  0.50400001928E-02 0.  1.
       -1   -1    0    0    0  501  0.00000000000E+00  0.00000000000E+00 -0.93842459990E+03  0.93842459991E+03  0.50400001928E-02 0. -1.
    10030    2    1    2    0    0  0.00000000000E+00  0.00000000000E+00 -0.78372284122E+02  0.17984769157E+04  0.17967684885E+04 0.  0.
        5    1    3    3  502    0 -0.39033676439E+03 -0.56226527869E+03  0.54323232858E+03  0.87385839016E+03  0.46999998093E+01 0.  1.
       -5    1    3    3    0  502  0.39033676439E+03  0.56226527869E+03 -0.62160461270E+03  0.92461852554E+03  0.46999998093E+01 0. -1.
</event>
<event>
 5   0  0.2001811E-05  0.1799049E+04  0.7818609E-02  0.8706806E-01
        1   -1    0    0  501    0  0.00000000000E+00  0.00000000000E+00  0.15393903190E+04  0.15393903190E+04  0.50400001928E-02 0. -1.
       -1   -1    0    0    0  501  0.00000000000E+00  0.00000000000E+00 -0.52562627364E+03  0.52562627367E+03  0.50400001928E-02 0.  1.
    10030    2    1    2    0    0  0.00000000000E+00  0.00000000000E+00  0.10137640454E+04  0.20650165927E+04  0.17990486343E+04 0.  0.
        2    1    3    3  502    0 -0.25970456491E+03 -0.37339628574E+03  0.13976759518E+04  0.14698194833E+04  0.25500000920E-02 0. -1.
       -2    1    3    3    0  502  0.25970456491E+03  0.37339628574E+03 -0.38391190637E+03  0.59519710945E+03  0.25500000920E-02 0.  1.
</event>
<event>
 5   0  0.2001811E-05  0.1800550E+04  0.7818609E-02  0.8706007E-01
       -1   -1    0    0    0  501  0.00000000000E+00  0.00000000000E+00  0.85357969915E+03  0.85357969917E+03  0.50400001928E-02 0.  1.
        1   -1    0    0  501    0  0.00000000000E+00  0.00000000000E+00 -0.94952520080E+03  0.94952520081E+03  0.50400001928E-02 0. -1.
    10030    2    1    2    0    0  0.00000000000E+00  0.00000000000E+00 -0.95945501647E+02  0.18031049000E+04  0.18005503995E+04 0.  0.
        2    1    3    3  502    0  0.62327291835E+03 -0.53887084263E+03  0.31537050468E+03  0.88221849392E+03  0.25500000920E-02 0.  1.
       -2    1    3    3    0  502 -0.62327291835E+03  0.53887084263E+03 -0.41131600632E+03  0.92088640605E+03  0.25500000920E-02 0. -1.
</event>
<event>
 5   0  0.2054876E-05  0.1801409E+04  0.7818609E-02  0.8705551E-01
        1   -1    0    0  501    0  0.00000000000E+00  0.00000000000E+00  0.95630666413E+03  0.95630666414E+03  0.50400001928E-02 0. -1.
       -1   -1    0    0    0  501  0.00000000000E+00  0.00000000000E+00 -0.84833512725E+03  0.84833512726E+03  0.50400001928E-02 0.  1.
    10030    2    1    2    0    0  0.00000000000E+00  0.00000000000E+00  0.10797153688E+03  0.18046417914E+04  0.18014089326E+04 0.  0.
        5    1    3    3  502    0 -0.87752490060E+03  0.79410714163E+02  0.24111079617E+03  0.91351656729E+03  0.46999998093E+01 0.  1.
       -5    1    3    3    0  502  0.87752490060E+03 -0.79410714163E+02 -0.13313925929E+03  0.89112522411E+03  0.46999998093E+01 0. -1.
</event>
<event>
 5   0  0.4015729E-05  0.1804643E+04  0.7818609E-02  0.8703834E-01
       -2   -1    0    0    0  501  0.00000000000E+00  0.00000000000E+00  0.33317051203E+03  0.33317051204E+03  0.25500000920E-02 0.  1.
        2   -1    0    0  501    0  0.00000000000E+00  0.00000000000E+00 -0.24437463799E+04  0.24437463799E+04  0.25500000920E-02 0. -1.
    10030    2    1    2    0    0  0.00000000000E+00  0.00000000000E+00 -0.21105758679E+04  0.27769168920E+04  0.18046431588E+04 0.  0.
        2    1    3    3  502    0  0.78253809825E+03  0.34474353215E+03 -0.61205425374E+03  0.10515818502E+04  0.25500000920E-02 0.  1.
       -2    1    3    3    0  502 -0.78253809825E+03 -0.34474353215E+03 -0.14985216142E+04  0.17253350418E+04  0.25500000920E-02 0. -1.
</event>
<event>
 5   0  0.2038338E-05  0.1798916E+04  0.7818609E-02  0.8706876E-01
        1   -1    0    0  501    0  0.00000000000E+00  0.00000000000E+00  0.72685298944E+03  0.72685298945E+03  0.50400001928E-02 0. -1.
       -1   -1    0    0    0  501  0.00000000000E+00  0.00000000000E+00 -0.11130510273E+04  0.11130510274E+04  0.50400001928E-02 0.  1.
    10030    2    1    2    0    0  0.00000000000E+00  0.00000000000E+00 -0.38619803791E+03  0.18399040168E+04  0.17989157475E+04 0.  0.
        1    1    3    3  502    0  0.49760493924E+03  0.74875539737E+03 -0.16454983106E+03  0.91395949997E+03  0.50400001928E-02 0.  1.
       -1    1    3    3    0  502 -0.49760493924E+03 -0.74875539737E+03 -0.22164820685E+03  0.92594451684E+03  0.50400001928E-02 0. -1.
</event>
<event>
 5   0  0.2038338E-05  0.1808261E+04  0.7818609E-02  0.8701919E-01
        1   -1    0    0  501    0  0.00000000000E+00  0.00000000000E+00  0.11089443908E+04  0.11089443908E+04  0.50400001928E-02 0.  1.
       -1   -1    0    0    0  501  0.00000000000E+00  0.00000000000E+00 -0.73714425463E+03  0.73714425465E+03  0.50400001928E-02 0. -1.
    10030    2    1    2    0    0  0.00000000000E+00  0.00000000000E+00  0.37180013613E+03  0.18460886454E+04  0.18082610280E+04 0.  0.
        1    1    3    3  502    0 -0.46855254634E+03  0.76032519405E+03  0.42185601172E+02  0.89410039389E+03  0.50400001928E-02 0.  1.
       -1    1    3    3    0  502  0.46855254634E+03 -0.76032519405E+03  0.32961453496E+03  0.95198825153E+03  0.50400001928E-02 0. -1.
</event>
<event>
 5   0  0.2038338E-05  0.1790379E+04  0.7818609E-02  0.8711433E-01
        1   -1    0    0  501    0  0.00000000000E+00  0.00000000000E+00  0.75195264730E+03  0.75195264732E+03  0.50400001928E-02 0. -1.
       -1   -1    0    0    0  501  0.00000000000E+00  0.00000000000E+00 -0.10657104795E+04  0.10657104795E+04  0.50400001928E-02 0.  1.
    10030    2    1    2    0    0  0.00000000000E+00  0.00000000000E+00 -0.31375783223E+03  0.18176631269E+04  0.17903785258E+04 0.  0.
        1    1    3    3  502    0 -0.21766360464E+02 -0.45703368144E+03  0.62426877288E+03  0.77399293358E+03  0.50400001928E-02 0. -1.
       -1    1    3    3    0  502  0.21766360464E+02  0.45703368144E+03 -0.93802660511E+03  0.10436701933E+04  0.50400001928E-02 0.  1.
</event>
<event>
 5   0  0.3909859E-05  0.1799410E+04  0.7818609E-02  0.8706614E-01
        2   -1    0    0  501    0  0.00000000000E+00  0.00000000000E+00  0.16783067492E+04  0.16783067492E+04  0.25500000920E-02 0.  1.
       -2   -1    0    0    0  501  0.00000000000E+00  0.00000000000E+00 -0.48231273161E+03  0.48231273162E+03  0.25500000920E-02 0. -1.
    10030    2    1    2    0    0  0.00000000000E+00  0.00000000000E+00  0.11959940175E+04  0.21606194808E+04  0.17994095839E+04 0.  0.
        4    1    3    3  502    0 -0.10994074040E+03  0.35695118612E+03  0.15808184777E+04  0.16243428789E+04  0.12699999809E+01 0.  1.
       -4    1    3    3    0  502  0.10994074040E+03 -0.35695118612E+03 -0.38482446020E+03  0.53627660190E+03  0.12699999809E+01 0. -1.
</event>
<event>
 5   0  0.1960300E-05  0.1799151E+04  0.7818609E-02  0.8706751E-01
       -1   -1    0    0    0  501  0.00000000000E+00  0.00000000000E+00  0.65864178843E+03  0.65864178844E+03  0.50400001928E-02 0. -1.
        1   -1    0    0  501    0  0.00000000000E+00  0.00000000000E+00 -0.12286439037E+04  0.12286439037E+04  0.50400001928E-02 0.  1.
    10030    2    1    2    0    0  0.00000000000E+00  0.00000000000E+00 -0.57000211529E+03  0.18872856922E+04  0.17991511533E+04 0.  0.
        3    1    3    3  502    0 -0.63190408756E+03  0.10356231989E+03 -0.94778162275E+03  0.11438172689E+04  0.10100000352E+00 0.  1.
       -3    1    3    3    0  502  0.63190408756E+03 -0.10356231989E+03  0.37777950746E+03  0.74346842329E+03  0.10100000352E+00 0. -1.
</event>
<event>
 5   0  0.3909859E-05  0.1796746E+04  0.7818609E-02  0.8708032E-01
        2   -1    0    0  501    0  0.00000000000E+00  0.00000000000E+00  0.11566181230E+04  0.11566181230E+04  0.25500000920E-02 0. -1.
       -2   -1    0    0    0  501  0.00000000000E+00  0.00000000000E+00 -0.69778760785E+03  0.69778760786E+03  0.25500000920E-02 0.  1.
    10030    2    1    2    0    0  0.00000000000E+00  0.00000000000E+00  0.45883051513E+03  0.18544057308E+04  0.17967457174E+04 0.  0.
        4    1    3    3  502    0 -0.18089623502E+03  0.78716816813E+03 -0.17654578939E+03  0.82675703893E+03  0.12699999809E+01 0. -1.
       -4    1    3    3    0  502  0.18089623502E+03 -0.78716816813E+03  0.63537630452E+03  0.10276486919E+04  0.12699999809E+01 0.  1.
</event>
<event>
 5   0  0.3983176E-05  0.1813892E+04  0.7818609E-02  0.8698946E-01
       -2   -1    0    0    0  501  0.00000000000E+00  0.00000000000E+00  0.65668001832E+03  0.65668001832E+03  0.25500000920E-02 0.  1.
        2   -1    0    0  501    0  0.00000000000E+00  0.00000000000E+00 -0.12525906081E+04  0.12525906081E+04  0.25500000920E-02 0. -1.
    10030    2    1    2    0    0  0.00000000000E+00  0.00000000000E+00 -0.59591058977E+03  0.19092706264E+04  0.18138921947E+04 0.  0.
        3    1    3    3  502    0 -0.13936053096E+02 -0.31246774199E+03  0.59811362700E+03  0.67495942424E+03  0.10100000352E+00 0.  1.
       -3    1    3    3    0  502  0.13936053096E+02  0.31246774199E+03 -0.11940242168E+04  0.12343112022E+04  0.10100000352E+00 0. -1.
</event>
<event>
 5   0  0.3984648E-05  0.1798843E+04  0.7818609E-02  0.8706915E-01
        2   -1    0    0  501    0  0.00000000000E+00  0.00000000000E+00  0.90591606533E+03  0.90591606534E+03  0.25500000920E-02 0. -1.
       -2   -1    0    0    0  501  0.00000000000E+00  0.00000000000E+00 -0.89297301855E+03  0.89297301856E+03  0.25500000920E-02 0.  1.
    10030    2    1    2    0    0  0.00000000000E+00  0.00000000000E+00  0.12943046778E+02  0.17988890839E+04  0.17988425205E+04 0.  0.
        1    1    3    3  502    0  0.42833350126E+02 -0.18903310863E+03 -0.87183954168E+03  0.89312507439E+03  0.50400001928E-02 0.  1.
       -1    1    3    3    0  502 -0.42833350126E+02  0.18903310863E+03  0.88478258846E+03  0.90576400950E+03  0.50400001928E-02 0. -1.
</event>
<event>
 5   0  0.3909859E-05  0.1802232E+04  0.7818609E-02  0.8705114E-01
        2   -1    0    0  501    0  0.00000000000E+00  0.00000000000E+00  0.14349415188E+04  0.14349415188E+04  0.25500000920E-02 0.  1.
       -2   -1    0    0    0  501  0.00000000000E+00  0.00000000000E+00 -0.56588354563E+03  0.56588354563E+03  0.25500000920E-02 0. -1.
    10030    2    1    2    0    0  0.00000000000E+00  0.00000000000E+00  0.86905797316E+03  0.20008250644E+04  0.18022317214E+04 0.  0.
        4    1    3    3  502    0 -0.42772033391E+03  0.78044532414E+03  0.27764730783E+03  0.93227100591E+03  0.12699999809E+01 0. -1.
       -4    1    3    3    0  502  0.42772033391E+03 -0.78044532414E+03  0.59141066533E+03  0.10685540585E+04  0.12699999809E+01 0.  1.
</event>
<event>
 5   0  0.1960300E-05  0.1796124E+04  0.7818609E-02  0.8708363E-01
       -1   -1    0    0    0  501  0.00000000000E+00  0.00000000000E+00  0.42140957895E+03  0.42140957898E+03  0.50400001928E-02 0.  1.
        1   -1    0    0  501    0  0.00000000000E+00  0.00000000000E+00 -0.19138525012E+04  0.19138525012E+04  0.50400001928E-02 0. -1.
    10030    2    1    2    0    0  0.00000000000E+00  0.00000000000E+00 -0.14924429223E+04  0.23352620802E+04  0.17961244687E+04 0.  0.
        3    1    3    3  502    0  0.69456973958E+03 -0.53527114893E+03 -0.49419874933E+03  0.10065658151E+04  0.10100000352E+00 0. -1.
       -3    1    3    3    0  502 -0.69456973958E+03  0.53527114893E+03 -0.99824417295E+03  0.13286962652E+04  0.10100000352E+00 0.  1.
</event>
<event>
 5   0  0.3983176E-05  0.1809520E+04  0.7818609E-02  0.8701253E-01
       -2   -1    0    0    0  501  0.00000000000E+00  0.00000000000E+00  0.79792375964E+03  0.79792375964E+03  0.25500000920E-02 0. -1.
        2   -1    0    0  501    0  0.00000000000E+00  0.00000000000E+00 -0.10259012696E+04  0.10259012696E+04  0.25500000920E-02 0.  1.
    10030    2    1    2    0    0  0.00000000000E+00  0.00000000000E+00 -0.22797750997E+03  0.18238250293E+04  0.18095203763E+04 0.  0.
        3    1    3    3  502    0 -0.43492468548E+03  0.15786369431E+03  0.66966034547E+03  0.81395664290E+03  0.10100000352E+00 0. -1.
       -3    1    3    3    0  502  0.43492468548E+03 -0.15786369431E+03 -0.89763785545E+03  0.10098683864E+04  0.10100000352E+00 0.  1.
</event>
<event>
 5   0  0.1960300E-05  0.1798991E+04  0.7818609E-02  0.8706836E-01
        1   -1    0    0  501    0  0.00000000000E+00  0.00000000000E+00  0.71525928284E+03  0.71525928285E+03  0.50400001928E-02 0. -1.
       -1   -1    0    0    0  501  0.00000000000E+00  0.00000000000E+00 -0.11311873529E+04  0.11311873529E+04  0.50400001928E-02 0.  1.
    10030    2    1    2    0    0  0.00000000000E+00  0.00000000000E+00 -0.41592807008E+03  0.18464466358E+04  0.17989911115E+04 0.  0.
        3    1    3    3  502    0  0.35218198848E+03  0.78117800780E+03 -0.48871388401E+03  0.98646464888E+03  0.10100000352E+00 0.  1.
       -3    1    3    3    0  502 -0.35218198848E+03 -0.78117800780E+03  0.72785813928E+02  0.85998198689E+03  0.10100000352E+00 0. -1.
</event>
<event>
 5   0  0.3909859E-05  0.1830526E+04  0.7818609E-02  0.8690232E-01
        2   -1    0    0  501    0  0.00000000000E+00  0.00000000000E+00  0.25046900938E+04  0.25046900938E+04  0.25500000920E-02 0.  1.
       -2   -1    0    0    0  501  0.00000000000E+00  0.00000000000E+00 -0.33445513999E+03  0.33445514000E+03  0.25500000920E-02 0. -1.
    10030    2    1    2    0    0  0.00000000000E+00  0.00000000000E+00  0.21702349538E+04  0.28391452338E+04  0.18305261276E+04 0.  0.
        4    1    3    3  502    0  0.56023794249E+03 -0.55295540367E+03  0.36081789510E+03  0.86591997146E+03  0.12699999809E+01 0. -1.
       -4    1    3    3    0  502 -0.56023794249E+03  0.55295540367E+03  0.18094170587E+04  0.19732252623E+04  0.12699999809E+01 0.  1.
</event>
<event>
 5   0  0.4015729E-05  0.1796092E+04  0.7818609E-02  0.8708380E-01
       -2   -1    0    0    0  501  0.00000000000E+00  0.00000000000E+00  0.73174391220E+03  0.73174391220E+03  0.25500000920E-02 0. -1.
        2   -1    0    0  501    0  0.00000000000E+00  0.00000000000E+00 -0.11021434961E+04  0.11021434961E+04  0.25500000920E-02 0.  1.
    10030    2    1    2    0    0  0.00000000000E+00  0.00000000000E+00 -0.37039958390E+03  0.18338874083E+04  0.17960921955E+04 0.  0.
        2    1    3    3  502    0  0.63181050322E+03  0.92546540293E+02 -0.82994413425E+03  0.10471660041E+04  0.25500000920E-02 0.  1.
       -2    1    3    3    0  502 -0.63181050322E+03 -0.92546540293E+02  0.45954455035E+03  0.78672140423E+03  0.25500000920E-02 0. -1.
</event>
<event>
 5   0  0.3984648E-05  0.1794108E+04  0.7818609E-02  0.8709439E-01
        2   -1    0    0  501    0  0.00000000000E+00  0.00000000000E+00  0.16343240303E+04  0.16343240303E+04  0.25500000920E-02 0. -1.
       -2   -1    0    0    0  501  0.00000000000E+00  0.00000000000E+00 -0.49237847512E+03  0.49237847513E+03  0.25500000920E-02 0.  1.
    10030    2    1    2    0    0  0.00000000000E+00  0.00000000000E+00  0.11419455552E+04  0.21267025054E+04  0.17941081059E+04 0.  0.
        1    1    3    3  502    0  0.52959423746E+03  0.57530028292E+03  0.10920898530E+04  0.13431681648E+04  0.50400001928E-02 0. -1.
       -1    1    3    3    0  502 -0.52959423746E+03 -0.57530028292E+03  0.49855702179E+02  0.78353434063E+03  0.50400001928E-02 0.  1.
</event>
<event>
 5   0  0.3983176E-05  0.1799186E+04  0.7818609E-02  0.8706732E-01
       -2   -1    0    0    0  501  0.00000000000E+00  0.00000000000E+00  0.27261350953E+03  0.27261350954E+03  0.25500000920E-02 0. -1.
        2   -1    0    0  501    0  0.00000000000E+00  0.00000000000E+00 -0.29685535116E+04  0.29685535116E+04  0.25500000920E-02 0.  1.
    10030    2    1    2    0    0  0.00000000000E+00  0.00000000000E+00 -0.26959400020E+04  0.32411670211E+04  0.17991862505E+04 0.  0.
        3    1    3    3  502    0 -0.49123017563E+03  0.58479434592E+03 -0.49160934910E+03  0.90827929338E+03  0.10100000352E+00 0.  1.
       -3    1    3    3    0  502  0.49123017563E+03 -0.58479434592E+03 -0.22043306529E+04  0.23328877277E+04  0.10100000352E+00 0. -1.
</event>
<event>
 5   0  0.4015729E-05  0.1801321E+04  0.7818609E-02  0.8705597E-01
       -2   -1    0    0    0  501  0.00000000000E+00  0.00000000000E+00  0.10973205815E+04  0.10973205815E+04  0.25500000920E-02 0. -1.
        2   -1    0    0  501    0  0.00000000000E+00  0.00000000000E+00 -0.73924583813E+03  0.73924583814E+03  0.25500000920E-02 0.  1.
    10030    2    1    2    0    0  0.00000000000E+00  0.00000000000E+00  0.35807474336E+03  0.18365664196E+04  0.18013213738E+04 0.  0.
        2    1    3    3  502    0  0.20294756757E+03  0.31252676504E+03  0.10150375160E+04  0.10812778796E+04  0.25500000920E-02 0. -1.
       -2    1    3    3    0  502 -0.20294756757E+03 -0.31252676504E+03 -0.65696277264E+03  0.75528854002E+03  0.25500000920E-02 0.  1.
</event>
<event>
 5   0  0.2001811E-05  0.1795069E+04  0.7818609E-02  0.8708926E-01
       -1   -1    0    0    0  501  0.00000000000E+00  0.00000000000E+00  0.39336060289E+03  0.39336060292E+03  0.50400001928E-02 0.  1.
        1   -1    0    0  501    0  0.00000000000E+00  0.00000000000E+00 -0.20479138240E+04  0.20479138240E+04  0.50400001928E-02 0. -1.
    10030    2    1    2    0    0  0.00000000000E+00  0.00000000000E+00 -0.16545532211E+04  0.24412744269E+04  0.17950694878E+04 0.  0.
        2    1    3    3  502    0  0.86645277974E+03  0.16145412910E+03 -0.59663613504E+03  0.10643225700E+04  0.25500000920E-02 0.  1.
       -2    1    3    3    0  502 -0.86645277974E+03 -0.16145412910E+03 -0.10579170860E+04  0.13769518569E+04  0.25500000920E-02 0. -1.
</event>
<event>
 5   0  0.2001811E-05  0.1805105E+04  0.7818609E-02  0.8703589E-01
        1   -1    0    0  501    0  0.00000000000E+00  0.00000000000E+00  0.93696677067E+03  0.93696677068E+03  0.50400001928E-02 0. -1.
       -1   -1    0    0    0  501  0.00000000000E+00  0.00000000000E+00 -0.86940247797E+03  0.86940247798E+03  0.50400001928E-02 0.  1.
    10030    2    1    2    0    0  0.00000000000E+00  0.00000000000E+00  0.67564292704E+02  0.18063692487E+04  0.18051052404E+04 0.  0.
        2    1    3    3  502    0 -0.69589336230E+03  0.28373206719E+03  0.53396189310E+03  0.92189303118E+03  0.25500000920E-02 0. -1.
       -2    1    3    3    0  502  0.69589336230E+03 -0.28373206719E+03 -0.46639760040E+03  0.88447621749E+03  0.25500000920E-02 0.  1.
</event>
<event>
 5   0  0.1906857E-05  0.1796606E+04  0.7818609E-02  0.8708107E-01
       -1   -1    0    0    0  501  0.00000000000E+00  0.00000000000E+00  0.65548289288E+03  0.65548289290E+03  0.50400001928E-02 0. -1.
        1   -1    0    0  501    0  0.00000000000E+00  0.00000000000E+00 -0.12310739709E+04  0.12310739709E+04  0.50400001928E-02 0.  1.
    10030    2    1    2    0    0  0.00000000000E+00  0.00000000000E+00 -0.57559107797E+03  0.18865568638E+04  0.17966056081E+04 0.  0.
        4    1    3    3  502    0 -0.43507459814E+03 -0.47776261183E+02 -0.11115289155E+04  0.11946006111E+04  0.12699999809E+01 0.  1.
       -4    1    3    3    0  502  0.43507459814E+03  0.47776261183E+02  0.53593783751E+03  0.69195625270E+03  0.12699999809E+01 0. -1.
</event>
<event>
 5   0  0.2054876E-05  0.1801079E+04  0.7818609E-02  0.8705726E-01
       -1   -1    0    0    0  501  0.00000000000E+00  0.00000000000E+00  0.73210884095E+03  0.73210884096E+03  0.50400001928E-02 0. -1.
        1   -1    0    0  501    0  0.00000000000E+00  0.00000000000E+00 -0.11077197834E+04  0.11077197834E+04  0.50400001928E-02 0.  1.
    10030    2    1    2    0    0  0.00000000000E+00  0.00000000000E+00 -0.37561094249E+03  0.18398286244E+04  0.18010790619E+04 0.  0.
        5    1    3    3  502    0 -0.47510145108E+03  0.55618870804E+03  0.34873976943E+03  0.81037570580E+03  0.46999998093E+01 0. -1.
       -5    1    3    3    0  502  0.47510145108E+03 -0.55618870804E+03 -0.72435071192E+03  0.10294529186E+04  0.46999998093E+01 0.  1.
</event>
<event>
 5   0  0.2054876E-05  0.1798830E+04  0.7818609E-02  0.8706922E-01
       -1   -1    0    0    0  501  0.00000000000E+00  0.00000000000E+00  0.91588405482E+03  0.91588405484E+03  0.50400001928E-02 0.  1.
        1   -1    0    0  501    0  0.00000000000E+00  0.00000000000E+00 -0.88324241763E+03  0.88324241765E+03  0.50400001928E-02 0. -1.
    10030    2    1    2    0    0  0.00000000000E+00  0.00000000000E+00  0.32641637189E+02  0.17991264725E+04  0.17988303387E+04 0.  0.
        5    1    3    3  502    0 -0.31412763640E+02 -0.66773807775E+03  0.61813796259E+03  0.91048203332E+03  0.46999998093E+01 0.  1.
       -5    1    3    3    0  502  0.31412763640E+02  0.66773807775E+03 -0.58549632540E+03  0.88864443916E+03  0.46999998093E+01 0. -1.
</event>
<event>
 5   0  0.3983176E-05  0.1798754E+04  0.7818609E-02  0.8706963E-01
       -2   -1    0    0    0  501  0.00000000000E+00  0.00000000000E+00  0.41071411499E+03  0.41071411500E+03  0.25500000920E-02 0.  1.
        2   -1    0    0  501    0  0.00000000000E+00  0.00000000000E+00 -0.19694445916E+04  0.19694445916E+04  0.25500000920E-02 0. -1.
    10030    2    1    2    0    0  0.00000000000E+00  0.00000000000E+00 -0.15587304766E+04  0.23801587066E+04  0.17987536713E+04 0.  0.
        3    1    3    3  502    0 -0.28039096212E+03  0.70974187524E+03 -0.14091516844E+04  0.16025171141E+04  0.10100000352E+00 0. -1.
       -3    1    3    3    0  502  0.28039096212E+03 -0.70974187524E+03 -0.14957879219E+03  0.77764159250E+03  0.10100000352E+00 0.  1.
</event>
<event>
 5   0  0.3983176E-05  0.1799045E+04  0.7818609E-02  0.8706807E-01
        2   -1    0    0  501    0  0.00000000000E+00  0.00000000000E+00  0.79120221287E+03  0.79120221288E+03  0.25500000920E-02 0. -1.
       -2   -1    0    0    0  501  0.00000000000E+00  0.00000000000E+00 -0.10226726661E+04  0.10226726661E+04  0.25500000920E-02 0.  1.
    10030    2    1    2    0    0  0.00000000000E+00  0.00000000000E+00 -0.23147045321E+03  0.18138748790E+04  0.17990451650E+04 0.  0.
        3    1    3    3  502    0 -0.51724578813E+02 -0.79239785283E+03  0.31032482801E+03  0.85256747435E+03  0.10100000352E+00 0. -1.
       -3    1    3    3    0  502  0.51724578813E+02  0.79239785283E+03 -0.54179528122E+03  0.96130740463E+03  0.10100000352E+00 0.  1.
</event>
<event>
 5   0  0.2054876E-05  0.1798431E+04  0.7818609E-02  0.8707134E-01
        1   -1    0    0  501    0  0.00000000000E+00  0.00000000000E+00  0.12259777563E+04  0.12259777563E+04  0.50400001928E-02 0. -1.
       -1   -1    0    0    0  501  0.00000000000E+00  0.00000000000E+00 -0.65954564516E+03  0.65954564518E+03  0.50400001928E-02 0.  1.
    10030    2    1    2    0    0  0.00000000000E+00  0.00000000000E+00  0.56643211110E+03  0.18855234014E+04  0.17984307495E+04 0.  0.
        5    1    3    3  502    0 -0.66840049054E+02  0.31652221953E+03  0.11628408896E+04  0.12070107423E+04  0.46999998093E+01 0. -1.
       -5    1    3    3    0  502  0.66840049054E+02 -0.31652221953E+03 -0.59640877845E+03  0.67851265915E+03  0.46999998093E+01 0.  1.
</event>
<event>
 5   0  0.3984648E-05  0.1803068E+04  0.7818609E-02  0.8704670E-01
        2   -1    0    0  501    0  0.00000000000E+00  0.00000000000E+00  0.12935267269E+04  0.12935267269E+04  0.25500000920E-02 0.  1.
       -2   -1    0    0    0  501  0.00000000000E+00  0.00000000000E+00 -0.62833151599E+03  0.62833151600E+03  0.25500000920E-02 0. -1.
    10030    2    1    2    0    0  0.00000000000E+00  0.00000000000E+00  0.66519521093E+03  0.19218582429E+04  0.18030680623E+04 0.  0.
        1    1    3    3  502    0  0.72833111908E+02 -0.84750488003E+03  0.14267226679E+02  0.85074833979E+03  0.50400001928E-02 0.  1.
       -1    1    3    3    0  502 -0.72833111908E+02  0.84750488003E+03  0.65092798425E+03  0.10711099031E+04  0.50400001928E-02 0. -1.
</event>
<event>
 5   0  0.2001811E-05  0.1796696E+04  0.7818609E-02  0.8708058E-01
       -1   -1    0    0    0  501  0.00000000000E+00  0.00000000000E+00  0.39680177755E+03  0.39680177758E+03  0.50400001928E-02 0.  1.
        1   -1    0    0  501    0  0.00000000000E+00  0.00000000000E+00 -0.20338343752E+04  0.20338343752E+04  0.50400001928E-02 0. -1.
    10030    2    1    2    0    0  0.00000000000E+00  0.00000000000E+00 -0.16370325977E+04  0.24306361528E+04  0.17966959625E+04 0.  0.
        2    1    3    3  502    0 -0.86374960775E+03 -0.24524123427E+03 -0.77971918160E+03  0.11891882315E+04  0.25500000920E-02 0. -1.
       -2    1    3    3    0  502  0.86374960775E+03  0.24524123427E+03 -0.85731341609E+03  0.12414479213E+04  0.25500000920E-02 0.  1.
</event>
<event>
 5   0  0.3983176E-05  0.1799416E+04  0.7818609E-02  0.8706610E-01
        2   -1    0    0  501    0  0.00000000000E+00  0.00000000000E+00  0.55286443331E+03  0.55286443332E+03  0.25500000920E-02 0.  1.
       -2   -1    0    0    0  501  0.00000000000E+00  0.00000000000E+00 -0.14641465187E+04  0.14641465187E+04  0.25500000920E-02 0. -1.
    10030    2    1    2    0    0  0.00000000000E+00  0.00000000000E+00 -0.91128208537E+03  0.20170109520E+04  0.17994160557E+04 0.  0.
        3    1    3    3  502    0  0.18704420049E+03  0.64366595002E+03 -0.11283672600E+04  0.13124420261E+04  0.10100000352E+00 0. -1.
       -3    1    3    3    0  502 -0.18704420049E+03 -0.64366595002E+03  0.21708517462E+03  0.70456892594E+03  0.10100000352E+00 0.  1.
</event>
<event>
 5   0  0.3909859E-05  0.1797326E+04  0.7818609E-02  0.8707723E-01
       -2   -1    0    0    0  501  0.00000000000E+00  0.00000000000E+00  0.41961303951E+03  0.41961303952E+03  0.25500000920E-02 0. -1.
        2   -1    0    0  501    0  0.00000000000E+00  0.00000000000E+00 -0.19246194081E+04  0.19246194081E+04  0.25500000920E-02 0.  1.
    10030    2    1    2    0    0  0.00000000000E+00  0.00000000000E+00 -0.15050063685E+04  0.23442324476E+04  0.17973262361E+04 0.  0.
        4    1    3    3  502    0 -0.43037020050E+03  0.77025112738E+03 -0.53005223721E+03  0.10293018487E+04  0.12699999809E+01 0. -1.
       -4    1    3    3    0  502  0.43037020050E+03 -0.77025112738E+03 -0.97495413133E+03  0.13149305989E+04  0.12699999809E+01 0.  1.
</event>
<event>
 5   0  0.3993393E-05  0.1799399E+04  0.7818609E-02  0.8706619E-01
       -2   -1    0    0    0  501  0.00000000000E+00  0.00000000000E+00  0.71270920961E+03  0.71270920961E+03  0.25500000920E-02 0. -1.
        2   -1    0    0  501    0  0.00000000000E+00  0.00000000000E+00 -0.11357498494E+04  0.11357498494E+04  0.25500000920E-02 0.  1.
    10030    2    1    2    0    0  0.00000000000E+00  0.00000000000E+00 -0.42304063979E+03  0.18484590590E+04  0.17993992080E+04 0.  0.
        5    1    3    3  502    0 -0.65893380976E+03 -0.54956715129E+03 -0.48948882765E+03  0.98784574799E+03  0.46999998093E+01 0.  1.
       -5    1    3    3    0  502  0.65893380976E+03  0.54956715129E+03  0.66448187860E+02  0.86061331102E+03  0.46999998093E+01 0. -1.
</event>
<event>
 5   0  0.2038338E-05  0.1796763E+04  0.7818609E-02  0.8708023E-01
        1   -1    0    0  501    0  0.00000000000E+00  0.00000000000E+00  0.16640349192E+04  0.16640349192E+04  0.50400001928E-02 0.  1.
       -1   -1    0    0    0  501  0.00000000000E+00  0.00000000000E+00 -0.48501942143E+03  0.48501942146E+03  0.50400001928E-02 0. -1.
    10030    2    1    2    0    0  0.00000000000E+00  0.00000000000E+00  0.11790154978E+04  0.21490543407E+04  0.17967629268E+04 0.  0.
        1    1    3    3  502    0  0.63248546961E+03 -0.21522126487E+02  0.13521730626E+04  0.14929410780E+04  0.50400001928E-02 0.  1.
       -1    1    3    3    0  502 -0.63248546961E+03  0.21522126487E+02 -0.17315756479E+03  0.65611326268E+03  0.50400001928E-02 0. -1.
</event>
<event>
 5   0  0.1960300E-05  0.1771450E+04  0.7818609E-02  0.8721631E-01
       -1   -1    0    0    0  501  0.00000000000E+00  0.00000000000E+00  0.10485099059E+04  0.10485099059E+04  0.50400001928E-02 0. -1.
        1   -1    0    0  501    0  0.00000000000E+00  0.00000000000E+00 -0.74821312628E+03  0.74821312630E+03  0.50400001928E-02 0.  1.
    10030    2    1    2    0    0  0.00000000000E+00  0.00000000000E+00  0.30029677961E+03  0.17967230322E+04  0.17714501118E+04 0.  0.
        3    1    3    3  502    0  0.58496090857E+03  0.91787322816E+02 -0.51796377569E+03  0.78669604061E+03  0.10100000352E+00 0.  1.
       -3    1    3    3    0  502 -0.58496090857E+03 -0.91787322816E+02  0.81826055530E+03  0.10100269916E+04  0.10100000352E+00 0. -1.
</event>
<event>
 5   0  0.1906857E-05  0.1801773E+04  0.7818609E-02  0.8705357E-01
       -1   -1    0    0    0  501  0.00000000000E+00  0.00000000000E+00  0.40167277581E+03  0.40167277584E+03  0.50400001928E-02 0.  1.
        1   -1    0    0  501    0  0.00000000000E+00  0.00000000000E+00 -0.20205408635E+04  0.20205408635E+04  0.50400001928E-02 0. -1.
    10030    2    1    2    0    0  0.00000000000E+00  0.00000000000E+00 -0.16188680877E+04  0.24222136393E+04  0.18017727463E+04 0.  0.
        4    1    3    3  502    0  0.47626894842E+03 -0.66120743232E+03 -0.29300882128E+03  0.86595794472E+03  0.12699999809E+01 0.  1.
       -4    1    3    3    0  502 -0.47626894842E+03  0.66120743232E+03 -0.13258592664E+04  0.15562556946E+04  0.12699999809E+01 0. -1.
</event>
<event>
 5   0  0.2054876E-05  0.1798784E+04  0.7818609E-02  0.8706947E-01
        1   -1    0    0  501    0  0.00000000000E+00  0.00000000000E+00  0.12778329538E+04  0.12778329538E+04  0.50400001928E-02 0. -1.
       -1   -1    0    0    0  501  0.00000000000E+00  0.00000000000E+00 -0.63302916984E+03  0.63302916986E+03  0.50400001928E-02 0.  1.
    10030    2    1    2    0    0  0.00000000000E+00  0.00000000000E+00  0.64480378397E+03  0.19108621237E+04  0.17987835156E+04 0.  0.
        5    1    3    3  502    0 -0.11457334777E+03 -0.71507524669E+03  0.88894558322E+03  0.11466062970E+04  0.46999998093E+01 0. -1.
       -5    1    3    3    0  502  0.11457334777E+03  0.71507524669E+03 -0.24414179925E+03  0.76425582666E+03  0.46999998093E+01 0.  1.
</event>
<event>
 5   0  0.3983176E-05  0.1798124E+04  0.7818609E-02  0.8707298E-01
       -2   -1    0    0    0  501  0.00000000000E+00  0.00000000000E+00  0.13524335887E+04  0.13524335887E+04  0.25500000920E-02 0. -1.
        2   -1    0    0  501    0  0.00000000000E+00  0.00000000000E+00 -0.59767260801E+03  0.59767260801E+03  0.25500000920E-02 0.  1.
    10030    2    1    2    0    0  0.00000000000E+00  0.00000000000E+00  0.75476098073E+03  0.19501061968E+04  0.17981240337E+04 0.  0.
        3    1    3    3  502    0 -0.57086309419E+03 -0.66481249442E+03  0.59550755478E+03  0.10594760889E+04  0.10100000352E+00 0. -1.
       -3    1    3    3    0  502  0.57086309419E+03  0.66481249442E+03  0.15925342595E+03  0.89063010780E+03  0.10100000352E+00 0.  1.
</event>
<event>
 5   0  0.2001811E-05  0.1799543E+04  0.7818609E-02  0.8706543E-01
        1   -1    0    0  501    0  0.00000000000E+00  0.00000000000E+00  0.20744133943E+04  0.20744133943E+04  0.50400001928E-02 0.  1.
       -1   -1    0    0    0  501  0.00000000000E+00  0.00000000000E+00 -0.39027343170E+03  0.39027343173E+03  0.50400001928E-02 0. -1.
    10030    2    1    2    0    0  0.00000000000E+00  0.00000000000E+00  0.16841399626E+04  0.24646868261E+04  0.17995426466E+04 0.  0.
        2    1    3    3  502    0 -0.86317353773E+03  0.21078256219E+03  0.64793851274E+03  0.10996918482E+04  0.25500000920E-02 0.  1.
       -2    1    3    3    0  502  0.86317353773E+03 -0.21078256219E+03  0.10362014499E+04  0.13649949778E+04  0.25500000920E-02 0. -1.
</event>
<event>
 5   0  0.1906857E-05  0.1799905E+04  0.7818609E-02  0.8706350E-01
        1   -1    0    0  501    0  0.00000000000E+00  0.00000000000E+00  0.14418045665E+04  0.14418045665E+04  0.50400001928E-02 0. -1.
       -1   -1    0    0    0  501  0.00000000000E+00  0.00000000000E+00 -0.56173647739E+03  0.56173647741E+03  0.50400001928E-02 0.  1.
    10030    2    1    2    0    0  0.00000000000E+00  0.00000000000E+00  0.88006808911E+03  0.20035410439E+04  0.17999046845E+04 0.  0.
        4    1    3    3  502    0 -0.63804660470E+03  0.38291238973E+03  0.10034478465E+04  0.12492536017E+04  0.12699999809E+01 0. -1.
       -4    1    3    3    0  502  0.63804660470E+03 -0.38291238973E+03 -0.12337975737E+03  0.75428744216E+03  0.12699999809E+01 0.  1.
</event>
<event>
 5   0  0.1960300E-05  0.1802178E+04  0.7818609E-02  0.8705142E-01
        1   -1    0    0  501    0  0.00000000000E+00  0.00000000000E+00  0.98243365105E+03  0.98243365106E+03  0.50400001928E-02 0.  1.
       -1   -1    0    0    0  501  0.00000000000E+00  0.00000000000E+00 -0.82647921783E+03  0.82647921784E+03  0.50400001928E-02 0. -1.
    10030    2    1    2    0    0  0.00000000000E+00  0.00000000000E+00  0.15595443322E+03  0.18089128689E+04  0.18021775667E+04 0.  0.
        3    1    3    3  502    0 -0.82464687406E+03  0.24819623505E+03 -0.18818762684E+03  0.88150917811E+03  0.10100000352E+00 0.  1.
       -3    1    3    3    0  502  0.82464687406E+03 -0.24819623505E+03  0.34414206006E+03  0.92740369079E+03  0.10100000352E+00 0. -1.
</event>
<event>
 5   0  0.1906857E-05  0.1800800E+04  0.7818609E-02  0.8705874E-01
       -1   -1    0    0    0  501  0.00000000000E+00  0.00000000000E+00  0.81985888532E+03  0.81985888533E+03  0.50400001928E-02 0. -1.
        1   -1    0    0  501    0  0.00000000000E+00  0.00000000000E+00 -0.98885317371E+03  0.98885317372E+03  0.50400001928E-02 0.  1.
    10030    2    1    2    0    0  0.00000000000E+00  0.00000000000E+00 -0.16899428839E+03  0.18087120590E+04  0.18007998898E+04 0.  0.
        4    1    3    3  502    0 -0.79551898986E+03 -0.42044006206E+03 -0.11778092134E+03  0.90746584914E+03  0.12699999809E+01 0.  1.
       -4    1    3    3    0  502  0.79551898986E+03  0.42044006206E+03 -0.51213367053E+02  0.90124620991E+03  0.12699999809E+01 0. -1.
</event>
<event>
 5   0  0.4015729E-05  0.1798694E+04  0.7818609E-02  0.8706994E-01
       -2   -1    0    0    0  501  0.00000000000E+00  0.00000000000E+00  0.13846061587E+04  0.13846061587E+04  0.25500000920E-02 0.  1.
        2   -1    0    0  501    0  0.00000000000E+00  0.00000000000E+00 -0.58415523506E+03  0.58415523506E+03  0.25500000920E-02 0. -1.
    10030    2    1    2    0    0  0.00000000000E+00  0.00000000000E+00  0.80045092361E+03  0.19687613937E+04  0.17986938996E+04 0.  0.
        2    1    3    3  502    0  0.25247321713E+03 -0.39399789052E+03  0.12408572944E+04  0.13261613357E+04  0.25500000920E-02 0.  1.
       -2    1    3    3    0  502 -0.25247321713E+03  0.39399789052E+03 -0.44040637084E+03  0.64260005804E+03  0.25500000920E-02 0. -1.
</event>
<event>
 5   0  0.3993393E-05  0.1791106E+04  0.7818609E-02  0.8711043E-01
        2   -1    0    0  501    0  0.00000000000E+00  0.00000000000E+00  0.67872489114E+03  0.67872489115E+03  0.25500000920E-02 0.  1.
       -2   -1    0    0    0  501  0.00000000000E+00  0.00000000000E+00 -0.11816500811E+04  0.11816500811E+04  0.25500000920E-02 0. -1.
    10030    2    1    2    0    0  0.00000000000E+00  0.00000000000E+00 -0.50292518991E+03  0.18603749722E+04  0.17911061640E+04 0.  0.
        5    1    3    3  502    0 -0.28680103719E+03  0.21008745629E+02  0.62945096150E+03  0.69204537803E+03  0.46999998093E+01 0.  1.
       -5    1    3    3    0  502  0.28680103719E+03 -0.21008745629E+02 -0.11323761514E+04  0.11683295942E+04  0.46999998093E+01 0. -1.
</event>
<event>
 5   0  0.3983176E-05  0.1796342E+04  0.7818609E-02  0.8708247E-01
       -2   -1    0    0    0  501  0.00000000000E+00  0.00000000000E+00  0.49583811659E+03  0.49583811660E+03  0.25500000920E-02 0.  1.
        2   -1    0    0  501    0  0.00000000000E+00  0.00000000000E+00 -0.16269653901E+04  0.16269653901E+04  0.25500000920E-02 0. -1.
    10030    2    1    2    0    0  0.00000000000E+00  0.00000000000E+00 -0.11311272735E+04  0.21228035067E+04  0.17963423447E+04 0.  0.
        3    1    3    3  502    0 -0.18036363405E+03 -0.83217359965E+03 -0.22785254057E+03  0.88145375993E+03  0.10100000352E+00 0.  1.
       -3    1    3    3    0  502  0.18036363405E+03  0.83217359965E+03 -0.90327473293E+03  0.12413497468E+04  0.10100000352E+00 0. -1.
</event>
<event>
 5   0  0.3993393E-05  0.1803725E+04  0.7818609E-02  0.8704321E-01
       -2   -1    0    0    0  501  0.00000000000E+00  0.00000000000E+00  0.91113232840E+03  0.91113232840E+03  0.25500000920E-02 0. -1.
        2   -1    0    0  501    0  0.00000000000E+00  0.00000000000E+00 -0.89268677830E+03  0.89268677830E+03  0.25500000920E-02 0.  1.
    10030    2    1    2    0    0  0.00000000000E+00  0.00000000000E+00  0.18445550099E+02  0.18038191067E+04  0.18037247937E+04 0.  0.
        5    1    3    3  502    0  0.80164654815E+02  0.40352078525E+03  0.81180962618E+03  0.91011667119E+03  0.46999998093E+01 0. -1.
       -5    1    3    3    0  502 -0.80164654815E+02 -0.40352078525E+03 -0.79336407609E+03  0.89370243551E+03  0.46999998093E+01 0.  1.
</event>
<event>
 5   0  0.1906857E-05  0.1805296E+04  0.7818609E-02  0.8703488E-01
        1   -1    0    0  501    0  0.00000000000E+00  0.00000000000E+00  0.88074988829E+03  0.88074988831E+03  0.50400001928E-02 0.  1.
       -1   -1    0    0    0  501  0.00000000000E+00  0.00000000000E+00 -0.92509033609E+03  0.92509033610E+03  0.50400001928E-02 0. -1.
    10030    2    1    2    0    0  0.00000000000E+00  0.00000000000E+00 -0.44340447795E+02  0.18058402244E+04  0.18052957765E+04 0.  0.
        4    1    3    3  502    0 -0.54627810868E+03  0.70452826085E+03 -0.16360506801E+03  0.90639289138E+03  0.12699999809E+01 0. -1.
       -4    1    3    3    0  502  0.54627810868E+03 -0.70452826085E+03  0.11926462022E+03  0.89944733303E+03  0.12699999809E+01 0.  1.
</event>
<event>
 5   0  0.1960300E-05  0.1802175E+04  0.7818609E-02  0.8705144E-01
       -1   -1    0    0    0  501  0.00000000000E+00  0.00000000000E+00  0.68334959590E+03  0.68334959592E+03  0.50400001928E-02 0. -1.
        1   -1    0    0  501    0  0.00000000000E+00  0.00000000000E+00 -0.11882037140E+04  0.11882037140E+04  0.50400001928E-02 0.  1.
    10030    2    1    2    0    0  0.00000000000E+00  0.00000000000E+00 -0.50485411809E+03  0.18715533099E+04  0.18021748282E+04 0.  0.
        3    1    3    3  502    0  0.25647585269E+03 -0.11862355047E+03 -0.11409989987E+04  0.11754701762E+04  0.10100000352E+00 0.  1.
       -3    1    3    3    0  502 -0.25647585269E+03  0.11862355047E+03  0.63614488064E+03  0.69608313376E+03  0.10100000352E+00 0. -1.
</event>
<event>
 5   0  0.1960300E-05  0.1800716E+04  0.7818609E-02  0.8705919E-01
       -1   -1    0    0    0  501  0.00000000000E+00  0.00000000000E+00  0.47589093545E+03  0.47589093548E+03  0.50400001928E-02 0.  1.
        1   -1    0    0  501    0  0.00000000000E+00  0.00000000000E+00 -0.17034257757E+04  0.17034257757E+04  0.50400001928E-02 0. -1.
    10030    2    1    2    0    0  0.00000000000E+00  0.00000000000E+00 -0.12275348402E+04  0.21793167112E+04  0.18007163973E+04 0.  0.
        3    1    3    3  502    0 -0.13365770925E+03 -0.44364246349E+03  0.32052809083E+03  0.56340153165E+03  0.10100000352E+00 0.  1.
       -3    1    3    3    0  502  0.13365770925E+03  0.44364246349E+03 -0.15480629311E+04  0.16159151795E+04  0.10100000352E+00 0. -1.
</event>
<event>
 5   0  0.2054876E-05  0.1797852E+04  0.7818609E-02  0.8707443E-01
        1   -1    0    0  501    0  0.00000000000E+00  0.00000000000E+00  0.60086616251E+03  0.60086616254E+03  0.50400001928E-02 0. -1.
       -1   -1    0    0    0  501  0.00000000000E+00  0.00000000000E+00 -0.13448385442E+04  0.13448385442E+04  0.50400001928E-02 0.  1.
    10030    2    1    2    0    0  0.00000000000E+00  0.00000000000E+00 -0.74397238168E+03  0.19457047067E+04  0.17978520243E+04 0.  0.
        5    1    3    3  502    0  0.20405961018E+03  0.14637530875E+02  0.57532266046E+03  0.61063314310E+03  0.46999998093E+01 0. -1.
       -5    1    3    3    0  502 -0.20405961018E+03 -0.14637530875E+02 -0.13192950421E+04  0.13350715636E+04  0.46999998093E+01 0.  1.
</event>
<event>
 5   0  0.4015729E-05  0.1802074E+04  0.7818609E-02  0.8705197E-01
        2   -1    0    0  501    0  0.00000000000E+00  0.00000000000E+00  0.21890424270E+04  0.21890424270E+04  0.25500000920E-02 0.  1.
       -2   -1    0    0    0  501  0.00000000000E+00  0.00000000000E+00 -0.37087805386E+03  0.37087805387E+03  0.25500000920E-02 0. -1.
    10030    2    1    2    0    0  0.00000000000E+00  0.00000000000E+00  0.18181643732E+04  0.25599204809E+04  0.18020741330E+04 0.  0.
        2    1    3    3  502    0 -0.17651357543E+03 -0.58005756650E+03 -0.37731645847E+02  0.60749279820E+03  0.25500000920E-02 0. -1.
       -2    1    3    3    0  502  0.17651357543E+03  0.58005756650E+03  0.18558960190E+04  0.19524276827E+04  0.25500000920E-02 0.  1.
</event>
<event>
 5   0  0.3983176E-05  0.1790942E+04  0.7818609E-02  0.8711131E-01
       -2   -1    0    0    0  501  0.00000000000E+00  0.00000000000E+00  0.67942425451E+03  0.67942425452E+03  0.25500000920E-02 0.  1.
        2   -1    0    0  501    0  0.00000000000E+00  0.00000000000E+00 -0.11802172886E+04  0.11802172886E+04  0.25500000920E-02 0. -1.
    10030    2    1    2    0    0  0.00000000000E+00  0.00000000000E+00 -0.50079303410E+03  0.18596415431E+04  0.17909419326E+04 0.  0.
        3    1    3    3  502    0 -0.35461831586E+03 -0.14255707732E+03 -0.10912699854E+04  0.11562641832E+04  0.10100000352E+00 0. -1.
       -3    1    3    3    0  502  0.35461831586E+03  0.14255707732E+03  0.59047695128E+03  0.70337735990E+03  0.10100000352E+00 0.  1.
</event>
<event>
 5   0  0.3983176E-05  0.1802005E+04  0.7818609E-02  0.8705234E-01
        2   -1    0    0  501    0  0.00000000000E+00  0.00000000000E+00  0.55665474727E+03  0.55665474728E+03  0.25500000920E-02 0. -1.
       -2   -1    0    0    0  501  0.00000000000E+00  0.00000000000E+00 -0.14583652384E+04  0.14583652384E+04  0.25500000920E-02 0.  1.
    10030    2    1    2    0    0  0.00000000000E+00  0.00000000000E+00 -0.90171049117E+03  0.20150199857E+04  0.18020054753E+04 0.  0.
        3    1    3    3  502    0 -0.35513585713E+02  0.76872955131E+03 -0.97486456332E+03  0.12420013143E+04  0.10100000352E+00 0.  1.
       -3    1    3    3    0  502  0.35513585713E+02 -0.76872955131E+03  0.73154072147E+02  0.77301867138E+03  0.10100000352E+00 0. -1.
</event>
<event>
 5   0  0.2001811E-05  0.1805797E+04  0.7818609E-02  0.8703223E-01
       -1   -1    0    0    0  501  0.00000000000E+00  0.00000000000E+00  0.60194279356E+03  0.60194279358E+03  0.50400001928E-02 0.  1.
        1   -1    0    0  501    0  0.00000000000E+00  0.00000000000E+00 -0.13543244746E+04  0.13543244746E+04  0.50400001928E-02 0. -1.
    10030    2    1    2    0    0  0.00000000000E+00  0.00000000000E+00 -0.75238168102E+03  0.19562672682E+04  0.18057971732E+04 0.  0.
        2    1    3    3  502    0 -0.17700613960E+03 -0.27779685967E+03  0.53452735452E+03  0.62787081588E+03  0.25500000920E-02 0.  1.
       -2    1    3    3    0  502  0.17700613960E+03  0.27779685967E+03 -0.12869090355E+04  0.13283964523E+04  0.25500000920E-02 0. -1.
</event>
<event>
 5   0  0.3909859E-05  0.1780051E+04  0.7818609E-02  0.8716981E-01
       -2   -1    0    0    0  501  0.00000000000E+00  0.00000000000E+00  0.79899237881E+03  0.79899237881E+03  0.25500000920E-02 0.  1.
        2   -1    0    0  501    0  0.00000000000E+00  0.00000000000E+00 -0.99143069691E+03  0.99143069691E+03  0.25500000920E-02 0. -1.
    10030    2    1    2    0    0  0.00000000000E+00  0.00000000000E+00 -0.19243831810E+03  0.17904230757E+04  0.17800512026E+04 0.  0.
        4    1    3    3  502    0  0.88363570379E+02  0.40483547516E+03  0.69605317866E+03  0.81005649367E+03  0.12699999809E+01 0.  1.
       -4    1    3    3    0  502 -0.88363570379E+02 -0.40483547516E+03 -0.88849149675E+03  0.98036658206E+03  0.12699999809E+01 0. -1.
</event>
<event>
 5   0  0.3983176E-05  0.1794445E+04  0.7818609E-02  0.8709259E-01
        2   -1    0    0  501    0  0.00000000000E+00  0.00000000000E+00  0.19011705953E+04  0.19011705953E+04  0.25500000920E-02 0. -1.
       -2   -1    0    0    0  501  0.00000000000E+00  0.00000000000E+00 -0.42342777047E+03  0.42342777048E+03  0.25500000920E-02 0.  1.
    10030    2    1    2    0    0  0.00000000000E+00  0.00000000000E+00  0.14777428248E+04  0.23245983657E+04  0.17944452362E+04 0.  0.
        3    1    3    3  502    0  0.21710057992E+02 -0.56067481873E+03 -0.16810477313E+03  0.58573612141E+03  0.10100000352E+00 0.  1.
       -3    1    3    3    0  502 -0.21710057992E+02  0.56067481873E+03  0.16458475979E+04  0.17388622443E+04  0.10100000352E+00 0. -1.
</event>
<event>
 5   0  0.3983176E-05  0.1801706E+04  0.7818609E-02  0.8705393E-01
       -2   -1    0    0    0  501  0.00000000000E+00  0.00000000000E+00  0.41165852439E+03  0.41165852440E+03  0.25500000920E-02 0. -1.
        2   -1    0    0  501    0  0.00000000000E+00  0.00000000000E+00 -0.19713813119E+04  0.19713813119E+04  0.25500000920E-02 0.  1.
    10030    2    1    2    0    0  0.00000000000E+00  0.00000000000E+00 -0.15597227875E+04  0.23830398362E+04  0.18017057716E+04 0.  0.
        3    1    3    3  502    0 -0.31985040595E+03  0.84209145838E+03 -0.79395903709E+03  0.12007469630E+04  0.10100000352E+00 0. -1.
       -3    1    3    3    0  502  0.31985040595E+03 -0.84209145838E+03 -0.76576375037E+03  0.11822928732E+04  0.10100000352E+00 0.  1.
</event>
<event>
 5   0  0.3983176E-05  0.1798921E+04  0.7818609E-02  0.8706873E-01
       -2   -1    0    0    0  501  0.00000000000E+00  0.00000000000E+00  0.62809804424E+03  0.62809804425E+03  0.25500000920E-02 0. -1.
        2   -1    0    0  501    0  0.00000000000E+00  0.00000000000E+00 -0.12880623699E+04  0.12880623699E+04  0.25500000920E-02 0.  1.
    10030    2    1    2    0    0  0.00000000000E+00  0.00000000000E+00 -0.65996432567E+03  0.19161604142E+04  0.17989212939E+04 0.  0.
        3    1    3    3  502    0 -0.26241640957E+03  0.39095794725E+03  0.48633083300E+03  0.67692553347E+03  0.10100000352E+00 0. -1.
       -3    1    3    3    0  502  0.26241640957E+03 -0.39095794725E+03 -0.11462951587E+04  0.12392348807E+04  0.10100000352E+00 0.  1.
</event>
<event>
 5   0  0.3993393E-05  0.1798870E+04  0.7818609E-02  0.8706901E-01
       -2   -1    0    0    0  501  0.00000000000E+00  0.00000000000E+00  0.61412092121E+03  0.61412092121E+03  0.25500000920E-02 0.  1.
        2   -1    0    0  501    0  0.00000000000E+00  0.00000000000E+00 -0.13173025444E+04  0.13173025444E+04  0.25500000920E-02 0. -1.
    10030    2    1    2    0    0  0.00000000000E+00  0.00000000000E+00 -0.70318162317E+03  0.19314234656E+04  0.17988697030E+04 0.  0.
        5    1    3    3  502    0 -0.27798034707E+03 -0.60021332214E+03  0.30277013315E+03  0.72747573771E+03  0.46999998093E+01 0.  1.
       -5    1    3    3    0  502  0.27798034707E+03  0.60021332214E+03 -0.10059517563E+04  0.12039477279E+04  0.46999998093E+01 0. -1.
</event>
<event>
 5   0  0.1960300E-05  0.1791097E+04  0.7818609E-02  0.8711048E-01
        1   -1    0    0  501    0  0.00000000000E+00  0.00000000000E+00  0.14104581769E+04  0.14104581769E+04  0.50400001928E-02 0. -1.
       -1   -1    0    0    0  501  0.00000000000E+00  0.00000000000E+00 -0.56861476468E+03  0.56861476470E+03  0.50400001928E-02 0.  1.
    10030    2    1    2    0    0  0.00000000000E+00  0.00000000000E+00  0.84184341221E+03  0.19790729416E+04  0.17910972552E+04 0.  0.
        3    1    3    3  502    0  0.41674867350E+03 -0.43003485656E+03 -0.31484384212E+03  0.67656196305E+03  0.10100000352E+00 0.  1.
       -3    1    3    3    0  502 -0.41674867350E+03  0.43003485656E+03  0.11566872543E+04  0.13025109786E+04  0.10100000352E+00 0. -1.
</event>
<event>
 5   0  0.2001811E-05  0.1800389E+04  0.7818609E-02  0.8706093E-01
       -1   -1    0    0    0  501  0.00000000000E+00  0.00000000000E+00  0.95216704418E+03  0.95216704420E+03  0.50400001928E-02 0.  1.
        1   -1    0    0  501    0  0.00000000000E+00  0.00000000000E+00 -0.85105870238E+03  0.85105870239E+03  0.50400001928E-02 0. -1.
    10030    2    1    2    0    0  0.00000000000E+00  0.00000000000E+00  0.10110834181E+03  0.18032257466E+04  0.18003889014E+04 0.  0.
        2    1    3    3  502    0  0.35653466668E+03 -0.21431477173E+03  0.85012419049E+03  0.94644541797E+03  0.25500000920E-02 0.  1.
       -2    1    3    3    0  502 -0.35653466668E+03  0.21431477173E+03 -0.74901584868E+03  0.85678032862E+03  0.25500000920E-02 0. -1.
</event>
<event>
 5   0  0.1906857E-05  0.1798683E+04  0.7818609E-02  0.8707000E-01
        1   -1    0    0  501    0  0.00000000000E+00  0.00000000000E+00  0.13806107453E+04  0.13806107453E+04  0.50400001928E-02 0.  1.
       -1   -1    0    0    0  501  0.00000000000E+00  0.00000000000E+00 -0.58583876411E+03  0.58583876414E+03  0.50400001928E-02 0. -1.
    10030    2    1    2    0    0  0.00000000000E+00  0.00000000000E+00  0.79477198123E+03  0.19664495095E+04  0.17986831770E+04 0.  0.
        4    1    3    3  502    0  0.22866911960E+02 -0.67825809254E+02 -0.58271883942E+03  0.58709973154E+03  0.12699999809E+01 0. -1.
       -4    1    3    3    0  502 -0.22866911960E+02  0.67825809254E+02  0.13774908206E+04  0.13793497779E+04  0.12699999809E+01 0.  1.
</event>
<event>
 5   0  0.3983176E-05  0.1799629E+04  0.7818609E-02  0.8706497E-01
       -2   -1    0    0    0  501  0.00000000000E+00  0.00000000000E+00  0.11552310324E+04  0.11552310324E+04  0.25500000920E-02 0. -1.
        2   -1    0    0  501    0  0.00000000000E+00  0.00000000000E+00 -0.70086959561E+03  0.70086959562E+03  0.25500000920E-02 0.  1.
    10030    2    1    2    0    0  0.00000000000E+00  0.00000000000E+00  0.45436143678E+03  0.18561006280E+04  0.17996291913E+04 0.  0.
        3    1    3    3  502    0 -0.59388515090E+03 -0.60284340068E+03  0.54263207182E+03  0.10052707664E+04  0.10100000352E+00 0.  1.
       -3    1    3    3    0  502  0.59388515090E+03  0.60284340068E+03 -0.88270635034E+02  0.85082986162E+03  0.10100000352E+00 0. -1.
</event>
<event>
 5   0  0.3983176E-05  0.1801500E+04  0.7818609E-02  0.8705502E-01
       -2   -1    0    0    0  501  0.00000000000E+00  0.00000000000E+00  0.54400312472E+03  0.54400312472E+03  0.25500000920E-02 0.  1.
        2   -1    0    0  501    0  0.00000000000E+00  0.00000000000E+00 -0.14914453648E+04  0.14914453648E+04  0.25500000920E-02 0. -1.
    10030    2    1    2    0    0  0.00000000000E+00  0.00000000000E+00 -0.94744224008E+03  0.20354484895E+04  0.18015004178E+04 0.  0.
        3    1    3    3  502    0  0.51283556501E+03  0.24891926249E+03 -0.12617061814E+04  0.13845084378E+04  0.10100000352E+00 0. -1.
       -3    1    3    3    0  502 -0.51283556501E+03 -0.24891926249E+03  0.31426394128E+03  0.65094005175E+03  0.10100000352E+00 0.  1.
</event>
<event>
 5   0  0.3984648E-05  0.1801828E+04  0.7818609E-02  0.8705328E-01
       -2   -1    0    0    0  501  0.00000000000E+00  0.00000000000E+00  0.55350046628E+03  0.55350046629E+03  0.25500000920E-02 0.  1.
        2   -1    0    0  501    0  0.00000000000E+00  0.00000000000E+00 -0.14663868228E+04  0.14663868228E+04  0.25500000920E-02 0. -1.
    10030    2    1    2    0    0  0.00000000000E+00  0.00000000000E+00 -0.91288635647E+03  0.20198872890E+04  0.18018277278E+04 0.  0.
        1    1    3    3  502    0  0.78979149745E+02  0.33731166446E+03  0.47584557331E+03  0.58859652967E+03  0.50400001928E-02 0.  1.
       -1    1    3    3    0  502 -0.78979149745E+02 -0.33731166446E+03 -0.13887319298E+04  0.14312907594E+04  0.50400001928E-02 0. -1.
</event>
<event>
 5   0  0.2038338E-05  0.1792838E+04  0.7818609E-02  0.8710117E-01
       -1   -1    0    0    0  501  0.00000000000E+00  0.00000000000E+00  0.83150760170E+03  0.83150760171E+03  0.50400001928E-02 0. -1.
        1   -1    0    0  501    0  0.00000000000E+00  0.00000000000E+00 -0.96639808701E+03  0.96639808703E+03  0.50400001928E-02 0.  1.
    10030    2    1    2    0    0  0.00000000000E+00  0.00000000000E+00 -0.13489048531E+03  0.17979056887E+04  0.17928383705E+04 0.  0.
        1    1    3    3  502    0 -0.90512988427E+02  0.45255314258E+03  0.70321261155E+03  0.84113311967E+03  0.50400001928E-02 0. -1.
       -1    1    3    3    0  502  0.90512988427E+02 -0.45255314258E+03 -0.83810309686E+03  0.95677256907E+03  0.50400001928E-02 0.  1.
</event>
<event>
 5   0  0.4015729E-05  0.1798643E+04  0.7818609E-02  0.8707022E-01
        2   -1    0    0  501    0  0.00000000000E+00  0.00000000000E+00  0.73535194922E+03  0.73535194923E+03  0.25500000920E-02 0.  1.
       -2   -1    0    0    0  501  0.00000000000E+00  0.00000000000E+00 -0.10998525786E+04  0.10998525786E+04  0.25500000920E-02 0. -1.
    10030    2    1    2    0    0  0.00000000000E+00  0.00000000000E+00 -0.36450062933E+03  0.18352045278E+04  0.17986425298E+04 0.  0.
        2    1    3    3  502    0  0.22969118208E+03 -0.55051041093E+03  0.50445285746E+03  0.78121215880E+03  0.25500000920E-02 0.  1.
       -2    1    3    3    0  502 -0.22969118208E+03  0.55051041093E+03 -0.86895348679E+03  0.10539923690E+04  0.25500000920E-02 0. -1.
</event>
<event>
 5   0  0.3983176E-05  0.1804642E+04  0.7818609E-02  0.8703835E-01
        2   -1    0    0  501    0  0.00000000000E+00  0.00000000000E+00  0.13451787125E+04  0.13451787125E+04  0.25500000920E-02 0.  1.
       -2   -1    0    0    0  501  0.00000000000E+00  0.00000000000E+00 -0.60526017286E+03  0.60526017287E+03  0.25500000920E-02 0. -1.
    10030    2    1    2    0    0  0.00000000000E+00  0.00000000000E+00  0.73991853968E+03  0.19504388854E+04  0.18046419036E+04 0.  0.
        3    1    3    3  502    0  0.69154610585E+03 -0.24472138981E+03  0.93782006061E+03  0.11906431251E+04  0.10100000352E+00 0.  1.
       -3    1    3    3    0  502 -0.69154610585E+03  0.24472138981E+03 -0.19790152093E+03  0.75979576028E+03  0.10100000352E+00 0. -1.
</event>
<event>
 5   0  0.2038338E-05  0.1800514E+04  0.7818609E-02  0.8706026E-01
        1   -1    0    0  501    0  0.00000000000E+00  0.00000000000E+00  0.10155951811E+04  0.10155951811E+04  0.50400001928E-02 0.  1.
       -1   -1    0    0    0  501  0.00000000000E+00  0.00000000000E+00 -0.79801766836E+03  0.79801766837E+03  0.50400001928E-02 0. -1.
    10030    2    1    2    0    0  0.00000000000E+00  0.00000000000E+00  0.21757751275E+03  0.18136128495E+04  0.18005142581E+04 0.  0.
        1    1    3    3  502    0 -0.69031708698E+03  0.18475771680E+03 -0.44272512547E+03  0.84064179722E+03  0.50400001928E-02 0. -1.
       -1    1    3    3    0  502  0.69031708698E+03 -0.18475771680E+03  0.66030263822E+03  0.97297105227E+03  0.50400001928E-02 0.  1.
</event>
<event>
 5   0  0.3909859E-05  0.1800962E+04  0.7818609E-02  0.8705788E-01
        2   -1    0    0  501    0  0.00000000000E+00  0.00000000000E+00  0.22269174577E+04  0.22269174577E+04  0.25500000920E-02 0. -1.
       -2   -1    0    0    0  501  0.00000000000E+00  0.00000000000E+00 -0.36412020741E+03  0.36412020742E+03  0.25500000920E-02 0.  1.
    10030    2    1    2    0    0  0.00000000000E+00  0.00000000000E+00  0.18627972503E+04  0.25910376651E+04  0.18009615727E+04 0.  0.
        4    1    3    3  502    0  0.60974787949E+03  0.15014301451E+02  0.18844699768E+04  0.19807187110E+04  0.12699999809E+01 0. -1.
       -4    1    3    3    0  502 -0.60974787949E+03 -0.15014301451E+02 -0.21672726483E+02  0.61031895413E+03  0.12699999809E+01 0.  1.
</event>
<event>
 5   0  0.2054876E-05  0.1759521E+04  0.7818609E-02  0.8728127E-01
       -1   -1    0    0    0  501  0.00000000000E+00  0.00000000000E+00  0.46707386847E+03  0.46707386850E+03  0.50400001928E-02 0. -1.
        1   -1    0    0  501    0  0.00000000000E+00  0.00000000000E+00 -0.16570796954E+04  0.16570796954E+04  0.50400001928E-02 0.  1.
    10030    2    1    2    0    0  0.00000000000E+00  0.00000000000E+00 -0.11900058270E+04  0.21241535639E+04  0.17595210982E+04 0.  0.
        5    1    3    3  502    0  0.39142714814E+03  0.68459186159E+03 -0.10657859211E+04  0.13258216128E+04  0.46999998093E+01 0.  1.
       -5    1    3    3    0  502 -0.39142714814E+03 -0.68459186159E+03 -0.12421990587E+03  0.79833195117E+03  0.46999998093E+01 0. -1.
</event>
<event>
 5   0  0.3993393E-05  0.1793239E+04  0.7818609E-02  0.8709903E-01
       -2   -1    0    0    0  501  0.00000000000E+00  0.00000000000E+00  0.15486171875E+04  0.15486171875E+04  0.25500000920E-02 0.  1.
        2   -1    0    0  501    0  0.00000000000E+00  0.00000000000E+00 -0.51912534364E+03  0.51912534365E+03  0.25500000920E-02 0. -1.
    10030    2    1    2    0    0  0.00000000000E+00  0.00000000000E+00  0.10294918439E+04  0.20677425312E+04  0.17932388906E+04 0.  0.
        5    1    3    3  502    0 -0.25145321921E+03 -0.34795201772E+03  0.14223904061E+04  0.14857711416E+04  0.46999998093E+01 0.  1.
       -5    1    3    3    0  502  0.25145321921E+03  0.34795201772E+03 -0.39289856217E+03  0.58197138954E+03  0.46999998093E+01 0. -1.
</event>
<event>
 5   0  0.3909859E-05  0.1796264E+04  0.7818609E-02  0.8708289E-01
       -2   -1    0    0    0  501  0.00000000000E+00  0.00000000000E+00  0.47897103328E+03  0.47897103328E+03  0.25500000920E-02 0. -1.
        2   -1    0    0  501    0  0.00000000000E+00  0.00000000000E+00 -0.16841129069E+04  0.16841129069E+04  0.25500000920E-02 0.  1.
    10030    2    1    2    0    0  0.00000000000E+00  0.00000000000E+00 -0.12051418736E+04  0.21630839401E+04  0.17962642335E+04 0.  0.
        4    1    3    3  502    0 -0.22044497626E+03  0.72111085000E+03 -0.15040036539E+02  0.75420465469E+03  0.12699999809E+01 0. -1.
       -4    1    3    3    0  502  0.22044497626E+03 -0.72111085000E+03 -0.11901018370E+04  0.14088792855E+04  0.12699999809E+01 0.  1.
</event>
<event>
 5   0  0.3983176E-05  0.1799916E+04  0.7818609E-02  0.8706344E-01
       -2   -1    0    0    0  501  0.00000000000E+00  0.00000000000E+00  0.86428809829E+03  0.86428809829E+03  0.25500000920E-02 0. -1.
        2   -1    0    0  501    0  0.00000000000E+00  0.00000000000E+00 -0.93709969364E+03  0.93709969364E+03  0.25500000920E-02 0.  1.
    10030    2    1    2    0    0  0.00000000000E+00  0.00000000000E+00 -0.72811595352E+02  0.18013877919E+04  0.17999156782E+04 0.  0.
        3    1    3    3  502    0  0.81754179665E+03 -0.39911337226E+02  0.33800791288E+03  0.88556019754E+03  0.10100000352E+00 0. -1.
       -3    1    3    3    0  502 -0.81754179665E+03  0.39911337226E+02 -0.41081950823E+03  0.91582759439E+03  0.10100000352E+00 0.  1.
</event>
<event>
 5   0  0.3983176E-05  0.1800328E+04  0.7818609E-02  0.8706125E-01
       -2   -1    0    0    0  501  0.00000000000E+00  0.00000000000E+00  0.42788126553E+03  0.42788126554E+03  0.25500000920E-02 0.  1.
        2   -1    0    0  501    0  0.00000000000E+00  0.00000000000E+00 -0.18937388030E+04  0.18937388030E+04  0.25500000920E-02 0. -1.
    10030    2    1    2    0    0  0.00000000000E+00  0.00000000000E+00 -0.14658575374E+04  0.23216200685E+04  0.18003281430E+04 0.  0.
        3    1    3    3  502    0 -0.13317919697E+03 -0.88124977451E+03 -0.57002855359E+03  0.10579557768E+04  0.10100000352E+00 0.  1.
       -3    1    3    3    0  502  0.13317919697E+03  0.88124977451E+03 -0.89582898383E+03  0.12636642917E+04  0.10100000352E+00 0. -1.
</event>
<event>
 5   0  0.3909859E-05  0.1793725E+04  0.7818609E-02  0.8709643E-01
        2   -1    0    0  501    0  0.00000000000E+00  0.00000000000E+00  0.11060331831E+04  0.11060331831E+04  0.25500000920E-02 0. -1.
       -2   -1    0    0    0  501  0.00000000000E+00  0.00000000000E+00 -0.72724985662E+03  0.72724985662E+03  0.25500000920E-02 0.  1.
    10030    2    1    2    0    0  0.00000000000E+00  0.00000000000E+00  0.37878332648E+03  0.18332830397E+04  0.17937251449E+04 0.  0.
        4    1    3    3  502    0 -0.44133782245E+03 -0.42945710138E+03 -0.47702199823E+03  0.77895062433E+03  0.12699999809E+01 0.  1.
       -4    1    3    3    0  502  0.44133782245E+03  0.42945710138E+03  0.85580532470E+03  0.10543324154E+04  0.12699999809E+01 0. -1.
</event>
<event>
 5   0  0.3983176E-05  0.1801779E+04  0.7818609E-02  0.8705354E-01
        2   -1    0    0  501    0  0.00000000000E+00  0.00000000000E+00  0.15398625072E+04  0.15398625072E+04  0.25500000920E-02 0. -1.
       -2   -1    0    0    0  501  0.00000000000E+00  0.00000000000E+00 -0.52706125094E+03  0.52706125094E+03  0.25500000920E-02 0.  1.
    10030    2    1    2    0    0  0.00000000000E+00  0.00000000000E+00  0.10128012562E+04  0.20669237581E+04  0.18017789646E+04 0.  0.
        3    1    3    3  502    0  0.61982274224E+03 -0.33896878042E+03  0.11477033627E+04  0.13477028919E+04  0.10100000352E+00 0. -1.
       -3    1    3    3    0  502 -0.61982274224E+03  0.33896878042E+03 -0.13490210645E+03  0.71922086623E+03  0.10100000352E+00 0.  1.
</event>
<event>
 5   0  0.2054876E-05  0.1800640E+04  0.7818609E-02  0.8705959E-01
       -1   -1    0    0    0  501  0.00000000000E+00  0.00000000000E+00  0.56347337321E+03  0.56347337323E+03  0.50400001928E-02 0. -1.
        1   -1    0    0  501    0  0.00000000000E+00  0.00000000000E+00 -0.14385345404E+04  0.14385345404E+04  0.50400001928E-02 0.  1.
    10030    2    1    2    0    0  0.00000000000E+00  0.00000000000E+00 -0.87506116720E+03  0.20020079137E+04  0.18006397863E+04 0.  0.
        5    1    3    3  502    0 -0.87117362625E+03 -0.10157371737E+03 -0.21159857696E+03  0.90225093788E+03  0.46999998093E+01 0. -1.
       -5    1    3    3    0  502  0.87117362625E+03  0.10157371737E+03 -0.66346259024E+03  0.10997569758E+04  0.46999998093E+01 0.  1.
</event>
<event>
 5   0  0.3984648E-05  0.1792297E+04  0.7818609E-02  0.8710407E-01
       -2   -1    0    0    0  501  0.00000000000E+00  0.00000000000E+00  0.36786665703E+03  0.36786665704E+03  0.25500000920E-02 0. -1.
        2   -1    0    0  501    0  0.00000000000E+00  0.00000000000E+00 -0.21830796639E+04  0.21830796639E+04  0.25500000920E-02 0.  1.
    10030    2    1    2    0    0  0.00000000000E+00  0.00000000000E+00 -0.18152130069E+04  0.25509463209E+04  0.17922970937E+04 0.  0.
        1    1    3    3  502    0 -0.41724781049E+03  0.29375651575E+03 -0.19561070621E+04  0.20215695546E+04  0.50400001928E-02 0.  1.
       -1    1    3    3    0  502  0.41724781049E+03 -0.29375651575E+03  0.14089405520E+03  0.52937676632E+03  0.50400001928E-02 0. -1.
</event>
<event>
 5   0  0.1960300E-05  0.1793581E+04  0.7818609E-02  0.8709720E-01
        1   -1    0    0  501    0  0.00000000000E+00  0.00000000000E+00  0.89954673591E+03  0.89954673592E+03  0.50400001928E-02 0.  1.
       -1   -1    0    0    0  501  0.00000000000E+00  0.00000000000E+00 -0.89404289160E+03  0.89404289162E+03  0.50400001928E-02 0. -1.
    10030    2    1    2    0    0  0.00000000000E+00  0.00000000000E+00  0.55038443060E+01  0.17935896275E+04  0.17935811829E+04 0.  0.
        3    1    3    3  502    0  0.28981247920E+03 -0.41406798515E+03 -0.73805503853E+03  0.89452155900E+03  0.10100000352E+00 0. -1.
       -3    1    3    3    0  502 -0.28981247920E+03  0.41406798515E+03  0.74355888283E+03  0.89906806854E+03  0.10100000352E+00 0.  1.
</event>
<event>
 5   0  0.3909859E-05  0.1798876E+04  0.7818609E-02  0.8706897E-01
       -2   -1    0    0    0  501  0.00000000000E+00  0.00000000000E+00  0.34692104911E+03  0.34692104912E+03  0.25500000920E-02 0.  1.
        2   -1    0    0  501    0  0.00000000000E+00  0.00000000000E+00 -0.23319112119E+04  0.23319112119E+04  0.25500000920E-02 0. -1.
    10030    2    1    2    0    0  0.00000000000E+00  0.00000000000E+00 -0.19849901628E+04  0.26788322611E+04  0.17988764094E+04 0.  0.
        4    1    3    3  502    0  0.53457598154E+03  0.45869472339E+03 -0.15960425730E+03  0.72225166054E+03  0.12699999809E+01 0.  1.
       -4    1    3    3    0  502 -0.53457598154E+03 -0.45869472339E+03 -0.18253859055E+04  0.19565806005E+04  0.12699999809E+01 0. -1.
</event>
<event>
 5   0  0.3909859E-05  0.1793422E+04  0.7818609E-02  0.8709806E-01
        2   -1    0    0  501    0  0.00000000000E+00  0.00000000000E+00  0.92082644750E+03  0.92082644750E+03  0.25500000920E-02 0. -1.
       -2   -1    0    0    0  501  0.00000000000E+00  0.00000000000E+00 -0.87322663337E+03  0.87322663338E+03  0.25500000920E-02 0.  1.
    10030    2    1    2    0    0  0.00000000000E+00  0.00000000000E+00  0.47599814123E+02  0.17940530809E+04  0.17934215106E+04 0.  0.
        4    1    3    3  502    0 -0.41745006478E+03  0.38095956316E+03  0.72024463532E+03  0.91550461111E+03  0.12699999809E+01 0. -1.
       -4    1    3    3    0  502  0.41745006478E+03 -0.38095956316E+03 -0.67264482120E+03  0.87854846977E+03  0.12699999809E+01 0.  1.
</event>
<event>
 5   0  0.1446750E-05  0.1798703E+04  0.7818609E-02  0.8706990E-01
       -3   -1    0    0    0  501  0.00000000000E+00  0.00000000000E+00  0.12118156837E+04  0.12118156879E+04  0.10100000352E+00 0. -1.
        3   -1    0    0  501    0  0.00000000000E+00  0.00000000000E+00 -0.66745547850E+03  0.66745548614E+03  0.10100000352E+00 0.  1.
    10030    2    1    2    0    0  0.00000000000E+00  0.00000000000E+00  0.54436020523E+03  0.18792711741E+04  0.17987028973E+04 0.  0.
        1    1    3    3  502    0 -0.31247698750E+03  0.39906262549E+03  0.10483843663E+04  0.11644752579E+04  0.50400001928E-02 0. -1.
       -1    1    3    3    0  502  0.31247698750E+03 -0.39906262549E+03 -0.50402416107E+03  0.71479591616E+03  0.50400001928E-02 0.  1.
</event>
<event>
 5   0  0.3909859E-05  0.1785173E+04  0.7818609E-02  0.8714224E-01
        2   -1    0    0  501    0  0.00000000000E+00  0.00000000000E+00  0.22150817004E+04  0.22150817004E+04  0.25500000920E-02 0.  1.
       -2   -1    0    0    0  501  0.00000000000E+00  0.00000000000E+00 -0.35967553882E+03  0.35967553883E+03  0.25500000920E-02 0. -1.
    10030    2    1    2    0    0  0.00000000000E+00  0.00000000000E+00  0.18554061616E+04  0.25747572392E+04  0.17851730495E+04 0.  0.
        4    1    3    3  502    0  0.43209581530E+03 -0.20200643168E+03 -0.16044191997E+03  0.50324607760E+03  0.12699999809E+01 0. -1.
       -4    1    3    3    0  502 -0.43209581530E+03  0.20200643168E+03  0.20158480815E+04  0.20715111616E+04  0.12699999809E+01 0.  1.
</event>
<event>
 5   0  0.3984648E-05  0.1811333E+04  0.7818609E-02  0.8700296E-01
        2   -1    0    0  501    0  0.00000000000E+00  0.00000000000E+00  0.10557917633E+04  0.10557917633E+04  0.25500000920E-02 0.  1.
       -2   -1    0    0    0  501  0.00000000000E+00  0.00000000000E+00 -0.77688787026E+03  0.77688787026E+03  0.25500000920E-02 0. -1.
    10030    2    1    2    0    0  0.00000000000E+00  0.00000000000E+00  0.27890389300E+03  0.18326796335E+04  0.18113330057E+04 0.  0.
        1    1    3    3  502    0  0.83500208685E+03  0.21032248822E+03 -0.14451157693E+03  0.87312520865E+03  0.50400001928E-02 0.  1.
       -1    1    3    3    0  502 -0.83500208685E+03 -0.21032248822E+03  0.42341546993E+03  0.95955442487E+03  0.50400001928E-02 0. -1.
</event>
<event>
 5   0  0.1906857E-05  0.1798883E+04  0.7818609E-02  0.8706894E-01
       -1   -1    0    0    0  501  0.00000000000E+00  0.00000000000E+00  0.12679979162E+04  0.12679979162E+04  0.50400001928E-02 0.  1.
        1   -1    0    0  501    0  0.00000000000E+00  0.00000000000E+00 -0.63800983722E+03  0.63800983724E+03  0.50400001928E-02 0. -1.
    10030    2    1    2    0    0  0.00000000000E+00  0.00000000000E+00  0.62998807899E+03  0.19060077535E+04  0.17988831470E+04 0.  0.
        4    1    3    3  502    0  0.88616071027E+03 -0.15052289038E+03  0.34941861408E+03  0.96438214713E+03  0.12699999809E+01 0. -1.
       -4    1    3    3    0  502 -0.88616071027E+03  0.15052289038E+03  0.28056946491E+03  0.94162560632E+03  0.12699999809E+01 0.  1.
</event>
<event>
 5   0  0.1446750E-05  0.1800384E+04  0.7818609E-02  0.8706095E-01
        3   -1    0    0  501    0  0.00000000000E+00  0.00000000000E+00  0.10781820846E+04  0.10781820893E+04  0.10100000352E+00 0.  1.
       -3   -1    0    0    0  501  0.00000000000E+00  0.00000000000E+00 -0.75158527674E+03  0.75158528353E+03  0.10100000352E+00 0. -1.
    10030    2    1    2    0    0  0.00000000000E+00  0.00000000000E+00  0.32659680786E+03  0.18297673729E+04  0.18003841712E+04 0.  0.
        3    1    3    3  502    0 -0.72581573660E+03 -0.48414980837E+03 -0.61986319560E+02  0.87467241551E+03  0.10100000352E+00 0.  1.
       -3    1    3    3    0  502  0.72581573660E+03  0.48414980837E+03  0.38858312742E+03  0.95509495735E+03  0.10100000352E+00 0. -1.
</event>
<event>
 5   0  0.2054876E-05  0.1800088E+04  0.7818609E-02  0.8706253E-01
        1   -1    0    0  501    0  0.00000000000E+00  0.00000000000E+00  0.50836602619E+03  0.50836602622E+03  0.50400001928E-02 0. -1.
       -1   -1    0    0    0  501  0.00000000000E+00  0.00000000000E+00 -0.15934953629E+04  0.15934953629E+04  0.50400001928E-02 0.  1.
    10030    2    1    2    0    0  0.00000000000E+00  0.00000000000E+00 -0.10851293367E+04  0.21018613891E+04  0.18000876706E+04 0.  0.
        5    1    3    3  502    0 -0.71217702958E+03  0.52835737776E+03 -0.72231803461E+03  0.11437320810E+04  0.46999998093E+01 0.  1.
       -5    1    3    3    0  502  0.71217702958E+03 -0.52835737776E+03 -0.36281130211E+03  0.95812930809E+03  0.46999998093E+01 0. -1.
</event>
<event>
 5   0  0.3909859E-05  0.1801950E+04  0.7818609E-02  0.8705263E-01
        2   -1    0    0  501    0  0.00000000000E+00  0.00000000000E+00  0.12176731114E+04  0.12176731114E+04  0.25500000920E-02 0. -1.
       -2   -1    0    0    0  501  0.00000000000E+00  0.00000000000E+00 -0.66664548413E+03  0.66664548414E+03  0.25500000920E-02 0.  1.
    10030    2    1    2    0    0  0.00000000000E+00  0.00000000000E+00  0.55102762722E+03  0.18843185955E+04  0.18019503665E+04 0.  0.
        4    1    3    3  502    0  0.59719366153E+03 -0.65927405918E+03  0.42513491571E+03  0.98591270604E+03  0.12699999809E+01 0.  1.
       -4    1    3    3    0  502 -0.59719366153E+03  0.65927405918E+03  0.12589271150E+03  0.89840588945E+03  0.12699999809E+01 0. -1.
</event>
<event>
 5   0  0.3984648E-05  0.1805667E+04  0.7818609E-02  0.8703292E-01
        2   -1    0    0  501    0  0.00000000000E+00  0.00000000000E+00  0.95235606258E+03  0.95235606258E+03  0.25500000920E-02 0.  1.
       -2   -1    0    0    0  501  0.00000000000E+00  0.00000000000E+00 -0.85588596271E+03  0.85588596272E+03  0.25500000920E-02 0. -1.
    10030    2    1    2    0    0  0.00000000000E+00  0.00000000000E+00  0.96470099866E+02  0.18082420253E+04  0.18056668413E+04 0.  0.
        1    1    3    3  502    0  0.38126949465E+03  0.58554018858E+03 -0.52431843620E+03  0.87357516137E+03  0.50400001928E-02 0. -1.
       -1    1    3    3    0  502 -0.38126949465E+03 -0.58554018858E+03  0.62078853607E+03  0.93466686393E+03  0.50400001928E-02 0.  1.
</event>
<event>
 5   0  0.4015729E-05  0.1798032E+04  0.7818609E-02  0.8707347E-01
        2   -1    0    0  501    0  0.00000000000E+00  0.00000000000E+00  0.14172058023E+04  0.14172058023E+04  0.25500000920E-02 0.  1.
       -2   -1    0    0    0  501  0.00000000000E+00  0.00000000000E+00 -0.57029825246E+03  0.57029825247E+03  0.25500000920E-02 0. -1.
    10030    2    1    2    0    0  0.00000000000E+00  0.00000000000E+00  0.84690754984E+03  0.19875040548E+04  0.17980322494E+04 0.  0.
        2    1    3    3  502    0  0.19908763300E+03  0.49280638268E+02 -0.54409273267E+03  0.58146484733E+03  0.25500000920E-02 0. -1.
       -2    1    3    3    0  502 -0.19908763300E+03 -0.49280638268E+02  0.13910002825E+04  0.14060392074E+04  0.25500000920E-02 0.  1.
</event>
<event>
 5   0  0.3993393E-05  0.1802960E+04  0.7818609E-02  0.8704727E-01
       -2   -1    0    0    0  501  0.00000000000E+00  0.00000000000E+00  0.12404850515E+04  0.12404850515E+04  0.25500000920E-02 0.  1.
        2   -1    0    0  501    0  0.00000000000E+00  0.00000000000E+00 -0.65511967686E+03  0.65511967686E+03  0.25500000920E-02 0. -1.
    10030    2    1    2    0    0  0.00000000000E+00  0.00000000000E+00  0.58536537467E+03  0.18956047284E+04  0.18029599730E+04 0.  0.
        5    1    3    3  502    0  0.96254048373E+02  0.63954387019E+01 -0.64966451037E+03  0.65680423985E+03  0.46999998093E+01 0. -1.
       -5    1    3    3    0  502 -0.96254048373E+02 -0.63954387019E+01  0.12350298850E+04  0.12388004885E+04  0.46999998093E+01 0.  1.
</event>
<event>
 5   0  0.4015729E-05  0.1800423E+04  0.7818609E-02  0.8706075E-01
       -2   -1    0    0    0  501  0.00000000000E+00  0.00000000000E+00  0.55178462896E+03  0.55178462897E+03  0.25500000920E-02 0. -1.
        2   -1    0    0  501    0  0.00000000000E+00  0.00000000000E+00 -0.14686538928E+04  0.14686538928E+04  0.25500000920E-02 0.  1.
    10030    2    1    2    0    0  0.00000000000E+00  0.00000000000E+00 -0.91686926382E+03  0.20204385218E+04  0.18004228873E+04 0.  0.
        2    1    3    3  502    0 -0.36941670934E+03 -0.63229821295E+03  0.12910108671E+03  0.74359722016E+03  0.25500000920E-02 0. -1.
       -2    1    3    3    0  502  0.36941670934E+03  0.63229821295E+03 -0.10459703505E+04  0.12768413016E+04  0.25500000920E-02 0.  1.
</event>
<event>
 5   0  0.1960300E-05  0.1796244E+04  0.7818609E-02  0.8708299E-01
       -1   -1    0    0    0  501  0.00000000000E+00  0.00000000000E+00  0.87242196387E+03  0.87242196388E+03  0.50400001928E-02 0. -1.
        1   -1    0    0  501    0  0.00000000000E+00  0.00000000000E+00 -0.92457910052E+03  0.92457910054E+03  0.50400001928E-02 0.  1.
    10030    2    1    2    0    0  0.00000000000E+00  0.00000000000E+00 -0.52157136656E+02  0.17970010644E+04  0.17962439864E+04 0.  0.
        3    1    3    3  502    0 -0.62373128001E+03  0.34919374695E+03  0.51788410623E+03  0.88271226357E+03  0.10100000352E+00 0. -1.
       -3    1    3    3    0  502  0.62373128001E+03 -0.34919374695E+03 -0.57004124288E+03  0.91428880085E+03  0.10100000352E+00 0.  1.
</event>
<event>
 5   0  0.3984648E-05  0.1805096E+04  0.7818609E-02  0.8703594E-01
       -2   -1    0    0    0  501  0.00000000000E+00  0.00000000000E+00  0.68043099323E+03  0.68043099323E+03  0.25500000920E-02 0. -1.
        2   -1    0    0  501    0  0.00000000000E+00  0.00000000000E+00 -0.11971720185E+04  0.11971720185E+04  0.25500000920E-02 0.  1.
    10030    2    1    2    0    0  0.00000000000E+00  0.00000000000E+00 -0.51674102530E+03  0.18776030118E+04  0.18050960591E+04 0.  0.
        1    1    3    3  502    0  0.59822185628E+03  0.17095881787E+03 -0.93846586572E+03  0.11259726852E+04  0.50400001928E-02 0.  1.
       -1    1    3    3    0  502 -0.59822185628E+03 -0.17095881787E+03  0.42172484041E+03  0.75163032654E+03  0.50400001928E-02 0. -1.
</event>
<event>
 5   0  0.2001811E-05  0.1796281E+04  0.7818609E-02  0.8708280E-01
       -1   -1    0    0    0  501  0.00000000000E+00  0.00000000000E+00  0.69802095416E+03  0.69802095418E+03  0.50400001928E-02 0. -1.
        1   -1    0    0  501    0  0.00000000000E+00  0.00000000000E+00 -0.11556332343E+04  0.11556332343E+04  0.50400001928E-02 0.  1.
    10030    2    1    2    0    0  0.00000000000E+00  0.00000000000E+00 -0.45761228016E+03  0.18536541885E+04  0.17962808388E+04 0.  0.
        2    1    3    3  502    0  0.77248628788E+03  0.15109285938E+03  0.21755070535E+03  0.81663481834E+03  0.25500000920E-02 0. -1.
       -2    1    3    3    0  502 -0.77248628788E+03 -0.15109285938E+03 -0.67516298551E+03  0.10370193702E+04  0.25500000920E-02 0.  1.
</event>
<event>
 5   0  0.1906857E-05  0.1799752E+04  0.7818609E-02  0.8706431E-01
       -1   -1    0    0    0  501  0.00000000000E+00  0.00000000000E+00  0.49690659576E+03  0.49690659578E+03  0.50400001928E-02 0. -1.
        1   -1    0    0  501    0  0.00000000000E+00  0.00000000000E+00 -0.16296356788E+04  0.16296356788E+04  0.50400001928E-02 0.  1.
    10030    2    1    2    0    0  0.00000000000E+00  0.00000000000E+00 -0.11327290831E+04  0.21265422746E+04  0.17997518913E+04 0.  0.
        4    1    3    3  502    0 -0.26909283468E+03  0.84733583672E+03 -0.40184899254E+03  0.97563989236E+03  0.12699999809E+01 0. -1.
       -4    1    3    3    0  502  0.26909283468E+03 -0.84733583672E+03 -0.73088009053E+03  0.11509023823E+04  0.12699999809E+01 0.  1.
</event>
<event>
 5   0  0.3983176E-05  0.1799696E+04  0.7818609E-02  0.8706461E-01
       -2   -1    0    0    0  501  0.00000000000E+00  0.00000000000E+00  0.49243481891E+03  0.49243481892E+03  0.25500000920E-02 0.  1.
        2   -1    0    0  501    0  0.00000000000E+00  0.00000000000E+00 -0.16443327374E+04  0.16443327374E+04  0.25500000920E-02 0. -1.
    10030    2    1    2    0    0  0.00000000000E+00  0.00000000000E+00 -0.11518979185E+04  0.21367675563E+04  0.17996963008E+04 0.  0.
        3    1    3    3  502    0 -0.53421952598E+03  0.23102682160E+03  0.23885166761E+03  0.62913752357E+03  0.10100000352E+00 0.  1.
       -3    1    3    3    0  502  0.53421952598E+03 -0.23102682160E+03 -0.13907495861E+04  0.15076300327E+04  0.10100000352E+00 0. -1.
</event>
<event>
 5   0  0.3993393E-05  0.1797896E+04  0.7818609E-02  0.8707419E-01
       -2   -1    0    0    0  501  0.00000000000E+00  0.00000000000E+00  0.72333635109E+03  0.72333635109E+03  0.25500000920E-02 0.  1.
        2   -1    0    0  501    0  0.00000000000E+00  0.00000000000E+00 -0.11171950027E+04  0.11171950027E+04  0.25500000920E-02 0. -1.
    10030    2    1    2    0    0  0.00000000000E+00  0.00000000000E+00 -0.39385865162E+03  0.18405313538E+04  0.17978962781E+04 0.  0.
        5    1    3    3  502    0 -0.23115286685E+03 -0.72290728725E+03  0.29621934080E+03  0.81473589689E+03  0.46999998093E+01 0. -1.
       -5    1    3    3    0  502  0.23115286685E+03  0.72290728725E+03 -0.69007799241E+03  0.10257954569E+04  0.46999998093E+01 0.  1.
</event>
<event>
 5   0  0.1446750E-05  0.1800060E+04  0.7818609E-02  0.8706268E-01
       -3   -1    0    0    0  501  0.00000000000E+00  0.00000000000E+00  0.92109845591E+03  0.92109846145E+03  0.10100000352E+00 0.  1.
        3   -1    0    0  501    0  0.00000000000E+00  0.00000000000E+00 -0.87944313914E+03  0.87944314494E+03  0.10100000352E+00 0. -1.
    10030    2    1    2    0    0  0.00000000000E+00  0.00000000000E+00  0.41655316773E+02  0.18005416064E+04  0.18000596965E+04 0.  0.
        3    1    3    3  502    0 -0.35223388446E+03  0.17955335875E+03  0.82958948143E+03  0.91898141216E+03  0.10100000352E+00 0.  1.
       -3    1    3    3    0  502  0.35223388446E+03 -0.17955335875E+03 -0.78793416466E+03  0.88156019422E+03  0.10100000352E+00 0. -1.
</event>
<event>
 5   0  0.3993393E-05  0.1799909E+04  0.7818609E-02  0.8706348E-01
       -2   -1    0    0    0  501  0.00000000000E+00  0.00000000000E+00  0.19859592742E+04  0.19859592742E+04  0.25500000920E-02 0.  1.
        2   -1    0    0  501    0  0.00000000000E+00  0.00000000000E+00 -0.40782222378E+03  0.40782222378E+03  0.25500000920E-02 0. -1.
    10030    2    1    2    0    0  0.00000000000E+00  0.00000000000E+00  0.15781370505E+04  0.23937814980E+04  0.17999092506E+04 0.  0.
        5    1    3    3  502    0  0.22435226452E+03 -0.84769192032E+03  0.51983841988E+03  0.10193966859E+04  0.46999998093E+01 0. -1.
       -5    1    3    3    0  502 -0.22435226452E+03  0.84769192032E+03  0.10582986306E+04  0.13743848121E+04  0.46999998093E+01 0.  1.
</event>
<event>
 5   0  0.3984648E-05  0.1808317E+04  0.7818609E-02  0.8701889E-01
       -2   -1    0    0    0  501  0.00000000000E+00  0.00000000000E+00  0.39529593562E+03  0.39529593563E+03  0.25500000920E-02 0.  1.
        2   -1    0    0  501    0  0.00000000000E+00  0.00000000000E+00 -0.20680783083E+04  0.20680783083E+04  0.25500000920E-02 0. -1.
    10030    2    1    2    0    0  0.00000000000E+00  0.00000000000E+00 -0.16727823726E+04  0.24633742439E+04  0.18083173945E+04 0.  0.
        1    1    3    3  502    0 -0.84883369949E+03  0.62754754458E+01 -0.41224236734E+03  0.94366402943E+03  0.50400001928E-02 0.  1.
       -1    1    3    3    0  502  0.84883369949E+03 -0.62754754458E+01 -0.12605400053E+04  0.15197102145E+04  0.50400001928E-02 0. -1.
</event>
<event>
 5   0  0.1906857E-05  0.1801117E+04  0.7818609E-02  0.8705706E-01
       -1   -1    0    0    0  501  0.00000000000E+00  0.00000000000E+00  0.38919427592E+03  0.38919427595E+03  0.50400001928E-02 0. -1.
        1   -1    0    0  501    0  0.00000000000E+00  0.00000000000E+00 -0.20838064837E+04  0.20838064837E+04  0.50400001928E-02 0.  1.
    10030    2    1    2    0    0  0.00000000000E+00  0.00000000000E+00 -0.16946122077E+04  0.24730007596E+04  0.18011169375E+04 0.  0.
        4    1    3    3  502    0 -0.19990235643E+03  0.82001759261E+03 -0.41613273233E+03  0.94104084296E+03  0.12699999809E+01 0. -1.
       -4    1    3    3    0  502  0.19990235643E+03 -0.82001759261E+03 -0.12784794754E+04  0.15319599167E+04  0.12699999809E+01 0.  1.
</event>
<event>
 5   0  0.2054876E-05  0.1797278E+04  0.7818609E-02  0.8707748E-01
        1   -1    0    0  501    0  0.00000000000E+00  0.00000000000E+00  0.95294483812E+03  0.95294483813E+03  0.50400001928E-02 0.  1.
       -1   -1    0    0    0  501  0.00000000000E+00  0.00000000000E+00 -0.84742781995E+03  0.84742781997E+03  0.50400001928E-02 0. -1.
    10030    2    1    2    0    0  0.00000000000E+00  0.00000000000E+00  0.10551701817E+03  0.18003726581E+04  0.17972779048E+04 0.  0.
        5    1    3    3  502    0 -0.61959444391E+01 -0.80138824166E+03  0.45999065190E+03  0.92405356632E+03  0.46999998093E+01 0.  1.
       -5    1    3    3    0  502  0.61959444391E+01  0.80138824166E+03 -0.35447363373E+03  0.87631909178E+03  0.46999998093E+01 0. -1.
</event>
<event>
 5   0  0.3993393E-05  0.1771217E+04  0.7818609E-02  0.8721757E-01
       -2   -1    0    0    0  501  0.00000000000E+00  0.00000000000E+00  0.46016205649E+03  0.46016205649E+03  0.25500000920E-02 0.  1.
        2   -1    0    0  501    0  0.00000000000E+00  0.00000000000E+00 -0.17044056126E+04  0.17044056126E+04  0.25500000920E-02 0. -1.
    10030    2    1    2    0    0  0.00000000000E+00  0.00000000000E+00 -0.12442435561E+04  0.21645676691E+04  0.17712174252E+04 0.  0.
        5    1    3    3  502    0 -0.19840912103E+03  0.63034491983E+03 -0.13426094574E+04  0.14964368153E+04  0.46999998093E+01 0.  1.
       -5    1    3    3    0  502  0.19840912103E+03 -0.63034491983E+03  0.98365901229E+02  0.66813085379E+03  0.46999998093E+01 0. -1.
</event>
<event>
 5   0  0.4015729E-05  0.1797357E+04  0.7818609E-02  0.8707706E-01
       -2   -1    0    0    0  501  0.00000000000E+00  0.00000000000E+00  0.59002710161E+03  0.59002710161E+03  0.25500000920E-02 0.  1.
        2   -1    0    0  501    0  0.00000000000E+00  0.00000000000E+00 -0.13687903661E+04  0.13687903661E+04  0.25500000920E-02 0. -1.
    10030    2    1    2    0    0  0.00000000000E+00  0.00000000000E+00 -0.77876326445E+03  0.19588174677E+04  0.17973574073E+04 0.  0.
        2    1    3    3  502    0  0.85759564329E+03 -0.26542100513E+03 -0.43438014462E+03  0.99729870520E+03  0.25500000920E-02 0. -1.
       -2    1    3    3    0  502 -0.85759564329E+03  0.26542100513E+03 -0.34438311982E+03  0.96151876246E+03  0.25500000920E-02 0.  1.
</event>
<event>
 5   0  0.3983176E-05  0.1799948E+04  0.7818609E-02  0.8706327E-01
       -2   -1    0    0    0  501  0.00000000000E+00  0.00000000000E+00  0.60946946674E+03  0.60946946675E+03  0.25500000920E-02 0. -1.
        2   -1    0    0  501    0  0.00000000000E+00  0.00000000000E+00 -0.13289481985E+04  0.13289481985E+04  0.25500000920E-02 0.  1.
    10030    2    1    2    0    0  0.00000000000E+00  0.00000000000E+00 -0.71947873171E+03  0.19384176652E+04  0.17999481658E+04 0.  0.
        3    1    3    3  502    0  0.11989386725E+03  0.21387649204E+02  0.60055431919E+03  0.61277848481E+03  0.10100000352E+00 0. -1.
       -3    1    3    3    0  502 -0.11989386725E+03 -0.21387649204E+02 -0.13200330509E+04  0.13256391804E+04  0.10100000352E+00 0.  1.
</event>
<event>
 5   0  0.2038338E-05  0.1802549E+04  0.7818609E-02  0.8704945E-01
       -1   -1    0    0    0  501  0.00000000000E+00  0.00000000000E+00  0.57997980447E+03  0.57997980450E+03  0.50400001928E-02 0.  1.
        1   -1    0    0  501    0  0.00000000000E+00  0.00000000000E+00 -0.14005594040E+04  0.14005594040E+04  0.50400001928E-02 0. -1.
    10030    2    1    2    0    0  0.00000000000E+00  0.00000000000E+00 -0.82057959953E+03  0.19805392085E+04  0.18025494937E+04 0.  0.
        1    1    3    3  502    0  0.50191683083E+02  0.62955764404E+03 -0.11167690533E+04  0.12829790141E+04  0.50400001928E-02 0. -1.
       -1    1    3    3    0  502 -0.50191683083E+02 -0.62955764404E+03  0.29618945379E+03  0.69756019438E+03  0.50400001928E-02 0.  1.
</event>
<event>
 5   0  0.3983176E-05  0.1797474E+04  0.7818609E-02  0.8707644E-01
        2   -1    0    0  501    0  0.00000000000E+00  0.00000000000E+00  0.17936825946E+04  0.17936825946E+04  0.25500000920E-02 0.  1.
       -2   -1    0    0    0  501  0.00000000000E+00  0.00000000000E+00 -0.45031823961E+03  0.45031823961E+03  0.25500000920E-02 0. -1.
    10030    2    1    2    0    0  0.00000000000E+00  0.00000000000E+00  0.13433643550E+04  0.22440008342E+04  0.17974737699E+04 0.  0.
        3    1    3    3  502    0  0.88116468426E+03  0.17207650630E+03  0.62071893662E+03  0.10914914261E+04  0.10100000352E+00 0.  1.
       -3    1    3    3    0  502 -0.88116468426E+03 -0.17207650630E+03  0.72264541833E+03  0.11525094081E+04  0.10100000352E+00 0. -1.
</event>
<event>
 5   0  0.3993393E-05  0.1836710E+04  0.7818609E-02  0.8687018E-01
        2   -1    0    0  501    0  0.00000000000E+00  0.00000000000E+00  0.13202267763E+04  0.13202267763E+04  0.25500000920E-02 0.  1.
       -2   -1    0    0    0  501  0.00000000000E+00  0.00000000000E+00 -0.63881112751E+03  0.63881112751E+03  0.25500000920E-02 0. -1.
    10030    2    1    2    0    0  0.00000000000E+00  0.00000000000E+00  0.68141564875E+03  0.19590379038E+04  0.18367096183E+04 0.  0.
        5    1    3    3  502    0  0.77113247629E+03 -0.45668043261E+03  0.12698478395E+03  0.90517928548E+03  0.46999998093E+01 0.  1.
       -5    1    3    3    0  502 -0.77113247629E+03  0.45668043261E+03  0.55443086480E+03  0.10538586183E+04  0.46999998093E+01 0. -1.
</event>
<event>
 5   0  0.2038338E-05  0.1830725E+04  0.7818609E-02  0.8690129E-01
       -1   -1    0    0    0  501  0.00000000000E+00  0.00000000000E+00  0.17920536027E+04  0.17920536027E+04  0.50400001928E-02 0. -1.
        1   -1    0    0  501    0  0.00000000000E+00  0.00000000000E+00 -0.46755797554E+03  0.46755797556E+03  0.50400001928E-02 0.  1.
    10030    2    1    2    0    0  0.00000000000E+00  0.00000000000E+00  0.13244956272E+04  0.22596115783E+04  0.18307254896E+04 0.  0.
        1    1    3    3  502    0 -0.39217107129E+03 -0.71298120669E+03  0.14481197507E+03  0.82650520773E+03  0.50400001928E-02 0.  1.
       -1    1    3    3    0  502  0.39217107129E+03  0.71298120669E+03  0.11796836521E+04  0.14331063705E+04  0.50400001928E-02 0. -1.
</event>
<event>
 5   0  0.2001811E-05  0.1803154E+04  0.7818609E-02  0.8704624E-01
        1   -1    0    0  501    0  0.00000000000E+00  0.00000000000E+00  0.73951966121E+03  0.73951966123E+03  0.50400001928E-02 0.  1.
       -1   -1    0    0    0  501  0.00000000000E+00  0.00000000000E+00 -0.10991476452E+04  0.10991476452E+04  0.50400001928E-02 0. -1.
    10030    2    1    2    0    0  0.00000000000E+00  0.00000000000E+00 -0.35962798399E+03  0.18386673064E+04  0.18031542299E+04 0.  0.
        2    1    3    3  502    0 -0.76261486314E+02 -0.17110283788E+03 -0.10790839663E+04  0.10952233570E+04  0.25500000920E-02 0. -1.
       -2    1    3    3    0  502  0.76261486314E+02  0.17110283788E+03  0.71945598232E+03  0.74344394942E+03  0.25500000920E-02 0.  1.
</event>
<event>
 5   0  0.3909859E-05  0.1800620E+04  0.7818609E-02  0.8705970E-01
       -2   -1    0    0    0  501  0.00000000000E+00  0.00000000000E+00  0.13396343601E+04  0.13396343601E+04  0.25500000920E-02 0. -1.
        2   -1    0    0  501    0  0.00000000000E+00  0.00000000000E+00 -0.60505952422E+03  0.60505952422E+03  0.25500000920E-02 0.  1.
    10030    2    1    2    0    0  0.00000000000E+00  0.00000000000E+00  0.73457483586E+03  0.19446938843E+04  0.18006204803E+04 0.  0.
        4    1    3    3  502    0 -0.28017989888E+03 -0.37297704716E+03  0.11989286216E+04  0.12864851752E+04  0.12699999809E+01 0. -1.
       -4    1    3    3    0  502  0.28017989888E+03  0.37297704716E+03 -0.46435378576E+03  0.65820870907E+03  0.12699999809E+01 0.  1.
</event>
<event>
 5   0  0.3909859E-05  0.1799769E+04  0.7818609E-02  0.8706422E-01
       -2   -1    0    0    0  501  0.00000000000E+00  0.00000000000E+00  0.79513250956E+03  0.79513250956E+03  0.25500000920E-02 0. -1.
        2   -1    0    0  501    0  0.00000000000E+00  0.00000000000E+00 -0.10184368408E+04  0.10184368408E+04  0.25500000920E-02 0.  1.
    10030    2    1    2    0    0  0.00000000000E+00  0.00000000000E+00 -0.22330433120E+03  0.18135693503E+04  0.17997691419E+04 0.  0.
        4    1    3    3  502    0  0.88634291039E+03 -0.79548663305E+02 -0.24631399752E+03  0.92336555215E+03  0.12699999809E+01 0.  1.
       -4    1    3    3    0  502 -0.88634291039E+03  0.79548663305E+02  0.23009666326E+02  0.89020379817E+03  0.12699999809E+01 0. -1.
</event>
<event>
 5   0  0.4015729E-05  0.1799243E+04  0.7818609E-02  0.8706702E-01
       -2   -1    0    0    0  501  0.00000000000E+00  0.00000000000E+00  0.72635741699E+03  0.72635741699E+03  0.25500000920E-02 0. -1.
        2   -1    0    0  501    0  0.00000000000E+00  0.00000000000E+00 -0.11142162579E+04  0.11142162579E+04  0.25500000920E-02 0.  1.
    10030    2    1    2    0    0  0.00000000000E+00  0.00000000000E+00 -0.38785884091E+03  0.18405736749E+04  0.17992434444E+04 0.  0.
        2    1    3    3  502    0  0.88010890798E+03  0.15362733181E+03 -0.30183319368E+03  0.94302509182E+03  0.25500000920E-02 0. -1.
       -2    1    3    3    0  502 -0.88010890798E+03 -0.15362733181E+03 -0.86025647230E+02  0.89754858307E+03  0.25500000920E-02 0.  1.
</event>
<event>
 5   0  0.3984648E-05  0.1799487E+04  0.7818609E-02  0.8706572E-01
        2   -1    0    0  501    0  0.00000000000E+00  0.00000000000E+00  0.79544885773E+03  0.79544885773E+03  0.25500000920E-02 0. -1.
       -2   -1    0    0    0  501  0.00000000000E+00  0.00000000000E+00 -0.10177123990E+04  0.10177123990E+04  0.25500000920E-02 0.  1.
    10030    2    1    2    0    0  0.00000000000E+00  0.00000000000E+00 -0.22226354126E+03  0.18131612567E+04  0.17994867771E+04 0.  0.
        1    1    3    3  502    0  0.16386009204E+03 -0.61001477890E+03  0.53449477683E+03  0.82743750624E+03  0.50400001928E-02 0. -1.
       -1    1    3    3    0  502 -0.16386009204E+03  0.61001477890E+03 -0.75675831810E+03  0.98572375049E+03  0.50400001928E-02 0.  1.
</event>
<event>
 5   0  0.3909859E-05  0.1799861E+04  0.7818609E-02  0.8706373E-01
       -2   -1    0    0    0  501  0.00000000000E+00  0.00000000000E+00  0.98341011361E+03  0.98341011361E+03  0.25500000920E-02 0.  1.
        2   -1    0    0  501    0  0.00000000000E+00  0.00000000000E+00 -0.82353742565E+03  0.82353742565E+03  0.25500000920E-02 0. -1.
    10030    2    1    2    0    0  0.00000000000E+00  0.00000000000E+00  0.15987268796E+03  0.18069475393E+04  0.17998611428E+04 0.  0.
        4    1    3    3  502    0  0.88725722127E+03  0.14536570663E+03  0.11903650871E+03  0.90693322172E+03  0.12699999809E+01 0. -1.
       -4    1    3    3    0  502 -0.88725722127E+03 -0.14536570663E+03  0.40836179254E+02  0.90001431755E+03  0.12699999809E+01 0.  1.
</event>
<event>
 5   0  0.3983176E-05  0.1803557E+04  0.7818609E-02  0.8704410E-01
        2   -1    0    0  501    0  0.00000000000E+00  0.00000000000E+00  0.14039114671E+04  0.14039114671E+04  0.25500000920E-02 0.  1.
       -2   -1    0    0    0  501  0.00000000000E+00  0.00000000000E+00 -0.57924222037E+03  0.57924222038E+03  0.25500000920E-02 0. -1.
    10030    2    1    2    0    0  0.00000000000E+00  0.00000000000E+00  0.82466924675E+03  0.19831536875E+04  0.18035573686E+04 0.  0.
        3    1    3    3  502    0  0.21356229816E+02  0.21598067916E+03 -0.55009600923E+03  0.59136230171E+03  0.10100000352E+00 0. -1.
       -3    1    3    3    0  502 -0.21356229816E+02 -0.21598067916E+03  0.13747652560E+04  0.13917913858E+04  0.10100000352E+00 0.  1.
</event>
<event>
 5   0  0.1960300E-05  0.1800069E+04  0.7818609E-02  0.8706263E-01
        1   -1    0    0  501    0  0.00000000000E+00  0.00000000000E+00  0.13465479001E+04  0.13465479001E+04  0.50400001928E-02 0. -1.
       -1   -1    0    0    0  501  0.00000000000E+00  0.00000000000E+00 -0.60158431781E+03  0.60158431783E+03  0.50400001928E-02 0.  1.
    10030    2    1    2    0    0  0.00000000000E+00  0.00000000000E+00  0.74496358233E+03  0.19481322180E+04  0.18000689986E+04 0.  0.
        3    1    3    3  502    0  0.39849071372E+03 -0.40973307206E+03  0.11249295154E+04  0.12618012776E+04  0.10100000352E+00 0. -1.
       -3    1    3    3    0  502 -0.39849071372E+03  0.40973307206E+03 -0.37996593307E+03  0.68633094041E+03  0.10100000352E+00 0.  1.
</event>
<event>
 5   0  0.1960300E-05  0.1799234E+04  0.7818609E-02  0.8706707E-01
        1   -1    0    0  501    0  0.00000000000E+00  0.00000000000E+00  0.55005854815E+03  0.55005854818E+03  0.50400001928E-02 0.  1.
       -1   -1    0    0    0  501  0.00000000000E+00  0.00000000000E+00 -0.14713175477E+04  0.14713175477E+04  0.50400001928E-02 0. -1.
    10030    2    1    2    0    0  0.00000000000E+00  0.00000000000E+00 -0.92125899953E+03  0.20213760959E+04  0.17992340528E+04 0.  0.
        3    1    3    3  502    0 -0.36974160101E+03 -0.44938344317E+03 -0.12313758422E+04  0.13619621160E+04  0.10100000352E+00 0. -1.
       -3    1    3    3    0  502  0.36974160101E+03  0.44938344317E+03  0.31011684267E+03  0.65941397985E+03  0.10100000352E+00 0.  1.
</event>
<event>
 5   0  0.1906857E-05  0.1797737E+04  0.7818609E-02  0.8707504E-01
       -1   -1    0    0    0  501  0.00000000000E+00  0.00000000000E+00  0.40245122576E+03  0.40245122579E+03  0.50400001928E-02 0.  1.
        1   -1    0    0  501    0  0.00000000000E+00  0.00000000000E+00 -0.20076092092E+04  0.20076092092E+04  0.50400001928E-02 0. -1.
    10030    2    1    2    0    0  0.00000000000E+00  0.00000000000E+00 -0.16051579834E+04  0.24100604350E+04  0.17977372301E+04 0.  0.
        4    1    3    3  502    0  0.56116158428E+03 -0.62548286931E+03 -0.12303820874E+04  0.14899573274E+04  0.12699999809E+01 0. -1.
       -4    1    3    3    0  502 -0.56116158428E+03  0.62548286931E+03 -0.37477589598E+03  0.92010310758E+03  0.12699999809E+01 0.  1.
</event>
<event>
 5   0  0.2038338E-05  0.1785515E+04  0.7818609E-02  0.8714041E-01
        1   -1    0    0  501    0  0.00000000000E+00  0.00000000000E+00  0.18457172190E+04  0.18457172190E+04  0.50400001928E-02 0.  1.
       -1   -1    0    0    0  501  0.00000000000E+00  0.00000000000E+00 -0.43181908826E+03  0.43181908829E+03  0.50400001928E-02 0. -1.
    10030    2    1    2    0    0  0.00000000000E+00  0.00000000000E+00  0.14138981308E+04  0.22775363073E+04  0.17855149697E+04 0.  0.
        1    1    3    3  502    0  0.22356546069E+03 -0.23231469600E+03 -0.35496304998E+03  0.47953143803E+03  0.50400001928E-02 0. -1.
       -1    1    3    3    0  502 -0.22356546069E+03  0.23231469600E+03  0.17688611807E+04  0.17980048693E+04  0.50400001928E-02 0.  1.
</event>
<event>
 5   0  0.3984648E-05  0.1801895E+04  0.7818609E-02  0.8705292E-01
       -2   -1    0    0    0  501  0.00000000000E+00  0.00000000000E+00  0.71361631750E+03  0.71361631751E+03  0.25500000920E-02 0.  1.
        2   -1    0    0  501    0  0.00000000000E+00  0.00000000000E+00 -0.11374553638E+04  0.11374553638E+04  0.25500000920E-02 0. -1.
    10030    2    1    2    0    0  0.00000000000E+00  0.00000000000E+00 -0.42383904632E+03  0.18510716813E+04  0.18018953444E+04 0.  0.
        1    1    3    3  502    0  0.15979122005E+03  0.88661445033E+03 -0.20226678168E+03  0.92332565681E+03  0.50400001928E-02 0. -1.
       -1    1    3    3    0  502 -0.15979122005E+03 -0.88661445033E+03 -0.22157226464E+03  0.92774602452E+03  0.50400001928E-02 0.  1.
</event>
<event>
 5   0  0.3909859E-05  0.1798924E+04  0.7818609E-02  0.8706872E-01
        2   -1    0    0  501    0  0.00000000000E+00  0.00000000000E+00  0.14020883797E+04  0.14020883797E+04  0.25500000920E-02 0.  1.
       -2   -1    0    0    0  501  0.00000000000E+00  0.00000000000E+00 -0.57701913486E+03  0.57701913486E+03  0.25500000920E-02 0. -1.
    10030    2    1    2    0    0  0.00000000000E+00  0.00000000000E+00  0.82506924487E+03  0.19791075146E+04  0.17989239271E+04 0.  0.
        4    1    3    3  502    0 -0.53821670618E+03 -0.78851142221E+01 -0.38026221542E+03  0.65904503884E+03  0.12699999809E+01 0. -1.
       -4    1    3    3    0  502  0.53821670618E+03  0.78851142221E+01  0.12053314603E+04  0.13200624758E+04  0.12699999809E+01 0.  1.
</event>
<event>
 5   0  0.4015729E-05  0.1801931E+04  0.7818609E-02  0.8705273E-01
        2   -1    0    0  501    0  0.00000000000E+00  0.00000000000E+00  0.22824566533E+04  0.22824566533E+04  0.25500000920E-02 0.  1.
       -2   -1    0    0    0  501  0.00000000000E+00  0.00000000000E+00 -0.35564248711E+03  0.35564248712E+03  0.25500000920E-02 0. -1.
    10030    2    1    2    0    0  0.00000000000E+00  0.00000000000E+00  0.19268141662E+04  0.26380991405E+04  0.18019306989E+04 0.  0.
        2    1    3    3  502    0  0.80666607377E+03 -0.30470218771E+03  0.13457010082E+04  0.15982693081E+04  0.25500000920E-02 0.  1.
       -2    1    3    3    0  502 -0.80666607377E+03  0.30470218771E+03  0.58111315798E+03  0.10398298323E+04  0.25500000920E-02 0. -1.
</event>
<event>
 5   0  0.2054876E-05  0.1794878E+04  0.7818609E-02  0.8709028E-01
        1   -1    0    0  501    0  0.00000000000E+00  0.00000000000E+00  0.98684412671E+03  0.98684412673E+03  0.50400001928E-02 0.  1.
       -1   -1    0    0    0  501  0.00000000000E+00  0.00000000000E+00 -0.81613385167E+03  0.81613385168E+03  0.50400001928E-02 0. -1.
    10030    2    1    2    0    0  0.00000000000E+00  0.00000000000E+00  0.17071027505E+03  0.18029779784E+04  0.17948781554E+04 0.  0.
        5    1    3    3  502    0 -0.61465558709E+03 -0.33572087189E+02  0.74133059515E+03  0.96359831729E+03  0.46999998093E+01 0.  1.
       -5    1    3    3    0  502  0.61465558709E+03  0.33572087189E+02 -0.57062032010E+03  0.83937966112E+03  0.46999998093E+01 0. -1.
</event>
<event>
 5   0  0.1960300E-05  0.1799702E+04  0.7818609E-02  0.8706458E-01
       -1   -1    0    0    0  501  0.00000000000E+00  0.00000000000E+00  0.64630578913E+03  0.64630578915E+03  0.50400001928E-02 0.  1.
        1   -1    0    0  501    0  0.00000000000E+00  0.00000000000E+00 -0.12528615311E+04  0.12528615311E+04  0.50400001928E-02 0. -1.
    10030    2    1    2    0    0  0.00000000000E+00  0.00000000000E+00 -0.60655574199E+03  0.18991673203E+04  0.17997018204E+04 0.  0.
        3    1    3    3  502    0  0.77844071663E+03 -0.41041593912E+03 -0.10495361406E+03  0.88624289204E+03  0.10100000352E+00 0. -1.
       -3    1    3    3    0  502 -0.77844071663E+03  0.41041593912E+03 -0.50160212793E+03  0.10129244282E+04  0.10100000352E+00 0.  1.
</event>
<event>
 5   0  0.3984648E-05  0.1799331E+04  0.7818609E-02  0.8706655E-01
        2   -1    0    0  501    0  0.00000000000E+00  0.00000000000E+00  0.80881962507E+03  0.80881962508E+03  0.25500000920E-02 0.  1.
       -2   -1    0    0    0  501  0.00000000000E+00  0.00000000000E+00 -0.10007153533E+04  0.10007153533E+04  0.25500000920E-02 0. -1.
    10030    2    1    2    0    0  0.00000000000E+00  0.00000000000E+00 -0.19189572826E+03  0.18095349784E+04  0.17993312279E+04 0.  0.
        1    1    3    3  502    0  0.82798168009E+03 -0.33760826788E+03  0.39391591796E+01  0.89417477157E+03  0.50400001928E-02 0.  1.
       -1    1    3    3    0  502 -0.82798168009E+03  0.33760826788E+03 -0.19583488744E+03  0.91536020684E+03  0.50400001928E-02 0. -1.
</event>
<event>
 5   0  0.1906857E-05  0.1801610E+04  0.7818609E-02  0.8705444E-01
       -1   -1    0    0    0  501  0.00000000000E+00  0.00000000000E+00  0.62273360728E+03  0.62273360730E+03  0.50400001928E-02 0.  1.
        1   -1    0    0  501    0  0.00000000000E+00  0.00000000000E+00 -0.13030449714E+04  0.13030449714E+04  0.50400001928E-02 0. -1.
    10030    2    1    2    0    0  0.00000000000E+00  0.00000000000E+00 -0.68031136411E+03  0.19257785787E+04  0.18016102747E+04 0.  0.
        4    1    3    3  502    0  0.37193523381E+03 -0.80574211933E+03 -0.17493185483E+03  0.90452139154E+03  0.12699999809E+01 0.  1.
       -4    1    3    3    0  502 -0.37193523381E+03  0.80574211933E+03 -0.50537950928E+03  0.10212571872E+04  0.12699999809E+01 0. -1.
</event>
<event>
 5   0  0.1960300E-05  0.1804179E+04  0.7818609E-02  0.8704080E-01
        1   -1    0    0  501    0  0.00000000000E+00  0.00000000000E+00  0.14362787662E+04  0.14362787662E+04  0.50400001928E-02 0.  1.
       -1   -1    0    0    0  501  0.00000000000E+00  0.00000000000E+00 -0.56657894299E+03  0.56657894302E+03  0.50400001928E-02 0. -1.
    10030    2    1    2    0    0  0.00000000000E+00  0.00000000000E+00  0.86969982325E+03  0.20028577093E+04  0.18041788218E+04 0.  0.
        3    1    3    3  502    0  0.70267083997E+03 -0.43785098743E+02  0.10609641986E+04  0.12733061239E+04  0.10100000352E+00 0.  1.
       -3    1    3    3    0  502 -0.70267083997E+03  0.43785098743E+02 -0.19126437537E+03  0.72955158536E+03  0.10100000352E+00 0. -1.
</event>
<event>
 5   0  0.2038338E-05  0.1800452E+04  0.7818609E-02  0.8706059E-01
       -1   -1    0    0    0  501  0.00000000000E+00  0.00000000000E+00  0.15581005909E+04  0.15581005909E+04  0.50400001928E-02 0. -1.
        1   -1    0    0  501    0  0.00000000000E+00  0.00000000000E+00 -0.52012474342E+03  0.52012474345E+03  0.50400001928E-02 0.  1.
    10030    2    1    2    0    0  0.00000000000E+00  0.00000000000E+00  0.10379758475E+04  0.20782253344E+04  0.18004517990E+04 0.  0.
        1    1    3    3  502    0  0.66984323876E+02 -0.49962693157E+03  0.13799079613E+04  0.14691017501E+04  0.50400001928E-02 0. -1.
       -1    1    3    3    0  502 -0.66984323876E+02  0.49962693157E+03 -0.34193211385E+03  0.60912358426E+03  0.50400001928E-02 0.  1.
</event>
<event>
 5   0  0.2054876E-05  0.1800552E+04  0.7818609E-02  0.8706006E-01
        1   -1    0    0  501    0  0.00000000000E+00  0.00000000000E+00  0.17573209651E+04  0.17573209651E+04  0.50400001928E-02 0.  1.
       -1   -1    0    0    0  501  0.00000000000E+00  0.00000000000E+00 -0.46121153406E+03  0.46121153409E+03  0.50400001928E-02 0. -1.
    10030    2    1    2    0    0  0.00000000000E+00  0.00000000000E+00  0.12961094310E+04  0.22185324992E+04  0.18005518023E+04 0.  0.
        5    1    3    3  502    0  0.77733516259E+03 -0.35252610572E+03  0.10007784208E+04  0.13153342342E+04  0.46999998093E+01 0.  1.
       -5    1    3    3    0  502 -0.77733516259E+03  0.35252610572E+03  0.29533101022E+03  0.90319826495E+03  0.46999998093E+01 0. -1.
</event>
<event>
 5   0  0.1960300E-05  0.1798872E+04  0.7818609E-02  0.8706900E-01
        1   -1    0    0  501    0  0.00000000000E+00  0.00000000000E+00  0.16198383871E+04  0.16198383871E+04  0.50400001928E-02 0. -1.
       -1   -1    0    0    0  501  0.00000000000E+00  0.00000000000E+00 -0.49942338298E+03  0.49942338300E+03  0.50400001928E-02 0.  1.
    10030    2    1    2    0    0  0.00000000000E+00  0.00000000000E+00  0.11204150041E+04  0.21192617701E+04  0.17988720546E+04 0.  0.
        3    1    3    3  502    0 -0.88500194698E+03 -0.11214459496E+03  0.42495447710E+03  0.98812508021E+03  0.10100000352E+00 0. -1.
       -3    1    3    3    0  502  0.88500194698E+03  0.11214459496E+03  0.69546052698E+03  0.11311366898E+04  0.10100000352E+00 0.  1.
</event>
<event>
 5   0  0.3909859E-05  0.1803960E+04  0.7818609E-02  0.8704196E-01
       -2   -1    0    0    0  501  0.00000000000E+00  0.00000000000E+00  0.42835628770E+03  0.42835628771E+03  0.25500000920E-02 0.  1.
        2   -1    0    0  501    0  0.00000000000E+00  0.00000000000E+00 -0.18992795172E+04  0.18992795172E+04  0.25500000920E-02 0. -1.
    10030    2    1    2    0    0  0.00000000000E+00  0.00000000000E+00 -0.14709232295E+04  0.23276358049E+04  0.18039604467E+04 0.  0.
        4    1    3    3  502    0  0.72017660443E+03  0.41553167134E+03 -0.11865950232E+04  0.14489065785E+04  0.12699999809E+01 0. -1.
       -4    1    3    3    0  502 -0.72017660443E+03 -0.41553167134E+03 -0.28432820633E+03  0.87872922636E+03  0.12699999809E+01 0.  1.
</event>
<event>
 5   0  0.3984648E-05  0.1797193E+04  0.7818609E-02  0.8707794E-01
        2   -1    0    0  501    0  0.00000000000E+00  0.00000000000E+00  0.14915271247E+04  0.14915271247E+04  0.25500000920E-02 0.  1.
       -2   -1    0    0    0  501  0.00000000000E+00  0.00000000000E+00 -0.54137499730E+03  0.54137499731E+03  0.25500000920E-02 0. -1.
    10030    2    1    2    0    0  0.00000000000E+00  0.00000000000E+00  0.95015212737E+03  0.20329021220E+04  0.17971928034E+04 0.  0.
        1    1    3    3  502    0 -0.71093982471E+03 -0.54091627809E+03  0.36511741267E+03  0.96505781138E+03  0.50400001928E-02 0.  1.
       -1    1    3    3    0  502  0.71093982471E+03  0.54091627809E+03  0.58503471470E+03  0.10678443106E+04  0.50400001928E-02 0. -1.
</event>
<event>
 5   0  0.1906857E-05  0.1801470E+04  0.7818609E-02  0.8705518E-01
        1   -1    0    0  501    0  0.00000000000E+00  0.00000000000E+00  0.11281264732E+04  0.11281264732E+04  0.50400001928E-02 0. -1.
       -1   -1    0    0    0  501  0.00000000000E+00  0.00000000000E+00 -0.71917801565E+03  0.71917801567E+03  0.50400001928E-02 0.  1.
    10030    2    1    2    0    0  0.00000000000E+00  0.00000000000E+00  0.40894845756E+03  0.18473044889E+04  0.18014702423E+04 0.  0.
        4    1    3    3  502    0 -0.36910613177E+03  0.20176508873E+03  0.10212144876E+04  0.11044587499E+04  0.12699999809E+01 0. -1.
       -4    1    3    3    0  502  0.36910613177E+03 -0.20176508873E+03 -0.61226603005E+03  0.74284573903E+03  0.12699999809E+01 0.  1.
</event>
<event>
 5   0  0.3993393E-05  0.1802014E+04  0.7818609E-02  0.8705229E-01
       -2   -1    0    0    0  501  0.00000000000E+00  0.00000000000E+00  0.44701539375E+03  0.44701539375E+03  0.25500000920E-02 0.  1.
        2   -1    0    0  501    0  0.00000000000E+00  0.00000000000E+00 -0.18160744532E+04  0.18160744532E+04  0.25500000920E-02 0. -1.
    10030    2    1    2    0    0  0.00000000000E+00  0.00000000000E+00 -0.13690590594E+04  0.22630898469E+04  0.18020135813E+04 0.  0.
        5    1    3    3  502    0  0.17151742452E+03  0.26233916692E+03 -0.17453851235E+04  0.17733108540E+04  0.46999998093E+01 0. -1.
       -5    1    3    3    0  502 -0.17151742452E+03 -0.26233916692E+03  0.37632606410E+03  0.48977899295E+03  0.46999998093E+01 0.  1.
</event>
<event>
 5   0  0.1906857E-05  0.1809617E+04  0.7818609E-02  0.8701202E-01
        1   -1    0    0  501    0  0.00000000000E+00  0.00000000000E+00  0.70481627137E+03  0.70481627139E+03  0.50400001928E-02 0. -1.
       -1   -1    0    0    0  501  0.00000000000E+00  0.00000000000E+00 -0.11615480835E+04  0.11615480835E+04  0.50400001928E-02 0.  1.
    10030    2    1    2    0    0  0.00000000000E+00  0.00000000000E+00 -0.45673181216E+03  0.18663643549E+04  0.18096165221E+04 0.  0.
        4    1    3    3  502    0  0.55231770816E+03 -0.50614879994E+03  0.29492550346E+03  0.80512366996E+03  0.12699999809E+01 0. -1.
       -4    1    3    3    0  502 -0.55231770816E+03  0.50614879994E+03 -0.75165731563E+03  0.10612406850E+04  0.12699999809E+01 0.  1.
</event>
<event>
 5   0  0.2038338E-05  0.1791151E+04  0.7818609E-02  0.8711019E-01
        1   -1    0    0  501    0  0.00000000000E+00  0.00000000000E+00  0.56270623286E+03  0.56270623288E+03  0.50400001928E-02 0.  1.
       -1   -1    0    0    0  501  0.00000000000E+00  0.00000000000E+00 -0.14253543459E+04  0.14253543459E+04  0.50400001928E-02 0. -1.
    10030    2    1    2    0    0  0.00000000000E+00  0.00000000000E+00 -0.86264811308E+03  0.19880605788E+04  0.17911513331E+04 0.  0.
        1    1    3    3  502    0  0.52881092036E+03  0.70162855966E+03 -0.23865481472E+03  0.91042833097E+03  0.50400001928E-02 0. -1.
       -1    1    3    3    0  502 -0.52881092036E+03 -0.70162855966E+03 -0.62399329835E+03  0.10776322479E+04  0.50400001928E-02 0.  1.
</event>
<event>
 5   0  0.2038338E-05  0.1804453E+04  0.7818609E-02  0.8703935E-01
       -1   -1    0    0    0  501  0.00000000000E+00  0.00000000000E+00  0.43860636494E+03  0.43860636497E+03  0.50400001928E-02 0.  1.
        1   -1    0    0  501    0  0.00000000000E+00  0.00000000000E+00 -0.18559063601E+04  0.18559063601E+04  0.50400001928E-02 0. -1.
    10030    2    1    2    0    0  0.00000000000E+00  0.00000000000E+00 -0.14172999952E+04  0.22945127251E+04  0.18044526509E+04 0.  0.
        1    1    3    3  502    0  0.40617510620E+03  0.27828090499E+03  0.25271600262E+03  0.55342917974E+03  0.50400001928E-02 0.  1.
       -1    1    3    3    0  502 -0.40617510620E+03 -0.27828090499E+03 -0.16700159978E+04  0.17410835453E+04  0.50400001928E-02 0. -1.
</event>
<event>
 5   0  0.1960300E-05  0.1798521E+04  0.7818609E-02  0.8707086E-01
        1   -1    0    0  501    0  0.00000000000E+00  0.00000000000E+00  0.14010144857E+04  0.14010144857E+04  0.50400001928E-02 0.  1.
       -1   -1    0    0    0  501  0.00000000000E+00  0.00000000000E+00 -0.57720273434E+03  0.57720273437E+03  0.50400001928E-02 0. -1.
    10030    2    1    2    0    0  0.00000000000E+00  0.00000000000E+00  0.82381175137E+03  0.19782172201E+04  0.17985209390E+04 0.  0.
        3    1    3    3  502    0 -0.24530845160E+03 -0.85273645248E+03  0.57255984109E+03  0.10560115888E+04  0.10100000352E+00 0.  1.
       -3    1    3    3    0  502  0.24530845160E+03  0.85273645248E+03  0.25125191028E+03  0.92220563131E+03  0.10100000352E+00 0. -1.
</event>
<event>
 5   0  0.3993393E-05  0.1810546E+04  0.7818609E-02  0.8700712E-01
       -2   -1    0    0    0  501  0.00000000000E+00  0.00000000000E+00  0.10401525318E+04  0.10401525318E+04  0.25500000920E-02 0. -1.
        2   -1    0    0  501    0  0.00000000000E+00  0.00000000000E+00 -0.78788326285E+03  0.78788326285E+03  0.25500000920E-02 0.  1.
    10030    2    1    2    0    0  0.00000000000E+00  0.00000000000E+00  0.25226926897E+03  0.18280357947E+04  0.18105455207E+04 0.  0.
        5    1    3    3  502    0 -0.32931030359E+03  0.10841950419E+03 -0.71818319482E+03  0.79750188480E+03  0.46999998093E+01 0.  1.
       -5    1    3    3    0  502  0.32931030359E+03 -0.10841950419E+03  0.97045246379E+03  0.10305339099E+04  0.46999998093E+01 0. -1.
</event>
<event>
 5   0  0.3984648E-05  0.1853482E+04  0.7818609E-02  0.8678364E-01
        2   -1    0    0  501    0  0.00000000000E+00  0.00000000000E+00  0.71354535562E+03  0.71354535562E+03  0.25500000920E-02 0.  1.
       -2   -1    0    0    0  501  0.00000000000E+00  0.00000000000E+00 -0.12036357403E+04  0.12036357403E+04  0.25500000920E-02 0. -1.
    10030    2    1    2    0    0  0.00000000000E+00  0.00000000000E+00 -0.49009038468E+03  0.19171810959E+04  0.18534817964E+04 0.  0.
        1    1    3    3  502    0  0.83852402279E+03 -0.12065008077E+03  0.14359309155E+03  0.85924266348E+03  0.50400001928E-02 0.  1.
       -1    1    3    3    0  502 -0.83852402279E+03  0.12065008077E+03 -0.63368347623E+03  0.10579384324E+04  0.50400001928E-02 0. -1.
</event>
<event>
 5   0  0.1906857E-05  0.1797029E+04  0.7818609E-02  0.8707881E-01
        1   -1    0    0  501    0  0.00000000000E+00  0.00000000000E+00  0.49426224062E+03  0.49426224064E+03  0.50400001928E-02 0.  1.
       -1   -1    0    0    0  501  0.00000000000E+00  0.00000000000E+00 -0.16334000385E+04  0.16334000385E+04  0.50400001928E-02 0. -1.
    10030    2    1    2    0    0  0.00000000000E+00  0.00000000000E+00 -0.11391377979E+04  0.21276622792E+04  0.17970286174E+04 0.  0.
        4    1    3    3  502    0 -0.62621204143E+03  0.25778377152E+03  0.12961887089E+03  0.68949014372E+03  0.12699999809E+01 0.  1.
       -4    1    3    3    0  502  0.62621204143E+03 -0.25778377152E+03 -0.12687566688E+04  0.14381721355E+04  0.12699999809E+01 0. -1.
</event>
<event>
 5   0  0.1960300E-05  0.1782840E+04  0.7818609E-02  0.8715479E-01
        1   -1    0    0  501    0  0.00000000000E+00  0.00000000000E+00  0.15823354876E+04  0.15823354876E+04  0.50400001928E-02 0.  1.
       -1   -1    0    0    0  501  0.00000000000E+00  0.00000000000E+00 -0.50218773757E+03  0.50218773760E+03  0.50400001928E-02 0. -1.
    10030    2    1    2    0    0  0.00000000000E+00  0.00000000000E+00  0.10801477500E+04  0.20845232252E+04  0.17828398454E+04 0.  0.
        3    1    3    3  502    0  0.82929096417E+03  0.59225182165E+02  0.91604214671E+03  0.12370789588E+04  0.10100000352E+00 0.  1.
       -3    1    3    3    0  502 -0.82929096417E+03 -0.59225182165E+02  0.16410560329E+03  0.84744426642E+03  0.10100000352E+00 0. -1.
</event>
<event>
 5   0  0.3993393E-05  0.1830815E+04  0.7818609E-02  0.8690082E-01
        2   -1    0    0  501    0  0.00000000000E+00  0.00000000000E+00  0.14890907817E+04  0.14890907818E+04  0.25500000920E-02 0.  1.
       -2   -1    0    0    0  501  0.00000000000E+00  0.00000000000E+00 -0.56273979017E+03  0.56273979018E+03  0.25500000920E-02 0. -1.
    10030    2    1    2    0    0  0.00000000000E+00  0.00000000000E+00  0.92635099158E+03  0.20518305719E+04  0.18308147193E+04 0.  0.
        5    1    3    3  502    0  0.15725023637E+03 -0.28626526670E+03  0.14215536407E+04  0.14585994252E+04  0.46999998093E+01 0.  1.
       -5    1    3    3    0  502 -0.15725023637E+03  0.28626526670E+03 -0.49520264913E+03  0.59323114674E+03  0.46999998093E+01 0. -1.
</event>
<event>
 5   0  0.1960300E-05  0.1801272E+04  0.7818609E-02  0.8705623E-01
       -1   -1    0    0    0  501  0.00000000000E+00  0.00000000000E+00  0.84265953715E+03  0.84265953717E+03  0.50400001928E-02 0. -1.
        1   -1    0    0  501    0  0.00000000000E+00  0.00000000000E+00 -0.96260130338E+03  0.96260130340E+03  0.50400001928E-02 0.  1.
    10030    2    1    2    0    0  0.00000000000E+00  0.00000000000E+00 -0.11994176623E+03  0.18052608406E+04  0.18012719604E+04 0.  0.
        3    1    3    3  502    0  0.59931965144E+02  0.26121298772E+03 -0.92171280613E+03  0.95988466629E+03  0.10100000352E+00 0.  1.
       -3    1    3    3    0  502 -0.59931965144E+02 -0.26121298772E+03  0.80177103990E+03  0.84537617427E+03  0.10100000352E+00 0. -1.
</event>
<event>
 5   0  0.1960300E-05  0.1802358E+04  0.7818609E-02  0.8705046E-01
       -1   -1    0    0    0  501  0.00000000000E+00  0.00000000000E+00  0.72354791337E+03  0.72354791339E+03  0.50400001928E-02 0.  1.
        1   -1    0    0  501    0  0.00000000000E+00  0.00000000000E+00 -0.11224187251E+04  0.11224187251E+04  0.50400001928E-02 0. -1.
    10030    2    1    2    0    0  0.00000000000E+00  0.00000000000E+00 -0.39887081172E+03  0.18459666385E+04  0.18023581514E+04 0.  0.
        3    1    3    3  502    0 -0.19103875620E+03 -0.87474552034E+03 -0.94745894926E+02  0.90036233069E+03  0.10100000352E+00 0. -1.
       -3    1    3    3    0  502  0.19103875620E+03  0.87474552034E+03 -0.30412491680E+03  0.94560430780E+03  0.10100000352E+00 0.  1.
</event>
<event>
 5   0  0.3909859E-05  0.1801073E+04  0.7818609E-02  0.8705729E-01
       -2   -1    0    0    0  501  0.00000000000E+00  0.00000000000E+00  0.84776767567E+03  0.84776767568E+03  0.25500000920E-02 0.  1.
        2   -1    0    0  501    0  0.00000000000E+00  0.00000000000E+00 -0.95658958618E+03  0.95658958618E+03  0.25500000920E-02 0. -1.
    10030    2    1    2    0    0  0.00000000000E+00  0.00000000000E+00 -0.10882191051E+03  0.18043572619E+04  0.18010727138E+04 0.  0.
        4    1    3    3  502    0 -0.29144123883E+03  0.58012938710E+03 -0.67962920220E+03  0.93988593289E+03  0.12699999809E+01 0. -1.
       -4    1    3    3    0  502  0.29144123883E+03 -0.58012938710E+03  0.57080729169E+03  0.86447132897E+03  0.12699999809E+01 0.  1.
</event>
<event>
 5   0  0.4015729E-05  0.1780873E+04  0.7818609E-02  0.8716538E-01
       -2   -1    0    0    0  501  0.00000000000E+00  0.00000000000E+00  0.76270188736E+03  0.76270188736E+03  0.25500000920E-02 0.  1.
        2   -1    0    0  501    0  0.00000000000E+00  0.00000000000E+00 -0.10395631083E+04  0.10395631083E+04  0.25500000920E-02 0. -1.
    10030    2    1    2    0    0  0.00000000000E+00  0.00000000000E+00 -0.27686122090E+03  0.18022649956E+04  0.17808725330E+04 0.  0.
        2    1    3    3  502    0 -0.99244794026E+02 -0.15214902749E+03  0.74375042183E+03  0.76561318281E+03  0.25500000920E-02 0.  1.
       -2    1    3    3    0  502  0.99244794026E+02  0.15214902749E+03 -0.10206116427E+04  0.10366518128E+04  0.25500000920E-02 0. -1.
</event>
<event>
 5   0  0.2001811E-05  0.1795637E+04  0.7818609E-02  0.8708623E-01
        1   -1    0    0  501    0  0.00000000000E+00  0.00000000000E+00  0.13223686320E+04  0.13223686320E+04  0.50400001928E-02 0.  1.
       -1   -1    0    0    0  501  0.00000000000E+00  0.00000000000E+00 -0.60957167776E+03  0.60957167778E+03  0.50400001928E-02 0. -1.
    10030    2    1    2    0    0  0.00000000000E+00  0.00000000000E+00  0.71279695424E+03  0.19319403098E+04  0.17956374530E+04 0.  0.
        2    1    3    3  502    0 -0.84172989215E+03  0.24130365399E+02  0.69146556148E+03  0.10895944698E+04  0.25500000920E-02 0.  1.
       -2    1    3    3    0  502  0.84172989215E+03 -0.24130365399E+02  0.21331392760E+02  0.84234584001E+03  0.25500000920E-02 0. -1.
</event>
<event>
 5   0  0.4015729E-05  0.1806543E+04  0.7818609E-02  0.8702828E-01
       -2   -1    0    0    0  501  0.00000000000E+00  0.00000000000E+00  0.34192901453E+03  0.34192901454E+03  0.25500000920E-02 0.  1.
        2   -1    0    0  501    0  0.00000000000E+00  0.00000000000E+00 -0.23861661965E+04  0.23861661965E+04  0.25500000920E-02 0. -1.
    10030    2    1    2    0    0  0.00000000000E+00  0.00000000000E+00 -0.20442371819E+04  0.27280952110E+04  0.18065430591E+04 0.  0.
        2    1    3    3  502    0  0.54993348435E+03 -0.21793710555E+03 -0.20529627095E+04  0.21364876096E+04  0.25500000920E-02 0. -1.
       -2    1    3    3    0  502 -0.54993348435E+03  0.21793710555E+03  0.87255276201E+01  0.59160760139E+03  0.25500000920E-02 0.  1.
</event>
<event>
 5   0  0.2001811E-05  0.1804411E+04  0.7818609E-02  0.8703957E-01
        1   -1    0    0  501    0  0.00000000000E+00  0.00000000000E+00  0.11783938957E+04  0.11783938957E+04  0.50400001928E-02 0. -1.
       -1   -1    0    0    0  501  0.00000000000E+00  0.00000000000E+00 -0.69074908268E+03  0.69074908270E+03  0.50400001928E-02 0.  1.
    10030    2    1    2    0    0  0.00000000000E+00  0.00000000000E+00  0.48764481299E+03  0.18691429784E+04  0.18044107099E+04 0.  0.
        2    1    3    3  502    0 -0.21395228586E+03  0.69785761035E+03  0.79312279132E+03  0.10778796719E+04  0.25500000920E-02 0. -1.
       -2    1    3    3    0  502  0.21395228586E+03 -0.69785761035E+03 -0.30547797833E+03  0.79126330649E+03  0.25500000920E-02 0.  1.
</event>
<event>
 5   0  0.1446750E-05  0.1800556E+04  0.7818609E-02  0.8706004E-01
       -3   -1    0    0    0  501  0.00000000000E+00  0.00000000000E+00  0.52375884458E+03  0.52375885432E+03  0.10100000352E+00 0. -1.
        3   -1    0    0  501    0  0.00000000000E+00  0.00000000000E+00 -0.15474692786E+04  0.15474692819E+04  0.10100000352E+00 0.  1.
    10030    2    1    2    0    0  0.00000000000E+00  0.00000000000E+00 -0.10237104340E+04  0.20712281362E+04  0.18005562861E+04 0.  0.
        1    1    3    3  502    0  0.40774176839E+03 -0.52566290860E+03 -0.12096077319E+04  0.13804802455E+04  0.50400001928E-02 0.  1.
       -1    1    3    3    0  502 -0.40774176839E+03  0.52566290860E+03  0.18589729785E+03  0.69074789073E+03  0.50400001928E-02 0. -1.
</event>
<event>
 5   0  0.2038338E-05  0.1800039E+04  0.7818609E-02  0.8706279E-01
       -1   -1    0    0    0  501  0.00000000000E+00  0.00000000000E+00  0.48034954008E+03  0.48034954010E+03  0.50400001928E-02 0. -1.
        1   -1    0    0  501    0  0.00000000000E+00  0.00000000000E+00 -0.16863454133E+04  0.16863454133E+04  0.50400001928E-02 0.  1.
    10030    2    1    2    0    0  0.00000000000E+00  0.00000000000E+00 -0.12059958733E+04  0.21666949535E+04  0.18000391593E+04 0.  0.
        1    1    3    3  502    0 -0.58625221794E+03 -0.33624151005E+03 -0.13184467335E+04  0.14815707223E+04  0.50400001928E-02 0.  1.
       -1    1    3    3    0  502  0.58625221794E+03  0.33624151005E+03  0.11245086022E+03  0.68512423115E+03  0.50400001928E-02 0. -1.
</event>
<event>
 5   0  0.4015729E-05  0.1797325E+04  0.7818609E-02  0.8707723E-01
        2   -1    0    0  501    0  0.00000000000E+00  0.00000000000E+00  0.14850940606E+04  0.14850940606E+04  0.25500000920E-02 0. -1.
       -2   -1    0    0    0  501  0.00000000000E+00  0.00000000000E+00 -0.54380000447E+03  0.54380000447E+03  0.25500000920E-02 0.  1.
    10030    2    1    2    0    0  0.00000000000E+00  0.00000000000E+00  0.94129405612E+03  0.20288940651E+04  0.17973248530E+04 0.  0.
        2    1    3    3  502    0  0.15311127278E+03  0.72603303939E+03  0.10429450800E+04  0.12799615135E+04  0.25500000920E-02 0. -1.
       -2    1    3    3    0  502 -0.15311127278E+03 -0.72603303939E+03 -0.10165102388E+03  0.74893255157E+03  0.25500000920E-02 0.  1.
</event>
<event>
 5   0  0.3909859E-05  0.1802085E+04  0.7818609E-02  0.8705192E-01
        2   -1    0    0  501    0  0.00000000000E+00  0.00000000000E+00  0.11701618163E+04  0.11701618163E+04  0.25500000920E-02 0.  1.
       -2   -1    0    0    0  501  0.00000000000E+00  0.00000000000E+00 -0.69381641375E+03  0.69381641375E+03  0.25500000920E-02 0. -1.
    10030    2    1    2    0    0  0.00000000000E+00  0.00000000000E+00  0.47634540251E+03  0.18639782300E+04  0.18020848758E+04 0.  0.
        4    1    3    3  502    0 -0.69026891959E+03  0.48467563090E+03  0.56606870345E+03  0.10157839526E+04  0.12699999809E+01 0.  1.
       -4    1    3    3    0  502  0.69026891959E+03 -0.48467563090E+03 -0.89723300937E+02  0.84819427737E+03  0.12699999809E+01 0. -1.
</event>
<event>
 5   0  0.3984648E-05  0.1797494E+04  0.7818609E-02  0.8707633E-01
       -2   -1    0    0    0  501  0.00000000000E+00  0.00000000000E+00  0.69554453749E+03  0.69554453750E+03  0.25500000920E-02 0. -1.
        2   -1    0    0  501    0  0.00000000000E+00  0.00000000000E+00 -0.11613151703E+04  0.11613151703E+04  0.25500000920E-02 0.  1.
    10030    2    1    2    0    0  0.00000000000E+00  0.00000000000E+00 -0.46577063280E+03  0.18568597078E+04  0.17974942815E+04 0.  0.
        1    1    3    3  502    0  0.32451838719E+03 -0.80162563267E+03 -0.48556667165E+03  0.99181189307E+03  0.50400001928E-02 0.  1.
       -1    1    3    3    0  502 -0.32451838719E+03  0.80162563267E+03  0.19796038857E+02  0.86504781473E+03  0.50400001928E-02 0. -1.
</event>
<event>
 5   0  0.3984648E-05  0.1797135E+04  0.7818609E-02  0.8707825E-01
        2   -1    0    0  501    0  0.00000000000E+00  0.00000000000E+00  0.70533697628E+03  0.70533697629E+03  0.25500000920E-02 0.  1.
       -2   -1    0    0    0  501  0.00000000000E+00  0.00000000000E+00 -0.11447338699E+04  0.11447338699E+04  0.25500000920E-02 0. -1.
    10030    2    1    2    0    0  0.00000000000E+00  0.00000000000E+00 -0.43939689362E+03  0.18500708462E+04  0.17971345263E+04 0.  0.
        1    1    3    3  502    0 -0.12969207640E+03  0.54392971972E+03  0.50440037840E+03  0.75305996868E+03  0.50400001928E-02 0.  1.
       -1    1    3    3    0  502  0.12969207640E+03 -0.54392971972E+03 -0.94379727202E+03  0.10970108775E+04  0.50400001928E-02 0. -1.
</event>
<event>
 5   0  0.2001811E-05  0.1799813E+04  0.7818609E-02  0.8706399E-01
       -1   -1    0    0    0  501  0.00000000000E+00  0.00000000000E+00  0.63278048530E+03  0.63278048532E+03  0.50400001928E-02 0.  1.
        1   -1    0    0  501    0  0.00000000000E+00  0.00000000000E+00 -0.12797993631E+04  0.12797993631E+04  0.50400001928E-02 0. -1.
    10030    2    1    2    0    0  0.00000000000E+00  0.00000000000E+00 -0.64701887777E+03  0.19125798484E+04  0.17998133926E+04 0.  0.
        2    1    3    3  502    0 -0.42975010452E+03 -0.63861511930E+03  0.17187183503E+03  0.78870422251E+03  0.25500000920E-02 0.  1.
       -2    1    3    3    0  502  0.42975010452E+03  0.63861511930E+03 -0.81889071280E+03  0.11238756259E+04  0.25500000920E-02 0. -1.
</event>
<event>
 5   0  0.1446750E-05  0.1797092E+04  0.7818609E-02  0.8707847E-01
        4   -1    0    0  501    0  0.00000000000E+00  0.00000000000E+00  0.16294935157E+04  0.16294940106E+04  0.12699999809E+01 0.  1.
       -4   -1    0    0    0  501  0.00000000000E+00  0.00000000000E+00 -0.49548090668E+03  0.49548253428E+03  0.12699999809E+01 0. -1.
    10030    2    1    2    0    0  0.00000000000E+00  0.00000000000E+00  0.11340126090E+04  0.21249765449E+04  0.17970922956E+04 0.  0.
        1    1    3    3  502    0  0.64106186245E+03 -0.57044649233E+03  0.88211533207E+03  0.12306490041E+04  0.50400001928E-02 0.  1.
       -1    1    3    3    0  502 -0.64106186245E+03  0.57044649233E+03  0.25189727694E+03  0.89432754082E+03  0.50400001928E-02 0. -1.
</event>
<event>
 5   0  0.3984648E-05  0.1797382E+04  0.7818609E-02  0.8707693E-01
        2   -1    0    0  501    0  0.00000000000E+00  0.00000000000E+00  0.11746912225E+04  0.11746912225E+04  0.25500000920E-02 0.  1.
       -2   -1    0    0    0  501  0.00000000000E+00  0.00000000000E+00 -0.68753842331E+03  0.68753842331E+03  0.25500000920E-02 0. -1.
    10030    2    1    2    0    0  0.00000000000E+00  0.00000000000E+00  0.48715279914E+03  0.18622296458E+04  0.17973818192E+04 0.  0.
        1    1    3    3  502    0  0.28308144962E+03 -0.62748499299E+03  0.84215113265E+03  0.10876998914E+04  0.50400001928E-02 0.  1.
       -1    1    3    3    0  502 -0.28308144962E+03  0.62748499299E+03 -0.35499833351E+03  0.77452975434E+03  0.50400001928E-02 0. -1.
</event>
<event>
 5   0  0.3993393E-05  0.1799981E+04  0.7818609E-02  0.8706310E-01
        2   -1    0    0  501    0  0.00000000000E+00  0.00000000000E+00  0.15456296031E+04  0.15456296031E+04  0.25500000920E-02 0.  1.
       -2   -1    0    0    0  501  0.00000000000E+00  0.00000000000E+00 -0.52404701842E+03  0.52404701843E+03  0.25500000920E-02 0. -1.
    10030    2    1    2    0    0  0.00000000000E+00  0.00000000000E+00  0.10215825846E+04  0.20696766215E+04  0.17999806500E+04 0.  0.
        5    1    3    3  502    0  0.82295741090E+03 -0.36096702228E+03  0.56717301687E+03  0.10626680631E+04  0.46999998093E+01 0.  1.
       -5    1    3    3    0  502 -0.82295741090E+03  0.36096702228E+03  0.45440956777E+03  0.10070085584E+04  0.46999998093E+01 0. -1.
</event>
<event>
 5   0  0.3909859E-05  0.1800055E+04  0.7818609E-02  0.8706270E-01
       -2   -1    0    0    0  501  0.00000000000E+00  0.00000000000E+00  0.12678172551E+04  0.12678172551E+04  0.25500000920E-02 0. -1.
        2   -1    0    0  501    0  0.00000000000E+00  0.00000000000E+00 -0.63893267872E+03  0.63893267872E+03  0.25500000920E-02 0.  1.
    10030    2    1    2    0    0  0.00000000000E+00  0.00000000000E+00  0.62888457637E+03  0.19067499338E+04  0.18000554157E+04 0.  0.
        4    1    3    3  502    0 -0.57291780739E+03 -0.37524576137E+03  0.93301056531E+03  0.11573912577E+04  0.12699999809E+01 0. -1.
       -4    1    3    3    0  502  0.57291780739E+03  0.37524576137E+03 -0.30412598895E+03  0.74935867614E+03  0.12699999809E+01 0.  1.
</event>
<event>
 5   0  0.2038338E-05  0.1803115E+04  0.7818609E-02  0.8704645E-01
        1   -1    0    0  501    0  0.00000000000E+00  0.00000000000E+00  0.15579538676E+04  0.15579538676E+04  0.50400001928E-02 0. -1.
       -1   -1    0    0    0  501  0.00000000000E+00  0.00000000000E+00 -0.52171366177E+03  0.52171366179E+03  0.50400001928E-02 0.  1.
    10030    2    1    2    0    0  0.00000000000E+00  0.00000000000E+00  0.10362402058E+04  0.20796675294E+04  0.18031148795E+04 0.  0.
        1    1    3    3  502    0  0.62319154939E+03  0.58230064998E+03  0.85510314965E+03  0.12077429986E+04  0.50400001928E-02 0. -1.
       -1    1    3    3    0  502 -0.62319154939E+03 -0.58230064998E+03  0.18113705619E+03  0.87192453077E+03  0.50400001928E-02 0.  1.
</event>
<event>
 5   0  0.3983176E-05  0.1802069E+04  0.7818609E-02  0.8705200E-01
        2   -1    0    0  501    0  0.00000000000E+00  0.00000000000E+00  0.26796956572E+04  0.26796956572E+04  0.25500000920E-02 0.  1.
       -2   -1    0    0    0  501  0.00000000000E+00  0.00000000000E+00 -0.30296853652E+03  0.30296853653E+03  0.25500000920E-02 0. -1.
    10030    2    1    2    0    0  0.00000000000E+00  0.00000000000E+00  0.23767271206E+04  0.29826641937E+04  0.18020693345E+04 0.  0.
        3    1    3    3  502    0  0.70998267965E+03 -0.62440774568E+02  0.21007745366E+04  0.22183840784E+04  0.10100000352E+00 0.  1.
       -3    1    3    3    0  502 -0.70998267965E+03  0.62440774568E+02  0.27595258407E+03  0.76428011526E+03  0.10100000352E+00 0. -1.
</event>
<event>
 5   0  0.3984648E-05  0.1800480E+04  0.7818609E-02  0.8706044E-01
       -2   -1    0    0    0  501  0.00000000000E+00  0.00000000000E+00  0.51186130101E+03  0.51186130101E+03  0.25500000920E-02 0. -1.
        2   -1    0    0  501    0  0.00000000000E+00  0.00000000000E+00 -0.15833044685E+04  0.15833044685E+04  0.25500000920E-02 0.  1.
    10030    2    1    2    0    0  0.00000000000E+00  0.00000000000E+00 -0.10714431675E+04  0.20951657695E+04  0.18004802528E+04 0.  0.
        1    1    3    3  502    0  0.50036096844E+03  0.44994315209E+03  0.16017122987E+03  0.69171147291E+03  0.50400001928E-02 0. -1.
       -1    1    3    3    0  502 -0.50036096844E+03 -0.44994315209E+03 -0.12316143974E+04  0.14034542966E+04  0.50400001928E-02 0.  1.
</event>
<event>
 5   0  0.1906857E-05  0.1796245E+04  0.7818609E-02  0.8708299E-01
        1   -1    0    0  501    0  0.00000000000E+00  0.00000000000E+00  0.18024490710E+04  0.18024490710E+04  0.50400001928E-02 0. -1.
       -1   -1    0    0    0  501  0.00000000000E+00  0.00000000000E+00 -0.44751533605E+03  0.44751533608E+03  0.50400001928E-02 0.  1.
    10030    2    1    2    0    0  0.00000000000E+00  0.00000000000E+00  0.13549337350E+04  0.22499644071E+04  0.17962445287E+04 0.  0.
        4    1    3    3  502    0 -0.38355231748E+03  0.69625471237E+03  0.12010734442E+04  0.14402992870E+04  0.12699999809E+01 0. -1.
       -4    1    3    3    0  502  0.38355231748E+03 -0.69625471237E+03  0.15386029072E+03  0.80966512010E+03  0.12699999809E+01 0.  1.
</event>
<event>
 5   0  0.3983176E-05  0.1799014E+04  0.7818609E-02  0.8706824E-01
        2   -1    0    0  501    0  0.00000000000E+00  0.00000000000E+00  0.12480022125E+04  0.12480022125E+04  0.25500000920E-02 0. -1.
       -2   -1    0    0    0  501  0.00000000000E+00  0.00000000000E+00 -0.64832677599E+03  0.64832677599E+03  0.25500000920E-02 0.  1.
    10030    2    1    2    0    0  0.00000000000E+00  0.00000000000E+00  0.59967543648E+03  0.18963289885E+04  0.17990144534E+04 0.  0.
        3    1    3    3  502    0  0.58454767590E+03 -0.34255564241E+03  0.92351262333E+03  0.11453889860E+04  0.10100000352E+00 0. -1.
       -3    1    3    3    0  502 -0.58454767590E+03  0.34255564241E+03 -0.32383718685E+03  0.75094000249E+03  0.10100000352E+00 0.  1.
</event>
<event>
 5   0  0.3984648E-05  0.1802247E+04  0.7818609E-02  0.8705105E-01
       -2   -1    0    0    0  501  0.00000000000E+00  0.00000000000E+00  0.73912184752E+03  0.73912184752E+03  0.25500000920E-02 0.  1.
        2   -1    0    0  501    0  0.00000000000E+00  0.00000000000E+00 -0.10986330660E+04  0.10986330660E+04  0.25500000920E-02 0. -1.
    10030    2    1    2    0    0  0.00000000000E+00  0.00000000000E+00 -0.35951121849E+03  0.18377549135E+04  0.18022471545E+04 0.  0.
        1    1    3    3  502    0  0.66613643603E+03  0.49037289558E+03 -0.54431919310E+03  0.99019528989E+03  0.50400001928E-02 0. -1.
       -1    1    3    3    0  502 -0.66613643603E+03 -0.49037289558E+03  0.18480797461E+03  0.84755962364E+03  0.50400001928E-02 0.  1.
</event>
<event>
 5   0  0.2001811E-05  0.1801555E+04  0.7818609E-02  0.8705473E-01
        1   -1    0    0  501    0  0.00000000000E+00  0.00000000000E+00  0.10152664017E+04  0.10152664018E+04  0.50400001928E-02 0.  1.
       -1   -1    0    0    0  501  0.00000000000E+00  0.00000000000E+00 -0.79919912779E+03  0.79919912781E+03  0.50400001928E-02 0. -1.
    10030    2    1    2    0    0  0.00000000000E+00  0.00000000000E+00  0.21606727396E+03  0.18144655296E+04  0.18015549093E+04 0.  0.
        2    1    3    3  502    0  0.49690480194E+03  0.61761432732E+03 -0.32286197047E+03  0.85592154517E+03  0.25500000920E-02 0. -1.
       -2    1    3    3    0  502 -0.49690480194E+03 -0.61761432732E+03  0.53892924443E+03  0.95854398439E+03  0.25500000920E-02 0.  1.
</event>
<event>
 5   0  0.3993393E-05  0.1787770E+04  0.7818609E-02  0.8712831E-01
        2   -1    0    0  501    0  0.00000000000E+00  0.00000000000E+00  0.14388454258E+04  0.14388454258E+04  0.25500000920E-02 0. -1.
       -2   -1    0    0    0  501  0.00000000000E+00  0.00000000000E+00 -0.55532727343E+03  0.55532727343E+03  0.25500000920E-02 0.  1.
    10030    2    1    2    0    0  0.00000000000E+00  0.00000000000E+00  0.88351815238E+03  0.19941726992E+04  0.17877696800E+04 0.  0.
        5    1    3    3  502    0  0.74707443015E+03  0.71102080746E+02  0.98345160872E+03  0.12370832093E+04  0.46999998093E+01 0. -1.
       -5    1    3    3    0  502 -0.74707443015E+03 -0.71102080746E+02 -0.99933456347E+02  0.75708948993E+03  0.46999998093E+01 0.  1.
</event>
<event>
 5   0  0.2038338E-05  0.1757399E+04  0.7818609E-02  0.8729288E-01
       -1   -1    0    0    0  501  0.00000000000E+00  0.00000000000E+00  0.12004999371E+04  0.12004999371E+04  0.50400001928E-02 0.  1.
        1   -1    0    0  501    0  0.00000000000E+00  0.00000000000E+00 -0.64315958609E+03  0.64315958611E+03  0.50400001928E-02 0. -1.
    10030    2    1    2    0    0  0.00000000000E+00  0.00000000000E+00  0.55734035099E+03  0.18436595232E+04  0.17573992633E+04 0.  0.
        1    1    3    3  502    0  0.75317390460E+03  0.14445872569E+03  0.72864504224E+03  0.10578576708E+04  0.50400001928E-02 0.  1.
       -1    1    3    3    0  502 -0.75317390460E+03 -0.14445872569E+03 -0.17130469125E+03  0.78580185243E+03  0.50400001928E-02 0. -1.
</event>
<event>
 5   0  0.3984648E-05  0.1798431E+04  0.7818609E-02  0.8707135E-01
       -2   -1    0    0    0  501  0.00000000000E+00  0.00000000000E+00  0.70126881044E+03  0.70126881045E+03  0.25500000920E-02 0. -1.
        2   -1    0    0  501    0  0.00000000000E+00  0.00000000000E+00 -0.11530359444E+04  0.11530359444E+04  0.25500000920E-02 0.  1.
    10030    2    1    2    0    0  0.00000000000E+00  0.00000000000E+00 -0.45176713391E+03  0.18543047548E+04  0.17984305882E+04 0.  0.
        1    1    3    3  502    0 -0.75947743549E+03 -0.45762979816E+03 -0.38005202694E+03  0.96471267763E+03  0.50400001928E-02 0.  1.
       -1    1    3    3    0  502  0.75947743549E+03  0.45762979816E+03 -0.71715106976E+02  0.88959207718E+03  0.50400001928E-02 0. -1.
</event>
<event>
 5   0  0.4015729E-05  0.1800076E+04  0.7818609E-02  0.8706259E-01
        2   -1    0    0  501    0  0.00000000000E+00  0.00000000000E+00  0.14596528193E+04  0.14596528193E+04  0.25500000920E-02 0.  1.
       -2   -1    0    0    0  501  0.00000000000E+00  0.00000000000E+00 -0.55497336244E+03  0.55497336244E+03  0.25500000920E-02 0. -1.
    10030    2    1    2    0    0  0.00000000000E+00  0.00000000000E+00  0.90467945690E+03  0.20146261818E+04  0.18000760352E+04 0.  0.
        2    1    3    3  502    0 -0.16125362436E+03  0.88465737735E+03  0.40976598275E+03  0.98819510589E+03  0.25500000920E-02 0. -1.
       -2    1    3    3    0  502  0.16125362436E+03 -0.88465737735E+03  0.49491347414E+03  0.10264310759E+04  0.25500000920E-02 0.  1.
</event>
<event>
 5   0  0.2054876E-05  0.1800746E+04  0.7818609E-02  0.8705903E-01
       -1   -1    0    0    0  501  0.00000000000E+00  0.00000000000E+00  0.91164019424E+03  0.91164019425E+03  0.50400001928E-02 0.  1.
        1   -1    0    0  501    0  0.00000000000E+00  0.00000000000E+00 -0.88924496363E+03  0.88924496365E+03  0.50400001928E-02 0. -1.
    10030    2    1    2    0    0  0.00000000000E+00  0.00000000000E+00  0.22395230601E+02  0.18008851579E+04  0.18007459026E+04 0.  0.
        5    1    3    3  502    0 -0.59262894196E+03 -0.59244891967E+03  0.34053232234E+03  0.90453807981E+03  0.46999998093E+01 0.  1.
       -5    1    3    3    0  502  0.59262894196E+03  0.59244891967E+03 -0.31813709174E+03  0.89634707809E+03  0.46999998093E+01 0. -1.
</event>
<event>
 5   0  0.1960300E-05  0.1797378E+04  0.7818609E-02  0.8707695E-01
        1   -1    0    0  501    0  0.00000000000E+00  0.00000000000E+00  0.13580183453E+04  0.13580183453E+04  0.50400001928E-02 0.  1.
       -1   -1    0    0    0  501  0.00000000000E+00  0.00000000000E+00 -0.59472067601E+03  0.59472067603E+03  0.50400001928E-02 0. -1.
    10030    2    1    2    0    0  0.00000000000E+00  0.00000000000E+00  0.76329766930E+03  0.19527390213E+04  0.17973776324E+04 0.  0.
        3    1    3    3  502    0  0.68948096858E+03  0.64323589813E+02 -0.24068190780E+03  0.73310935145E+03  0.10100000352E+00 0. -1.
       -3    1    3    3    0  502 -0.68948096858E+03 -0.64323589813E+02  0.10039795771E+04  0.12196296699E+04  0.10100000352E+00 0.  1.
</event>
<event>
 5   0  0.3983176E-05  0.1796678E+04  0.7818609E-02  0.8708068E-01
       -2   -1    0    0    0  501  0.00000000000E+00  0.00000000000E+00  0.13352341798E+04  0.13352341798E+04  0.25500000920E-02 0. -1.
        2   -1    0    0  501    0  0.00000000000E+00  0.00000000000E+00 -0.60439789736E+03  0.60439789736E+03  0.25500000920E-02 0.  1.
    10030    2    1    2    0    0  0.00000000000E+00  0.00000000000E+00  0.73083628243E+03  0.19396320772E+04  0.17966777460E+04 0.  0.
        3    1    3    3  502    0 -0.19231704452E+03 -0.50829131377E+03 -0.40680496942E+03  0.67884917221E+03  0.10100000352E+00 0.  1.
       -3    1    3    3    0  502  0.19231704452E+03  0.50829131377E+03  0.11376412518E+04  0.12607829049E+04  0.10100000352E+00 0. -1.
</event>
<event>
 5   0  0.3993393E-05  0.1806077E+04  0.7818609E-02  0.8703075E-01
       -2   -1    0    0    0  501  0.00000000000E+00  0.00000000000E+00  0.48944364239E+03  0.48944364240E+03  0.25500000920E-02 0. -1.
        2   -1    0    0  501    0  0.00000000000E+00  0.00000000000E+00 -0.16661327857E+04  0.16661327857E+04  0.25500000920E-02 0.  1.
    10030    2    1    2    0    0  0.00000000000E+00  0.00000000000E+00 -0.11766891433E+04  0.21555764281E+04  0.18060765204E+04 0.  0.
        5    1    3    3  502    0  0.63819667629E+03  0.27093359082E+02 -0.13501642063E+04  0.14936514057E+04  0.46999998093E+01 0.  1.
       -5    1    3    3    0  502 -0.63819667629E+03 -0.27093359082E+02  0.17347506304E+03  0.66192502236E+03  0.46999998093E+01 0. -1.
</event>
<event>
 5   0  0.2054876E-05  0.1800008E+04  0.7818609E-02  0.8706295E-01
       -1   -1    0    0    0  501  0.00000000000E+00  0.00000000000E+00  0.46405232648E+03  0.46405232651E+03  0.50400001928E-02 0. -1.
        1   -1    0    0  501    0  0.00000000000E+00  0.00000000000E+00 -0.17455084503E+04  0.17455084503E+04  0.50400001928E-02 0.  1.
    10030    2    1    2    0    0  0.00000000000E+00  0.00000000000E+00 -0.12814561238E+04  0.22095607768E+04  0.18000080636E+04 0.  0.
        5    1    3    3  502    0  0.27529288158E+03  0.57071800570E+03  0.14381516215E+03  0.64977696446E+03  0.46999998093E+01 0.  1.
       -5    1    3    3    0  502 -0.27529288158E+03 -0.57071800570E+03 -0.14252712859E+04  0.15597838123E+04  0.46999998093E+01 0. -1.
</event>
<event>
 5   0  0.3984648E-05  0.1824773E+04  0.7818609E-02  0.8693235E-01
        2   -1    0    0  501    0  0.00000000000E+00  0.00000000000E+00  0.16172753119E+04  0.16172753119E+04  0.25500000920E-02 0.  1.
       -2   -1    0    0    0  501  0.00000000000E+00  0.00000000000E+00 -0.51472312568E+03  0.51472312568E+03  0.25500000920E-02 0. -1.
    10030    2    1    2    0    0  0.00000000000E+00  0.00000000000E+00  0.11025521863E+04  0.21319984376E+04  0.18247728666E+04 0.  0.
        1    1    3    3  502    0 -0.90513802257E+03 -0.10081936904E+03  0.61537251628E+03  0.10991463592E+04  0.50400001928E-02 0.  1.
       -1    1    3    3    0  502  0.90513802257E+03  0.10081936904E+03  0.48717966998E+03  0.10328520784E+04  0.50400001928E-02 0. -1.
</event>
<event>
 5   0  0.2038338E-05  0.1808492E+04  0.7818609E-02  0.8701797E-01
        1   -1    0    0  501    0  0.00000000000E+00  0.00000000000E+00  0.25844604737E+04  0.25844604737E+04  0.50400001928E-02 0. -1.
       -1   -1    0    0    0  501  0.00000000000E+00  0.00000000000E+00 -0.31637573087E+03  0.31637573091E+03  0.50400001928E-02 0.  1.
    10030    2    1    2    0    0  0.00000000000E+00  0.00000000000E+00  0.22680847428E+04  0.29008362046E+04  0.18084917156E+04 0.  0.
        1    1    3    3  502    0 -0.43755648865E+03  0.55141366260E+03  0.20444466938E+04  0.21622384216E+04  0.50400001928E-02 0. -1.
       -1    1    3    3    0  502  0.43755648865E+03 -0.55141366260E+03  0.22363804904E+03  0.73859778301E+03  0.50400001928E-02 0.  1.
</event>
<event>
 5   0  0.3983176E-05  0.1801246E+04  0.7818609E-02  0.8705637E-01
        2   -1    0    0  501    0  0.00000000000E+00  0.00000000000E+00  0.18966761115E+04  0.18966761115E+04  0.25500000920E-02 0.  1.
       -2   -1    0    0    0  501  0.00000000000E+00  0.00000000000E+00 -0.42765448190E+03  0.42765448190E+03  0.25500000920E-02 0. -1.
    10030    2    1    2    0    0  0.00000000000E+00  0.00000000000E+00  0.14690216296E+04  0.23243305934E+04  0.18012462795E+04 0.  0.
        3    1    3    3  502    0 -0.20050101512E+03 -0.40216633220E+03 -0.27265020339E+03  0.52562016650E+03  0.10100000352E+00 0. -1.
       -3    1    3    3    0  502  0.20050101512E+03  0.40216633220E+03  0.17416718330E+04  0.17987104269E+04  0.10100000352E+00 0.  1.
</event>
<event>
 5   0  0.3909859E-05  0.1803754E+04  0.7818609E-02  0.8704306E-01
       -2   -1    0    0    0  501  0.00000000000E+00  0.00000000000E+00  0.18567337174E+04  0.18567337174E+04  0.25500000920E-02 0.  1.
        2   -1    0    0  501    0  0.00000000000E+00  0.00000000000E+00 -0.43807159428E+03  0.43807159428E+03  0.25500000920E-02 0. -1.
    10030    2    1    2    0    0  0.00000000000E+00  0.00000000000E+00  0.14186621232E+04  0.22948053117E+04  0.18037541958E+04 0.  0.
        4    1    3    3  502    0 -0.40455169753E+03  0.66691172064E+03  0.12852875359E+04  0.15034623314E+04  0.12699999809E+01 0.  1.
       -4    1    3    3    0  502  0.40455169753E+03 -0.66691172064E+03  0.13337458727E+03  0.79134298034E+03  0.12699999809E+01 0. -1.
</event>
<event>
 5   0  0.4015729E-05  0.1802076E+04  0.7818609E-02  0.8705196E-01
       -2   -1    0    0    0  501  0.00000000000E+00  0.00000000000E+00  0.46820380423E+03  0.46820380424E+03  0.25500000920E-02 0. -1.
        2   -1    0    0  501    0  0.00000000000E+00  0.00000000000E+00 -0.17340087944E+04  0.17340087944E+04  0.25500000920E-02 0.  1.
    10030    2    1    2    0    0  0.00000000000E+00  0.00000000000E+00 -0.12658049902E+04  0.22022125986E+04  0.18020760407E+04 0.  0.
        2    1    3    3  502    0 -0.80541833831E+03 -0.46098899427E+02 -0.11233140620E+04  0.13829888973E+04  0.25500000920E-02 0.  1.
       -2    1    3    3    0  502  0.80541833831E+03  0.46098899427E+02 -0.14249092819E+03  0.81922370134E+03  0.25500000920E-02 0. -1.
</event>
<event>
 5   0  0.4015729E-05  0.1794759E+04  0.7818609E-02  0.8709091E-01
        2   -1    0    0  501    0  0.00000000000E+00  0.00000000000E+00  0.16728526927E+04  0.16728526927E+04  0.25500000920E-02 0.  1.
       -2   -1    0    0    0  501  0.00000000000E+00  0.00000000000E+00 -0.48138744695E+03  0.48138744696E+03  0.25500000920E-02 0. -1.
    10030    2    1    2    0    0  0.00000000000E+00  0.00000000000E+00  0.11914652458E+04  0.21542401397E+04  0.17947593564E+04 0.  0.
        2    1    3    3  502    0  0.14856218152E+03 -0.76439351476E+03  0.11310722929E+04  0.13732052647E+04  0.25500000920E-02 0.  1.
       -2    1    3    3    0  502 -0.14856218152E+03  0.76439351476E+03  0.60392952871E+02  0.78103487499E+03  0.25500000920E-02 0. -1.
</event>
<event>
 5   0  0.3984648E-05  0.1802693E+04  0.7818609E-02  0.8704869E-01
       -2   -1    0    0    0  501  0.00000000000E+00  0.00000000000E+00  0.10653812430E+04  0.10653812430E+04  0.25500000920E-02 0.  1.
        2   -1    0    0  501    0  0.00000000000E+00  0.00000000000E+00 -0.76256751663E+03  0.76256751664E+03  0.25500000920E-02 0. -1.
    10030    2    1    2    0    0  0.00000000000E+00  0.00000000000E+00  0.30281372639E+03  0.18279487597E+04  0.18026925736E+04 0.  0.
        1    1    3    3  502    0 -0.66787384521E+03  0.71690382744E+02  0.76085161357E+03  0.10149335752E+04  0.50400001928E-02 0.  1.
       -1    1    3    3    0  502  0.66787384521E+03 -0.71690382744E+02 -0.45803788719E+03  0.81301518449E+03  0.50400001928E-02 0. -1.
</event>
<event>
 5   0  0.2054876E-05  0.1799041E+04  0.7818609E-02  0.8706810E-01
       -1   -1    0    0    0  501  0.00000000000E+00  0.00000000000E+00  0.78530539837E+03  0.78530539839E+03  0.50400001928E-02 0. -1.
        1   -1    0    0  501    0  0.00000000000E+00  0.00000000000E+00 -0.10303469486E+04  0.10303469487E+04  0.50400001928E-02 0.  1.
    10030    2    1    2    0    0  0.00000000000E+00  0.00000000000E+00 -0.24504155028E+03  0.18156523470E+04  0.17990408789E+04 0.  0.
        5    1    3    3  502    0 -0.51787418348E+03 -0.63367248981E+03 -0.49930488079E+03  0.95867718667E+03  0.46999998093E+01 0.  1.
       -5    1    3    3    0  502  0.51787418348E+03  0.63367248981E+03  0.25426333051E+03  0.85697516038E+03  0.46999998093E+01 0. -1.
</event>
<event>
 5   0  0.2038338E-05  0.1802598E+04  0.7818609E-02  0.8704919E-01
        1   -1    0    0  501    0  0.00000000000E+00  0.00000000000E+00  0.10718769845E+04  0.10718769845E+04  0.50400001928E-02 0. -1.
       -1   -1    0    0    0  501  0.00000000000E+00  0.00000000000E+00 -0.75786677987E+03  0.75786677988E+03  0.50400001928E-02 0.  1.
    10030    2    1    2    0    0  0.00000000000E+00  0.00000000000E+00  0.31401020467E+03  0.18297437644E+04  0.18025980791E+04 0.  0.
        1    1    3    3  502    0  0.68118185117E+03 -0.58996561900E+03  0.17374012313E+03  0.91774385118E+03  0.50400001928E-02 0.  1.
       -1    1    3    3    0  502 -0.68118185117E+03  0.58996561900E+03  0.14027008153E+03  0.91199991325E+03  0.50400001928E-02 0. -1.
</event>
<event>
 5   0  0.3984648E-05  0.1804154E+04  0.7818609E-02  0.8704094E-01
        2   -1    0    0  501    0  0.00000000000E+00  0.00000000000E+00  0.20731444179E+04  0.20731444179E+04  0.25500000920E-02 0.  1.
       -2   -1    0    0    0  501  0.00000000000E+00  0.00000000000E+00 -0.39251623466E+03  0.39251623467E+03  0.25500000920E-02 0. -1.
    10030    2    1    2    0    0  0.00000000000E+00  0.00000000000E+00  0.16806281833E+04  0.24656606526E+04  0.18041539190E+04 0.  0.
        1    1    3    3  502    0 -0.46954888271E+03 -0.62232330530E+03  0.14605724966E+04  0.16556069786E+04  0.50400001928E-02 0. -1.
       -1    1    3    3    0  502  0.46954888271E+03  0.62232330530E+03  0.22005568666E+03  0.81005367404E+03  0.50400001928E-02 0.  1.
</event>
<event>
 5   0  0.2001811E-05  0.1798844E+04  0.7818609E-02  0.8706914E-01
        1   -1    0    0  501    0  0.00000000000E+00  0.00000000000E+00  0.16709845718E+04  0.16709845718E+04  0.50400001928E-02 0. -1.
       -1   -1    0    0    0  501  0.00000000000E+00  0.00000000000E+00 -0.48412168899E+03  0.48412168901E+03  0.50400001928E-02 0.  1.
    10030    2    1    2    0    0  0.00000000000E+00  0.00000000000E+00  0.11868628828E+04  0.21551062608E+04  0.17988439323E+04 0.  0.
        2    1    3    3  502    0  0.17179492857E+03  0.84504828548E+03  0.28718996720E+03  0.90889943313E+03  0.25500000920E-02 0.  1.
       -2    1    3    3    0  502 -0.17179492857E+03 -0.84504828548E+03  0.89967291560E+03  0.12462068277E+04  0.25500000920E-02 0. -1.
</event>
<event>
 5   0  0.1960300E-05  0.1802655E+04  0.7818609E-02  0.8704889E-01
       -1   -1    0    0    0  501  0.00000000000E+00  0.00000000000E+00  0.12834232336E+04  0.12834232336E+04  0.50400001928E-02 0. -1.
        1   -1    0    0  501    0  0.00000000000E+00  0.00000000000E+00 -0.63298797064E+03  0.63298797066E+03  0.50400001928E-02 0.  1.
    10030    2    1    2    0    0  0.00000000000E+00  0.00000000000E+00  0.65043526294E+03  0.19164112043E+04  0.18026552284E+04 0.  0.
        3    1    3    3  502    0 -0.36110294870E+03  0.56187790855E+03  0.96862816290E+03  0.11765809160E+04  0.10100000352E+00 0.  1.
       -3    1    3    3    0  502  0.36110294870E+03 -0.56187790855E+03 -0.31819289996E+03  0.73983028828E+03  0.10100000352E+00 0. -1.
</event>
<event>
 5   0  0.1906857E-05  0.1806060E+04  0.7818609E-02  0.8703083E-01
       -1   -1    0    0    0  501  0.00000000000E+00  0.00000000000E+00  0.32523550025E+03  0.32523550029E+03  0.50400001928E-02 0.  1.
        1   -1    0    0  501    0  0.00000000000E+00  0.00000000000E+00 -0.25073011298E+04  0.25073011298E+04  0.50400001928E-02 0. -1.
    10030    2    1    2    0    0  0.00000000000E+00  0.00000000000E+00 -0.21820656295E+04  0.28325366301E+04  0.18060601732E+04 0.  0.
        4    1    3    3  502    0 -0.56861809090E+02  0.75133668117E+03 -0.31043864795E+03  0.81493180135E+03  0.12699999809E+01 0.  1.
       -4    1    3    3    0  502  0.56861809090E+02 -0.75133668117E+03 -0.18716269816E+04  0.20176048287E+04  0.12699999809E+01 0. -1.
</event>
<event>
 5   0  0.3984648E-05  0.1800183E+04  0.7818609E-02  0.8706202E-01
        2   -1    0    0  501    0  0.00000000000E+00  0.00000000000E+00  0.66594020756E+03  0.66594020756E+03  0.25500000920E-02 0.  1.
       -2   -1    0    0    0  501  0.00000000000E+00  0.00000000000E+00 -0.12165725731E+04  0.12165725731E+04  0.25500000920E-02 0. -1.
    10030    2    1    2    0    0  0.00000000000E+00  0.00000000000E+00 -0.55063236556E+03  0.18825127807E+04  0.18001828706E+04 0.  0.
        1    1    3    3  502    0  0.36321862896E+03  0.15818140688E+03  0.56986444974E+03  0.69404223287E+03  0.50400001928E-02 0.  1.
       -1    1    3    3    0  502 -0.36321862896E+03 -0.15818140688E+03 -0.11204968153E+04  0.11884705478E+04  0.50400001928E-02 0. -1.
</event>
<event>
 5   0  0.2001811E-05  0.1799784E+04  0.7818609E-02  0.8706415E-01
        1   -1    0    0  501    0  0.00000000000E+00  0.00000000000E+00  0.10061710605E+04  0.10061710605E+04  0.50400001928E-02 0.  1.
       -1   -1    0    0    0  501  0.00000000000E+00  0.00000000000E+00 -0.80483856714E+03  0.80483856716E+03  0.50400001928E-02 0. -1.
    10030    2    1    2    0    0  0.00000000000E+00  0.00000000000E+00  0.20133249331E+03  0.18110096276E+04  0.17997836255E+04 0.  0.
        2    1    3    3  502    0 -0.59778679456E+03  0.55495971939E+03  0.48313698681E+03  0.94802462517E+03  0.25500000920E-02 0.  1.
       -2    1    3    3    0  502  0.59778679456E+03 -0.55495971939E+03 -0.28180449350E+03  0.86298500245E+03  0.25500000920E-02 0. -1.
</event>
<event>
 5   0  0.1960300E-05  0.1801992E+04  0.7818609E-02  0.8705241E-01
        1   -1    0    0  501    0  0.00000000000E+00  0.00000000000E+00  0.93621465638E+03  0.93621465639E+03  0.50400001928E-02 0. -1.
       -1   -1    0    0    0  501  0.00000000000E+00  0.00000000000E+00 -0.86710247741E+03  0.86710247742E+03  0.50400001928E-02 0.  1.
    10030    2    1    2    0    0  0.00000000000E+00  0.00000000000E+00  0.69112178973E+02  0.18033171338E+04  0.18019922841E+04 0.  0.
        3    1    3    3  502    0  0.78327191317E+03  0.44025521148E+03  0.10134717402E+03  0.90421833707E+03  0.10100000352E+00 0. -1.
       -3    1    3    3    0  502 -0.78327191317E+03 -0.44025521148E+03 -0.32234995043E+02  0.89909879675E+03  0.10100000352E+00 0.  1.
</event>
<event>
 5   0  0.2054876E-05  0.1799697E+04  0.7818609E-02  0.8706461E-01
       -1   -1    0    0    0  501  0.00000000000E+00  0.00000000000E+00  0.10444972100E+04  0.10444972100E+04  0.50400001928E-02 0. -1.
        1   -1    0    0  501    0  0.00000000000E+00  0.00000000000E+00 -0.77523126209E+03  0.77523126211E+03  0.50400001928E-02 0.  1.
    10030    2    1    2    0    0  0.00000000000E+00  0.00000000000E+00  0.26926594793E+03  0.18197284721E+04  0.17996965193E+04 0.  0.
        5    1    3    3  502    0 -0.43754784855E+02 -0.68148773530E+03  0.72712865691E+03  0.99753605863E+03  0.46999998093E+01 0. -1.
       -5    1    3    3    0  502  0.43754784855E+02  0.68148773530E+03 -0.45786270898E+03  0.82219241351E+03  0.46999998093E+01 0.  1.
</event>
<event>
 5   0  0.3984648E-05  0.1799820E+04  0.7818609E-02  0.8706395E-01
       -2   -1    0    0    0  501  0.00000000000E+00  0.00000000000E+00  0.69917146608E+03  0.69917146609E+03  0.25500000920E-02 0.  1.
        2   -1    0    0  501    0  0.00000000000E+00  0.00000000000E+00 -0.11582827479E+04  0.11582827479E+04  0.25500000920E-02 0. -1.
    10030    2    1    2    0    0  0.00000000000E+00  0.00000000000E+00 -0.45911128178E+03  0.18574542140E+04  0.17998202654E+04 0.  0.
        1    1    3    3  502    0  0.54922554619E+03 -0.69259465814E+03 -0.40378769777E+03  0.97179245005E+03  0.50400001928E-02 0.  1.
       -1    1    3    3    0  502 -0.54922554619E+03  0.69259465814E+03 -0.55323584016E+02  0.88566176391E+03  0.50400001928E-02 0. -1.
</event>
<event>
 5   0  0.2054876E-05  0.1800108E+04  0.7818609E-02  0.8706242E-01
        1   -1    0    0  501    0  0.00000000000E+00  0.00000000000E+00  0.46394655224E+03  0.46394655226E+03  0.50400001928E-02 0. -1.
       -1   -1    0    0    0  501  0.00000000000E+00  0.00000000000E+00 -0.17460997405E+04  0.17460997405E+04  0.50400001928E-02 0.  1.
    10030    2    1    2    0    0  0.00000000000E+00  0.00000000000E+00 -0.12821531883E+04  0.22100462928E+04  0.18001077240E+04 0.  0.
        5    1    3    3  502    0  0.88189312805E+03 -0.17923880353E+03 -0.62316576258E+03  0.10946322194E+04  0.46999998093E+01 0. -1.
       -5    1    3    3    0  502 -0.88189312805E+03  0.17923880353E+03 -0.65898742571E+03  0.11154140734E+04  0.46999998093E+01 0.  1.
</event>
<event>
 5   0  0.4015729E-05  0.1805446E+04  0.7818609E-02  0.8703409E-01
       -2   -1    0    0    0  501  0.00000000000E+00  0.00000000000E+00  0.11021056712E+04  0.11021056712E+04  0.25500000920E-02 0. -1.
        2   -1    0    0  501    0  0.00000000000E+00  0.00000000000E+00 -0.73941052894E+03  0.73941052895E+03  0.25500000920E-02 0.  1.
    10030    2    1    2    0    0  0.00000000000E+00  0.00000000000E+00  0.36269514224E+03  0.18415162001E+04  0.18054456927E+04 0.  0.
        2    1    3    3  502    0  0.45112309975E+03 -0.34958744095E+03  0.89473873814E+03  0.10612637936E+04  0.25500000920E-02 0. -1.
       -2    1    3    3    0  502 -0.45112309975E+03  0.34958744095E+03 -0.53204359590E+03  0.78025240656E+03  0.25500000920E-02 0.  1.
</event>
<event>
 5   0  0.2001811E-05  0.1794919E+04  0.7818609E-02  0.8709006E-01
        1   -1    0    0  501    0  0.00000000000E+00  0.00000000000E+00  0.16592628539E+04  0.16592628539E+04  0.50400001928E-02 0.  1.
       -1   -1    0    0    0  501  0.00000000000E+00  0.00000000000E+00 -0.48541673478E+03  0.48541673480E+03  0.50400001928E-02 0. -1.
    10030    2    1    2    0    0  0.00000000000E+00  0.00000000000E+00  0.11738461191E+04  0.21446795887E+04  0.17949194485E+04 0.  0.
        2    1    3    3  502    0  0.21198262376E+03  0.85040006150E+03  0.35610426870E+03  0.94600589193E+03  0.25500000920E-02 0. -1.
       -2    1    3    3    0  502 -0.21198262376E+03 -0.85040006150E+03  0.81774185039E+03  0.11986736967E+04  0.25500000920E-02 0.  1.
</event>
<event>
 5   0  0.3993393E-05  0.1809297E+04  0.7818609E-02  0.8701371E-01
        2   -1    0    0  501    0  0.00000000000E+00  0.00000000000E+00  0.89321811732E+03  0.89321811732E+03  0.25500000920E-02 0. -1.
       -2   -1    0    0    0  501  0.00000000000E+00  0.00000000000E+00 -0.91622493359E+03  0.91622493360E+03  0.25500000920E-02 0.  1.
    10030    2    1    2    0    0  0.00000000000E+00  0.00000000000E+00 -0.23006816272E+02  0.18094430509E+04  0.18092967808E+04 0.  0.
        5    1    3    3  502    0  0.22302876051E+03  0.54310305689E+03  0.67678464953E+03  0.89597003871E+03  0.46999998093E+01 0. -1.
       -5    1    3    3    0  502 -0.22302876051E+03 -0.54310305689E+03 -0.69979146581E+03  0.91347301221E+03  0.46999998093E+01 0.  1.
</event>
<event>
 5   0  0.3909859E-05  0.1810280E+04  0.7818609E-02  0.8700852E-01
       -2   -1    0    0    0  501  0.00000000000E+00  0.00000000000E+00  0.54533367544E+03  0.54533367545E+03  0.25500000920E-02 0. -1.
        2   -1    0    0  501    0  0.00000000000E+00  0.00000000000E+00 -0.15023433243E+04  0.15023433243E+04  0.25500000920E-02 0.  1.
    10030    2    1    2    0    0  0.00000000000E+00  0.00000000000E+00 -0.95700964887E+03  0.20476769998E+04  0.18102799859E+04 0.  0.
        4    1    3    3  502    0  0.75645638258E+02 -0.41783571213E+03  0.42567581870E+03  0.60125739949E+03  0.12699999809E+01 0. -1.
       -4    1    3    3    0  502 -0.75645638258E+02  0.41783571213E+03 -0.13826854676E+04  0.14464196003E+04  0.12699999809E+01 0.  1.
</event>
<event>
 5   0  0.3909859E-05  0.1799034E+04  0.7818609E-02  0.8706813E-01
        2   -1    0    0  501    0  0.00000000000E+00  0.00000000000E+00  0.14347820323E+04  0.14347820323E+04  0.25500000920E-02 0.  1.
       -2   -1    0    0    0  501  0.00000000000E+00  0.00000000000E+00 -0.56393998409E+03  0.56393998410E+03  0.25500000920E-02 0. -1.
    10030    2    1    2    0    0  0.00000000000E+00  0.00000000000E+00  0.87084204817E+03  0.19987220164E+04  0.17990341369E+04 0.  0.
        4    1    3    3  502    0 -0.84639137856E+03 -0.29005507750E+03  0.53856460026E+03  0.10443006058E+04  0.12699999809E+01 0.  1.
       -4    1    3    3    0  502  0.84639137856E+03  0.29005507750E+03  0.33227744792E+03  0.95442141059E+03  0.12699999809E+01 0. -1.
</event>
<event>
 5   0  0.2054876E-05  0.1798681E+04  0.7818609E-02  0.8707001E-01
        1   -1    0    0  501    0  0.00000000000E+00  0.00000000000E+00  0.91488769256E+03  0.91488769257E+03  0.50400001928E-02 0.  1.
       -1   -1    0    0    0  501  0.00000000000E+00  0.00000000000E+00 -0.88405712784E+03  0.88405712785E+03  0.50400001928E-02 0. -1.
    10030    2    1    2    0    0  0.00000000000E+00  0.00000000000E+00  0.30830564720E+02  0.17989448204E+04  0.17986806118E+04 0.  0.
        5    1    3    3  502    0 -0.38373211438E+03 -0.57138151596E+03 -0.56351663577E+03  0.88955059506E+03  0.46999998093E+01 0. -1.
       -5    1    3    3    0  502  0.38373211438E+03  0.57138151596E+03  0.59434720049E+03  0.90939422536E+03  0.46999998093E+01 0.  1.
</event>
<event>
 5   0  0.1446750E-05  0.1814439E+04  0.7818609E-02  0.8698659E-01
       -3   -1    0    0    0  501  0.00000000000E+00  0.00000000000E+00  0.60108451846E+03  0.60108452695E+03  0.10100000352E+00 0.  1.
        3   -1    0    0  501    0  0.00000000000E+00  0.00000000000E+00 -0.13692696563E+04  0.13692696600E+04  0.10100000352E+00 0. -1.
    10030    2    1    2    0    0  0.00000000000E+00  0.00000000000E+00 -0.76818513780E+03  0.19703541869E+04  0.18144385402E+04 0.  0.
        2    1    3    3  502    0 -0.68807294466E+03  0.13298121622E+03 -0.10097227886E+04  0.12290925477E+04  0.25500000920E-02 0. -1.
       -2    1    3    3    0  502  0.68807294466E+03 -0.13298121622E+03  0.24153765078E+03  0.74126163923E+03  0.25500000920E-02 0.  1.
</event>
<event>
 5   0  0.2054876E-05  0.1799755E+04  0.7818609E-02  0.8706430E-01
        1   -1    0    0  501    0  0.00000000000E+00  0.00000000000E+00  0.11744437730E+04  0.11744437730E+04  0.50400001928E-02 0. -1.
       -1   -1    0    0    0  501  0.00000000000E+00  0.00000000000E+00 -0.68950026694E+03  0.68950026696E+03  0.50400001928E-02 0.  1.
    10030    2    1    2    0    0  0.00000000000E+00  0.00000000000E+00  0.48494350604E+03  0.18639440400E+04  0.17997547555E+04 0.  0.
        5    1    3    3  502    0 -0.64351287351E+03  0.38797751644E+03  0.75522750159E+03  0.10653760091E+04  0.46999998093E+01 0. -1.
       -5    1    3    3    0  502  0.64351287351E+03 -0.38797751644E+03 -0.27028399554E+03  0.79856803084E+03  0.46999998093E+01 0.  1.
</event>
<event>
 5   0  0.3909859E-05  0.1799489E+04  0.7818609E-02  0.8706571E-01
        2   -1    0    0  501    0  0.00000000000E+00  0.00000000000E+00  0.11253585614E+04  0.11253585614E+04  0.25500000920E-02 0.  1.
       -2   -1    0    0    0  501  0.00000000000E+00  0.00000000000E+00 -0.71936173662E+03  0.71936173663E+03  0.25500000920E-02 0. -1.
    10030    2    1    2    0    0  0.00000000000E+00  0.00000000000E+00  0.40599682476E+03  0.18447202980E+04  0.17994886930E+04 0.  0.
        4    1    3    3  502    0 -0.95645887705E+02  0.86722708499E+03  0.42831226401E+03  0.97194853833E+03  0.12699999809E+01 0.  1.
       -4    1    3    3    0  502  0.95645887705E+02 -0.86722708499E+03 -0.22315439246E+02  0.87277175968E+03  0.12699999809E+01 0. -1.
</event>
<event>
 5   0  0.3993393E-05  0.1799598E+04  0.7818609E-02  0.8706513E-01
        2   -1    0    0  501    0  0.00000000000E+00  0.00000000000E+00  0.19833081160E+04  0.19833081160E+04  0.25500000920E-02 0.  1.
       -2   -1    0    0    0  501  0.00000000000E+00  0.00000000000E+00 -0.40822617496E+03  0.40822617497E+03  0.25500000920E-02 0. -1.
    10030    2    1    2    0    0  0.00000000000E+00  0.00000000000E+00  0.15750819411E+04  0.23915342910E+04  0.17995980507E+04 0.  0.
        5    1    3    3  502    0 -0.21220364400E+03 -0.81544211719E+03  0.36805457847E+03  0.91949034565E+03  0.46999998093E+01 0. -1.
       -5    1    3    3    0  502  0.21220364400E+03  0.81544211719E+03  0.12070273626E+04  0.14720439454E+04  0.46999998093E+01 0.  1.
</event>
<event>
 5   0  0.1960300E-05  0.1801972E+04  0.7818609E-02  0.8705252E-01
       -1   -1    0    0    0  501  0.00000000000E+00  0.00000000000E+00  0.60718438171E+03  0.60718438173E+03  0.50400001928E-02 0. -1.
        1   -1    0    0  501    0  0.00000000000E+00  0.00000000000E+00 -0.13369507985E+04  0.13369507985E+04  0.50400001928E-02 0.  1.
    10030    2    1    2    0    0  0.00000000000E+00  0.00000000000E+00 -0.72976641678E+03  0.19441351802E+04  0.18019718577E+04 0.  0.
        3    1    3    3  502    0 -0.35406345131E+03  0.26086348186E+03  0.48351723650E+03  0.65360508866E+03  0.10100000352E+00 0. -1.
       -3    1    3    3    0  502  0.35406345131E+03 -0.26086348186E+03 -0.12132836533E+04  0.12905300916E+04  0.10100000352E+00 0.  1.
</event>
<event>
 5   0  0.3909859E-05  0.1796497E+04  0.7818609E-02  0.8708165E-01
        2   -1    0    0  501    0  0.00000000000E+00  0.00000000000E+00  0.12254789331E+04  0.12254789331E+04  0.25500000920E-02 0. -1.
       -2   -1    0    0    0  501  0.00000000000E+00  0.00000000000E+00 -0.65839598785E+03  0.65839598786E+03  0.25500000920E-02 0.  1.
    10030    2    1    2    0    0  0.00000000000E+00  0.00000000000E+00  0.56708294529E+03  0.18838749210E+04  0.17964970501E+04 0.  0.
        4    1    3    3  502    0 -0.69069993130E+03 -0.18865802807E+03 -0.28523276589E+03  0.77072536632E+03  0.12699999809E+01 0.  1.
       -4    1    3    3    0  502  0.69069993130E+03  0.18865802807E+03  0.85231571117E+03  0.11131495547E+04  0.12699999809E+01 0. -1.
</event>
<event>
 5   0  0.3984648E-05  0.1801274E+04  0.7818609E-02  0.8705622E-01
       -2   -1    0    0    0  501  0.00000000000E+00  0.00000000000E+00  0.75921547698E+03  0.75921547698E+03  0.25500000920E-02 0. -1.
        2   -1    0    0  501    0  0.00000000000E+00  0.00000000000E+00 -0.10684020066E+04  0.10684020066E+04  0.25500000920E-02 0.  1.
    10030    2    1    2    0    0  0.00000000000E+00  0.00000000000E+00 -0.30918652960E+03  0.18276174836E+04  0.18012743700E+04 0.  0.
        1    1    3    3  502    0 -0.64983182980E+03  0.18838631371E+03  0.44855528036E+03  0.81177130386E+03  0.50400001928E-02 0. -1.
       -1    1    3    3    0  502  0.64983182980E+03 -0.18838631371E+03 -0.75774180996E+03  0.10158461797E+04  0.50400001928E-02 0.  1.
</event>
<event>
 5   0  0.1960300E-05  0.1805520E+04  0.7818609E-02  0.8703369E-01
       -1   -1    0    0    0  501  0.00000000000E+00  0.00000000000E+00  0.54337495757E+03  0.54337495759E+03  0.50400001928E-02 0.  1.
        1   -1    0    0  501    0  0.00000000000E+00  0.00000000000E+00 -0.14998404542E+04  0.14998404542E+04  0.50400001928E-02 0. -1.
    10030    2    1    2    0    0  0.00000000000E+00  0.00000000000E+00 -0.95646549664E+03  0.20432154118E+04  0.18055201391E+04 0.  0.
        3    1    3    3  502    0  0.11169068873E+03  0.85302592244E+03 -0.16863268224E+03  0.87667840513E+03  0.10100000352E+00 0. -1.
       -3    1    3    3    0  502 -0.11169068873E+03 -0.85302592244E+03 -0.78783281440E+03  0.11665370067E+04  0.10100000352E+00 0.  1.
</event>
<event>
 5   0  0.3983176E-05  0.1802845E+04  0.7818609E-02  0.8704788E-01
       -2   -1    0    0    0  501  0.00000000000E+00  0.00000000000E+00  0.49515392039E+03  0.49515392040E+03  0.25500000920E-02 0.  1.
        2   -1    0    0  501    0  0.00000000000E+00  0.00000000000E+00 -0.16410293627E+04  0.16410293627E+04  0.25500000920E-02 0. -1.
    10030    2    1    2    0    0  0.00000000000E+00  0.00000000000E+00 -0.11458754423E+04  0.21361832831E+04  0.18028445551E+04 0.  0.
        3    1    3    3  502    0 -0.41179199324E+02  0.25319180915E+03 -0.15968690672E+04  0.16173412276E+04  0.10100000352E+00 0. -1.
       -3    1    3    3    0  502  0.41179199324E+02 -0.25319180915E+03  0.45099362485E+03  0.51884205548E+03  0.10100000352E+00 0.  1.
</event>
<event>
 5   0  0.1960300E-05  0.1790806E+04  0.7818609E-02  0.8711204E-01
       -1   -1    0    0    0  501  0.00000000000E+00  0.00000000000E+00  0.16254989944E+04  0.16254989944E+04  0.50400001928E-02 0.  1.
        1   -1    0    0  501    0  0.00000000000E+00  0.00000000000E+00 -0.49323100229E+03  0.49323100232E+03  0.50400001928E-02 0. -1.
    10030    2    1    2    0    0  0.00000000000E+00  0.00000000000E+00  0.11322679921E+04  0.21187299967E+04  0.17908059619E+04 0.  0.
        3    1    3    3  502    0 -0.63880353653E+03  0.62369520142E+03  0.64707867571E+03  0.11026225489E+04  0.10100000352E+00 0. -1.
       -3    1    3    3    0  502  0.63880353653E+03 -0.62369520142E+03  0.48518931637E+03  0.10161074478E+04  0.10100000352E+00 0.  1.
</event>
<event>
 5   0  0.2054876E-05  0.1790902E+04  0.7818609E-02  0.8711153E-01
        1   -1    0    0  501    0  0.00000000000E+00  0.00000000000E+00  0.17186685484E+04  0.17186685484E+04  0.50400001928E-02 0.  1.
       -1   -1    0    0    0  501  0.00000000000E+00  0.00000000000E+00 -0.46654280981E+03  0.46654280984E+03  0.50400001928E-02 0. -1.
    10030    2    1    2    0    0  0.00000000000E+00  0.00000000000E+00  0.12521257386E+04  0.21852113582E+04  0.17909019557E+04 0.  0.
        5    1    3    3  502    0 -0.69723848402E+03  0.85428782153E+02  0.13036392371E+04  0.14808568232E+04  0.46999998093E+01 0.  1.
       -5    1    3    3    0  502  0.69723848402E+03 -0.85428782153E+02 -0.51513498538E+02  0.70435453498E+03  0.46999998093E+01 0. -1.
</event>
<event>
 5   0  0.2038338E-05  0.1765419E+04  0.7818609E-02  0.8724908E-01
        1   -1    0    0  501    0  0.00000000000E+00  0.00000000000E+00  0.13132679636E+04  0.13132679636E+04  0.50400001928E-02 0. -1.
       -1   -1    0    0    0  501  0.00000000000E+00  0.00000000000E+00 -0.59331095328E+03  0.59331095330E+03  0.50400001928E-02 0.  1.
    10030    2    1    2    0    0  0.00000000000E+00  0.00000000000E+00  0.71995701033E+03  0.19065789169E+04  0.17654192334E+04 0.  0.
        1    1    3    3  502    0 -0.99398995535E+02  0.51350272718E+03  0.11278971524E+04  0.12432687552E+04  0.50400001928E-02 0. -1.
       -1    1    3    3    0  502  0.99398995535E+02 -0.51350272718E+03 -0.40794014208E+03  0.66331016175E+03  0.50400001928E-02 0.  1.
</event>
<event>
 5   0  0.2038338E-05  0.1801532E+04  0.7818609E-02  0.8705485E-01
        1   -1    0    0  501    0  0.00000000000E+00  0.00000000000E+00  0.87174558656E+03  0.87174558657E+03  0.50400001928E-02 0. -1.
       -1   -1    0    0    0  501  0.00000000000E+00  0.00000000000E+00 -0.93075273975E+03  0.93075273976E+03  0.50400001928E-02 0.  1.
    10030    2    1    2    0    0  0.00000000000E+00  0.00000000000E+00 -0.59007153190E+02  0.18024983263E+04  0.18015322291E+04 0.  0.
        1    1    3    3  502    0 -0.71194774626E+03 -0.52580528588E+03 -0.19704127820E+03  0.90673373016E+03  0.50400001928E-02 0.  1.
       -1    1    3    3    0  502  0.71194774626E+03  0.52580528588E+03  0.13803412501E+03  0.89576459617E+03  0.50400001928E-02 0. -1.
</event>
<event>
 5   0  0.3983176E-05  0.1790494E+04  0.7818609E-02  0.8711371E-01
        2   -1    0    0  501    0  0.00000000000E+00  0.00000000000E+00  0.69623715604E+03  0.69623715605E+03  0.25500000920E-02 0. -1.
       -2   -1    0    0    0  501  0.00000000000E+00  0.00000000000E+00 -0.11511414901E+04  0.11511414901E+04  0.25500000920E-02 0.  1.
    10030    2    1    2    0    0  0.00000000000E+00  0.00000000000E+00 -0.45490433408E+03  0.18473786462E+04  0.17904943198E+04 0.  0.
        3    1    3    3  502    0 -0.57742088668E+03 -0.56127407495E+03 -0.63106293667E+03  0.10230757097E+04  0.10100000352E+00 0.  1.
       -3    1    3    3    0  502  0.57742088668E+03  0.56127407495E+03  0.17615860259E+03  0.82430293645E+03  0.10100000352E+00 0. -1.
</event>
<event>
 5   0  0.2038338E-05  0.1801406E+04  0.7818609E-02  0.8705552E-01
       -1   -1    0    0    0  501  0.00000000000E+00  0.00000000000E+00  0.42966570234E+03  0.42966570236E+03  0.50400001928E-02 0.  1.
        1   -1    0    0  501    0  0.00000000000E+00  0.00000000000E+00 -0.18881337766E+04  0.18881337766E+04  0.50400001928E-02 0. -1.
    10030    2    1    2    0    0  0.00000000000E+00  0.00000000000E+00 -0.14584680743E+04  0.23177994790E+04  0.18014064786E+04 0.  0.
        1    1    3    3  502    0 -0.45514188067E+03  0.56600534193E+03 -0.14146152376E+04  0.15901737167E+04  0.50400001928E-02 0. -1.
       -1    1    3    3    0  502  0.45514188067E+03 -0.56600534193E+03 -0.43852836608E+02  0.72762576228E+03  0.50400001928E-02 0.  1.
</event>
<event>
 5   0  0.2001811E-05  0.1801894E+04  0.7818609E-02  0.8705293E-01
        1   -1    0    0  501    0  0.00000000000E+00  0.00000000000E+00  0.66115307835E+03  0.66115307837E+03  0.50400001928E-02 0. -1.
       -1   -1    0    0    0  501  0.00000000000E+00  0.00000000000E+00 -0.12277114219E+04  0.12277114219E+04  0.50400001928E-02 0.  1.
    10030    2    1    2    0    0  0.00000000000E+00  0.00000000000E+00 -0.56655834354E+03  0.18888645003E+04  0.18018936549E+04 0.  0.
        2    1    3    3  502    0 -0.51606660189E+03 -0.61785318290E+03 -0.70732577386E+03  0.10716235550E+04  0.25500000920E-02 0.  1.
       -2    1    3    3    0  502  0.51606660189E+03  0.61785318290E+03  0.14076743033E+03  0.81724094528E+03  0.25500000920E-02 0. -1.
</event>
<event>
 5   0  0.2054876E-05  0.1802470E+04  0.7818609E-02  0.8704987E-01
       -1   -1    0    0    0  501  0.00000000000E+00  0.00000000000E+00  0.68678182933E+03  0.68678182934E+03  0.50400001928E-02 0.  1.
        1   -1    0    0  501    0  0.00000000000E+00  0.00000000000E+00 -0.11826527793E+04  0.11826527793E+04  0.50400001928E-02 0. -1.
    10030    2    1    2    0    0  0.00000000000E+00  0.00000000000E+00 -0.49587094995E+03  0.18694346086E+04  0.18024699046E+04 0.  0.
        5    1    3    3  502    0  0.38149878679E+03 -0.36946509451E+03  0.50723383120E+03  0.73440726432E+03  0.46999998093E+01 0.  1.
       -5    1    3    3    0  502 -0.38149878679E+03  0.36946509451E+03 -0.10031047811E+04  0.11350273443E+04  0.46999998093E+01 0. -1.
</event>
<event>
 5   0  0.3909859E-05  0.1798860E+04  0.7818609E-02  0.8706906E-01
       -2   -1    0    0    0  501  0.00000000000E+00  0.00000000000E+00  0.56159572191E+03  0.56159572192E+03  0.25500000920E-02 0. -1.
        2   -1    0    0  501    0  0.00000000000E+00  0.00000000000E+00 -0.14404928461E+04  0.14404928461E+04  0.25500000920E-02 0.  1.
    10030    2    1    2    0    0  0.00000000000E+00  0.00000000000E+00 -0.87889712414E+03  0.20020885680E+04  0.17988603279E+04 0.  0.
        4    1    3    3  502    0 -0.42975775341E+03 -0.25051360920E+03  0.39455918601E+03  0.63492311281E+03  0.12699999809E+01 0. -1.
       -4    1    3    3    0  502  0.42975775341E+03  0.25051360920E+03 -0.12734563102E+04  0.13671654552E+04  0.12699999809E+01 0.  1.
</event>
<event>
 5   0  0.3983176E-05  0.1824326E+04  0.7818609E-02  0.8693469E-01
        2   -1    0    0  501    0  0.00000000000E+00  0.00000000000E+00  0.11033897605E+04  0.11033897605E+04  0.25500000920E-02 0. -1.
       -2   -1    0    0    0  501  0.00000000000E+00  0.00000000000E+00 -0.75407706396E+03  0.75407706397E+03  0.25500000920E-02 0.  1.
    10030    2    1    2    0    0  0.00000000000E+00  0.00000000000E+00  0.34931269651E+03  0.18574668244E+04  0.18243255313E+04 0.  0.
        3    1    3    3  502    0  0.22077828102E+03 -0.75526054701E+02  0.10724883622E+04  0.10975784853E+04  0.10100000352E+00 0. -1.
       -3    1    3    3    0  502 -0.22077828102E+03  0.75526054701E+02 -0.72317566565E+03  0.75988833910E+03  0.10100000352E+00 0.  1.
</event>
<event>
 5   0  0.1906857E-05  0.1797864E+04  0.7818609E-02  0.8707436E-01
        1   -1    0    0  501    0  0.00000000000E+00  0.00000000000E+00  0.96654325370E+03  0.96654325372E+03  0.50400001928E-02 0.  1.
       -1   -1    0    0    0  501  0.00000000000E+00  0.00000000000E+00 -0.83605043257E+03  0.83605043259E+03  0.50400001928E-02 0. -1.
    10030    2    1    2    0    0  0.00000000000E+00  0.00000000000E+00  0.13049282113E+03  0.18025936863E+04  0.17978641833E+04 0.  0.
        4    1    3    3  502    0  0.20542594078E+03 -0.40995850548E+03 -0.70997024918E+03  0.84517759138E+03  0.12699999809E+01 0. -1.
       -4    1    3    3    0  502 -0.20542594078E+03  0.40995850548E+03  0.84046307031E+03  0.95741609492E+03  0.12699999809E+01 0.  1.
</event>
<event>
 5   0  0.2001811E-05  0.1801929E+04  0.7818609E-02  0.8705274E-01
       -1   -1    0    0    0  501  0.00000000000E+00  0.00000000000E+00  0.55669461253E+03  0.55669461255E+03  0.50400001928E-02 0. -1.
        1   -1    0    0  501    0  0.00000000000E+00  0.00000000000E+00 -0.14581371438E+04  0.14581371438E+04  0.50400001928E-02 0.  1.
    10030    2    1    2    0    0  0.00000000000E+00  0.00000000000E+00 -0.90144253126E+03  0.20148317564E+04  0.18019290689E+04 0.  0.
        2    1    3    3  502    0  0.33046818658E+03 -0.82880915634E+03 -0.31104948761E+03  0.94492625306E+03  0.25500000920E-02 0.  1.
       -2    1    3    3    0  502 -0.33046818658E+03  0.82880915634E+03 -0.59039304365E+03  0.10699055033E+04  0.25500000920E-02 0. -1.
</event>
<event>
 5   0  0.1906857E-05  0.1807064E+04  0.7818609E-02  0.8702552E-01
        1   -1    0    0  501    0  0.00000000000E+00  0.00000000000E+00  0.13613222847E+04  0.13613222847E+04  0.50400001928E-02 0.  1.
       -1   -1    0    0    0  501  0.00000000000E+00  0.00000000000E+00 -0.59968876757E+03  0.59968876759E+03  0.50400001928E-02 0. -1.
    10030    2    1    2    0    0  0.00000000000E+00  0.00000000000E+00  0.76163351715E+03  0.19610110523E+04  0.18070635664E+04 0.  0.
        4    1    3    3  502    0 -0.35874873975E+02 -0.69661279701E+03 -0.24240071863E+03  0.73845522331E+03  0.12699999809E+01 0. -1.
       -4    1    3    3    0  502  0.35874873975E+02  0.69661279701E+03  0.10040342358E+04  0.12225558290E+04  0.12699999809E+01 0.  1.
</event>
<event>
 5   0  0.2038338E-05  0.1799554E+04  0.7818609E-02  0.8706537E-01
       -1   -1    0    0    0  501  0.00000000000E+00  0.00000000000E+00  0.61847698219E+03  0.61847698221E+03  0.50400001928E-02 0. -1.
        1   -1    0    0  501    0  0.00000000000E+00  0.00000000000E+00 -0.13090194536E+04  0.13090194537E+04  0.50400001928E-02 0.  1.
    10030    2    1    2    0    0  0.00000000000E+00  0.00000000000E+00 -0.69054247146E+03  0.19274964359E+04  0.17995537240E+04 0.  0.
        1    1    3    3  502    0 -0.33382478254E+03  0.28403234421E+03  0.49639903683E+03  0.66221247480E+03  0.50400001928E-02 0. -1.
       -1    1    3    3    0  502  0.33382478254E+03 -0.28403234421E+03 -0.11869415083E+04  0.12652839611E+04  0.50400001928E-02 0.  1.
</event>
<event>
 5   0  0.1446750E-05  0.1803667E+04  0.7818609E-02  0.8704352E-01
       -3   -1    0    0    0  501  0.00000000000E+00  0.00000000000E+00  0.12617819711E+04  0.12617819751E+04  0.10100000352E+00 0.  1.
        3   -1    0    0  501    0  0.00000000000E+00  0.00000000000E+00 -0.64456745138E+03  0.64456745930E+03  0.10100000352E+00 0. -1.
    10030    2    1    2    0    0  0.00000000000E+00  0.00000000000E+00  0.61721451967E+03  0.19063494344E+04  0.18036669323E+04 0.  0.
        3    1    3    3  502    0 -0.78156600154E+03  0.34024701234E+03 -0.25866110002E+01  0.85242016924E+03  0.10100000352E+00 0. -1.
       -3    1    3    3    0  502  0.78156600154E+03 -0.34024701234E+03  0.61980113067E+03  0.10539292652E+04  0.10100000352E+00 0.  1.
</event>
<event>
 5   0  0.1906857E-05  0.1805577E+04  0.7818609E-02  0.8703339E-01
        1   -1    0    0  501    0  0.00000000000E+00  0.00000000000E+00  0.11077745340E+04  0.11077745340E+04  0.50400001928E-02 0.  1.
       -1   -1    0    0    0  501  0.00000000000E+00  0.00000000000E+00 -0.73573369238E+03  0.73573369240E+03  0.50400001928E-02 0. -1.
    10030    2    1    2    0    0  0.00000000000E+00  0.00000000000E+00  0.37204084159E+03  0.18435082264E+04  0.18055769695E+04 0.  0.
        4    1    3    3  502    0 -0.36917398325E+03  0.47693438978E+03 -0.49985795241E+03  0.78333608850E+03  0.12699999809E+01 0. -1.
       -4    1    3    3    0  502  0.36917398325E+03 -0.47693438978E+03  0.87189879400E+03  0.10601721379E+04  0.12699999809E+01 0.  1.
</event>
<event>
 5   0  0.3909859E-05  0.1800439E+04  0.7818609E-02  0.8706066E-01
        2   -1    0    0  501    0  0.00000000000E+00  0.00000000000E+00  0.14523151125E+04  0.14523151125E+04  0.25500000920E-02 0.  1.
       -2   -1    0    0    0  501  0.00000000000E+00  0.00000000000E+00 -0.55800227843E+03  0.55800227844E+03  0.25500000920E-02 0. -1.
    10030    2    1    2    0    0  0.00000000000E+00  0.00000000000E+00  0.89431283409E+03  0.20103173910E+04  0.18004389929E+04 0.  0.
        4    1    3    3  502    0 -0.80057760797E+03 -0.22964882110E+03  0.65670698961E+02  0.83545038214E+03  0.12699999809E+01 0.  1.
       -4    1    3    3    0  502  0.80057760797E+03  0.22964882110E+03  0.82864213513E+03  0.11748670088E+04  0.12699999809E+01 0. -1.
</event>
<event>
 5   0  0.3909859E-05  0.1801023E+04  0.7818609E-02  0.8705756E-01
       -2   -1    0    0    0  501  0.00000000000E+00  0.00000000000E+00  0.43893177480E+03  0.43893177481E+03  0.25500000920E-02 0. -1.
        2   -1    0    0  501    0  0.00000000000E+00  0.00000000000E+00 -0.18474873935E+04  0.18474873935E+04  0.25500000920E-02 0.  1.
    10030    2    1    2    0    0  0.00000000000E+00  0.00000000000E+00 -0.14085556187E+04  0.22864191683E+04  0.18010229544E+04 0.  0.
        4    1    3    3  502    0 -0.62115860169E+03 -0.64392524186E+03 -0.57455398063E+03  0.10632928172E+04  0.12699999809E+01 0.  1.
       -4    1    3    3    0  502  0.62115860169E+03  0.64392524186E+03 -0.83400163805E+03  0.12231263511E+04  0.12699999809E+01 0. -1.
</event>
<event>
 5   0  0.2038338E-05  0.1808787E+04  0.7818609E-02  0.8701640E-01
       -1   -1    0    0    0  501  0.00000000000E+00  0.00000000000E+00  0.65889294464E+03  0.65889294465E+03  0.50400001928E-02 0. -1.
        1   -1    0    0  501    0  0.00000000000E+00  0.00000000000E+00 -0.12413670392E+04  0.12413670392E+04  0.50400001928E-02 0.  1.
    10030    2    1    2    0    0  0.00000000000E+00  0.00000000000E+00 -0.58247409453E+03  0.19002599838E+04  0.18087874213E+04 0.  0.
        1    1    3    3  502    0 -0.15977093572E+03  0.84799311710E+03 -0.67884077845E+01  0.86293983629E+03  0.50400001928E-02 0. -1.
       -1    1    3    3    0  502  0.15977093572E+03 -0.84799311710E+03 -0.57568568674E+03  0.10373201475E+04  0.50400001928E-02 0.  1.
</event>
<event>
 5   0  0.1906857E-05  0.1799744E+04  0.7818609E-02  0.8706436E-01
       -1   -1    0    0    0  501  0.00000000000E+00  0.00000000000E+00  0.47663886112E+03  0.47663886114E+03  0.50400001928E-02 0.  1.
        1   -1    0    0  501    0  0.00000000000E+00  0.00000000000E+00 -0.16989160822E+04  0.16989160822E+04  0.50400001928E-02 0. -1.
    10030    2    1    2    0    0  0.00000000000E+00  0.00000000000E+00 -0.12222772211E+04  0.21755549434E+04  0.17997437891E+04 0.  0.
        4    1    3    3  502    0 -0.72705295506E+03 -0.40478703307E+02  0.27960732420E+02  0.72871663927E+03  0.12699999809E+01 0.  1.
       -4    1    3    3    0  502  0.72705295506E+03  0.40478703307E+02 -0.12502379535E+04  0.14468383041E+04  0.12699999809E+01 0. -1.
</event>
<event>
 5   0  0.3909859E-05  0.1800248E+04  0.7818609E-02  0.8706167E-01
        2   -1    0    0  501    0  0.00000000000E+00  0.00000000000E+00  0.19792970017E+04  0.19792970017E+04  0.25500000920E-02 0.  1.
       -2   -1    0    0    0  501  0.00000000000E+00  0.00000000000E+00 -0.40934908961E+03  0.40934908962E+03  0.25500000920E-02 0. -1.
    10030    2    1    2    0    0  0.00000000000E+00  0.00000000000E+00  0.15699479121E+04  0.23886460913E+04  0.18002482337E+04 0.  0.
        4    1    3    3  502    0 -0.16713535542E+03 -0.80535670118E+03  0.12701126374E+04  0.15131825295E+04  0.12699999809E+01 0. -1.
       -4    1    3    3    0  502  0.16713535542E+03  0.80535670118E+03  0.29983527472E+03  0.87546356180E+03  0.12699999809E+01 0.  1.
</event>
<event>
 5   0  0.3909859E-05  0.1807460E+04  0.7818609E-02  0.8702343E-01
        2   -1    0    0  501    0  0.00000000000E+00  0.00000000000E+00  0.18302732457E+04  0.18302732457E+04  0.25500000920E-02 0.  1.
       -2   -1    0    0    0  501  0.00000000000E+00  0.00000000000E+00 -0.44623259030E+03  0.44623259031E+03  0.25500000920E-02 0. -1.
    10030    2    1    2    0    0  0.00000000000E+00  0.00000000000E+00  0.13840406554E+04  0.22765058360E+04  0.18074596221E+04 0.  0.
        4    1    3    3  502    0  0.89429877344E+02 -0.85903633023E+03  0.10271171333E+04  0.13419807517E+04  0.12699999809E+01 0.  1.
       -4    1    3    3    0  502 -0.89429877344E+02  0.85903633023E+03  0.35692352211E+03  0.93452508428E+03  0.12699999809E+01 0. -1.
</event>
<event>
 5   0  0.3993393E-05  0.1799350E+04  0.7818609E-02  0.8706645E-01
       -2   -1    0    0    0  501  0.00000000000E+00  0.00000000000E+00  0.44532478920E+03  0.44532478921E+03  0.25500000920E-02 0.  1.
        2   -1    0    0  501    0  0.00000000000E+00  0.00000000000E+00 -0.18175843482E+04  0.18175843482E+04  0.25500000920E-02 0. -1.
    10030    2    1    2    0    0  0.00000000000E+00  0.00000000000E+00 -0.13722595590E+04  0.22629091374E+04  0.17993502902E+04 0.  0.
        5    1    3    3  502    0  0.60473576740E+03 -0.97356657345E+02  0.14257742254E+03  0.62891500103E+03  0.46999998093E+01 0.  1.
       -5    1    3    3    0  502 -0.60473576740E+03  0.97356657345E+02 -0.15148369816E+04  0.16339941364E+04  0.46999998093E+01 0. -1.
</event>
<event>
 5   0  0.3984648E-05  0.1794402E+04  0.7818609E-02  0.8709282E-01
       -2   -1    0    0    0  501  0.00000000000E+00  0.00000000000E+00  0.39432656994E+03  0.39432656995E+03  0.25500000920E-02 0. -1.
        2   -1    0    0  501    0  0.00000000000E+00  0.00000000000E+00 -0.20413787957E+04  0.20413787957E+04  0.25500000920E-02 0.  1.
    10030    2    1    2    0    0  0.00000000000E+00  0.00000000000E+00 -0.16470522258E+04  0.24357053657E+04  0.17944022943E+04 0.  0.
        1    1    3    3  502    0 -0.20219274104E+03  0.71794912251E+03 -0.15003689861E+04  0.16755416860E+04  0.50400001928E-02 0.  1.
       -1    1    3    3    0  502  0.20219274104E+03 -0.71794912251E+03 -0.14668323966E+03  0.76016367965E+03  0.50400001928E-02 0. -1.
</event>
<event>
 5   0  0.2054876E-05  0.1797233E+04  0.7818609E-02  0.8707772E-01
       -1   -1    0    0    0  501  0.00000000000E+00  0.00000000000E+00  0.10031755344E+04  0.10031755344E+04  0.50400001928E-02 0. -1.
        1   -1    0    0  501    0  0.00000000000E+00  0.00000000000E+00 -0.80495552282E+03  0.80495552284E+03  0.50400001928E-02 0.  1.
    10030    2    1    2    0    0  0.00000000000E+00  0.00000000000E+00  0.19822001161E+03  0.18081310573E+04  0.17972330810E+04 0.  0.
        5    1    3    3  502    0 -0.64708116376E+03 -0.52267558766E+03  0.44115066369E+03  0.94156242517E+03  0.46999998093E+01 0. -1.
       -5    1    3    3    0  502  0.64708116376E+03  0.52267558766E+03 -0.24293065208E+03  0.86656863210E+03  0.46999998093E+01 0.  1.
</event>
<event>
 5   0  0.3993393E-05  0.1801270E+04  0.7818609E-02  0.8705624E-01
       -2   -1    0    0    0  501  0.00000000000E+00  0.00000000000E+00  0.88035367296E+03  0.88035367297E+03  0.25500000920E-02 0. -1.
        2   -1    0    0  501    0  0.00000000000E+00  0.00000000000E+00 -0.92138340864E+03  0.92138340864E+03  0.25500000920E-02 0.  1.
    10030    2    1    2    0    0  0.00000000000E+00  0.00000000000E+00 -0.41029735672E+02  0.18017370816E+04  0.18012698499E+04 0.  0.
        5    1    3    3  502    0 -0.22425145659E+03  0.68773868441E+03 -0.55716867937E+03  0.91308939381E+03  0.46999998093E+01 0.  1.
       -5    1    3    3    0  502  0.22425145659E+03 -0.68773868441E+03  0.51613894370E+03  0.88864768779E+03  0.46999998093E+01 0. -1.
</event>
<event>
 5   0  0.2001811E-05  0.1794730E+04  0.7818609E-02  0.8709107E-01
       -1   -1    0    0    0  501  0.00000000000E+00  0.00000000000E+00  0.43839266198E+03  0.43839266200E+03  0.50400001928E-02 0.  1.
        1   -1    0    0  501    0  0.00000000000E+00  0.00000000000E+00 -0.18368553060E+04  0.18368553060E+04  0.50400001928E-02 0. -1.
    10030    2    1    2    0    0  0.00000000000E+00  0.00000000000E+00 -0.13984626440E+04  0.22752479680E+04  0.17947299377E+04 0.  0.
        2    1    3    3  502    0  0.28600410463E+03  0.34260871560E+02 -0.17766535962E+04  0.17998528151E+04  0.25500000920E-02 0. -1.
       -2    1    3    3    0  502 -0.28600410463E+03 -0.34260871560E+02  0.37819095212E+03  0.47539515295E+03  0.25500000920E-02 0.  1.
</event>
<event>
 5   0  0.3993393E-05  0.1805624E+04  0.7818609E-02  0.8703314E-01
       -2   -1    0    0    0  501  0.00000000000E+00  0.00000000000E+00  0.10442786977E+04  0.10442786977E+04  0.25500000920E-02 0.  1.
        2   -1    0    0  501    0  0.00000000000E+00  0.00000000000E+00 -0.78050949851E+03  0.78050949852E+03  0.25500000920E-02 0. -1.
    10030    2    1    2    0    0  0.00000000000E+00  0.00000000000E+00  0.26376919920E+03  0.18247881962E+04  0.18056239284E+04 0.  0.
        5    1    3    3  502    0 -0.10238506454E+03  0.89166916840E+03  0.23033904321E+03  0.92662547566E+03  0.46999998093E+01 0.  1.
       -5    1    3    3    0  502  0.10238506454E+03 -0.89166916840E+03  0.33430155984E+02  0.89816272058E+03  0.46999998093E+01 0. -1.
</event>
<event>
 5   0  0.1960300E-05  0.1800790E+04  0.7818609E-02  0.8705880E-01
        1   -1    0    0  501    0  0.00000000000E+00  0.00000000000E+00  0.63160427872E+03  0.63160427874E+03  0.50400001928E-02 0.  1.
       -1   -1    0    0    0  501  0.00000000000E+00  0.00000000000E+00 -0.12835739587E+04  0.12835739588E+04  0.50400001928E-02 0. -1.
    10030    2    1    2    0    0  0.00000000000E+00  0.00000000000E+00 -0.65196968002E+03  0.19151782375E+04  0.18007896095E+04 0.  0.
        3    1    3    3  502    0 -0.70914029693E+03  0.26639226085E+02  0.26340291592E+03  0.75694829111E+03  0.10100000352E+00 0.  1.
       -3    1    3    3    0  502  0.70914029693E+03 -0.26639226085E+02 -0.91537259594E+03  0.11582299464E+04  0.10100000352E+00 0. -1.
</event>
<event>
 5   0  0.1906857E-05  0.1798197E+04  0.7818609E-02  0.8707259E-01
        1   -1    0    0  501    0  0.00000000000E+00  0.00000000000E+00  0.11797330249E+04  0.11797330249E+04  0.50400001928E-02 0. -1.
       -1   -1    0    0    0  501  0.00000000000E+00  0.00000000000E+00 -0.68522139585E+03  0.68522139587E+03  0.50400001928E-02 0.  1.
    10030    2    1    2    0    0  0.00000000000E+00  0.00000000000E+00  0.49451162904E+03  0.18649544208E+04  0.17981972195E+04 0.  0.
        4    1    3    3  502    0 -0.22016047122E+03  0.60460138853E+03 -0.40404122663E+03  0.75977917701E+03  0.12699999809E+01 0.  1.
       -4    1    3    3    0  502  0.22016047122E+03 -0.60460138853E+03  0.89855285567E+03  0.11051752438E+04  0.12699999809E+01 0. -1.
</event>
<event>
 5   0  0.1960300E-05  0.1801476E+04  0.7818609E-02  0.8705515E-01
       -1   -1    0    0    0  501  0.00000000000E+00  0.00000000000E+00  0.80072341085E+03  0.80072341086E+03  0.50400001928E-02 0.  1.
        1   -1    0    0  501    0  0.00000000000E+00  0.00000000000E+00 -0.10132444659E+04  0.10132444659E+04  0.50400001928E-02 0. -1.
    10030    2    1    2    0    0  0.00000000000E+00  0.00000000000E+00 -0.21252105501E+03  0.18139678767E+04  0.18014755782E+04 0.  0.
        3    1    3    3  502    0 -0.85412544036E+03  0.28276562477E+03 -0.14947536026E+03  0.91204690666E+03  0.10100000352E+00 0.  1.
       -3    1    3    3    0  502  0.85412544036E+03 -0.28276562477E+03 -0.63045694744E+02  0.90192097007E+03  0.10100000352E+00 0. -1.
</event>
<event>
 5   0  0.1960300E-05  0.1803730E+04  0.7818609E-02  0.8704318E-01
        1   -1    0    0  501    0  0.00000000000E+00  0.00000000000E+00  0.29910796940E+04  0.29910796940E+04  0.50400001928E-02 0. -1.
       -1   -1    0    0    0  501  0.00000000000E+00  0.00000000000E+00 -0.27192883834E+03  0.27192883838E+03  0.50400001928E-02 0.  1.
    10030    2    1    2    0    0  0.00000000000E+00  0.00000000000E+00  0.27191508557E+04  0.32630085324E+04  0.18037303863E+04 0.  0.
        3    1    3    3  502    0  0.31497075095E+03 -0.45245705977E+02  0.28861542603E+04  0.29036425696E+04  0.10100000352E+00 0. -1.
       -3    1    3    3    0  502 -0.31497075095E+03  0.45245705977E+02 -0.16700340459E+03  0.35936596278E+03  0.10100000352E+00 0.  1.
</event>
<event>
 5   0  0.4015729E-05  0.1799925E+04  0.7818609E-02  0.8706339E-01
       -2   -1    0    0    0  501  0.00000000000E+00  0.00000000000E+00  0.68126280421E+03  0.68126280422E+03  0.25500000920E-02 0.  1.
        2   -1    0    0  501    0  0.00000000000E+00  0.00000000000E+00 -0.11888692337E+04  0.11888692337E+04  0.25500000920E-02 0. -1.
    10030    2    1    2    0    0  0.00000000000E+00  0.00000000000E+00 -0.50760642953E+03  0.18701320380E+04  0.17999248740E+04 0.  0.
        2    1    3    3  502    0 -0.74590883935E+00  0.62422337580E+02  0.67901049020E+03  0.68187414558E+03  0.25500000920E-02 0.  1.
       -2    1    3    3    0  502  0.74590883935E+00 -0.62422337580E+02 -0.11866169197E+04  0.11882578924E+04  0.25500000920E-02 0. -1.
</event>
<event>
 5   0  0.2054876E-05  0.1799644E+04  0.7818609E-02  0.8706489E-01
       -1   -1    0    0    0  501  0.00000000000E+00  0.00000000000E+00  0.88285726846E+03  0.88285726847E+03  0.50400001928E-02 0.  1.
        1   -1    0    0  501    0  0.00000000000E+00  0.00000000000E+00 -0.91711281967E+03  0.91711281969E+03  0.50400001928E-02 0. -1.
    10030    2    1    2    0    0  0.00000000000E+00  0.00000000000E+00 -0.34255551215E+02  0.17999700882E+04  0.17996440969E+04 0.  0.
        5    1    3    3  502    0  0.83056116140E+03  0.32545911491E+03  0.10080096367E+03  0.89774072125E+03  0.46999998093E+01 0.  1.
       -5    1    3    3    0  502 -0.83056116140E+03 -0.32545911491E+03 -0.13505651489E+03  0.90222936691E+03  0.46999998093E+01 0. -1.
</event>
<event>
 5   0  0.2001811E-05  0.1798704E+04  0.7818609E-02  0.8706989E-01
        1   -1    0    0  501    0  0.00000000000E+00  0.00000000000E+00  0.31152011415E+03  0.31152011420E+03  0.50400001928E-02 0.  1.
       -1   -1    0    0    0  501  0.00000000000E+00  0.00000000000E+00 -0.25964104366E+04  0.25964104366E+04  0.50400001928E-02 0. -1.
    10030    2    1    2    0    0  0.00000000000E+00  0.00000000000E+00 -0.22848903224E+04  0.29079305508E+04  0.17987040620E+04 0.  0.
        2    1    3    3  502    0 -0.59494638224E+03  0.62789786862E+03 -0.74440943746E+03  0.11412109103E+04  0.25500000920E-02 0.  1.
       -2    1    3    3    0  502  0.59494638224E+03 -0.62789786862E+03 -0.15404808849E+04  0.17667196405E+04  0.25500000920E-02 0. -1.
</event>
<event>
 5   0  0.1960300E-05  0.1797784E+04  0.7818609E-02  0.8707479E-01
       -1   -1    0    0    0  501  0.00000000000E+00  0.00000000000E+00  0.10850177134E+04  0.10850177134E+04  0.50400001928E-02 0. -1.
        1   -1    0    0  501    0  0.00000000000E+00  0.00000000000E+00 -0.74469454976E+03  0.74469454978E+03  0.50400001928E-02 0.  1.
    10030    2    1    2    0    0  0.00000000000E+00  0.00000000000E+00  0.34032316362E+03  0.18297122632E+04  0.17977839443E+04 0.  0.
        3    1    3    3  502    0 -0.76557047883E+03 -0.46081338926E+03  0.26967137733E+03  0.93336477314E+03  0.10100000352E+00 0. -1.
       -3    1    3    3    0  502  0.76557047883E+03  0.46081338926E+03  0.70651786294E+02  0.89634749003E+03  0.10100000352E+00 0.  1.
</event>
<event>
 5   0  0.3984648E-05  0.1794407E+04  0.7818609E-02  0.8709280E-01
        2   -1    0    0  501    0  0.00000000000E+00  0.00000000000E+00  0.49957958455E+03  0.49957958455E+03  0.25500000920E-02 0.  1.
       -2   -1    0    0    0  501  0.00000000000E+00  0.00000000000E+00 -0.16113027114E+04  0.16113027114E+04  0.25500000920E-02 0. -1.
    10030    2    1    2    0    0  0.00000000000E+00  0.00000000000E+00 -0.11117231268E+04  0.21108822959E+04  0.17944067980E+04 0.  0.
        1    1    3    3  502    0  0.55630727142E+03 -0.98519137483E+02 -0.13757739714E+04  0.14872584917E+04  0.50400001928E-02 0. -1.
       -1    1    3    3    0  502 -0.55630727142E+03  0.98519137483E+02  0.26405084457E+03  0.62362380425E+03  0.50400001928E-02 0.  1.
</event>
<event>
 5   0  0.4015729E-05  0.1800741E+04  0.7818609E-02  0.8705905E-01
       -2   -1    0    0    0  501  0.00000000000E+00  0.00000000000E+00  0.77604231770E+03  0.77604231770E+03  0.25500000920E-02 0.  1.
        2   -1    0    0  501    0  0.00000000000E+00  0.00000000000E+00 -0.10446176257E+04  0.10446176257E+04  0.25500000920E-02 0. -1.
    10030    2    1    2    0    0  0.00000000000E+00  0.00000000000E+00 -0.26857530798E+03  0.18206599434E+04  0.18007414954E+04 0.  0.
        2    1    3    3  502    0 -0.40999275506E+03 -0.13441298675E+03  0.66471086053E+03  0.79246541775E+03  0.25500000920E-02 0.  1.
       -2    1    3    3    0  502  0.40999275506E+03  0.13441298675E+03 -0.93328616851E+03  0.10281945256E+04  0.25500000920E-02 0. -1.
</event>
<event>
 5   0  0.1960300E-05  0.1800800E+04  0.7818609E-02  0.8705874E-01
        1   -1    0    0  501    0  0.00000000000E+00  0.00000000000E+00  0.94315854986E+03  0.94315854987E+03  0.50400001928E-02 0.  1.
       -1   -1    0    0    0  501  0.00000000000E+00  0.00000000000E+00 -0.85957947290E+03  0.85957947291E+03  0.50400001928E-02 0. -1.
    10030    2    1    2    0    0  0.00000000000E+00  0.00000000000E+00  0.83579076960E+02  0.18027380228E+04  0.18007995215E+04 0.  0.
        3    1    3    3  502    0 -0.59583616773E+03 -0.67376299684E+03  0.83576588930E+02  0.90330635507E+03  0.10100000352E+00 0. -1.
       -3    1    3    3    0  502  0.59583616773E+03  0.67376299684E+03  0.24880295684E-02  0.89943166772E+03  0.10100000352E+00 0.  1.
</event>
<event>
 5   0  0.3984648E-05  0.1807596E+04  0.7818609E-02  0.8702271E-01
       -2   -1    0    0    0  501  0.00000000000E+00  0.00000000000E+00  0.92752650727E+03  0.92752650728E+03  0.25500000920E-02 0.  1.
        2   -1    0    0  501    0  0.00000000000E+00  0.00000000000E+00 -0.88067620524E+03  0.88067620524E+03  0.25500000920E-02 0. -1.
    10030    2    1    2    0    0  0.00000000000E+00  0.00000000000E+00  0.46850302034E+02  0.18082027125E+04  0.18075956679E+04 0.  0.
        1    1    3    3  502    0 -0.38658589959E+03 -0.21520224040E+03 -0.76493206098E+03  0.88367512128E+03  0.50400001928E-02 0. -1.
       -1    1    3    3    0  502  0.38658589959E+03  0.21520224040E+03  0.81178236301E+03  0.92452759124E+03  0.50400001928E-02 0.  1.
</event>
<event>
 5   0  0.2038338E-05  0.1799211E+04  0.7818609E-02  0.8706719E-01
       -1   -1    0    0    0  501  0.00000000000E+00  0.00000000000E+00  0.63007802882E+03  0.63007802884E+03  0.50400001928E-02 0.  1.
        1   -1    0    0  501    0  0.00000000000E+00  0.00000000000E+00 -0.12844281208E+04  0.12844281208E+04  0.50400001928E-02 0. -1.
    10030    2    1    2    0    0  0.00000000000E+00  0.00000000000E+00 -0.65435009202E+03  0.19145061497E+04  0.17992108699E+04 0.  0.
        1    1    3    3  502    0 -0.46141180247E+03  0.57429789052E+03 -0.87656557259E+03  0.11450266903E+04  0.50400001928E-02 0. -1.
       -1    1    3    3    0  502  0.46141180247E+03 -0.57429789052E+03  0.22221548057E+03  0.76947945935E+03  0.50400001928E-02 0.  1.
</event>
<event>
 5   0  0.1960300E-05  0.1799222E+04  0.7818609E-02  0.8706713E-01
        1   -1    0    0  501    0  0.00000000000E+00  0.00000000000E+00  0.11540758141E+04  0.11540758141E+04  0.50400001928E-02 0. -1.
       -1   -1    0    0    0  501  0.00000000000E+00  0.00000000000E+00 -0.70125346342E+03  0.70125346344E+03  0.50400001928E-02 0.  1.
    10030    2    1    2    0    0  0.00000000000E+00  0.00000000000E+00  0.45282235067E+03  0.18553292775E+04  0.17992216781E+04 0.  0.
        3    1    3    3  502    0  0.81040928447E+02  0.61452846103E+03  0.89872977681E+03  0.10917545894E+04  0.10100000352E+00 0. -1.
       -3    1    3    3    0  502 -0.81040928447E+02 -0.61452846103E+03 -0.44590742615E+03  0.76357468816E+03  0.10100000352E+00 0.  1.
</event>
<event>
 5   0  0.3909859E-05  0.1801993E+04  0.7818609E-02  0.8705240E-01
       -2   -1    0    0    0  501  0.00000000000E+00  0.00000000000E+00  0.46297838231E+03  0.46297838232E+03  0.25500000920E-02 0. -1.
        2   -1    0    0  501    0  0.00000000000E+00  0.00000000000E+00 -0.17534187152E+04  0.17534187152E+04  0.25500000920E-02 0.  1.
    10030    2    1    2    0    0  0.00000000000E+00  0.00000000000E+00 -0.12904403329E+04  0.22163970975E+04  0.18019932966E+04 0.  0.
        4    1    3    3  502    0  0.83624651610E+03 -0.14246186964E+03 -0.10186729209E+04  0.13256318315E+04  0.12699999809E+01 0.  1.
       -4    1    3    3    0  502 -0.83624651610E+03  0.14246186964E+03 -0.27176741195E+03  0.89076526599E+03  0.12699999809E+01 0. -1.
</event>
<event>
 5   0  0.1446750E-05  0.1803862E+04  0.7818609E-02  0.8704248E-01
       -4   -1    0    0    0  501  0.00000000000E+00  0.00000000000E+00  0.49100444845E+03  0.49100609090E+03  0.12699999809E+01 0.  1.
        4   -1    0    0  501    0  0.00000000000E+00  0.00000000000E+00 -0.16567614312E+04  0.16567619180E+04  0.12699999809E+01 0. -1.
    10030    2    1    2    0    0  0.00000000000E+00  0.00000000000E+00 -0.11657569828E+04  0.21477680089E+04  0.18038619895E+04 0.  0.
        2    1    3    3  502    0  0.60156647016E+03 -0.33849474176E+03 -0.12740900695E+04  0.14490570773E+04  0.25500000920E-02 0. -1.
       -2    1    3    3    0  502 -0.60156647016E+03  0.33849474176E+03  0.10833308669E+03  0.69871093157E+03  0.25500000920E-02 0.  1.
</event>
<event>
 5   0  0.1446750E-05  0.1799578E+04  0.7818609E-02  0.8706524E-01
        3   -1    0    0  501    0  0.00000000000E+00  0.00000000000E+00  0.46126683978E+03  0.46126685084E+03  0.10100000352E+00 0.  1.
       -3   -1    0    0    0  501  0.00000000000E+00  0.00000000000E+00 -0.17552099639E+04  0.17552099668E+04  0.10100000352E+00 0. -1.
    10030    2    1    2    0    0  0.00000000000E+00  0.00000000000E+00 -0.12939431241E+04  0.22164768176E+04  0.17995779157E+04 0.  0.
        5    1    3    3  502    0  0.12852053795E+03  0.56271747866E+03  0.20317127783E+03  0.61193884302E+03  0.46999998093E+01 0.  1.
       -5    1    3    3    0  502 -0.12852053795E+03 -0.56271747866E+03 -0.14971144019E+04  0.16045379746E+04  0.46999998093E+01 0. -1.
</event>
<event>
 5   0  0.3984648E-05  0.1801458E+04  0.7818609E-02  0.8705525E-01
       -2   -1    0    0    0  501  0.00000000000E+00  0.00000000000E+00  0.58895296999E+03  0.58895297000E+03  0.25500000920E-02 0.  1.
        2   -1    0    0  501    0  0.00000000000E+00  0.00000000000E+00 -0.13775503109E+04  0.13775503109E+04  0.25500000920E-02 0. -1.
    10030    2    1    2    0    0  0.00000000000E+00  0.00000000000E+00 -0.78859734091E+03  0.19665032809E+04  0.18014575731E+04 0.  0.
        1    1    3    3  502    0  0.78017848477E+03  0.39254819568E+03 -0.15379616976E+03  0.88680652675E+03  0.50400001928E-02 0. -1.
       -1    1    3    3    0  502 -0.78017848477E+03 -0.39254819568E+03 -0.63480117114E+03  0.10796967542E+04  0.50400001928E-02 0.  1.
</event>
<event>
 5   0  0.3993393E-05  0.1800876E+04  0.7818609E-02  0.8705834E-01
       -2   -1    0    0    0  501  0.00000000000E+00  0.00000000000E+00  0.42129304736E+03  0.42129304737E+03  0.25500000920E-02 0.  1.
        2   -1    0    0  501    0  0.00000000000E+00  0.00000000000E+00 -0.19245246156E+04  0.19245246156E+04  0.25500000920E-02 0. -1.
    10030    2    1    2    0    0  0.00000000000E+00  0.00000000000E+00 -0.15032315682E+04  0.23458176630E+04  0.18008762756E+04 0.  0.
        5    1    3    3  502    0  0.15385502766E+03  0.85714557071E+03 -0.45344645425E+03  0.98183790709E+03  0.46999998093E+01 0.  1.
       -5    1    3    3    0  502 -0.15385502766E+03 -0.85714557071E+03 -0.10497851140E+04  0.13639797559E+04  0.46999998093E+01 0. -1.
</event>
<event>
 5   0  0.3909859E-05  0.1802677E+04  0.7818609E-02  0.8704877E-01
       -2   -1    0    0    0  501  0.00000000000E+00  0.00000000000E+00  0.25982874695E+03  0.25982874696E+03  0.25500000920E-02 0.  1.
        2   -1    0    0  501    0  0.00000000000E+00  0.00000000000E+00 -0.31267177471E+04  0.31267177471E+04  0.25500000920E-02 0. -1.
    10030    2    1    2    0    0  0.00000000000E+00  0.00000000000E+00 -0.28668890002E+04  0.33865464941E+04  0.18026770696E+04 0.  0.
        4    1    3    3  502    0  0.43089862663E+03  0.11350327264E+03  0.38431662152E+02  0.44725297639E+03  0.12699999809E+01 0.  1.
       -4    1    3    3    0  502 -0.43089862663E+03 -0.11350327264E+03 -0.29053206623E+04  0.29392935177E+04  0.12699999809E+01 0. -1.
</event>
<event>
 5   0  0.1960300E-05  0.1797617E+04  0.7818609E-02  0.8707568E-01
        1   -1    0    0  501    0  0.00000000000E+00  0.00000000000E+00  0.76489257009E+03  0.76489257011E+03  0.50400001928E-02 0.  1.
       -1   -1    0    0    0  501  0.00000000000E+00  0.00000000000E+00 -0.10561705610E+04  0.10561705610E+04  0.50400001928E-02 0. -1.
    10030    2    1    2    0    0  0.00000000000E+00  0.00000000000E+00 -0.29127799087E+03  0.18210631311E+04  0.17976173284E+04 0.  0.
        3    1    3    3  502    0  0.10386049233E+03  0.50955814678E+03 -0.88829016508E+03  0.10293181891E+04  0.10100000352E+00 0. -1.
       -3    1    3    3    0  502 -0.10386049233E+03 -0.50955814678E+03  0.59701217421E+03  0.79174494199E+03  0.10100000352E+00 0.  1.
</event>
<event>
 5   0  0.1960300E-05  0.1798205E+04  0.7818609E-02  0.8707254E-01
       -1   -1    0    0    0  501  0.00000000000E+00  0.00000000000E+00  0.70262445456E+03  0.70262445457E+03  0.50400001928E-02 0. -1.
        1   -1    0    0  501    0  0.00000000000E+00  0.00000000000E+00 -0.11505228668E+04  0.11505228668E+04  0.50400001928E-02 0.  1.
    10030    2    1    2    0    0  0.00000000000E+00  0.00000000000E+00 -0.44789841224E+03  0.18531473214E+04  0.17982052183E+04 0.  0.
        3    1    3    3  502    0 -0.83122403394E+03  0.12939314138E+03 -0.55099301958E+03  0.10056188629E+04  0.10100000352E+00 0.  1.
       -3    1    3    3    0  502  0.83122403394E+03 -0.12939314138E+03  0.10309460733E+03  0.84752845846E+03  0.10100000352E+00 0. -1.
</event>
<event>
 5   0  0.3983176E-05  0.1798854E+04  0.7818609E-02  0.8706909E-01
        2   -1    0    0  501    0  0.00000000000E+00  0.00000000000E+00  0.11569402296E+04  0.11569402296E+04  0.25500000920E-02 0.  1.
       -2   -1    0    0    0  501  0.00000000000E+00  0.00000000000E+00 -0.69923148506E+03  0.69923148506E+03  0.25500000920E-02 0. -1.
    10030    2    1    2    0    0  0.00000000000E+00  0.00000000000E+00  0.45770874451E+03  0.18561717146E+04  0.17988541184E+04 0.  0.
        3    1    3    3  502    0 -0.71758521078E+03 -0.20486989392E+03  0.74691640670E+03  0.10558334797E+04  0.10100000352E+00 0.  1.
       -3    1    3    3    0  502  0.71758521078E+03  0.20486989392E+03 -0.28920766218E+03  0.80033823489E+03  0.10100000352E+00 0. -1.
</event>
<event>
 5   0  0.3909859E-05  0.1800276E+04  0.7818609E-02  0.8706153E-01
       -2   -1    0    0    0  501  0.00000000000E+00  0.00000000000E+00  0.39035515576E+03  0.39035515577E+03  0.25500000920E-02 0. -1.
        2   -1    0    0  501    0  0.00000000000E+00  0.00000000000E+00 -0.20756687804E+04  0.20756687804E+04  0.25500000920E-02 0.  1.
    10030    2    1    2    0    0  0.00000000000E+00  0.00000000000E+00 -0.16853136246E+04  0.24660239361E+04  0.18002755457E+04 0.  0.
        4    1    3    3  502    0  0.25498592758E+02  0.47844666746E+03  0.20117039210E+03  0.51964654467E+03  0.12699999809E+01 0. -1.
       -4    1    3    3    0  502 -0.25498592758E+02 -0.47844666746E+03 -0.18864840167E+04  0.19463773915E+04  0.12699999809E+01 0.  1.
</event>
<event>
 5   0  0.2001811E-05  0.1799601E+04  0.7818609E-02  0.8706512E-01
       -1   -1    0    0    0  501  0.00000000000E+00  0.00000000000E+00  0.13630143972E+04  0.13630143972E+04  0.50400001928E-02 0. -1.
        1   -1    0    0  501    0  0.00000000000E+00  0.00000000000E+00 -0.59400733660E+03  0.59400733662E+03  0.50400001928E-02 0.  1.
    10030    2    1    2    0    0  0.00000000000E+00  0.00000000000E+00  0.76900706061E+03  0.19570217338E+04  0.17996005689E+04 0.  0.
        2    1    3    3  502    0 -0.19265122737E+03 -0.59521985182E+03 -0.31878249910E+03  0.70215628542E+03  0.25500000920E-02 0.  1.
       -2    1    3    3    0  502  0.19265122737E+03  0.59521985182E+03  0.10877895597E+04  0.12548654484E+04  0.25500000920E-02 0. -1.
</event>
<event>
 5   0  0.2038338E-05  0.1833071E+04  0.7818609E-02  0.8688908E-01
        1   -1    0    0  501    0  0.00000000000E+00  0.00000000000E+00  0.60099816631E+03  0.60099816633E+03  0.50400001928E-02 0.  1.
       -1   -1    0    0    0  501  0.00000000000E+00  0.00000000000E+00 -0.13977363505E+04  0.13977363505E+04  0.50400001928E-02 0. -1.
    10030    2    1    2    0    0  0.00000000000E+00  0.00000000000E+00 -0.79673818418E+03  0.19987345168E+04  0.18330706300E+04 0.  0.
        1    1    3    3  502    0 -0.84884481836E+03  0.32947781316E+03 -0.28430195151E+03  0.95389766468E+03  0.50400001928E-02 0. -1.
       -1    1    3    3    0  502  0.84884481836E+03 -0.32947781316E+03 -0.51243623267E+03  0.10448368521E+04  0.50400001928E-02 0.  1.
</event>
<event>
 5   0  0.2001811E-05  0.1800519E+04  0.7818609E-02  0.8706024E-01
        1   -1    0    0  501    0  0.00000000000E+00  0.00000000000E+00  0.94602310373E+03  0.94602310375E+03  0.50400001928E-02 0.  1.
       -1   -1    0    0    0  501  0.00000000000E+00  0.00000000000E+00 -0.85670939825E+03  0.85670939826E+03  0.50400001928E-02 0. -1.
    10030    2    1    2    0    0  0.00000000000E+00  0.00000000000E+00  0.89313705484E+02  0.18027325020E+04  0.18005186852E+04 0.  0.
        2    1    3    3  502    0  0.10945289487E+03 -0.86309244302E+03 -0.18705453734E+03  0.88988645418E+03  0.25500000920E-02 0. -1.
       -2    1    3    3    0  502 -0.10945289487E+03  0.86309244302E+03  0.27636824282E+03  0.91284604783E+03  0.25500000920E-02 0.  1.
</event>
<event>
 5   0  0.3909859E-05  0.1793953E+04  0.7818609E-02  0.8709522E-01
       -2   -1    0    0    0  501  0.00000000000E+00  0.00000000000E+00  0.45662518613E+03  0.45662518613E+03  0.25500000920E-02 0. -1.
        2   -1    0    0  501    0  0.00000000000E+00  0.00000000000E+00 -0.17619858150E+04  0.17619858150E+04  0.25500000920E-02 0.  1.
    10030    2    1    2    0    0  0.00000000000E+00  0.00000000000E+00 -0.13053606289E+04  0.22186110011E+04  0.17939532890E+04 0.  0.
        4    1    3    3  502    0  0.59916003851E+03  0.10448886440E+03  0.16266631106E+03  0.62958130229E+03  0.12699999809E+01 0. -1.
       -4    1    3    3    0  502 -0.59916003851E+03 -0.10448886440E+03 -0.14680269399E+04  0.15890296988E+04  0.12699999809E+01 0.  1.
</event>
<event>
 5   0  0.3909859E-05  0.1804088E+04  0.7818609E-02  0.8704128E-01
       -2   -1    0    0    0  501  0.00000000000E+00  0.00000000000E+00  0.60232015813E+03  0.60232015813E+03  0.25500000920E-02 0. -1.
        2   -1    0    0  501    0  0.00000000000E+00  0.00000000000E+00 -0.13509157729E+04  0.13509157729E+04  0.25500000920E-02 0.  1.
    10030    2    1    2    0    0  0.00000000000E+00  0.00000000000E+00 -0.74859561482E+03  0.19532359311E+04  0.18040884701E+04 0.  0.
        4    1    3    3  502    0  0.13515236824E+02  0.62725916378E+03 -0.10759873852E+04  0.12455469426E+04  0.12699999809E+01 0.  1.
       -4    1    3    3    0  502 -0.13515236824E+02 -0.62725916378E+03  0.32739177041E+03  0.70768898847E+03  0.12699999809E+01 0. -1.
</event>
<event>
 5   0  0.3993393E-05  0.1796717E+04  0.7818609E-02  0.8708047E-01
        2   -1    0    0  501    0  0.00000000000E+00  0.00000000000E+00  0.72279110315E+03  0.72279110315E+03  0.25500000920E-02 0. -1.
       -2   -1    0    0    0  501  0.00000000000E+00  0.00000000000E+00 -0.11165710662E+04  0.11165710662E+04  0.25500000920E-02 0.  1.
    10030    2    1    2    0    0  0.00000000000E+00  0.00000000000E+00 -0.39377996301E+03  0.18393621693E+04  0.17967165972E+04 0.  0.
        5    1    3    3  502    0  0.34497292686E+02  0.63310793812E+03  0.45461905838E+03  0.78020273183E+03  0.46999998093E+01 0. -1.
       -5    1    3    3    0  502 -0.34497292686E+02 -0.63310793812E+03 -0.84839902139E+03  0.10591594375E+04  0.46999998093E+01 0.  1.
</event>
<event>
 5   0  0.1960300E-05  0.1794889E+04  0.7818609E-02  0.8709022E-01
        1   -1    0    0  501    0  0.00000000000E+00  0.00000000000E+00  0.71958111662E+03  0.71958111664E+03  0.50400001928E-02 0.  1.
       -1   -1    0    0    0  501  0.00000000000E+00  0.00000000000E+00 -0.11192719490E+04  0.11192719491E+04  0.50400001928E-02 0. -1.
    10030    2    1    2    0    0  0.00000000000E+00  0.00000000000E+00 -0.39969083243E+03  0.18388530657E+04  0.17948893659E+04 0.  0.
        3    1    3    3  502    0  0.64667171460E+03 -0.62052445413E+03 -0.15209868304E+03  0.90904836187E+03  0.10100000352E+00 0.  1.
       -3    1    3    3    0  502 -0.64667171460E+03  0.62052445413E+03 -0.24759214939E+03  0.92980470383E+03  0.10100000352E+00 0. -1.
</event>
<event>
 5   0  0.2001811E-05  0.1799701E+04  0.7818609E-02  0.8706459E-01
       -1   -1    0    0    0  501  0.00000000000E+00  0.00000000000E+00  0.48114277151E+03  0.48114277154E+03  0.50400001928E-02 0. -1.
        1   -1    0    0  501    0  0.00000000000E+00  0.00000000000E+00 -0.16829322566E+04  0.16829322566E+04  0.50400001928E-02 0.  1.
    10030    2    1    2    0    0  0.00000000000E+00  0.00000000000E+00 -0.12017894850E+04  0.21640750281E+04  0.17997007420E+04 0.  0.
        2    1    3    3  502    0  0.48346132551E+02 -0.71267100914E+02  0.47617616567E+03  0.48390090821E+03  0.25500000920E-02 0. -1.
       -2    1    3    3    0  502 -0.48346132551E+02  0.71267100914E+02 -0.16779656507E+04  0.16801741199E+04  0.25500000920E-02 0.  1.
</event>
<event>
 5   0  0.3984648E-05  0.1805330E+04  0.7818609E-02  0.8703470E-01
        2   -1    0    0  501    0  0.00000000000E+00  0.00000000000E+00  0.19159292841E+04  0.19159292841E+04  0.25500000920E-02 0.  1.
       -2   -1    0    0    0  501  0.00000000000E+00  0.00000000000E+00 -0.42527881241E+03  0.42527881242E+03  0.25500000920E-02 0. -1.
    10030    2    1    2    0    0  0.00000000000E+00  0.00000000000E+00  0.14906504717E+04  0.23412080965E+04  0.18053300315E+04 0.  0.
        1    1    3    3  502    0  0.52049011185E+03 -0.16452815377E+03 -0.18697334855E+03  0.57700823478E+03  0.50400001928E-02 0. -1.
       -1    1    3    3    0  502 -0.52049011185E+03  0.16452815377E+03  0.16776238202E+04  0.17641998617E+04  0.50400001928E-02 0.  1.
</event>
<event>
 5   0  0.1906857E-05  0.1799659E+04  0.7818609E-02  0.8706481E-01
       -1   -1    0    0    0  501  0.00000000000E+00  0.00000000000E+00  0.64561590265E+03  0.64561590267E+03  0.50400001928E-02 0. -1.
        1   -1    0    0  501    0  0.00000000000E+00  0.00000000000E+00 -0.12541407436E+04  0.12541407436E+04  0.50400001928E-02 0.  1.
    10030    2    1    2    0    0  0.00000000000E+00  0.00000000000E+00 -0.60852484093E+03  0.18997566463E+04  0.17996590880E+04 0.  0.
        4    1    3    3  502    0  0.10089850004E+02 -0.41359891965E+02  0.64455123942E+03  0.64595693268E+03  0.12699999809E+01 0. -1.
       -4    1    3    3    0  502 -0.10089850004E+02  0.41359891965E+02 -0.12530760803E+04  0.12537997136E+04  0.12699999809E+01 0.  1.
</event>
<event>
 5   0  0.3909859E-05  0.1800897E+04  0.7818609E-02  0.8705823E-01
        2   -1    0    0  501    0  0.00000000000E+00  0.00000000000E+00  0.11483958047E+04  0.11483958047E+04  0.25500000920E-02 0. -1.
       -2   -1    0    0    0  501  0.00000000000E+00  0.00000000000E+00 -0.70603476305E+03  0.70603476306E+03  0.25500000920E-02 0.  1.
    10030    2    1    2    0    0  0.00000000000E+00  0.00000000000E+00  0.44236104163E+03  0.18544305677E+04  0.18008968431E+04 0.  0.
        4    1    3    3  502    0 -0.17981431120E+03  0.32188797662E+02 -0.68675328673E+03  0.71063422021E+03  0.12699999809E+01 0.  1.
       -4    1    3    3    0  502  0.17981431120E+03 -0.32188797662E+02  0.11291143284E+04  0.11437963475E+04  0.12699999809E+01 0. -1.
</event>
<event>
 5   0  0.1446750E-05  0.1800140E+04  0.7818609E-02  0.8706225E-01
       -3   -1    0    0    0  501  0.00000000000E+00  0.00000000000E+00  0.46516743223E+03  0.46516744320E+03  0.10100000352E+00 0.  1.
        3   -1    0    0  501    0  0.00000000000E+00  0.00000000000E+00 -0.17415795415E+04  0.17415795444E+04  0.10100000352E+00 0. -1.
    10030    2    1    2    0    0  0.00000000000E+00  0.00000000000E+00 -0.12764121093E+04  0.22067469876E+04  0.18001401042E+04 0.  0.
        3    1    3    3  502    0 -0.64592517092E+03 -0.59915297719E+03 -0.41242370867E+03  0.97277795111E+03  0.10100000352E+00 0. -1.
       -3    1    3    3    0  502  0.64592517092E+03  0.59915297719E+03 -0.86398840061E+03  0.12339690365E+04  0.10100000352E+00 0.  1.
</event>
<event>
 5   0  0.4015729E-05  0.1798231E+04  0.7818609E-02  0.8707241E-01
        2   -1    0    0  501    0  0.00000000000E+00  0.00000000000E+00  0.13370454766E+04  0.13370454766E+04  0.25500000920E-02 0. -1.
       -2   -1    0    0    0  501  0.00000000000E+00  0.00000000000E+00 -0.60462337685E+03  0.60462337686E+03  0.25500000920E-02 0.  1.
    10030    2    1    2    0    0  0.00000000000E+00  0.00000000000E+00  0.73242209972E+03  0.19416688534E+04  0.17982312989E+04 0.  0.
        2    1    3    3  502    0  0.56307528144E+03 -0.14919503713E+03  0.11057490346E+04  0.12497975273E+04  0.25500000920E-02 0. -1.
       -2    1    3    3    0  502 -0.56307528144E+03  0.14919503713E+03 -0.37332693486E+03  0.69187132617E+03  0.25500000920E-02 0.  1.
</event>
<event>
 5   0  0.1906857E-05  0.1777700E+04  0.7818609E-02  0.8718249E-01
        1   -1    0    0  501    0  0.00000000000E+00  0.00000000000E+00  0.89512462379E+03  0.89512462381E+03  0.50400001928E-02 0. -1.
       -1   -1    0    0    0  501  0.00000000000E+00  0.00000000000E+00 -0.88261915608E+03  0.88261915610E+03  0.50400001928E-02 0.  1.
    10030    2    1    2    0    0  0.00000000000E+00  0.00000000000E+00  0.12505467709E+02  0.17777437799E+04  0.17776997948E+04 0.  0.
        4    1    3    3  502    0 -0.50100113313E+03  0.32832617433E+03  0.66296702181E+03  0.89349152042E+03  0.12699999809E+01 0. -1.
       -4    1    3    3    0  502  0.50100113313E+03 -0.32832617433E+03 -0.65046155410E+03  0.88425225949E+03  0.12699999809E+01 0.  1.
</event>
<event>
 5   0  0.3909859E-05  0.1801134E+04  0.7818609E-02  0.8705697E-01
       -2   -1    0    0    0  501  0.00000000000E+00  0.00000000000E+00  0.29839097575E+04  0.29839097575E+04  0.25500000920E-02 0. -1.
        2   -1    0    0  501    0  0.00000000000E+00  0.00000000000E+00 -0.27179797153E+03  0.27179797154E+03  0.25500000920E-02 0.  1.
    10030    2    1    2    0    0  0.00000000000E+00  0.00000000000E+00  0.27121117860E+04  0.32557077290E+04  0.18011336645E+04 0.  0.
        4    1    3    3  502    0 -0.64506738050E+03 -0.46146409203E+03  0.21271102788E+04  0.22701675676E+04  0.12699999809E+01 0. -1.
       -4    1    3    3    0  502  0.64506738050E+03  0.46146409203E+03  0.58500150712E+03  0.98554016146E+03  0.12699999809E+01 0.  1.
</event>
<event>
 5   0  0.1960300E-05  0.1798864E+04  0.7818609E-02  0.8706904E-01
        1   -1    0    0  501    0  0.00000000000E+00  0.00000000000E+00  0.96916705068E+03  0.96916705069E+03  0.50400001928E-02 0. -1.
       -1   -1    0    0    0  501  0.00000000000E+00  0.00000000000E+00 -0.83471484240E+03  0.83471484242E+03  0.50400001928E-02 0.  1.
    10030    2    1    2    0    0  0.00000000000E+00  0.00000000000E+00  0.13445220828E+03  0.18038818931E+04  0.17988642217E+04 0.  0.
        3    1    3    3  502    0  0.37497724670E+03  0.21640459458E+03 -0.72335055315E+03  0.84301537177E+03  0.10100000352E+00 0.  1.
       -3    1    3    3    0  502 -0.37497724670E+03 -0.21640459458E+03  0.85780276143E+03  0.96086652133E+03  0.10100000352E+00 0. -1.
</event>
<event>
 5   0  0.3993393E-05  0.1800459E+04  0.7818609E-02  0.8706056E-01
       -2   -1    0    0    0  501  0.00000000000E+00  0.00000000000E+00  0.56605543822E+03  0.56605543822E+03  0.25500000920E-02 0. -1.
        2   -1    0    0  501    0  0.00000000000E+00  0.00000000000E+00 -0.14316844639E+04  0.14316844639E+04  0.25500000920E-02 0.  1.
    10030    2    1    2    0    0  0.00000000000E+00  0.00000000000E+00 -0.86562902568E+03  0.19977399021E+04  0.18004585823E+04 0.  0.
        5    1    3    3  502    0 -0.16353647190E+03 -0.18277628173E+03  0.52825704632E+03  0.58243363896E+03  0.46999998093E+01 0. -1.
       -5    1    3    3    0  502  0.16353647190E+03  0.18277628173E+03 -0.13938860720E+04  0.14153062632E+04  0.46999998093E+01 0.  1.
</event>
<event>
 5   0  0.3993393E-05  0.1799540E+04  0.7818609E-02  0.8706544E-01
       -2   -1    0    0    0  501  0.00000000000E+00  0.00000000000E+00  0.19193519047E+04  0.19193519047E+04  0.25500000920E-02 0.  1.
        2   -1    0    0  501    0  0.00000000000E+00  0.00000000000E+00 -0.42180176047E+03  0.42180176047E+03  0.25500000920E-02 0. -1.
    10030    2    1    2    0    0  0.00000000000E+00  0.00000000000E+00  0.14975501443E+04  0.23411536652E+04  0.17995399550E+04 0.  0.
        5    1    3    3  502    0  0.52012559960E+03 -0.70600107967E+03  0.10109002613E+04  0.13382487034E+04  0.46999998093E+01 0. -1.
       -5    1    3    3    0  502 -0.52012559960E+03  0.70600107967E+03  0.48664988302E+03  0.10029049618E+04  0.46999998093E+01 0.  1.
</event>
<event>
 5   0  0.3984648E-05  0.1795624E+04  0.7818609E-02  0.8708630E-01
       -2   -1    0    0    0  501  0.00000000000E+00  0.00000000000E+00  0.99647883749E+03  0.99647883749E+03  0.25500000920E-02 0. -1.
        2   -1    0    0  501    0  0.00000000000E+00  0.00000000000E+00 -0.80891442486E+03  0.80891442487E+03  0.25500000920E-02 0.  1.
    10030    2    1    2    0    0  0.00000000000E+00  0.00000000000E+00  0.18756441262E+03  0.18053932624E+04  0.17956236863E+04 0.  0.
        1    1    3    3  502    0 -0.63586958720E+03 -0.26255899481E+02 -0.54294574044E+03  0.83654622183E+03  0.50400001928E-02 0.  1.
       -1    1    3    3    0  502  0.63586958720E+03  0.26255899481E+02  0.73051015306E+03  0.96884704052E+03  0.50400001928E-02 0. -1.
</event>
<event>
 5   0  0.2001811E-05  0.1797132E+04  0.7818609E-02  0.8707826E-01
       -1   -1    0    0    0  501  0.00000000000E+00  0.00000000000E+00  0.92192586930E+03  0.92192586932E+03  0.50400001928E-02 0.  1.
        1   -1    0    0  501    0  0.00000000000E+00  0.00000000000E+00 -0.87579824509E+03  0.87579824510E+03  0.50400001928E-02 0. -1.
    10030    2    1    2    0    0  0.00000000000E+00  0.00000000000E+00  0.46127624213E+02  0.17977241144E+04  0.17971322249E+04 0.  0.
        2    1    3    3  502    0 -0.29107454270E+02  0.85307826342E+03  0.30392539032E+03  0.90606865651E+03  0.25500000920E-02 0.  1.
       -2    1    3    3    0  502  0.29107454270E+02 -0.85307826342E+03 -0.25779776611E+03  0.89165545791E+03  0.25500000920E-02 0. -1.
</event>
<event>
 5   0  0.1960300E-05  0.1821929E+04  0.7818609E-02  0.8694724E-01
       -1   -1    0    0    0  501  0.00000000000E+00  0.00000000000E+00  0.70391964684E+03  0.70391964685E+03  0.50400001928E-02 0.  1.
        1   -1    0    0  501    0  0.00000000000E+00  0.00000000000E+00 -0.11789074344E+04  0.11789074344E+04  0.50400001928E-02 0. -1.
    10030    2    1    2    0    0  0.00000000000E+00  0.00000000000E+00 -0.47498778759E+03  0.18828270813E+04  0.18219287636E+04 0.  0.
        3    1    3    3  502    0 -0.48512459963E+03 -0.33265772349E+03 -0.95633680320E+03  0.11227587138E+04  0.10100000352E+00 0. -1.
       -3    1    3    3    0  502  0.48512459963E+03  0.33265772349E+03  0.48134901561E+03  0.76006836744E+03  0.10100000352E+00 0.  1.
</event>
<event>
 5   0  0.1960300E-05  0.1800826E+04  0.7818609E-02  0.8705860E-01
        1   -1    0    0  501    0  0.00000000000E+00  0.00000000000E+00  0.18906684852E+04  0.18906684852E+04  0.50400001928E-02 0.  1.
       -1   -1    0    0    0  501  0.00000000000E+00  0.00000000000E+00 -0.42881317549E+03  0.42881317552E+03  0.50400001928E-02 0. -1.
    10030    2    1    2    0    0  0.00000000000E+00  0.00000000000E+00  0.14618553097E+04  0.23194816607E+04  0.18008259849E+04 0.  0.
        3    1    3    3  502    0  0.52559308533E+03 -0.53431660199E+03  0.88210435295E+02  0.75466775048E+03  0.10100000352E+00 0. -1.
       -3    1    3    3    0  502 -0.52559308533E+03  0.53431660199E+03  0.13736448744E+04  0.15648139102E+04  0.10100000352E+00 0.  1.
</event>
<event>
 5   0  0.3909859E-05  0.1802069E+04  0.7818609E-02  0.8705200E-01
        2   -1    0    0  501    0  0.00000000000E+00  0.00000000000E+00  0.12918309731E+04  0.12918309732E+04  0.25500000920E-02 0. -1.
       -2   -1    0    0    0  501  0.00000000000E+00  0.00000000000E+00 -0.62845949557E+03  0.62845949557E+03  0.25500000920E-02 0.  1.
    10030    2    1    2    0    0  0.00000000000E+00  0.00000000000E+00  0.66337147758E+03  0.19202904687E+04  0.18020693014E+04 0.  0.
        4    1    3    3  502    0  0.43901860479E+03  0.16246411880E+03 -0.48871087095E+03  0.67673617720E+03  0.12699999809E+01 0.  1.
       -4    1    3    3    0  502 -0.43901860479E+03 -0.16246411880E+03  0.11520823485E+04  0.12435542915E+04  0.12699999809E+01 0. -1.
</event>
<event>
 5   0  0.2054876E-05  0.1798936E+04  0.7818609E-02  0.8706865E-01
        1   -1    0    0  501    0  0.00000000000E+00  0.00000000000E+00  0.92185331133E+03  0.92185331134E+03  0.50400001928E-02 0.  1.
       -1   -1    0    0    0  501  0.00000000000E+00  0.00000000000E+00 -0.87762635450E+03  0.87762635451E+03  0.50400001928E-02 0. -1.
    10030    2    1    2    0    0  0.00000000000E+00  0.00000000000E+00  0.44226956828E+02  0.17994796659E+04  0.17989360867E+04 0.  0.
        5    1    3    3  502    0 -0.14636499215E+03 -0.12804217254E+03 -0.85633361553E+03  0.87814967971E+03  0.46999998093E+01 0. -1.
       -5    1    3    3    0  502  0.14636499215E+03  0.12804217254E+03  0.90056057236E+03  0.92132998614E+03  0.46999998093E+01 0.  1.
</event>
<event>
 5   0  0.1906857E-05  0.1800228E+04  0.7818609E-02  0.8706178E-01
       -1   -1    0    0    0  501  0.00000000000E+00  0.00000000000E+00  0.45281334103E+03  0.45281334105E+03  0.50400001928E-02 0. -1.
        1   -1    0    0  501    0  0.00000000000E+00  0.00000000000E+00 -0.17892696660E+04  0.17892696660E+04  0.50400001928E-02 0.  1.
    10030    2    1    2    0    0  0.00000000000E+00  0.00000000000E+00 -0.13364563249E+04  0.22420830070E+04  0.18002279583E+04 0.  0.
        4    1    3    3  502    0  0.78588827271E+03  0.43686562024E+03 -0.72005442446E+03  0.11519339974E+04  0.12699999809E+01 0.  1.
       -4    1    3    3    0  502 -0.78588827271E+03 -0.43686562024E+03 -0.61640190048E+03  0.10901490096E+04  0.12699999809E+01 0. -1.
</event>
<event>
 5   0  0.2001811E-05  0.1799504E+04  0.7818609E-02  0.8706563E-01
       -1   -1    0    0    0  501  0.00000000000E+00  0.00000000000E+00  0.85139136560E+03  0.85139136561E+03  0.50400001928E-02 0.  1.
        1   -1    0    0  501    0  0.00000000000E+00  0.00000000000E+00 -0.95086006189E+03  0.95086006190E+03  0.50400001928E-02 0. -1.
    10030    2    1    2    0    0  0.00000000000E+00  0.00000000000E+00 -0.99468696289E+02  0.18022514275E+04  0.17995044280E+04 0.  0.
        2    1    3    3  502    0  0.83019579826E+03 -0.32315389135E+03  0.76555509175E+02  0.89415560555E+03  0.25500000920E-02 0.  1.
       -2    1    3    3    0  502 -0.83019579826E+03  0.32315389135E+03 -0.17602420546E+03  0.90809582196E+03  0.25500000920E-02 0. -1.
</event>
<event>
 5   0  0.3983176E-05  0.1800020E+04  0.7818609E-02  0.8706289E-01
       -2   -1    0    0    0  501  0.00000000000E+00  0.00000000000E+00  0.90603500900E+03  0.90603500901E+03  0.25500000920E-02 0.  1.
        2   -1    0    0  501    0  0.00000000000E+00  0.00000000000E+00 -0.89402533246E+03  0.89402533246E+03  0.25500000920E-02 0. -1.
    10030    2    1    2    0    0  0.00000000000E+00  0.00000000000E+00  0.12009676546E+02  0.18000603415E+04  0.18000202778E+04 0.  0.
        3    1    3    3  502    0  0.77141681480E+03  0.25645614430E+03  0.39223174558E+03  0.90260700670E+03  0.10100000352E+00 0.  1.
       -3    1    3    3    0  502 -0.77141681480E+03 -0.25645614430E+03 -0.38022206904E+03  0.89745333477E+03  0.10100000352E+00 0. -1.
</event>
<event>
 5   0  0.3909859E-05  0.1761091E+04  0.7818609E-02  0.8727269E-01
        2   -1    0    0  501    0  0.00000000000E+00  0.00000000000E+00  0.99933301586E+03  0.99933301586E+03  0.25500000920E-02 0.  1.
       -2   -1    0    0    0  501  0.00000000000E+00  0.00000000000E+00 -0.77587747603E+03  0.77587747603E+03  0.25500000920E-02 0. -1.
    10030    2    1    2    0    0  0.00000000000E+00  0.00000000000E+00  0.22345553983E+03  0.17752104919E+04  0.17610905463E+04 0.  0.
        4    1    3    3  502    0 -0.63731584733E+03 -0.35911215276E+02 -0.49968069503E+03  0.81064388885E+03  0.12699999809E+01 0. -1.
       -4    1    3    3    0  502  0.63731584733E+03  0.35911215276E+02  0.72313623486E+03  0.96456660304E+03  0.12699999809E+01 0.  1.
</event>
<event>
 5   0  0.3984648E-05  0.1798600E+04  0.7818609E-02  0.8707044E-01
       -2   -1    0    0    0  501  0.00000000000E+00  0.00000000000E+00  0.11553702145E+04  0.11553702145E+04  0.25500000920E-02 0. -1.
        2   -1    0    0  501    0  0.00000000000E+00  0.00000000000E+00 -0.69998419892E+03  0.69998419892E+03  0.25500000920E-02 0.  1.
    10030    2    1    2    0    0  0.00000000000E+00  0.00000000000E+00  0.45538601558E+03  0.18553544134E+04  0.17986004493E+04 0.  0.
        1    1    3    3  502    0 -0.11446605178E+03  0.13072594975E+03  0.11378895883E+04  0.11510796959E+04  0.50400001928E-02 0. -1.
       -1    1    3    3    0  502  0.11446605178E+03 -0.13072594975E+03 -0.68250357275E+03  0.70427471756E+03  0.50400001928E-02 0.  1.
</event>
<event>
 5   0  0.3983176E-05  0.1744357E+04  0.7818609E-02  0.8736462E-01
       -2   -1    0    0    0  501  0.00000000000E+00  0.00000000000E+00  0.61004360436E+03  0.61004360437E+03  0.25500000920E-02 0.  1.
        2   -1    0    0  501    0  0.00000000000E+00  0.00000000000E+00 -0.12469530821E+04  0.12469530822E+04  0.25500000920E-02 0. -1.
    10030    2    1    2    0    0  0.00000000000E+00  0.00000000000E+00 -0.63690947779E+03  0.18569966865E+04  0.17443574779E+04 0.  0.
        3    1    3    3  502    0 -0.17733185769E+03 -0.23389837391E+03 -0.11927934734E+04  0.12283775142E+04  0.10100000352E+00 0. -1.
       -3    1    3    3    0  502  0.17733185769E+03  0.23389837391E+03  0.55588399558E+03  0.62861917232E+03  0.10100000352E+00 0.  1.
</event>
<event>
 5   0  0.2054876E-05  0.1800046E+04  0.7818609E-02  0.8706275E-01
       -1   -1    0    0    0  501  0.00000000000E+00  0.00000000000E+00  0.82760140055E+03  0.82760140057E+03  0.50400001928E-02 0. -1.
        1   -1    0    0  501    0  0.00000000000E+00  0.00000000000E+00 -0.97878159209E+03  0.97878159210E+03  0.50400001928E-02 0.  1.
    10030    2    1    2    0    0  0.00000000000E+00  0.00000000000E+00 -0.15118019154E+03  0.18063829927E+04  0.18000455733E+04 0.  0.
        5    1    3    3  502    0  0.39083171868E+03 -0.60743198832E+03 -0.61441237951E+03  0.94828672608E+03  0.46999998093E+01 0.  1.
       -5    1    3    3    0  502 -0.39083171868E+03  0.60743198832E+03  0.46323218798E+03  0.85809626659E+03  0.46999998093E+01 0. -1.
</event>
<event>
 5   0  0.1906857E-05  0.1799727E+04  0.7818609E-02  0.8706444E-01
        1   -1    0    0  501    0  0.00000000000E+00  0.00000000000E+00  0.11939371916E+04  0.11939371916E+04  0.50400001928E-02 0. -1.
       -1   -1    0    0    0  501  0.00000000000E+00  0.00000000000E+00 -0.67822212349E+03  0.67822212351E+03  0.50400001928E-02 0.  1.
    10030    2    1    2    0    0  0.00000000000E+00  0.00000000000E+00  0.51571506813E+03  0.18721593151E+04  0.17997273321E+04 0.  0.
        4    1    3    3  502    0  0.88961187606E+03  0.80462161021E+02  0.37118973222E+03  0.96729875405E+03  0.12699999809E+01 0.  1.
       -4    1    3    3    0  502 -0.88961187606E+03 -0.80462161021E+02  0.14452533590E+03  0.90486056108E+03  0.12699999809E+01 0. -1.
</event>
<event>
 5   0  0.2054876E-05  0.1798650E+04  0.7818609E-02  0.8707018E-01
        1   -1    0    0  501    0  0.00000000000E+00  0.00000000000E+00  0.57689182913E+03  0.57689182915E+03  0.50400001928E-02 0.  1.
       -1   -1    0    0    0  501  0.00000000000E+00  0.00000000000E+00 -0.14019711165E+04  0.14019711165E+04  0.50400001928E-02 0. -1.
    10030    2    1    2    0    0  0.00000000000E+00  0.00000000000E+00 -0.82507928740E+03  0.19788629457E+04  0.17986502515E+04 0.  0.
        5    1    3    3  502    0 -0.26435072384E+03 -0.26164381596E+03 -0.13133721086E+04  0.13650301013E+04  0.46999998093E+01 0. -1.
       -5    1    3    3    0  502  0.26435072384E+03  0.26164381596E+03  0.48829282123E+03  0.61383284442E+03  0.46999998093E+01 0.  1.
</event>
<event>
 5   0  0.2038338E-05  0.1802210E+04  0.7818609E-02  0.8705125E-01
        1   -1    0    0  501    0  0.00000000000E+00  0.00000000000E+00  0.14920003456E+04  0.14920003456E+04  0.50400001928E-02 0. -1.
       -1   -1    0    0    0  501  0.00000000000E+00  0.00000000000E+00 -0.54422937063E+03  0.54422937065E+03  0.50400001928E-02 0.  1.
    10030    2    1    2    0    0  0.00000000000E+00  0.00000000000E+00  0.94777097493E+03  0.20362297162E+04  0.18022102087E+04 0.  0.
        1    1    3    3  502    0 -0.31871898484E+03 -0.18830387355E+03 -0.45434795908E+03  0.58606502032E+03  0.50400001928E-02 0.  1.
       -1    1    3    3    0  502  0.31871898484E+03  0.18830387355E+03  0.14021189340E+04  0.14501646959E+04  0.50400001928E-02 0. -1.
</event>
<event>
 5   0  0.3909859E-05  0.1795894E+04  0.7818609E-02  0.8708486E-01
       -2   -1    0    0    0  501  0.00000000000E+00  0.00000000000E+00  0.50336692979E+03  0.50336692979E+03  0.25500000920E-02 0.  1.
        2   -1    0    0  501    0  0.00000000000E+00  0.00000000000E+00 -0.16018312587E+04  0.16018312587E+04  0.25500000920E-02 0. -1.
    10030    2    1    2    0    0  0.00000000000E+00  0.00000000000E+00 -0.10984643289E+04  0.21051981885E+04  0.17958940757E+04 0.  0.
        4    1    3    3  502    0 -0.36645348089E+03  0.73278362404E+03 -0.11845250858E+03  0.82782401693E+03  0.12699999809E+01 0.  1.
       -4    1    3    3    0  502  0.36645348089E+03 -0.73278362404E+03 -0.98001182035E+03  0.12773741716E+04  0.12699999809E+01 0. -1.
</event>
<event>
 5   0  0.3984648E-05  0.1801631E+04  0.7818609E-02  0.8705432E-01
       -2   -1    0    0    0  501  0.00000000000E+00  0.00000000000E+00  0.74630518075E+03  0.74630518075E+03  0.25500000920E-02 0.  1.
        2   -1    0    0  501    0  0.00000000000E+00  0.00000000000E+00 -0.10873149615E+04  0.10873149615E+04  0.25500000920E-02 0. -1.
    10030    2    1    2    0    0  0.00000000000E+00  0.00000000000E+00 -0.34100978072E+03  0.18336201422E+04  0.18016312485E+04 0.  0.
        1    1    3    3  502    0  0.36060513806E+03  0.25906565278E+03  0.62719582819E+03  0.76845669036E+03  0.50400001928E-02 0.  1.
       -1    1    3    3    0  502 -0.36060513806E+03 -0.25906565278E+03 -0.96820560891E+03  0.10651634519E+04  0.50400001928E-02 0. -1.
</event>
<event>
 5   0  0.4015729E-05  0.1803384E+04  0.7818609E-02  0.8704502E-01
        2   -1    0    0  501    0  0.00000000000E+00  0.00000000000E+00  0.11781530733E+04  0.11781530733E+04  0.25500000920E-02 0.  1.
       -2   -1    0    0    0  501  0.00000000000E+00  0.00000000000E+00 -0.69010392225E+03  0.69010392225E+03  0.25500000920E-02 0. -1.
    10030    2    1    2    0    0  0.00000000000E+00  0.00000000000E+00  0.48804915103E+03  0.18682569955E+04  0.18033835498E+04 0.  0.
        2    1    3    3  502    0 -0.57162139913E+03  0.69626048559E+03  0.28439257217E+03  0.94467392409E+03  0.25500000920E-02 0. -1.
       -2    1    3    3    0  502  0.57162139913E+03 -0.69626048559E+03  0.20365657886E+03  0.92358307145E+03  0.25500000920E-02 0.  1.
</event>
<event>
 5   0  0.1960300E-05  0.1804162E+04  0.7818609E-02  0.8704089E-01
        1   -1    0    0  501    0  0.00000000000E+00  0.00000000000E+00  0.66273872028E+03  0.66273872030E+03  0.50400001928E-02 0.  1.
       -1   -1    0    0    0  501  0.00000000000E+00  0.00000000000E+00 -0.12278602933E+04  0.12278602933E+04  0.50400001928E-02 0. -1.
    10030    2    1    2    0    0  0.00000000000E+00  0.00000000000E+00 -0.56512157303E+03  0.18905990136E+04  0.18041624755E+04 0.  0.
        3    1    3    3  502    0  0.33970843465E+03  0.77529970708E+03  0.44244361104E+02  0.84761372692E+03  0.10100000352E+00 0.  1.
       -3    1    3    3    0  502 -0.33970843465E+03 -0.77529970708E+03 -0.60936593414E+03  0.10429852867E+04  0.10100000352E+00 0. -1.
</event>
<event>
 5   0  0.3983176E-05  0.1801849E+04  0.7818609E-02  0.8705317E-01
       -2   -1    0    0    0  501  0.00000000000E+00  0.00000000000E+00  0.14764421148E+04  0.14764421148E+04  0.25500000920E-02 0. -1.
        2   -1    0    0  501    0  0.00000000000E+00  0.00000000000E+00 -0.54974376483E+03  0.54974376483E+03  0.25500000920E-02 0.  1.
    10030    2    1    2    0    0  0.00000000000E+00  0.00000000000E+00  0.92669834995E+03  0.20261858796E+04  0.18018488802E+04 0.  0.
        3    1    3    3  502    0 -0.43750349670E+03 -0.76652395304E+03  0.26001427455E+03  0.92009549145E+03  0.10100000352E+00 0. -1.
       -3    1    3    3    0  502  0.43750349670E+03  0.76652395304E+03  0.66668407540E+03  0.11060903882E+04  0.10100000352E+00 0.  1.
</event>
<event>
 5   0  0.3993393E-05  0.1800802E+04  0.7818609E-02  0.8705873E-01
        2   -1    0    0  501    0  0.00000000000E+00  0.00000000000E+00  0.13278807695E+04  0.13278807695E+04  0.25500000920E-02 0.  1.
       -2   -1    0    0    0  501  0.00000000000E+00  0.00000000000E+00 -0.61053838282E+03  0.61053838282E+03  0.25500000920E-02 0. -1.
    10030    2    1    2    0    0  0.00000000000E+00  0.00000000000E+00  0.71734238665E+03  0.19384191523E+04  0.18008022408E+04 0.  0.
        5    1    3    3  502    0  0.31969196961E+02  0.65423134206E+03 -0.30632576143E+03  0.72311703106E+03  0.46999998093E+01 0. -1.
       -5    1    3    3    0  502 -0.31969196961E+02 -0.65423134206E+03  0.10236681481E+04  0.12153021212E+04  0.46999998093E+01 0.  1.
</event>
<event>
 5   0  0.3984648E-05  0.1798313E+04  0.7818609E-02  0.8707197E-01
        2   -1    0    0  501    0  0.00000000000E+00  0.00000000000E+00  0.14830001447E+04  0.14830001447E+04  0.25500000920E-02 0. -1.
       -2   -1    0    0    0  501  0.00000000000E+00  0.00000000000E+00 -0.54516649121E+03  0.54516649122E+03  0.25500000920E-02 0.  1.
    10030    2    1    2    0    0  0.00000000000E+00  0.00000000000E+00  0.93783365345E+03  0.20281666359E+04  0.17983125260E+04 0.  0.
        1    1    3    3  502    0 -0.29144727817E+03 -0.76163948468E+03  0.41764939151E+02  0.81656630518E+03  0.50400001928E-02 0.  1.
       -1    1    3    3    0  502  0.29144727817E+03  0.76163948468E+03  0.89606871430E+03  0.12116003307E+04  0.50400001928E-02 0. -1.
</event>
<event>
 5   0  0.1960300E-05  0.1799595E+04  0.7818609E-02  0.8706515E-01
        1   -1    0    0  501    0  0.00000000000E+00  0.00000000000E+00  0.97107302550E+03  0.97107302552E+03  0.50400001928E-02 0.  1.
       -1   -1    0    0    0  501  0.00000000000E+00  0.00000000000E+00 -0.83375345468E+03  0.83375345470E+03  0.50400001928E-02 0. -1.
    10030    2    1    2    0    0  0.00000000000E+00  0.00000000000E+00  0.13731957082E+03  0.18048264802E+04  0.17995949431E+04 0.  0.
        3    1    3    3  502    0  0.96062671308E+01 -0.18330383677E+03 -0.81477719086E+03  0.83519725688E+03  0.10100000352E+00 0. -1.
       -3    1    3    3    0  502 -0.96062671308E+01  0.18330383677E+03  0.95209676168E+03  0.96962922334E+03  0.10100000352E+00 0.  1.
</event>
<event>
 5   0  0.1906857E-05  0.1799043E+04  0.7818609E-02  0.8706809E-01
        1   -1    0    0  501    0  0.00000000000E+00  0.00000000000E+00  0.15982434175E+04  0.15982434175E+04  0.50400001928E-02 0.  1.
       -1   -1    0    0    0  501  0.00000000000E+00  0.00000000000E+00 -0.50626746889E+03  0.50626746891E+03  0.50400001928E-02 0. -1.
    10030    2    1    2    0    0  0.00000000000E+00  0.00000000000E+00  0.10919759486E+04  0.21045108864E+04  0.17990426895E+04 0.  0.
        4    1    3    3  502    0  0.20466840136E+03 -0.37312952758E+03 -0.38104934752E+03  0.57123989445E+03  0.12699999809E+01 0. -1.
       -4    1    3    3    0  502 -0.20466840136E+03  0.37312952758E+03  0.14730252961E+04  0.15332709919E+04  0.12699999809E+01 0.  1.
</event>
<event>
 5   0  0.1960300E-05  0.1770331E+04  0.7818609E-02  0.8722238E-01
       -1   -1    0    0    0  501  0.00000000000E+00  0.00000000000E+00  0.71764758466E+03  0.71764758468E+03  0.50400001928E-02 0. -1.
        1   -1    0    0  501    0  0.00000000000E+00  0.00000000000E+00 -0.10917867692E+04  0.10917867692E+04  0.50400001928E-02 0.  1.
    10030    2    1    2    0    0  0.00000000000E+00  0.00000000000E+00 -0.37413918449E+03  0.18094343538E+04  0.17703311983E+04 0.  0.
        3    1    3    3  502    0 -0.64122450534E+03  0.35876827062E+03  0.31742647112E+03  0.80040184472E+03  0.10100000352E+00 0. -1.
       -3    1    3    3    0  502  0.64122450534E+03 -0.35876827062E+03 -0.69156565561E+03  0.10090325091E+04  0.10100000352E+00 0.  1.
</event>
<event>
 5   0  0.3909859E-05  0.1798839E+04  0.7818609E-02  0.8706917E-01
       -2   -1    0    0    0  501  0.00000000000E+00  0.00000000000E+00  0.53134885432E+03  0.53134885433E+03  0.25500000920E-02 0.  1.
        2   -1    0    0  501    0  0.00000000000E+00  0.00000000000E+00 -0.15224559889E+04  0.15224559889E+04  0.25500000920E-02 0. -1.
    10030    2    1    2    0    0  0.00000000000E+00  0.00000000000E+00 -0.99110713453E+03  0.20538048432E+04  0.17988387870E+04 0.  0.
        4    1    3    3  502    0  0.11436137341E+02 -0.76454021908E+03 -0.10362862660E+04  0.12878444665E+04  0.12699999809E+01 0. -1.
       -4    1    3    3    0  502 -0.11436137341E+02  0.76454021908E+03  0.45179131497E+02  0.76596037669E+03  0.12699999809E+01 0.  1.
</event>
<event>
 5   0  0.3993393E-05  0.1799154E+04  0.7818609E-02  0.8706749E-01
        2   -1    0    0  501    0  0.00000000000E+00  0.00000000000E+00  0.12263902815E+04  0.12263902815E+04  0.25500000920E-02 0. -1.
       -2   -1    0    0    0  501  0.00000000000E+00  0.00000000000E+00 -0.65985427864E+03  0.65985427865E+03  0.25500000920E-02 0.  1.
    10030    2    1    2    0    0  0.00000000000E+00  0.00000000000E+00  0.56653600285E+03  0.18862445601E+04  0.17991541063E+04 0.  0.
        5    1    3    3  502    0 -0.35445448807E+03 -0.20632851477E+03  0.11226528752E+04  0.11952326168E+04  0.46999998093E+01 0. -1.
       -5    1    3    3    0  502  0.35445448807E+03  0.20632851477E+03 -0.55611687234E+03  0.69101194333E+03  0.46999998093E+01 0.  1.
</event>
<event>
 5   0  0.4015729E-05  0.1799159E+04  0.7818609E-02  0.8706747E-01
       -2   -1    0    0    0  501  0.00000000000E+00  0.00000000000E+00  0.10329030865E+04  0.10329030865E+04  0.25500000920E-02 0.  1.
        2   -1    0    0  501    0  0.00000000000E+00  0.00000000000E+00 -0.78346493921E+03  0.78346493921E+03  0.25500000920E-02 0. -1.
    10030    2    1    2    0    0  0.00000000000E+00  0.00000000000E+00  0.24943814725E+03  0.18163680257E+04  0.17991590856E+04 0.  0.
        2    1    3    3  502    0  0.30169350121E+03 -0.10417861139E+03 -0.72437922272E+03  0.79157906115E+03  0.25500000920E-02 0. -1.
       -2    1    3    3    0  502 -0.30169350121E+03  0.10417861139E+03  0.97381736997E+03  0.10247889645E+04  0.25500000920E-02 0.  1.
</event>
<event>
 5   0  0.3983176E-05  0.1799602E+04  0.7818609E-02  0.8706511E-01
        2   -1    0    0  501    0  0.00000000000E+00  0.00000000000E+00  0.15143607950E+04  0.15143607950E+04  0.25500000920E-02 0.  1.
       -2   -1    0    0    0  501  0.00000000000E+00  0.00000000000E+00 -0.53464243244E+03  0.53464243244E+03  0.25500000920E-02 0. -1.
    10030    2    1    2    0    0  0.00000000000E+00  0.00000000000E+00  0.97971836255E+03  0.20490032274E+04  0.17996016660E+04 0.  0.
        3    1    3    3  502    0  0.48271045567E+02 -0.64478259796E+03 -0.22261512485E+03  0.68383638137E+03  0.10100000352E+00 0. -1.
       -3    1    3    3    0  502 -0.48271045567E+02  0.64478259796E+03  0.12023334874E+04  0.13651668461E+04  0.10100000352E+00 0.  1.
</event>
<event>
 5   0  0.4015729E-05  0.1801102E+04  0.7818609E-02  0.8705714E-01
       -2   -1    0    0    0  501  0.00000000000E+00  0.00000000000E+00  0.80921309235E+03  0.80921309235E+03  0.25500000920E-02 0.  1.
        2   -1    0    0  501    0  0.00000000000E+00  0.00000000000E+00 -0.10021983295E+04  0.10021983295E+04  0.25500000920E-02 0. -1.
    10030    2    1    2    0    0  0.00000000000E+00  0.00000000000E+00 -0.19298523718E+03  0.18114114219E+04  0.18011018954E+04 0.  0.
        2    1    3    3  502    0  0.16264491618E+03 -0.29717650380E+03 -0.93566958058E+03  0.99511044975E+03  0.25500000920E-02 0. -1.
       -2    1    3    3    0  502 -0.16264491618E+03  0.29717650380E+03  0.74268434340E+03  0.81630097214E+03  0.25500000920E-02 0.  1.
</event>
<event>
 5   0  0.3983176E-05  0.1802881E+04  0.7818609E-02  0.8704769E-01
       -2   -1    0    0    0  501  0.00000000000E+00  0.00000000000E+00  0.72471824040E+03  0.72471824041E+03  0.25500000920E-02 0.  1.
        2   -1    0    0  501    0  0.00000000000E+00  0.00000000000E+00 -0.11212565912E+04  0.11212565912E+04  0.25500000920E-02 0. -1.
    10030    2    1    2    0    0  0.00000000000E+00  0.00000000000E+00 -0.39653835075E+03  0.18459748316E+04  0.18028811428E+04 0.  0.
        3    1    3    3  502    0  0.43889684325E+03  0.78211479479E+03 -0.10520604001E+03  0.90299629695E+03  0.10100000352E+00 0. -1.
       -3    1    3    3    0  502 -0.43889684325E+03 -0.78211479479E+03 -0.29133231074E+03  0.94297853461E+03  0.10100000352E+00 0.  1.
</event>
<event>
 5   0  0.3983176E-05  0.1799783E+04  0.7818609E-02  0.8706415E-01
       -2   -1    0    0    0  501  0.00000000000E+00  0.00000000000E+00  0.51009568450E+03  0.51009568451E+03  0.25500000920E-02 0. -1.
        2   -1    0    0  501    0  0.00000000000E+00  0.00000000000E+00 -0.15875551667E+04  0.15875551667E+04  0.25500000920E-02 0.  1.
    10030    2    1    2    0    0  0.00000000000E+00  0.00000000000E+00 -0.10774594822E+04  0.20976508512E+04  0.17997833641E+04 0.  0.
        3    1    3    3  502    0  0.20907607370E+03 -0.33737669321E+03  0.40256666919E+03  0.56532802076E+03  0.10100000352E+00 0. -1.
       -3    1    3    3    0  502 -0.20907607370E+03  0.33737669321E+03 -0.14800261514E+04  0.15323228304E+04  0.10100000352E+00 0.  1.
</event>
<event>
 5   0  0.3909859E-05  0.1799580E+04  0.7818609E-02  0.8706523E-01
        2   -1    0    0  501    0  0.00000000000E+00  0.00000000000E+00  0.15242893431E+04  0.15242893431E+04  0.25500000920E-02 0.  1.
       -2   -1    0    0    0  501  0.00000000000E+00  0.00000000000E+00 -0.53114721183E+03  0.53114721184E+03  0.25500000920E-02 0. -1.
    10030    2    1    2    0    0  0.00000000000E+00  0.00000000000E+00  0.99314213123E+03  0.20554365549E+04  0.17995799894E+04 0.  0.
        4    1    3    3  502    0 -0.89536744934E+03 -0.84348093202E+02  0.46380532036E+03  0.10118865837E+04  0.12699999809E+01 0. -1.
       -4    1    3    3    0  502  0.89536744934E+03  0.84348093202E+02  0.52933681087E+03  0.10435499712E+04  0.12699999809E+01 0.  1.
</event>
<event>
 5   0  0.1960300E-05  0.1800179E+04  0.7818609E-02  0.8706204E-01
       -1   -1    0    0    0  501  0.00000000000E+00  0.00000000000E+00  0.10780466489E+04  0.10780466489E+04  0.50400001928E-02 0. -1.
        1   -1    0    0  501    0  0.00000000000E+00  0.00000000000E+00 -0.75150830327E+03  0.75150830329E+03  0.50400001928E-02 0.  1.
    10030    2    1    2    0    0  0.00000000000E+00  0.00000000000E+00  0.32653834567E+03  0.18295549522E+04  0.18001788889E+04 0.  0.
        3    1    3    3  502    0  0.36266511439E+03 -0.12215161272E+03 -0.66471165768E+03  0.76699973907E+03  0.10100000352E+00 0.  1.
       -3    1    3    3    0  502 -0.36266511439E+03  0.12215161272E+03  0.99125000335E+03  0.10625552132E+04  0.10100000352E+00 0. -1.
</event>
<event>
 5   0  0.2001811E-05  0.1802721E+04  0.7818609E-02  0.8704854E-01
       -1   -1    0    0    0  501  0.00000000000E+00  0.00000000000E+00  0.83926945511E+03  0.83926945512E+03  0.50400001928E-02 0. -1.
        1   -1    0    0  501    0  0.00000000000E+00  0.00000000000E+00 -0.96804497526E+03  0.96804497527E+03  0.50400001928E-02 0.  1.
    10030    2    1    2    0    0  0.00000000000E+00  0.00000000000E+00 -0.12877552015E+03  0.18073144304E+04  0.18027208091E+04 0.  0.
        2    1    3    3  502    0 -0.25797033675E+03 -0.90142008757E+02  0.79674001052E+03  0.84229978081E+03  0.25500000920E-02 0. -1.
       -2    1    3    3    0  502  0.25797033675E+03  0.90142008757E+02 -0.92551553067E+03  0.96501464958E+03  0.25500000920E-02 0.  1.
</event>
<event>
 5   0  0.2001811E-05  0.1794759E+04  0.7818609E-02  0.8709092E-01
       -1   -1    0    0    0  501  0.00000000000E+00  0.00000000000E+00  0.59534546540E+03  0.59534546543E+03  0.50400001928E-02 0. -1.
        1   -1    0    0  501    0  0.00000000000E+00  0.00000000000E+00 -0.13526425823E+04  0.13526425823E+04  0.50400001928E-02 0.  1.
    10030    2    1    2    0    0  0.00000000000E+00  0.00000000000E+00 -0.75729711689E+03  0.19479880477E+04  0.17947586219E+04 0.  0.
        2    1    3    3  502    0  0.27463677879E+03 -0.69038159770E+03  0.16754209338E+03  0.76165770775E+03  0.25500000920E-02 0. -1.
       -2    1    3    3    0  502 -0.27463677879E+03  0.69038159770E+03 -0.92483921028E+03  0.11863303400E+04  0.25500000920E-02 0.  1.
</event>
<event>
 5   0  0.1960300E-05  0.1799680E+04  0.7818609E-02  0.8706470E-01
        1   -1    0    0  501    0  0.00000000000E+00  0.00000000000E+00  0.50892160681E+03  0.50892160683E+03  0.50400001928E-02 0. -1.
       -1   -1    0    0    0  501  0.00000000000E+00  0.00000000000E+00 -0.15910349351E+04  0.15910349351E+04  0.50400001928E-02 0.  1.
    10030    2    1    2    0    0  0.00000000000E+00  0.00000000000E+00 -0.10821133283E+04  0.20999565419E+04  0.17996800334E+04 0.  0.
        3    1    3    3  502    0  0.12183721132E+03 -0.74543073793E+03  0.29628104156E+02  0.75590285479E+03  0.10100000352E+00 0. -1.
       -3    1    3    3    0  502 -0.12183721132E+03  0.74543073793E+03 -0.11117414324E+04  0.13440536871E+04  0.10100000352E+00 0.  1.
</event>
<event>
 5   0  0.3984648E-05  0.1804409E+04  0.7818609E-02  0.8703958E-01
       -2   -1    0    0    0  501  0.00000000000E+00  0.00000000000E+00  0.78064339383E+03  0.78064339384E+03  0.25500000920E-02 0. -1.
        2   -1    0    0  501    0  0.00000000000E+00  0.00000000000E+00 -0.10426952050E+04  0.10426952050E+04  0.25500000920E-02 0.  1.
    10030    2    1    2    0    0  0.00000000000E+00  0.00000000000E+00 -0.26205181118E+03  0.18233385988E+04  0.18044091815E+04 0.  0.
        1    1    3    3  502    0  0.63467399545E+03 -0.16732860622E+03  0.49446958393E+03  0.82177254300E+03  0.50400001928E-02 0. -1.
       -1    1    3    3    0  502 -0.63467399545E+03  0.16732860622E+03 -0.75652139511E+03  0.10015660559E+04  0.50400001928E-02 0.  1.
</event>
<event>
 5   0  0.1960300E-05  0.1808162E+04  0.7818609E-02  0.8701971E-01
        1   -1    0    0  501    0  0.00000000000E+00  0.00000000000E+00  0.15830538217E+04  0.15830538217E+04  0.50400001928E-02 0.  1.
       -1   -1    0    0    0  501  0.00000000000E+00  0.00000000000E+00 -0.51631983146E+03  0.51631983148E+03  0.50400001928E-02 0. -1.
    10030    2    1    2    0    0  0.00000000000E+00  0.00000000000E+00  0.10667339903E+04  0.20993736532E+04  0.18081615884E+04 0.  0.
        3    1    3    3  502    0  0.17038766224E+03 -0.22349348343E+02  0.15639166745E+04  0.15733298522E+04  0.10100000352E+00 0.  1.
       -3    1    3    3    0  502 -0.17038766224E+03  0.22349348343E+02 -0.49718268427E+03  0.52604380099E+03  0.10100000352E+00 0. -1.
</event>
<event>
 5   0  0.3983176E-05  0.1798633E+04  0.7818609E-02  0.8707027E-01
        2   -1    0    0  501    0  0.00000000000E+00  0.00000000000E+00  0.62152752353E+03  0.62152752353E+03  0.25500000920E-02 0. -1.
       -2   -1    0    0    0  501  0.00000000000E+00  0.00000000000E+00 -0.13012616969E+04  0.13012616969E+04  0.25500000920E-02 0.  1.
    10030    2    1    2    0    0  0.00000000000E+00  0.00000000000E+00 -0.67973417338E+03  0.19227892204E+04  0.17986327696E+04 0.  0.
        3    1    3    3  502    0 -0.23787643531E+03  0.25952534661E+03 -0.12245364595E+04  0.12741382009E+04  0.10100000352E+00 0.  1.
       -3    1    3    3    0  502  0.23787643531E+03 -0.25952534661E+03  0.54480228614E+03  0.64865101957E+03  0.10100000352E+00 0. -1.
</event>
<event>
 5   0  0.2038338E-05  0.1802641E+04  0.7818609E-02  0.8704896E-01
        1   -1    0    0  501    0  0.00000000000E+00  0.00000000000E+00  0.77276738184E+03  0.77276738186E+03  0.50400001928E-02 0.  1.
       -1   -1    0    0    0  501  0.00000000000E+00  0.00000000000E+00 -0.10512585413E+04  0.10512585414E+04  0.50400001928E-02 0. -1.
    10030    2    1    2    0    0  0.00000000000E+00  0.00000000000E+00 -0.27849115950E+03  0.18240259232E+04  0.18026406305E+04 0.  0.
        1    1    3    3  502    0 -0.81403849857E+03  0.38218000522E+03 -0.78046022893E+02  0.90266905080E+03  0.50400001928E-02 0. -1.
       -1    1    3    3    0  502  0.81403849857E+03 -0.38218000522E+03 -0.20044513661E+03  0.92135687243E+03  0.50400001928E-02 0.  1.
</event>
<event>
 5   0  0.3909859E-05  0.1796287E+04  0.7818609E-02  0.8708277E-01
       -2   -1    0    0    0  501  0.00000000000E+00  0.00000000000E+00  0.58961508336E+03  0.58961508337E+03  0.25500000920E-02 0. -1.
        2   -1    0    0  501    0  0.00000000000E+00  0.00000000000E+00 -0.13681153919E+04  0.13681153919E+04  0.25500000920E-02 0.  1.
    10030    2    1    2    0    0  0.00000000000E+00  0.00000000000E+00 -0.77850030858E+03  0.19577304753E+04  0.17962866930E+04 0.  0.
        4    1    3    3  502    0 -0.49485919244E+03  0.29488243488E+03 -0.11402521732E+04  0.12775045605E+04  0.12699999809E+01 0.  1.
       -4    1    3    3    0  502  0.49485919244E+03 -0.29488243488E+03  0.36175186459E+03  0.68022591482E+03  0.12699999809E+01 0. -1.
</event>
<event>
 5   0  0.3909859E-05  0.1800956E+04  0.7818609E-02  0.8705791E-01
        2   -1    0    0  501    0  0.00000000000E+00  0.00000000000E+00  0.85497588473E+03  0.85497588473E+03  0.25500000920E-02 0. -1.
       -2   -1    0    0    0  501  0.00000000000E+00  0.00000000000E+00 -0.94840201784E+03  0.94840201785E+03  0.25500000920E-02 0.  1.
    10030    2    1    2    0    0  0.00000000000E+00  0.00000000000E+00 -0.93426133117E+02  0.18033779026E+04  0.18009562508E+04 0.  0.
        4    1    3    3  502    0  0.24460034759E+03 -0.64515508822E+03 -0.62611432472E+03  0.93170552130E+03  0.12699999809E+01 0.  1.
       -4    1    3    3    0  502 -0.24460034759E+03  0.64515508822E+03  0.53268819161E+03  0.87167238128E+03  0.12699999809E+01 0. -1.
</event>
<event>
 5   0  0.2054876E-05  0.1808413E+04  0.7818609E-02  0.8701839E-01
        1   -1    0    0  501    0  0.00000000000E+00  0.00000000000E+00  0.20490131121E+04  0.20490131121E+04  0.50400001928E-02 0. -1.
       -1   -1    0    0    0  501  0.00000000000E+00  0.00000000000E+00 -0.39901600354E+03  0.39901600357E+03  0.50400001928E-02 0.  1.
    10030    2    1    2    0    0  0.00000000000E+00  0.00000000000E+00  0.16499971086E+04  0.24480291157E+04  0.18084125893E+04 0.  0.
        5    1    3    3  502    0  0.40556432407E+03  0.45130740814E+03 -0.82484566324E+02  0.61236148742E+03  0.46999998093E+01 0.  1.
       -5    1    3    3    0  502 -0.40556432407E+03 -0.45130740814E+03  0.17324816749E+04  0.18356676283E+04  0.46999998093E+01 0. -1.
</event>
<event>
 5   0  0.1960300E-05  0.1799853E+04  0.7818609E-02  0.8706378E-01
        1   -1    0    0  501    0  0.00000000000E+00  0.00000000000E+00  0.20041300769E+04  0.20041300769E+04  0.50400001928E-02 0.  1.
       -1   -1    0    0    0  501  0.00000000000E+00  0.00000000000E+00 -0.40409921507E+03  0.40409921510E+03  0.50400001928E-02 0. -1.
    10030    2    1    2    0    0  0.00000000000E+00  0.00000000000E+00  0.16000308619E+04  0.24082292920E+04  0.17998526507E+04 0.  0.
        3    1    3    3  502    0 -0.93080354883E+02  0.15273917055E+02  0.19974975699E+04  0.19997234301E+04  0.10100000352E+00 0.  1.
       -3    1    3    3    0  502  0.93080354883E+02 -0.15273917055E+02 -0.39746670805E+03  0.40850586191E+03  0.10100000352E+00 0. -1.
</event>
<event>
 5   0  0.2001811E-05  0.1799731E+04  0.7818609E-02  0.8706443E-01
        1   -1    0    0  501    0  0.00000000000E+00  0.00000000000E+00  0.96653306927E+03  0.96653306928E+03  0.50400001928E-02 0.  1.
       -1   -1    0    0    0  501  0.00000000000E+00  0.00000000000E+00 -0.83779616714E+03  0.83779616715E+03  0.50400001928E-02 0. -1.
    10030    2    1    2    0    0  0.00000000000E+00  0.00000000000E+00  0.12873690213E+03  0.18043292364E+04  0.17997307586E+04 0.  0.
        2    1    3    3  502    0 -0.48133409900E+03  0.35767040504E+03  0.73701274084E+03  0.95015704685E+03  0.25500000920E-02 0.  1.
       -2    1    3    3    0  502  0.48133409900E+03 -0.35767040504E+03 -0.60827583871E+03  0.85417218959E+03  0.25500000920E-02 0. -1.
</event>
<event>
 5   0  0.3909859E-05  0.1802029E+04  0.7818609E-02  0.8705221E-01
       -2   -1    0    0    0  501  0.00000000000E+00  0.00000000000E+00  0.37621484250E+03  0.37621484251E+03  0.25500000920E-02 0. -1.
        2   -1    0    0  501    0  0.00000000000E+00  0.00000000000E+00 -0.21578818074E+04  0.21578818074E+04  0.25500000920E-02 0.  1.
    10030    2    1    2    0    0  0.00000000000E+00  0.00000000000E+00 -0.17816669649E+04  0.25340966500E+04  0.18020290390E+04 0.  0.
        4    1    3    3  502    0  0.55605119265E+03 -0.28613260183E+02  0.10533485700E+03  0.56666453260E+03  0.12699999809E+01 0. -1.
       -4    1    3    3    0  502 -0.55605119265E+03  0.28613260183E+02 -0.18870018219E+04  0.19674321174E+04  0.12699999809E+01 0.  1.
</event>
<event>
 5   0  0.1960300E-05  0.1778880E+04  0.7818609E-02  0.8717612E-01
        1   -1    0    0  501    0  0.00000000000E+00  0.00000000000E+00  0.18451561955E+04  0.18451561955E+04  0.50400001928E-02 0.  1.
       -1   -1    0    0    0  501  0.00000000000E+00  0.00000000000E+00 -0.42874607865E+03  0.42874607868E+03  0.50400001928E-02 0. -1.
    10030    2    1    2    0    0  0.00000000000E+00  0.00000000000E+00  0.14164101169E+04  0.22739022742E+04  0.17788799660E+04 0.  0.
        3    1    3    3  502    0  0.55037252757E+03  0.62637177467E+03  0.11039593538E+04  0.13834658595E+04  0.10100000352E+00 0.  1.
       -3    1    3    3    0  502 -0.55037252757E+03 -0.62637177467E+03  0.31245076307E+03  0.89043641477E+03  0.10100000352E+00 0. -1.
</event>
<event>
 5   0  0.4015729E-05  0.1782841E+04  0.7818609E-02  0.8715478E-01
       -2   -1    0    0    0  501  0.00000000000E+00  0.00000000000E+00  0.93397108790E+03  0.93397108790E+03  0.25500000920E-02 0. -1.
        2   -1    0    0  501    0  0.00000000000E+00  0.00000000000E+00 -0.85080864977E+03  0.85080864978E+03  0.25500000920E-02 0.  1.
    10030    2    1    2    0    0  0.00000000000E+00  0.00000000000E+00  0.83162438128E+02  0.17847797377E+04  0.17828411934E+04 0.  0.
        2    1    3    3  502    0 -0.68128818093E+03 -0.37197015809E+03 -0.39720495944E+03  0.87194447289E+03  0.25500000920E-02 0.  1.
       -2    1    3    3    0  502  0.68128818093E+03  0.37197015809E+03  0.48036739757E+03  0.91283526479E+03  0.25500000920E-02 0. -1.
</event>
<event>
 5   0  0.3909859E-05  0.1804753E+04  0.7818609E-02  0.8703776E-01
        2   -1    0    0  501    0  0.00000000000E+00  0.00000000000E+00  0.66689311091E+03  0.66689311092E+03  0.25500000920E-02 0. -1.
       -2   -1    0    0    0  501  0.00000000000E+00  0.00000000000E+00 -0.12210097124E+04  0.12210097124E+04  0.25500000920E-02 0.  1.
    10030    2    1    2    0    0  0.00000000000E+00  0.00000000000E+00 -0.55411660145E+03  0.18879028233E+04  0.18047525764E+04 0.  0.
        4    1    3    3  502    0 -0.48049315339E+03  0.36925377905E+03  0.42237216663E+03  0.73866222581E+03  0.12699999809E+01 0. -1.
       -4    1    3    3    0  502  0.48049315339E+03 -0.36925377905E+03 -0.97648876809E+03  0.11492405975E+04  0.12699999809E+01 0.  1.
</event>
<event>
 5   0  0.2054876E-05  0.1797720E+04  0.7818609E-02  0.8707513E-01
        1   -1    0    0  501    0  0.00000000000E+00  0.00000000000E+00  0.16684850125E+04  0.16684850125E+04  0.50400001928E-02 0. -1.
       -1   -1    0    0    0  501  0.00000000000E+00  0.00000000000E+00 -0.48424144794E+03  0.48424144797E+03  0.50400001928E-02 0.  1.
    10030    2    1    2    0    0  0.00000000000E+00  0.00000000000E+00  0.11842435645E+04  0.21527264605E+04  0.17977203324E+04 0.  0.
        5    1    3    3  502    0 -0.43113179344E+03  0.52424178141E+03  0.12977423579E+04  0.14645345288E+04  0.46999998093E+01 0. -1.
       -5    1    3    3    0  502  0.43113179344E+03 -0.52424178141E+03 -0.11349879333E+03  0.68819193164E+03  0.46999998093E+01 0.  1.
</event>
<event>
 5   0  0.2001811E-05  0.1800160E+04  0.7818609E-02  0.8706214E-01
        1   -1    0    0  501    0  0.00000000000E+00  0.00000000000E+00  0.13650789439E+04  0.13650789440E+04  0.50400001928E-02 0.  1.
       -1   -1    0    0    0  501  0.00000000000E+00  0.00000000000E+00 -0.59347785863E+03  0.59347785865E+03  0.50400001928E-02 0. -1.
    10030    2    1    2    0    0  0.00000000000E+00  0.00000000000E+00  0.77160108532E+03  0.19585568026E+04  0.18001601357E+04 0.  0.
        2    1    3    3  502    0 -0.74417575247E+03  0.55336333360E+02 -0.16175642660E+03  0.76356060788E+03  0.25500000920E-02 0. -1.
       -2    1    3    3    0  502  0.74417575247E+03 -0.55336333360E+02  0.93335751192E+03  0.11949961947E+04  0.25500000920E-02 0.  1.
</event>
<event>
 5   0  0.4015729E-05  0.1802148E+04  0.7818609E-02  0.8705158E-01
        2   -1    0    0  501    0  0.00000000000E+00  0.00000000000E+00  0.13112837347E+04  0.13112837347E+04  0.25500000920E-02 0. -1.
       -2   -1    0    0    0  501  0.00000000000E+00  0.00000000000E+00 -0.61919060915E+03  0.61919060916E+03  0.25500000920E-02 0.  1.
    10030    2    1    2    0    0  0.00000000000E+00  0.00000000000E+00  0.69209312552E+03  0.19304743438E+04  0.18021482452E+04 0.  0.
        2    1    3    3  502    0 -0.71314424228E+03 -0.47817527820E+03  0.63883765066E+03  0.10702055181E+04  0.25500000920E-02 0. -1.
       -2    1    3    3    0  502  0.71314424228E+03  0.47817527820E+03  0.53255474863E+02  0.86026882577E+03  0.25500000920E-02 0.  1.
</event>
<event>
 5   0  0.3983176E-05  0.1801836E+04  0.7818609E-02  0.8705324E-01
       -2   -1    0    0    0  501  0.00000000000E+00  0.00000000000E+00  0.50278732193E+03  0.50278732194E+03  0.25500000920E-02 0. -1.
        2   -1    0    0  501    0  0.00000000000E+00  0.00000000000E+00 -0.16143066896E+04  0.16143066896E+04  0.25500000920E-02 0.  1.
    10030    2    1    2    0    0  0.00000000000E+00  0.00000000000E+00 -0.11115193676E+04  0.21170940115E+04  0.18018356609E+04 0.  0.
        3    1    3    3  502    0  0.36628093469E+03  0.57832653316E+03 -0.12439218305E+04  0.14198467638E+04  0.10100000352E+00 0.  1.
       -3    1    3    3    0  502 -0.36628093469E+03 -0.57832653316E+03  0.13240246286E+03  0.69724724771E+03  0.10100000352E+00 0. -1.
</event>
<event>
 5   0  0.3993393E-05  0.1800491E+04  0.7818609E-02  0.8706039E-01
        2   -1    0    0  501    0  0.00000000000E+00  0.00000000000E+00  0.11172312427E+04  0.11172312427E+04  0.25500000920E-02 0.  1.
       -2   -1    0    0    0  501  0.00000000000E+00  0.00000000000E+00 -0.72540194949E+03  0.72540194949E+03  0.25500000920E-02 0. -1.
    10030    2    1    2    0    0  0.00000000000E+00  0.00000000000E+00  0.39182929323E+03  0.18426331922E+04  0.18004907348E+04 0.  0.
        5    1    3    3  502    0 -0.62583343869E+03  0.30119053598E+02  0.85745386261E+03  0.10619905211E+04  0.46999998093E+01 0.  1.
       -5    1    3    3    0  502  0.62583343869E+03 -0.30119053598E+02 -0.46562456938E+03  0.78064267113E+03  0.46999998093E+01 0. -1.
</event>
<event>
 5   0  0.2001811E-05  0.1797508E+04  0.7818609E-02  0.8707626E-01
        1   -1    0    0  501    0  0.00000000000E+00  0.00000000000E+00  0.10364856862E+04  0.10364856862E+04  0.50400001928E-02 0. -1.
       -1   -1    0    0    0  501  0.00000000000E+00  0.00000000000E+00 -0.77932436984E+03  0.77932436986E+03  0.50400001928E-02 0.  1.
    10030    2    1    2    0    0  0.00000000000E+00  0.00000000000E+00  0.25716131639E+03  0.18158100561E+04  0.17975077795E+04 0.  0.
        2    1    3    3  502    0 -0.64475918747E+03 -0.60601470859E+03 -0.30471908617E+02  0.88537945203E+03  0.25500000920E-02 0. -1.
       -2    1    3    3    0  502  0.64475918747E+03  0.60601470859E+03  0.28763322500E+03  0.93043060407E+03  0.25500000920E-02 0.  1.
</event>
<event>
 5   0  0.4015729E-05  0.1800980E+04  0.7818609E-02  0.8705778E-01
       -2   -1    0    0    0  501  0.00000000000E+00  0.00000000000E+00  0.68266911714E+03  0.68266911714E+03  0.25500000920E-02 0.  1.
        2   -1    0    0  501    0  0.00000000000E+00  0.00000000000E+00 -0.11878117024E+04  0.11878117024E+04  0.25500000920E-02 0. -1.
    10030    2    1    2    0    0  0.00000000000E+00  0.00000000000E+00 -0.50514258530E+03  0.18704808196E+04  0.18009801401E+04 0.  0.
        2    1    3    3  502    0  0.49080375512E+03  0.10097023351E+03  0.52449919430E+03  0.72538453176E+03  0.25500000920E-02 0.  1.
       -2    1    3    3    0  502 -0.49080375512E+03 -0.10097023351E+03 -0.10296417796E+04  0.11450962878E+04  0.25500000920E-02 0. -1.
</event>
<event>
 5   0  0.2001811E-05  0.1798428E+04  0.7818609E-02  0.8707136E-01
       -1   -1    0    0    0  501  0.00000000000E+00  0.00000000000E+00  0.96454445262E+03  0.96454445263E+03  0.50400001928E-02 0. -1.
        1   -1    0    0  501    0  0.00000000000E+00  0.00000000000E+00 -0.83830851262E+03  0.83830851263E+03  0.50400001928E-02 0.  1.
    10030    2    1    2    0    0  0.00000000000E+00  0.00000000000E+00  0.12623594000E+03  0.18028529653E+04  0.17984280085E+04 0.  0.
        2    1    3    3  502    0  0.65487978443E+03 -0.57450930186E+03 -0.16026962090E+03  0.88578486179E+03  0.25500000920E-02 0.  1.
       -2    1    3    3    0  502 -0.65487978443E+03  0.57450930186E+03  0.28650556090E+03  0.91706810348E+03  0.25500000920E-02 0. -1.
</event>
<event>
 5   0  0.3993393E-05  0.1798380E+04  0.7818609E-02  0.8707162E-01
       -2   -1    0    0    0  501  0.00000000000E+00  0.00000000000E+00  0.53692955770E+03  0.53692955771E+03  0.25500000920E-02 0.  1.
        2   -1    0    0  501    0  0.00000000000E+00  0.00000000000E+00 -0.15058631095E+04  0.15058631095E+04  0.25500000920E-02 0. -1.
    10030    2    1    2    0    0  0.00000000000E+00  0.00000000000E+00 -0.96893355180E+03  0.20427926672E+04  0.17983797300E+04 0.  0.
        5    1    3    3  502    0  0.58530842558E+03  0.68233520716E+03 -0.46312394584E+03  0.10112730428E+04  0.46999998093E+01 0.  1.
       -5    1    3    3    0  502 -0.58530842558E+03 -0.68233520716E+03 -0.50580960596E+03  0.10315196244E+04  0.46999998093E+01 0. -1.
</event>
<event>
 5   0  0.2038338E-05  0.1799603E+04  0.7818609E-02  0.8706511E-01
       -1   -1    0    0    0  501  0.00000000000E+00  0.00000000000E+00  0.59473408837E+03  0.59473408839E+03  0.50400001928E-02 0.  1.
        1   -1    0    0  501    0  0.00000000000E+00  0.00000000000E+00 -0.13613525404E+04  0.13613525404E+04  0.50400001928E-02 0. -1.
    10030    2    1    2    0    0  0.00000000000E+00  0.00000000000E+00 -0.76661845199E+03  0.19560866288E+04  0.17996030252E+04 0.  0.
        1    1    3    3  502    0  0.22861537738E+03 -0.80579869799E+03 -0.74062843954E+03  0.11180818476E+04  0.50400001928E-02 0. -1.
       -1    1    3    3    0  502 -0.22861537738E+03  0.80579869799E+03 -0.25990012449E+02  0.83800478115E+03  0.50400001928E-02 0.  1.
</event>
<event>
 5   0  0.2001811E-05  0.1798432E+04  0.7818609E-02  0.8707134E-01
        1   -1    0    0  501    0  0.00000000000E+00  0.00000000000E+00  0.20864629718E+04  0.20864629718E+04  0.50400001928E-02 0.  1.
       -1   -1    0    0    0  501  0.00000000000E+00  0.00000000000E+00 -0.38754053308E+03  0.38754053311E+03  0.50400001928E-02 0. -1.
    10030    2    1    2    0    0  0.00000000000E+00  0.00000000000E+00  0.16989224387E+04  0.24740035049E+04  0.17984315081E+04 0.  0.
        2    1    3    3  502    0 -0.53230375493E+03 -0.65503620839E+03  0.12760648268E+04  0.15299546281E+04  0.25500000920E-02 0.  1.
       -2    1    3    3    0  502  0.53230375493E+03  0.65503620839E+03  0.42285761187E+03  0.94404887677E+03  0.25500000920E-02 0. -1.
</event>
<event>
 5   0  0.2038338E-05  0.1796939E+04  0.7818609E-02  0.8707929E-01
        1   -1    0    0  501    0  0.00000000000E+00  0.00000000000E+00  0.10263765058E+04  0.10263765059E+04  0.50400001928E-02 0.  1.
       -1   -1    0    0    0  501  0.00000000000E+00  0.00000000000E+00 -0.78650196954E+03  0.78650196956E+03  0.50400001928E-02 0. -1.
    10030    2    1    2    0    0  0.00000000000E+00  0.00000000000E+00  0.23987453630E+03  0.18128784754E+04  0.17969386671E+04 0.  0.
        1    1    3    3  502    0  0.58976662074E+03  0.38599634798E+03 -0.44216687745E+03  0.83206333601E+03  0.50400001928E-02 0. -1.
       -1    1    3    3    0  502 -0.58976662074E+03 -0.38599634798E+03  0.68204141375E+03  0.98081513940E+03  0.50400001928E-02 0.  1.
</event>
<event>
 5   0  0.3993393E-05  0.1800749E+04  0.7818609E-02  0.8705901E-01
        2   -1    0    0  501    0  0.00000000000E+00  0.00000000000E+00  0.12670753480E+04  0.12670753480E+04  0.25500000920E-02 0.  1.
       -2   -1    0    0    0  501  0.00000000000E+00  0.00000000000E+00 -0.63979931632E+03  0.63979931633E+03  0.25500000920E-02 0. -1.
    10030    2    1    2    0    0  0.00000000000E+00  0.00000000000E+00  0.62727603164E+03  0.19068746643E+04  0.18007486680E+04 0.  0.
        5    1    3    3  502    0 -0.21505049776E+03 -0.66150233127E+03  0.91901126580E+03  0.11525779139E+04  0.46999998093E+01 0.  1.
       -5    1    3    3    0  502  0.21505049776E+03  0.66150233127E+03 -0.29173523416E+03  0.75429675043E+03  0.46999998093E+01 0. -1.
</event>
<event>
 5   0  0.2054876E-05  0.1796608E+04  0.7818609E-02  0.8708105E-01
       -1   -1    0    0    0  501  0.00000000000E+00  0.00000000000E+00  0.54537981168E+03  0.54537981170E+03  0.50400001928E-02 0. -1.
        1   -1    0    0  501    0  0.00000000000E+00  0.00000000000E+00 -0.14796118878E+04  0.14796118878E+04  0.50400001928E-02 0.  1.
    10030    2    1    2    0    0  0.00000000000E+00  0.00000000000E+00 -0.93423207614E+03  0.20249916995E+04  0.17966084190E+04 0.  0.
        5    1    3    3  502    0  0.66126655047E+03  0.60795401087E+03 -0.45940266560E+03  0.10089372772E+04  0.46999998093E+01 0. -1.
       -5    1    3    3    0  502 -0.66126655047E+03 -0.60795401087E+03 -0.47482941054E+03  0.10160544224E+04  0.46999998093E+01 0.  1.
</event>
<event>
 5   0  0.1960300E-05  0.1796189E+04  0.7818609E-02  0.8708329E-01
        1   -1    0    0  501    0  0.00000000000E+00  0.00000000000E+00  0.91209034867E+03  0.91209034868E+03  0.50400001928E-02 0.  1.
       -1   -1    0    0    0  501  0.00000000000E+00  0.00000000000E+00 -0.88431379927E+03  0.88431379929E+03  0.50400001928E-02 0. -1.
    10030    2    1    2    0    0  0.00000000000E+00  0.00000000000E+00  0.27776549396E+02  0.17964041480E+04  0.17961893904E+04 0.  0.
        3    1    3    3  502    0  0.53073968742E+03 -0.69496331926E+03 -0.19086881084E+03  0.89503605741E+03  0.10100000352E+00 0. -1.
       -3    1    3    3    0  502 -0.53073968742E+03  0.69496331926E+03  0.21864536023E+03  0.90136809055E+03  0.10100000352E+00 0.  1.
</event>
<event>
 5   0  0.3984648E-05  0.1797233E+04  0.7818609E-02  0.8707772E-01
       -2   -1    0    0    0  501  0.00000000000E+00  0.00000000000E+00  0.16341670487E+04  0.16341670487E+04  0.25500000920E-02 0.  1.
        2   -1    0    0  501    0  0.00000000000E+00  0.00000000000E+00 -0.49414268815E+03  0.49414268815E+03  0.25500000920E-02 0. -1.
    10030    2    1    2    0    0  0.00000000000E+00  0.00000000000E+00  0.11400243606E+04  0.21283097369E+04  0.17972330938E+04 0.  0.
        1    1    3    3  502    0 -0.16630305015E+03 -0.70421394150E+03  0.12010305017E+04  0.14021584240E+04  0.50400001928E-02 0.  1.
       -1    1    3    3    0  502  0.16630305015E+03  0.70421394150E+03 -0.61006141161E+02  0.72615131287E+03  0.50400001928E-02 0. -1.
</event>
<event>
 5   0  0.2038338E-05  0.1802640E+04  0.7818609E-02  0.8704897E-01
       -1   -1    0    0    0  501  0.00000000000E+00  0.00000000000E+00  0.14052183706E+04  0.14052183706E+04  0.50400001928E-02 0. -1.
        1   -1    0    0  501    0  0.00000000000E+00  0.00000000000E+00 -0.57811517893E+03  0.57811517895E+03  0.50400001928E-02 0.  1.
    10030    2    1    2    0    0  0.00000000000E+00  0.00000000000E+00  0.82710319168E+03  0.19833335496E+04  0.18026403632E+04 0.  0.
        1    1    3    3  502    0  0.64184810651E+03 -0.80252629504E+02 -0.27703392439E+03  0.70367412320E+03  0.50400001928E-02 0.  1.
       -1    1    3    3    0  502 -0.64184810651E+03  0.80252629504E+02  0.11041371161E+04  0.12796594264E+04  0.50400001928E-02 0. -1.
</event>
<event>
 5   0  0.3983176E-05  0.1795103E+04  0.7818609E-02  0.8708908E-01
        2   -1    0    0  501    0  0.00000000000E+00  0.00000000000E+00  0.19052657330E+04  0.19052657330E+04  0.25500000920E-02 0. -1.
       -2   -1    0    0    0  501  0.00000000000E+00  0.00000000000E+00 -0.42282762571E+03  0.42282762571E+03  0.25500000920E-02 0.  1.
    10030    2    1    2    0    0  0.00000000000E+00  0.00000000000E+00  0.14824381073E+04  0.23280933587E+04  0.17951033243E+04 0.  0.
        3    1    3    3  502    0  0.77839642454E+03 -0.31183098467E+03  0.11563516980E+04  0.14283867881E+04  0.10100000352E+00 0. -1.
       -3    1    3    3    0  502 -0.77839642454E+03  0.31183098467E+03  0.32608640935E+03  0.89970657066E+03  0.10100000352E+00 0.  1.
</event>
<event>
 5   0  0.2038338E-05  0.1793689E+04  0.7818609E-02  0.8709663E-01
        1   -1    0    0  501    0  0.00000000000E+00  0.00000000000E+00  0.10981581485E+04  0.10981581486E+04  0.50400001928E-02 0.  1.
       -1   -1    0    0    0  501  0.00000000000E+00  0.00000000000E+00 -0.73243522541E+03  0.73243522543E+03  0.50400001928E-02 0. -1.
    10030    2    1    2    0    0  0.00000000000E+00  0.00000000000E+00  0.36572292313E+03  0.18305933740E+04  0.17936886141E+04 0.  0.
        1    1    3    3  502    0 -0.63307943444E+03 -0.32906806677E+03  0.73741436800E+03  0.10260873808E+04  0.50400001928E-02 0.  1.
       -1    1    3    3    0  502  0.63307943444E+03  0.32906806677E+03 -0.37169144486E+03  0.80450599319E+03  0.50400001928E-02 0. -1.
</event>
<event>
 5   0  0.2038338E-05  0.1777383E+04  0.7818609E-02  0.8718420E-01
        1   -1    0    0  501    0  0.00000000000E+00  0.00000000000E+00  0.89673778369E+03  0.89673778371E+03  0.50400001928E-02 0.  1.
       -1   -1    0    0    0  501  0.00000000000E+00  0.00000000000E+00 -0.88071746838E+03  0.88071746839E+03  0.50400001928E-02 0. -1.
    10030    2    1    2    0    0  0.00000000000E+00  0.00000000000E+00  0.16020315314E+02  0.17774552521E+04  0.17773830546E+04 0.  0.
        1    1    3    3  502    0  0.46638464197E+03 -0.16868692197E+03 -0.72944960281E+03  0.88208085512E+03  0.50400001928E-02 0. -1.
       -1    1    3    3    0  502 -0.46638464197E+03  0.16868692197E+03  0.74546991812E+03  0.89537439698E+03  0.50400001928E-02 0.  1.
</event>
<event>
 5   0  0.3984648E-05  0.1789689E+04  0.7818609E-02  0.8711802E-01
        2   -1    0    0  501    0  0.00000000000E+00  0.00000000000E+00  0.23875553853E+04  0.23875553853E+04  0.25500000920E-02 0. -1.
       -2   -1    0    0    0  501  0.00000000000E+00  0.00000000000E+00 -0.33538363429E+03  0.33538363430E+03  0.25500000920E-02 0.  1.
    10030    2    1    2    0    0  0.00000000000E+00  0.00000000000E+00  0.20521717510E+04  0.27229390196E+04  0.17896893610E+04 0.  0.
        1    1    3    3  502    0 -0.29738563305E+03 -0.52081111448E+03  0.15643977993E+02  0.59993930175E+03  0.50400001928E-02 0.  1.
       -1    1    3    3    0  502  0.29738563305E+03  0.52081111448E+03  0.20365277730E+04  0.21229997178E+04  0.50400001928E-02 0. -1.
</event>
<event>
 5   0  0.2038338E-05  0.1799936E+04  0.7818609E-02  0.8706334E-01
       -1   -1    0    0    0  501  0.00000000000E+00  0.00000000000E+00  0.97615304307E+03  0.97615304309E+03  0.50400001928E-02 0.  1.
        1   -1    0    0  501    0  0.00000000000E+00  0.00000000000E+00 -0.82972873764E+03  0.82972873766E+03  0.50400001928E-02 0. -1.
    10030    2    1    2    0    0  0.00000000000E+00  0.00000000000E+00  0.14642430543E+03  0.18058817807E+04  0.17999358124E+04 0.  0.
        1    1    3    3  502    0  0.60049640702E+03 -0.35077791252E+03  0.64632692533E+03  0.94941011854E+03  0.50400001928E-02 0.  1.
       -1    1    3    3    0  502 -0.60049640702E+03  0.35077791252E+03 -0.49990261990E+03  0.85647166221E+03  0.50400001928E-02 0. -1.
</event>
<event>
 5   0  0.2038338E-05  0.1799790E+04  0.7818609E-02  0.8706411E-01
       -1   -1    0    0    0  501  0.00000000000E+00  0.00000000000E+00  0.12464282239E+04  0.12464282239E+04  0.50400001928E-02 0.  1.
        1   -1    0    0  501    0  0.00000000000E+00  0.00000000000E+00 -0.64970524529E+03  0.64970524531E+03  0.50400001928E-02 0. -1.
    10030    2    1    2    0    0  0.00000000000E+00  0.00000000000E+00  0.59672297856E+03  0.18961334692E+04  0.17997899377E+04 0.  0.
        1    1    3    3  502    0 -0.40633924360E+03 -0.27099767885E+03 -0.49791492598E+03  0.69747444138E+03  0.50400001928E-02 0. -1.
       -1    1    3    3    0  502  0.40633924360E+03  0.27099767885E+03  0.10946379045E+04  0.11986590278E+04  0.50400001928E-02 0.  1.
</event>
<event>
 5   0  0.3983176E-05  0.1800709E+04  0.7818609E-02  0.8705922E-01
       -2   -1    0    0    0  501  0.00000000000E+00  0.00000000000E+00  0.62289879017E+03  0.62289879018E+03  0.25500000920E-02 0. -1.
        2   -1    0    0  501    0  0.00000000000E+00  0.00000000000E+00 -0.13013967096E+04  0.13013967096E+04  0.25500000920E-02 0.  1.
    10030    2    1    2    0    0  0.00000000000E+00  0.00000000000E+00 -0.67849791940E+03  0.19242954997E+04  0.18007092335E+04 0.  0.
        3    1    3    3  502    0  0.17431217998E+02  0.26911321151E+03  0.57872561516E+03  0.63847405257E+03  0.10100000352E+00 0. -1.
       -3    1    3    3    0  502 -0.17431217998E+02 -0.26911321151E+03 -0.12572235346E+04  0.12858214472E+04  0.10100000352E+00 0.  1.
</event>
<event>
 5   0  0.3993393E-05  0.1797433E+04  0.7818609E-02  0.8707666E-01
       -2   -1    0    0    0  501  0.00000000000E+00  0.00000000000E+00  0.95754761458E+03  0.95754761458E+03  0.25500000920E-02 0.  1.
        2   -1    0    0  501    0  0.00000000000E+00  0.00000000000E+00 -0.84349991015E+03  0.84349991015E+03  0.25500000920E-02 0. -1.
    10030    2    1    2    0    0  0.00000000000E+00  0.00000000000E+00  0.11404770443E+03  0.18010475247E+04  0.17974329772E+04 0.  0.
        5    1    3    3  502    0  0.35899776176E+03  0.72816851874E+03  0.44323434953E+03  0.92497976369E+03  0.46999998093E+01 0.  1.
       -5    1    3    3    0  502 -0.35899776176E+03 -0.72816851874E+03 -0.32918664510E+03  0.87606776104E+03  0.46999998093E+01 0. -1.
</event>
<event>
 5   0  0.4015729E-05  0.1795951E+04  0.7818609E-02  0.8708456E-01
       -2   -1    0    0    0  501  0.00000000000E+00  0.00000000000E+00  0.99179152607E+03  0.99179152607E+03  0.25500000920E-02 0.  1.
        2   -1    0    0  501    0  0.00000000000E+00  0.00000000000E+00 -0.81303356903E+03  0.81303356903E+03  0.25500000920E-02 0. -1.
    10030    2    1    2    0    0  0.00000000000E+00  0.00000000000E+00  0.17875795705E+03  0.18048250951E+04  0.17959507835E+04 0.  0.
        2    1    3    3  502    0 -0.24236006383E+02 -0.39329968135E+03 -0.72150825384E+03  0.82209864598E+03  0.25500000920E-02 0. -1.
       -2    1    3    3    0  502  0.24236006383E+02  0.39329968135E+03  0.90026621088E+03  0.98272644913E+03  0.25500000920E-02 0.  1.
</event>
<event>
 5   0  0.4015729E-05  0.1800766E+04  0.7818609E-02  0.8705892E-01
       -2   -1    0    0    0  501  0.00000000000E+00  0.00000000000E+00  0.40565729072E+03  0.40565729072E+03  0.25500000920E-02 0.  1.
        2   -1    0    0  501    0  0.00000000000E+00  0.00000000000E+00 -0.19984587252E+04  0.19984587252E+04  0.25500000920E-02 0. -1.
    10030    2    1    2    0    0  0.00000000000E+00  0.00000000000E+00 -0.15928014345E+04  0.24041160159E+04  0.18007657839E+04 0.  0.
        2    1    3    3  502    0  0.62328139119E+02 -0.81375233259E+03 -0.13040922284E+04  0.15384193823E+04  0.25500000920E-02 0.  1.
       -2    1    3    3    0  502 -0.62328139119E+02  0.81375233259E+03 -0.28870920605E+03  0.86569663357E+03  0.25500000920E-02 0. -1.
</event>
<event>
 5   0  0.3983176E-05  0.1800527E+04  0.7818609E-02  0.8706019E-01
       -2   -1    0    0    0  501  0.00000000000E+00  0.00000000000E+00  0.74507793792E+03  0.74507793792E+03  0.25500000920E-02 0.  1.
        2   -1    0    0  501    0  0.00000000000E+00  0.00000000000E+00 -0.10877717392E+04  0.10877717392E+04  0.25500000920E-02 0. -1.
    10030    2    1    2    0    0  0.00000000000E+00  0.00000000000E+00 -0.34269380132E+03  0.18328496772E+04  0.18005273943E+04 0.  0.
        3    1    3    3  502    0  0.82977465566E+03  0.15525007933E+03  0.14707210388E+03  0.85688901279E+03  0.10100000352E+00 0.  1.
       -3    1    3    3    0  502 -0.82977465566E+03 -0.15525007933E+03 -0.48976590520E+03  0.97596066437E+03  0.10100000352E+00 0. -1.
</event>
<event>
 5   0  0.2001811E-05  0.1793341E+04  0.7818609E-02  0.8709849E-01
       -1   -1    0    0    0  501  0.00000000000E+00  0.00000000000E+00  0.13023972694E+04  0.13023972694E+04  0.50400001928E-02 0.  1.
        1   -1    0    0  501    0  0.00000000000E+00  0.00000000000E+00 -0.61733704059E+03  0.61733704061E+03  0.50400001928E-02 0. -1.
    10030    2    1    2    0    0  0.00000000000E+00  0.00000000000E+00  0.68506022884E+03  0.19197343101E+04  0.17933411009E+04 0.  0.
        2    1    3    3  502    0  0.52050881476E+02 -0.84931232750E+03  0.64526448822E+03  0.10678983958E+04  0.25500000920E-02 0. -1.
       -2    1    3    3    0  502 -0.52050881476E+02  0.84931232750E+03  0.39795740628E+02  0.85183591430E+03  0.25500000920E-02 0.  1.
</event>
<event>
 5   0  0.3984648E-05  0.1805798E+04  0.7818609E-02  0.8703222E-01
       -2   -1    0    0    0  501  0.00000000000E+00  0.00000000000E+00  0.77315570838E+03  0.77315570839E+03  0.25500000920E-02 0. -1.
        2   -1    0    0  501    0  0.00000000000E+00  0.00000000000E+00 -0.10544150146E+04  0.10544150146E+04  0.25500000920E-02 0.  1.
    10030    2    1    2    0    0  0.00000000000E+00  0.00000000000E+00 -0.28125930622E+03  0.18275707230E+04  0.18057984246E+04 0.  0.
        1    1    3    3  502    0 -0.67240582066E+03 -0.58430280229E+03  0.84131538732E+01  0.89084798569E+03  0.50400001928E-02 0. -1.
       -1    1    3    3    0  502  0.67240582066E+03  0.58430280229E+03 -0.28967246009E+03  0.93672273730E+03  0.50400001928E-02 0.  1.
</event>
<event>
 5   0  0.1960300E-05  0.1802554E+04  0.7818609E-02  0.8704943E-01
        1   -1    0    0  501    0  0.00000000000E+00  0.00000000000E+00  0.19045020206E+04  0.19045020206E+04  0.50400001928E-02 0.  1.
       -1   -1    0    0    0  501  0.00000000000E+00  0.00000000000E+00 -0.42651571772E+03  0.42651571775E+03  0.50400001928E-02 0. -1.
    10030    2    1    2    0    0  0.00000000000E+00  0.00000000000E+00  0.14779863029E+04  0.23310177384E+04  0.18025537953E+04 0.  0.
        3    1    3    3  502    0 -0.35344503221E+03 -0.77688937627E+03  0.11133881050E+04  0.14028947132E+04  0.10100000352E+00 0. -1.
       -3    1    3    3    0  502  0.35344503221E+03  0.77688937627E+03  0.36459819787E+03  0.92812302517E+03  0.10100000352E+00 0.  1.
</event>
<event>
 5   0  0.1960300E-05  0.1818800E+04  0.7818609E-02  0.8696365E-01
       -1   -1    0    0    0  501  0.00000000000E+00  0.00000000000E+00  0.50202976423E+03  0.50202976425E+03  0.50400001928E-02 0.  1.
        1   -1    0    0  501    0  0.00000000000E+00  0.00000000000E+00 -0.16473293192E+04  0.16473293192E+04  0.50400001928E-02 0. -1.
    10030    2    1    2    0    0  0.00000000000E+00  0.00000000000E+00 -0.11452995550E+04  0.21493590835E+04  0.18187999888E+04 0.  0.
        3    1    3    3  502    0  0.58979835534E+03 -0.45606933431E+03 -0.11880057749E+04  0.14025758693E+04  0.10100000352E+00 0. -1.
       -3    1    3    3    0  502 -0.58979835534E+03  0.45606933431E+03  0.42706219868E+02  0.74678321424E+03  0.10100000352E+00 0.  1.
</event>
<event>
 5   0  0.1906857E-05  0.1799084E+04  0.7818609E-02  0.8706787E-01
        1   -1    0    0  501    0  0.00000000000E+00  0.00000000000E+00  0.10221006925E+04  0.10221006925E+04  0.50400001928E-02 0.  1.
       -1   -1    0    0    0  501  0.00000000000E+00  0.00000000000E+00 -0.79167953874E+03  0.79167953875E+03  0.50400001928E-02 0. -1.
    10030    2    1    2    0    0  0.00000000000E+00  0.00000000000E+00  0.23042115373E+03  0.18137802312E+04  0.17990844391E+04 0.  0.
        4    1    3    3  502    0  0.40514129309E+03  0.27851944018E+02 -0.69400362606E+03  0.80408820663E+03  0.12699999809E+01 0. -1.
       -4    1    3    3    0  502 -0.40514129309E+03 -0.27851944018E+02  0.92442477980E+03  0.10096920246E+04  0.12699999809E+01 0.  1.
</event>
<event>
 5   0  0.3909859E-05  0.1800463E+04  0.7818609E-02  0.8706053E-01
        2   -1    0    0  501    0  0.00000000000E+00  0.00000000000E+00  0.17310350232E+04  0.17310350232E+04  0.25500000920E-02 0.  1.
       -2   -1    0    0    0  501  0.00000000000E+00  0.00000000000E+00 -0.46816885889E+03  0.46816885890E+03  0.25500000920E-02 0. -1.
    10030    2    1    2    0    0  0.00000000000E+00  0.00000000000E+00  0.12628661643E+04  0.21992038821E+04  0.18004629311E+04 0.  0.
        4    1    3    3  502    0  0.51411938091E+03 -0.66146769680E+03  0.10338811803E+04  0.13307028818E+04  0.12699999809E+01 0.  1.
       -4    1    3    3    0  502 -0.51411938091E+03  0.66146769680E+03  0.22898498401E+03  0.86850100031E+03  0.12699999809E+01 0. -1.
</event>
<event>
 5   0  0.1960300E-05  0.1799555E+04  0.7818609E-02  0.8706536E-01
       -1   -1    0    0    0  501  0.00000000000E+00  0.00000000000E+00  0.12396296073E+04  0.12396296073E+04  0.50400001928E-02 0.  1.
        1   -1    0    0  501    0  0.00000000000E+00  0.00000000000E+00 -0.65309827375E+03  0.65309827377E+03  0.50400001928E-02 0. -1.
    10030    2    1    2    0    0  0.00000000000E+00  0.00000000000E+00  0.58653133353E+03  0.18927278811E+04  0.17995554525E+04 0.  0.
        3    1    3    3  502    0  0.51398728091E+03  0.19996116794E+02 -0.48321034035E+03  0.70574429707E+03  0.10100000352E+00 0. -1.
       -3    1    3    3    0  502 -0.51398728091E+03 -0.19996116794E+02  0.10697416739E+04  0.11869835840E+04  0.10100000352E+00 0.  1.
</event>
<event>
 5   0  0.3993393E-05  0.1798090E+04  0.7818609E-02  0.8707316E-01
       -2   -1    0    0    0  501  0.00000000000E+00  0.00000000000E+00  0.42805840467E+03  0.42805840468E+03  0.25500000920E-02 0. -1.
        2   -1    0    0  501    0  0.00000000000E+00  0.00000000000E+00 -0.18882506920E+04  0.18882506920E+04  0.25500000920E-02 0.  1.
    10030    2    1    2    0    0  0.00000000000E+00  0.00000000000E+00 -0.14601922873E+04  0.23163090966E+04  0.17980896294E+04 0.  0.
        5    1    3    3  502    0 -0.20663239824E+03  0.81509868945E+03 -0.32034010604E+03  0.89984592852E+03  0.46999998093E+01 0. -1.
       -5    1    3    3    0  502  0.20663239824E+03 -0.81509868945E+03 -0.11398521812E+04  0.14164631681E+04  0.46999998093E+01 0.  1.
</event>
<event>
 5   0  0.1960300E-05  0.1805310E+04  0.7818609E-02  0.8703481E-01
       -1   -1    0    0    0  501  0.00000000000E+00  0.00000000000E+00  0.66094718142E+03  0.66094718144E+03  0.50400001928E-02 0.  1.
        1   -1    0    0  501    0  0.00000000000E+00  0.00000000000E+00 -0.12327547975E+04  0.12327547975E+04  0.50400001928E-02 0. -1.
    10030    2    1    2    0    0  0.00000000000E+00  0.00000000000E+00 -0.57180761611E+03  0.18937019790E+04  0.18053097339E+04 0.  0.
        3    1    3    3  502    0 -0.39477165014E+03 -0.30085127704E+03  0.50495375391E+03  0.70804975138E+03  0.10100000352E+00 0.  1.
       -3    1    3    3    0  502  0.39477165014E+03  0.30085127704E+03 -0.10767613700E+04  0.11856522276E+04  0.10100000352E+00 0. -1.
</event>
<event>
 5   0  0.3984648E-05  0.1800490E+04  0.7818609E-02  0.8706039E-01
       -2   -1    0    0    0  501  0.00000000000E+00  0.00000000000E+00  0.11213630917E+04  0.11213630917E+04  0.25500000920E-02 0.  1.
        2   -1    0    0  501    0  0.00000000000E+00  0.00000000000E+00 -0.72272835066E+03  0.72272835067E+03  0.25500000920E-02 0. -1.
    10030    2    1    2    0    0  0.00000000000E+00  0.00000000000E+00  0.39863474108E+03  0.18440914424E+04  0.18004898198E+04 0.  0.
        1    1    3    3  502    0  0.30897929482E+03 -0.67903788113E+03 -0.31674980927E+03  0.81048818025E+03  0.50400001928E-02 0. -1.
       -1    1    3    3    0  502 -0.30897929482E+03  0.67903788113E+03  0.71538455035E+03  0.10336032622E+04  0.50400001928E-02 0.  1.
</event>
<event>
 5   0  0.1960300E-05  0.1803870E+04  0.7818609E-02  0.8704244E-01
        1   -1    0    0  501    0  0.00000000000E+00  0.00000000000E+00  0.12678978379E+04  0.12678978379E+04  0.50400001928E-02 0.  1.
       -1   -1    0    0    0  501  0.00000000000E+00  0.00000000000E+00 -0.64160244805E+03  0.64160244807E+03  0.50400001928E-02 0. -1.
    10030    2    1    2    0    0  0.00000000000E+00  0.00000000000E+00  0.62629538981E+03  0.19095002859E+04  0.18038695703E+04 0.  0.
        3    1    3    3  502    0 -0.17900742001E+03 -0.42227263793E+03 -0.50894260546E+03  0.68511343806E+03  0.10100000352E+00 0. -1.
       -3    1    3    3    0  502  0.17900742001E+03  0.42227263793E+03  0.11352379953E+04  0.12243868479E+04  0.10100000352E+00 0.  1.
</event>
<event>
 5   0  0.3993393E-05  0.1797328E+04  0.7818609E-02  0.8707722E-01
        2   -1    0    0  501    0  0.00000000000E+00  0.00000000000E+00  0.12945596997E+04  0.12945596997E+04  0.25500000920E-02 0. -1.
       -2   -1    0    0    0  501  0.00000000000E+00  0.00000000000E+00 -0.62383888511E+03  0.62383888511E+03  0.25500000920E-02 0.  1.
    10030    2    1    2    0    0  0.00000000000E+00  0.00000000000E+00  0.67072081458E+03  0.19183985848E+04  0.17973276605E+04 0.  0.
        5    1    3    3  502    0 -0.50218625475E+03 -0.35251788748E+02  0.11299112217E+04  0.12369944147E+04  0.46999998093E+01 0. -1.
       -5    1    3    3    0  502  0.50218625475E+03  0.35251788748E+02 -0.45919040710E+03  0.68140417011E+03  0.46999998093E+01 0.  1.
</event>
<event>
 5   0  0.3983176E-05  0.1799441E+04  0.7818609E-02  0.8706597E-01
        2   -1    0    0  501    0  0.00000000000E+00  0.00000000000E+00  0.16797894100E+04  0.16797894100E+04  0.25500000920E-02 0.  1.
       -2   -1    0    0    0  501  0.00000000000E+00  0.00000000000E+00 -0.48190383951E+03  0.48190383951E+03  0.25500000920E-02 0. -1.
    10030    2    1    2    0    0  0.00000000000E+00  0.00000000000E+00  0.11978855705E+04  0.21616932495E+04  0.17994409868E+04 0.  0.
        3    1    3    3  502    0  0.18787209427E+03  0.75146820634E+03  0.49091919277E+02  0.77615102634E+03  0.10100000352E+00 0. -1.
       -3    1    3    3    0  502 -0.18787209427E+03 -0.75146820634E+03  0.11487936512E+04  0.13855422232E+04  0.10100000352E+00 0.  1.
</event>
<event>
 5   0  0.3983176E-05  0.1797805E+04  0.7818609E-02  0.8707468E-01
        2   -1    0    0  501    0  0.00000000000E+00  0.00000000000E+00  0.42608891600E+03  0.42608891601E+03  0.25500000920E-02 0.  1.
       -2   -1    0    0    0  501  0.00000000000E+00  0.00000000000E+00 -0.18963779940E+04  0.18963779940E+04  0.25500000920E-02 0. -1.
    10030    2    1    2    0    0  0.00000000000E+00  0.00000000000E+00 -0.14702890780E+04  0.23224669100E+04  0.17978049324E+04 0.  0.
        3    1    3    3  502    0  0.42053478988E+03  0.12528218601E+03  0.27833297066E+03  0.51962908732E+03  0.10100000352E+00 0.  1.
       -3    1    3    3    0  502 -0.42053478988E+03 -0.12528218601E+03 -0.17486220486E+04  0.18028378226E+04  0.10100000352E+00 0. -1.
</event>
<event>
 5   0  0.2038338E-05  0.1800007E+04  0.7818609E-02  0.8706296E-01
       -1   -1    0    0    0  501  0.00000000000E+00  0.00000000000E+00  0.44911611784E+03  0.44911611787E+03  0.50400001928E-02 0. -1.
        1   -1    0    0  501    0  0.00000000000E+00  0.00000000000E+00 -0.18035562217E+04  0.18035562217E+04  0.50400001928E-02 0.  1.
    10030    2    1    2    0    0  0.00000000000E+00  0.00000000000E+00 -0.13544401038E+04  0.22526723396E+04  0.18000068540E+04 0.  0.
        1    1    3    3  502    0  0.37435127098E+03 -0.46798709724E+03  0.16309567497E+03  0.62108855769E+03  0.50400001928E-02 0. -1.
       -1    1    3    3    0  502 -0.37435127098E+03  0.46798709724E+03 -0.15175357788E+04  0.16315837819E+04  0.50400001928E-02 0.  1.
</event>
<event>
 5   0  0.1906857E-05  0.1801617E+04  0.7818609E-02  0.8705440E-01
       -1   -1    0    0    0  501  0.00000000000E+00  0.00000000000E+00  0.49583917520E+03  0.49583917522E+03  0.50400001928E-02 0.  1.
        1   -1    0    0  501    0  0.00000000000E+00  0.00000000000E+00 -0.16365309241E+04  0.16365309241E+04  0.50400001928E-02 0. -1.
    10030    2    1    2    0    0  0.00000000000E+00  0.00000000000E+00 -0.11406917489E+04  0.21323700994E+04  0.18016172109E+04 0.  0.
        4    1    3    3  502    0 -0.46759512611E+03 -0.72271429792E+03 -0.25609665636E+03  0.89808032418E+03  0.12699999809E+01 0.  1.
       -4    1    3    3    0  502  0.46759512611E+03  0.72271429792E+03 -0.88459509257E+03  0.12342897752E+04  0.12699999809E+01 0. -1.
</event>
<event>
 5   0  0.2038338E-05  0.1793074E+04  0.7818609E-02  0.8709992E-01
       -1   -1    0    0    0  501  0.00000000000E+00  0.00000000000E+00  0.10135537618E+04  0.10135537618E+04  0.50400001928E-02 0. -1.
        1   -1    0    0  501    0  0.00000000000E+00  0.00000000000E+00 -0.79302975025E+03  0.79302975026E+03  0.50400001928E-02 0.  1.
    10030    2    1    2    0    0  0.00000000000E+00  0.00000000000E+00  0.22052401152E+03  0.18065835120E+04  0.17930736589E+04 0.  0.
        1    1    3    3  502    0  0.17791930235E+03  0.80868959262E+03 -0.23604878571E+03  0.86101867844E+03  0.50400001928E-02 0.  1.
       -1    1    3    3    0  502 -0.17791930235E+03 -0.80868959262E+03  0.45657279724E+03  0.94556483361E+03  0.50400001928E-02 0. -1.
</event>
<event>
 5   0  0.1446750E-05  0.1824055E+04  0.7818609E-02  0.8693611E-01
       -3   -1    0    0    0  501  0.00000000000E+00  0.00000000000E+00  0.98467798893E+03  0.98467799411E+03  0.10100000352E+00 0.  1.
        3   -1    0    0  501    0  0.00000000000E+00  0.00000000000E+00 -0.84473760734E+03  0.84473761338E+03  0.10100000352E+00 0. -1.
    10030    2    1    2    0    0  0.00000000000E+00  0.00000000000E+00  0.13994038159E+03  0.18294156075E+04  0.18240554143E+04 0.  0.
        2    1    3    3  502    0  0.26455252436E+03 -0.67889252546E+03  0.62013613164E+03  0.95679251724E+03  0.25500000920E-02 0.  1.
       -2    1    3    3    0  502 -0.26455252436E+03  0.67889252546E+03 -0.48019575005E+03  0.87262309025E+03  0.25500000920E-02 0. -1.
</event>
<event>
 5   0  0.1960300E-05  0.1800537E+04  0.7818609E-02  0.8706014E-01
        1   -1    0    0  501    0  0.00000000000E+00  0.00000000000E+00  0.18770571162E+04  0.18770571162E+04  0.50400001928E-02 0. -1.
       -1   -1    0    0    0  501  0.00000000000E+00  0.00000000000E+00 -0.43178429400E+03  0.43178429403E+03  0.50400001928E-02 0.  1.
    10030    2    1    2    0    0  0.00000000000E+00  0.00000000000E+00  0.14452728222E+04  0.23088414102E+04  0.18005374550E+04 0.  0.
        3    1    3    3  502    0  0.23523227040E+03 -0.35194332037E+03  0.17414737030E+04  0.17921855346E+04  0.10100000352E+00 0. -1.
       -3    1    3    3    0  502 -0.23523227040E+03  0.35194332037E+03 -0.29620088086E+03  0.51665587563E+03  0.10100000352E+00 0.  1.
</event>
<event>
 5   0  0.1906857E-05  0.1802059E+04  0.7818609E-02  0.8705205E-01
        1   -1    0    0  501    0  0.00000000000E+00  0.00000000000E+00  0.49610275837E+03  0.49610275839E+03  0.50400001928E-02 0. -1.
       -1   -1    0    0    0  501  0.00000000000E+00  0.00000000000E+00 -0.16364630527E+04  0.16364630527E+04  0.50400001928E-02 0.  1.
    10030    2    1    2    0    0  0.00000000000E+00  0.00000000000E+00 -0.11403602943E+04  0.21325658111E+04  0.18020586388E+04 0.  0.
        4    1    3    3  502    0  0.36737784256E+03  0.21013741345E+03  0.37115018667E+03  0.56291943092E+03  0.12699999809E+01 0. -1.
       -4    1    3    3    0  502 -0.36737784256E+03 -0.21013741345E+03 -0.15115104810E+04  0.15696463802E+04  0.12699999809E+01 0.  1.
</event>
<event>
 5   0  0.2001811E-05  0.1797836E+04  0.7818609E-02  0.8707451E-01
        1   -1    0    0  501    0  0.00000000000E+00  0.00000000000E+00  0.83963117276E+03  0.83963117278E+03  0.50400001928E-02 0.  1.
       -1   -1    0    0    0  501  0.00000000000E+00  0.00000000000E+00 -0.96239159642E+03  0.96239159644E+03  0.50400001928E-02 0. -1.
    10030    2    1    2    0    0  0.00000000000E+00  0.00000000000E+00 -0.12276042366E+03  0.18020227692E+04  0.17978364606E+04 0.  0.
        2    1    3    3  502    0  0.14192452861E+03 -0.70100716922E+03  0.48440618117E+03  0.86383040667E+03  0.25500000920E-02 0.  1.
       -2    1    3    3    0  502 -0.14192452861E+03  0.70100716922E+03 -0.60716660483E+03  0.93819236255E+03  0.25500000920E-02 0. -1.
</event>
<event>
 5   0  0.4015729E-05  0.1800619E+04  0.7818609E-02  0.8705970E-01
       -2   -1    0    0    0  501  0.00000000000E+00  0.00000000000E+00  0.33240270408E+03  0.33240270409E+03  0.25500000920E-02 0. -1.
        2   -1    0    0  501    0  0.00000000000E+00  0.00000000000E+00 -0.24384793679E+04  0.24384793679E+04  0.25500000920E-02 0.  1.
    10030    2    1    2    0    0  0.00000000000E+00  0.00000000000E+00 -0.21060766638E+04  0.27708820720E+04  0.18006189333E+04 0.  0.
        2    1    3    3  502    0 -0.67954064301E+03  0.55412751077E+03 -0.13673720943E+04  0.16243580973E+04  0.25500000920E-02 0. -1.
       -2    1    3    3    0  502  0.67954064301E+03 -0.55412751077E+03 -0.73870456949E+03  0.11465239748E+04  0.25500000920E-02 0.  1.
</event>
<event>
 5   0  0.2054876E-05  0.1814379E+04  0.7818609E-02  0.8698690E-01
        1   -1    0    0  501    0  0.00000000000E+00  0.00000000000E+00  0.16181098032E+04  0.16181098032E+04  0.50400001928E-02 0. -1.
       -1   -1    0    0    0  501  0.00000000000E+00  0.00000000000E+00 -0.50861380682E+03  0.50861380684E+03  0.50400001928E-02 0.  1.
    10030    2    1    2    0    0  0.00000000000E+00  0.00000000000E+00  0.11094959964E+04  0.21267236100E+04  0.18143792182E+04 0.  0.
        5    1    3    3  502    0 -0.72436018632E+03  0.15144763934E+03 -0.60308687308E+02  0.74249127588E+03  0.46999998093E+01 0.  1.
       -5    1    3    3    0  502  0.72436018632E+03 -0.15144763934E+03  0.11698046837E+04  0.13842323342E+04  0.46999998093E+01 0. -1.
</event>
<event>
 5   0  0.1960300E-05  0.1803884E+04  0.7818609E-02  0.8704237E-01
       -1   -1    0    0    0  501  0.00000000000E+00  0.00000000000E+00  0.61142454185E+03  0.61142454187E+03  0.50400001928E-02 0.  1.
        1   -1    0    0  501    0  0.00000000000E+00  0.00000000000E+00 -0.13304977490E+04  0.13304977490E+04  0.50400001928E-02 0. -1.
    10030    2    1    2    0    0  0.00000000000E+00  0.00000000000E+00 -0.71907320715E+03  0.19419222909E+04  0.18038835624E+04 0.  0.
        3    1    3    3  502    0 -0.52530362320E+03  0.30589381876E+03  0.35777362854E+03  0.70534878208E+03  0.10100000352E+00 0.  1.
       -3    1    3    3    0  502  0.52530362320E+03 -0.30589381876E+03 -0.10768468357E+04  0.12365735088E+04  0.10100000352E+00 0. -1.
</event>
<event>
 5   0  0.4015729E-05  0.1797336E+04  0.7818609E-02  0.8707717E-01
        2   -1    0    0  501    0  0.00000000000E+00  0.00000000000E+00  0.14167752377E+04  0.14167752377E+04  0.25500000920E-02 0.  1.
       -2   -1    0    0    0  501  0.00000000000E+00  0.00000000000E+00 -0.57002982172E+03  0.57002982173E+03  0.25500000920E-02 0. -1.
    10030    2    1    2    0    0  0.00000000000E+00  0.00000000000E+00  0.84674541600E+03  0.19868050595E+04  0.17973359577E+04 0.  0.
        2    1    3    3  502    0 -0.40930287429E+03  0.17361972728E+03  0.12866822081E+04  0.13613316118E+04  0.25500000920E-02 0.  1.
       -2    1    3    3    0  502  0.40930287429E+03 -0.17361972728E+03 -0.43993679214E+03  0.62547344763E+03  0.25500000920E-02 0. -1.
</event>
<event>
 5   0  0.2001811E-05  0.1796274E+04  0.7818609E-02  0.8708283E-01
       -1   -1    0    0    0  501  0.00000000000E+00  0.00000000000E+00  0.94001620234E+03  0.94001620235E+03  0.50400001928E-02 0. -1.
        1   -1    0    0  501    0  0.00000000000E+00  0.00000000000E+00 -0.85812359982E+03  0.85812359984E+03  0.50400001928E-02 0.  1.
    10030    2    1    2    0    0  0.00000000000E+00  0.00000000000E+00  0.81892602518E+02  0.17981398022E+04  0.17962740186E+04 0.  0.
        2    1    3    3  502    0  0.10128079851E+03  0.34780236432E+03  0.86364287733E+03  0.93653793535E+03  0.25500000920E-02 0. -1.
       -2    1    3    3    0  502 -0.10128079851E+03 -0.34780236432E+03 -0.78175027481E+03  0.86160186684E+03  0.25500000920E-02 0.  1.
</event>
<event>
 5   0  0.2054876E-05  0.1798528E+04  0.7818609E-02  0.8707083E-01
        1   -1    0    0  501    0  0.00000000000E+00  0.00000000000E+00  0.20393600307E+04  0.20393600307E+04  0.50400001928E-02 0. -1.
       -1   -1    0    0    0  501  0.00000000000E+00  0.00000000000E+00 -0.39653406442E+03  0.39653406446E+03  0.50400001928E-02 0.  1.
    10030    2    1    2    0    0  0.00000000000E+00  0.00000000000E+00  0.16428259663E+04  0.24358940952E+04  0.17985279779E+04 0.  0.
        5    1    3    3  502    0 -0.63258143007E+03 -0.11027887294E+03 -0.31237980064E+02  0.64289858989E+03  0.46999998093E+01 0.  1.
       -5    1    3    3    0  502  0.63258143007E+03  0.11027887294E+03  0.16740639464E+04  0.17929955053E+04  0.46999998093E+01 0. -1.
</event>
<event>
 5   0  0.3984648E-05  0.1813668E+04  0.7818609E-02  0.8699065E-01
       -2   -1    0    0    0  501  0.00000000000E+00  0.00000000000E+00  0.14639243671E+04  0.14639243671E+04  0.25500000920E-02 0.  1.
        2   -1    0    0  501    0  0.00000000000E+00  0.00000000000E+00 -0.56174187719E+03  0.56174187720E+03  0.25500000920E-02 0. -1.
    10030    2    1    2    0    0  0.00000000000E+00  0.00000000000E+00  0.90218248990E+03  0.20256662443E+04  0.18136676896E+04 0.  0.
        1    1    3    3  502    0  0.80307317067E+03  0.38128306882E+03  0.25115766349E+03  0.92378756647E+03  0.50400001928E-02 0. -1.
       -1    1    3    3    0  502 -0.80307317067E+03 -0.38128306882E+03  0.65102482641E+03  0.11018786778E+04  0.50400001928E-02 0.  1.
</event>
<event>
 5   0  0.4015729E-05  0.1801694E+04  0.7818609E-02  0.8705399E-01
        2   -1    0    0  501    0  0.00000000000E+00  0.00000000000E+00  0.23027524746E+04  0.23027524746E+04  0.25500000920E-02 0.  1.
       -2   -1    0    0    0  501  0.00000000000E+00  0.00000000000E+00 -0.35241548687E+03  0.35241548688E+03  0.25500000920E-02 0. -1.
    10030    2    1    2    0    0  0.00000000000E+00  0.00000000000E+00  0.19503369877E+04  0.26551679615E+04  0.18016943520E+04 0.  0.
        2    1    3    3  502    0  0.54423731380E+03  0.68220205885E+03  0.13044741543E+04  0.15694733901E+04  0.25500000920E-02 0.  1.
       -2    1    3    3    0  502 -0.54423731380E+03 -0.68220205885E+03  0.64586283340E+03  0.10856945714E+04  0.25500000920E-02 0. -1.
</event>
<event>
 5   0  0.3909859E-05  0.1801004E+04  0.7818609E-02  0.8705766E-01
       -2   -1    0    0    0  501  0.00000000000E+00  0.00000000000E+00  0.60921220404E+03  0.60921220405E+03  0.25500000920E-02 0.  1.
        2   -1    0    0  501    0  0.00000000000E+00  0.00000000000E+00 -0.13310698582E+04  0.13310698582E+04  0.25500000920E-02 0. -1.
    10030    2    1    2    0    0  0.00000000000E+00  0.00000000000E+00 -0.72185765412E+03  0.19402820622E+04  0.18010041666E+04 0.  0.
        4    1    3    3  502    0 -0.62024484888E+03  0.65075670736E+03 -0.30479960457E+03  0.94925885647E+03  0.12699999809E+01 0.  1.
       -4    1    3    3    0  502  0.62024484888E+03 -0.65075670736E+03 -0.41705804955E+03  0.99102320574E+03  0.12699999809E+01 0. -1.
</event>
<event>
 5   0  0.3993393E-05  0.1800676E+04  0.7818609E-02  0.8705940E-01
       -2   -1    0    0    0  501  0.00000000000E+00  0.00000000000E+00  0.95296446186E+03  0.95296446186E+03  0.25500000920E-02 0.  1.
        2   -1    0    0  501    0  0.00000000000E+00  0.00000000000E+00 -0.85061795530E+03  0.85061795530E+03  0.25500000920E-02 0. -1.
    10030    2    1    2    0    0  0.00000000000E+00  0.00000000000E+00  0.10234650656E+03  0.18035824172E+04  0.18006761864E+04 0.  0.
        5    1    3    3  502    0 -0.70832966826E+03  0.86315194510E+02  0.60106329833E+03  0.93299539674E+03  0.46999998093E+01 0.  1.
       -5    1    3    3    0  502  0.70832966826E+03 -0.86315194510E+02 -0.49871679177E+03  0.87058702042E+03  0.46999998093E+01 0. -1.
</event>
<event>
 5   0  0.3909859E-05  0.1797695E+04  0.7818609E-02  0.8707526E-01
        2   -1    0    0  501    0  0.00000000000E+00  0.00000000000E+00  0.17288580466E+04  0.17288580466E+04  0.25500000920E-02 0.  1.
       -2   -1    0    0    0  501  0.00000000000E+00  0.00000000000E+00 -0.46731825396E+03  0.46731825396E+03  0.25500000920E-02 0. -1.
    10030    2    1    2    0    0  0.00000000000E+00  0.00000000000E+00  0.12615397926E+04  0.21961763005E+04  0.17976951061E+04 0.  0.
        4    1    3    3  502    0 -0.26526752500E+02  0.59372132141E+03  0.14545695130E+04  0.15712997032E+04  0.12699999809E+01 0.  1.
       -4    1    3    3    0  502  0.26526752500E+02 -0.59372132141E+03 -0.19302972039E+03  0.62487659737E+03  0.12699999809E+01 0. -1.
</event>
<event>
 5   0  0.3984648E-05  0.1800326E+04  0.7818609E-02  0.8706126E-01
       -2   -1    0    0    0  501  0.00000000000E+00  0.00000000000E+00  0.45681017903E+03  0.45681017903E+03  0.25500000920E-02 0.  1.
        2   -1    0    0  501    0  0.00000000000E+00  0.00000000000E+00 -0.17738076519E+04  0.17738076519E+04  0.25500000920E-02 0. -1.
    10030    2    1    2    0    0  0.00000000000E+00  0.00000000000E+00 -0.13169974729E+04  0.22306178310E+04  0.18003259605E+04 0.  0.
        1    1    3    3  502    0  0.45305885542E+02  0.34999732226E+03 -0.16845158477E+04  0.17210881413E+04  0.50400001928E-02 0. -1.
       -1    1    3    3    0  502 -0.45305885542E+02 -0.34999732226E+03  0.36751837479E+03  0.50952968970E+03  0.50400001928E-02 0.  1.
</event>
<event>
 5   0  0.2001811E-05  0.1796870E+04  0.7818609E-02  0.8707966E-01
        1   -1    0    0  501    0  0.00000000000E+00  0.00000000000E+00  0.12433752118E+04  0.12433752118E+04  0.50400001928E-02 0.  1.
       -1   -1    0    0    0  501  0.00000000000E+00  0.00000000000E+00 -0.64918926950E+03  0.64918926952E+03  0.50400001928E-02 0. -1.
    10030    2    1    2    0    0  0.00000000000E+00  0.00000000000E+00  0.59418594227E+03  0.18925644813E+04  0.17968704410E+04 0.  0.
        2    1    3    3  502    0  0.19617827726E+03 -0.72806871364E+03 -0.21740490887E+03  0.78475146553E+03  0.25500000920E-02 0. -1.
       -2    1    3    3    0  502 -0.19617827726E+03  0.72806871364E+03  0.81159085114E+03  0.11078130158E+04  0.25500000920E-02 0.  1.
</event>
<event>
 5   0  0.4015729E-05  0.1798501E+04  0.7818609E-02  0.8707097E-01
        2   -1    0    0  501    0  0.00000000000E+00  0.00000000000E+00  0.24168019138E+04  0.24168019138E+04  0.25500000920E-02 0. -1.
       -2   -1    0    0    0  501  0.00000000000E+00  0.00000000000E+00 -0.33459577028E+03  0.33459577029E+03  0.25500000920E-02 0.  1.
    10030    2    1    2    0    0  0.00000000000E+00  0.00000000000E+00  0.20822061436E+04  0.27513976841E+04  0.17985012627E+04 0.  0.
        2    1    3    3  502    0 -0.30068535403E+01  0.89629033477E+03  0.92966381235E+03  0.12913637014E+04  0.25500000920E-02 0. -1.
       -2    1    3    3    0  502  0.30068535403E+01 -0.89629033477E+03  0.11525423312E+04  0.14600339827E+04  0.25500000920E-02 0.  1.
</event>
<event>
 5   0  0.3983176E-05  0.1800668E+04  0.7818609E-02  0.8705944E-01
       -2   -1    0    0    0  501  0.00000000000E+00  0.00000000000E+00  0.12933648698E+04  0.12933648698E+04  0.25500000920E-02 0.  1.
        2   -1    0    0  501    0  0.00000000000E+00  0.00000000000E+00 -0.62673834341E+03  0.62673834341E+03  0.25500000920E-02 0. -1.
    10030    2    1    2    0    0  0.00000000000E+00  0.00000000000E+00  0.66662652635E+03  0.19201032132E+04  0.18006680493E+04 0.  0.
        3    1    3    3  502    0  0.62005111782E+03  0.45807132240E+03 -0.16262524316E+03  0.78787036055E+03  0.10100000352E+00 0. -1.
       -3    1    3    3    0  502 -0.62005111782E+03 -0.45807132240E+03  0.82925176951E+03  0.11322328526E+04  0.10100000352E+00 0.  1.
</event>
<event>
 5   0  0.3993393E-05  0.1803698E+04  0.7818609E-02  0.8704335E-01
        2   -1    0    0  501    0  0.00000000000E+00  0.00000000000E+00  0.12053084091E+04  0.12053084091E+04  0.25500000920E-02 0.  1.
       -2   -1    0    0    0  501  0.00000000000E+00  0.00000000000E+00 -0.67479126016E+03  0.67479126017E+03  0.25500000920E-02 0. -1.
    10030    2    1    2    0    0  0.00000000000E+00  0.00000000000E+00  0.53051714898E+03  0.18800996693E+04  0.18036979573E+04 0.  0.
        5    1    3    3  502    0  0.33257189426E+03 -0.57201693403E+03  0.90399725568E+03  0.11202859304E+04  0.46999998093E+01 0.  1.
       -5    1    3    3    0  502 -0.33257189426E+03  0.57201693403E+03 -0.37348010671E+03  0.75981373887E+03  0.46999998093E+01 0. -1.
</event>
<event>
 5   0  0.3984648E-05  0.1800438E+04  0.7818609E-02  0.8706067E-01
       -2   -1    0    0    0  501  0.00000000000E+00  0.00000000000E+00  0.15322488962E+04  0.15322488962E+04  0.25500000920E-02 0.  1.
        2   -1    0    0  501    0  0.00000000000E+00  0.00000000000E+00 -0.52889211476E+03  0.52889211477E+03  0.25500000920E-02 0. -1.
    10030    2    1    2    0    0  0.00000000000E+00  0.00000000000E+00  0.10033567814E+04  0.20611410110E+04  0.18004381234E+04 0.  0.
        1    1    3    3  502    0 -0.82296783087E+03  0.79690491292E+02  0.94078679245E+02  0.83215228352E+03  0.50400001928E-02 0. -1.
       -1    1    3    3    0  502  0.82296783087E+03 -0.79690491292E+02  0.90927810220E+03  0.12289887275E+04  0.50400001928E-02 0.  1.
</event>
<event>
 5   0  0.2038338E-05  0.1801349E+04  0.7818609E-02  0.8705583E-01
       -1   -1    0    0    0  501  0.00000000000E+00  0.00000000000E+00  0.26110481262E+03  0.26110481267E+03  0.50400001928E-02 0.  1.
        1   -1    0    0  501    0  0.00000000000E+00  0.00000000000E+00 -0.31068531473E+04  0.31068531473E+04  0.50400001928E-02 0. -1.
    10030    2    1    2    0    0  0.00000000000E+00  0.00000000000E+00 -0.28457483346E+04  0.33679579599E+04  0.18013487269E+04 0.  0.
        1    1    3    3  502    0 -0.33032620748E+03 -0.75028235545E+03 -0.72536497330E+03  0.10946201902E+04  0.50400001928E-02 0. -1.
       -1    1    3    3    0  502  0.33032620748E+03  0.75028235545E+03 -0.21203833613E+04  0.22733377697E+04  0.50400001928E-02 0.  1.
</event>
<event>
 5   0  0.4015729E-05  0.1801654E+04  0.7818609E-02  0.8705421E-01
        2   -1    0    0  501    0  0.00000000000E+00  0.00000000000E+00  0.93952419711E+03  0.93952419711E+03  0.25500000920E-02 0.  1.
       -2   -1    0    0    0  501  0.00000000000E+00  0.00000000000E+00 -0.86372334780E+03  0.86372334781E+03  0.25500000920E-02 0. -1.
    10030    2    1    2    0    0  0.00000000000E+00  0.00000000000E+00  0.75800849302E+02  0.18032475449E+04  0.18016536680E+04 0.  0.
        2    1    3    3  502    0 -0.14758811516E+03 -0.49638846161E+03 -0.69984407719E+03  0.87061213461E+03  0.25500000920E-02 0. -1.
       -2    1    3    3    0  502  0.14758811516E+03  0.49638846161E+03  0.77564492649E+03  0.93263541030E+03  0.25500000920E-02 0.  1.
</event>
<event>
 5   0  0.1960300E-05  0.1800085E+04  0.7818609E-02  0.8706254E-01
        1   -1    0    0  501    0  0.00000000000E+00  0.00000000000E+00  0.91403086875E+03  0.91403086876E+03  0.50400001928E-02 0. -1.
       -1   -1    0    0    0  501  0.00000000000E+00  0.00000000000E+00 -0.88626787360E+03  0.88626787361E+03  0.50400001928E-02 0.  1.
    10030    2    1    2    0    0  0.00000000000E+00  0.00000000000E+00  0.27762995149E+02  0.18002987424E+04  0.18000846585E+04 0.  0.
        3    1    3    3  502    0 -0.17377771463E+03 -0.56689327056E+03 -0.66333233675E+03  0.88970583537E+03  0.10100000352E+00 0.  1.
       -3    1    3    3    0  502  0.17377771463E+03  0.56689327056E+03  0.69109533190E+03  0.91059290700E+03  0.10100000352E+00 0. -1.
</event>
<event>
 5   0  0.3993393E-05  0.1801502E+04  0.7818609E-02  0.8705501E-01
       -2   -1    0    0    0  501  0.00000000000E+00  0.00000000000E+00  0.51468647353E+03  0.51468647353E+03  0.25500000920E-02 0.  1.
        2   -1    0    0  501    0  0.00000000000E+00  0.00000000000E+00 -0.15764019706E+04  0.15764019706E+04  0.25500000920E-02 0. -1.
    10030    2    1    2    0    0  0.00000000000E+00  0.00000000000E+00 -0.10617154971E+04  0.20910884441E+04  0.18015024520E+04 0.  0.
        5    1    3    3  502    0 -0.87872525361E+02  0.67184170815E+03  0.15804122319E+03  0.69576718789E+03  0.46999998093E+01 0.  1.
       -5    1    3    3    0  502  0.87872525361E+02 -0.67184170815E+03 -0.12197567203E+04  0.13953212563E+04  0.46999998093E+01 0. -1.
</event>
<event>
 5   0  0.1906857E-05  0.1769845E+04  0.7818609E-02  0.8722502E-01
        1   -1    0    0  501    0  0.00000000000E+00  0.00000000000E+00  0.81647290086E+03  0.81647290087E+03  0.50400001928E-02 0. -1.
       -1   -1    0    0    0  501  0.00000000000E+00  0.00000000000E+00 -0.95911084578E+03  0.95911084579E+03  0.50400001928E-02 0.  1.
    10030    2    1    2    0    0  0.00000000000E+00  0.00000000000E+00 -0.14263794492E+03  0.17755837467E+04  0.17698452074E+04 0.  0.
        4    1    3    3  502    0 -0.77305706191E+03 -0.42866395281E+03 -0.29755229439E+02  0.88445293373E+03  0.12699999809E+01 0.  1.
       -4    1    3    3    0  502  0.77305706191E+03  0.42866395281E+03 -0.11288271548E+03  0.89113081293E+03  0.12699999809E+01 0. -1.
</event>
<event>
 5   0  0.3909859E-05  0.1808952E+04  0.7818609E-02  0.8701553E-01
        2   -1    0    0  501    0  0.00000000000E+00  0.00000000000E+00  0.68543873289E+03  0.68543873289E+03  0.25500000920E-02 0.  1.
       -2   -1    0    0    0  501  0.00000000000E+00  0.00000000000E+00 -0.11935079780E+04  0.11935079780E+04  0.25500000920E-02 0. -1.
    10030    2    1    2    0    0  0.00000000000E+00  0.00000000000E+00 -0.50806924506E+03  0.18789467108E+04  0.18089517363E+04 0.  0.
        4    1    3    3  502    0 -0.87484822790E+03 -0.19800337841E+03 -0.13330363584E+03  0.90682756462E+03  0.12699999809E+01 0. -1.
       -4    1    3    3    0  502  0.87484822790E+03  0.19800337841E+03 -0.37476560922E+03  0.97211914623E+03  0.12699999809E+01 0.  1.
</event>
<event>
 5   0  0.2038338E-05  0.1809008E+04  0.7818609E-02  0.8701524E-01
        1   -1    0    0  501    0  0.00000000000E+00  0.00000000000E+00  0.18292804348E+04  0.18292804348E+04  0.50400001928E-02 0. -1.
       -1   -1    0    0    0  501  0.00000000000E+00  0.00000000000E+00 -0.44723987639E+03  0.44723987642E+03  0.50400001928E-02 0.  1.
    10030    2    1    2    0    0  0.00000000000E+00  0.00000000000E+00  0.13820405584E+04  0.22765203112E+04  0.18090076347E+04 0.  0.
        1    1    3    3  502    0  0.74380851029E+03  0.29479043255E+03  0.16012335241E+03  0.81596077548E+03  0.50400001928E-02 0.  1.
       -1    1    3    3    0  502 -0.74380851029E+03 -0.29479043255E+03  0.12219172060E+04  0.14605595357E+04  0.50400001928E-02 0. -1.
</event>
<event>
 5   0  0.3984648E-05  0.1785722E+04  0.7818609E-02  0.8713929E-01
        2   -1    0    0  501    0  0.00000000000E+00  0.00000000000E+00  0.62746698380E+03  0.62746698381E+03  0.25500000920E-02 0. -1.
       -2   -1    0    0    0  501  0.00000000000E+00  0.00000000000E+00 -0.12705064971E+04  0.12705064971E+04  0.25500000920E-02 0.  1.
    10030    2    1    2    0    0  0.00000000000E+00  0.00000000000E+00 -0.64303951326E+03  0.18979734809E+04  0.17857221280E+04 0.  0.
        1    1    3    3  502    0 -0.48837561790E+03  0.31059662428E+03 -0.10441240980E+04  0.11938074129E+04  0.50400001928E-02 0.  1.
       -1    1    3    3    0  502  0.48837561790E+03 -0.31059662428E+03  0.40108458469E+03  0.70416606797E+03  0.50400001928E-02 0. -1.
</event>
<event>
 5   0  0.1906857E-05  0.1797262E+04  0.7818609E-02  0.8707757E-01
        1   -1    0    0  501    0  0.00000000000E+00  0.00000000000E+00  0.12338605761E+04  0.12338605761E+04  0.50400001928E-02 0. -1.
       -1   -1    0    0    0  501  0.00000000000E+00  0.00000000000E+00 -0.65448062354E+03  0.65448062356E+03  0.50400001928E-02 0.  1.
    10030    2    1    2    0    0  0.00000000000E+00  0.00000000000E+00  0.57937995252E+03  0.18883411996E+04  0.17972621837E+04 0.  0.
        4    1    3    3  502    0  0.67277450444E+03 -0.58378314488E+03  0.41448599044E+03  0.98246045378E+03  0.12699999809E+01 0. -1.
       -4    1    3    3    0  502 -0.67277450444E+03  0.58378314488E+03  0.16489396208E+03  0.90588074585E+03  0.12699999809E+01 0.  1.
</event>
<event>
 5   0  0.3983176E-05  0.1798230E+04  0.7818609E-02  0.8707241E-01
       -2   -1    0    0    0  501  0.00000000000E+00  0.00000000000E+00  0.63387383386E+03  0.63387383386E+03  0.25500000920E-02 0.  1.
        2   -1    0    0  501    0  0.00000000000E+00  0.00000000000E+00 -0.12753446066E+04  0.12753446066E+04  0.25500000920E-02 0. -1.
    10030    2    1    2    0    0  0.00000000000E+00  0.00000000000E+00 -0.64147077272E+03  0.19092184404E+04  0.17982297687E+04 0.  0.
        3    1    3    3  502    0  0.49478468757E+03  0.46543992821E+03 -0.94612546581E+03  0.11647315661E+04  0.10100000352E+00 0. -1.
       -3    1    3    3    0  502 -0.49478468757E+03 -0.46543992821E+03  0.30465469309E+03  0.74448687434E+03  0.10100000352E+00 0.  1.
</event>
<event>
 5   0  0.1960300E-05  0.1797691E+04  0.7818609E-02  0.8707528E-01
       -1   -1    0    0    0  501  0.00000000000E+00  0.00000000000E+00  0.56240585203E+03  0.56240585205E+03  0.50400001928E-02 0.  1.
        1   -1    0    0  501    0  0.00000000000E+00  0.00000000000E+00 -0.14365486786E+04  0.14365486786E+04  0.50400001928E-02 0. -1.
    10030    2    1    2    0    0  0.00000000000E+00  0.00000000000E+00 -0.87414282656E+03  0.19989545306E+04  0.17976911677E+04 0.  0.
        3    1    3    3  502    0 -0.63119195598E+03  0.83611031448E+02  0.26841161584E+03  0.69096953305E+03  0.10100000352E+00 0.  1.
       -3    1    3    3    0  502  0.63119195598E+03 -0.83611031448E+02 -0.11425544424E+04  0.13079849976E+04  0.10100000352E+00 0. -1.
</event>
<event>
 5   0  0.3984648E-05  0.1814781E+04  0.7818609E-02  0.8698478E-01
       -2   -1    0    0    0  501  0.00000000000E+00  0.00000000000E+00  0.13541038106E+04  0.13541038106E+04  0.25500000920E-02 0.  1.
        2   -1    0    0  501    0  0.00000000000E+00  0.00000000000E+00 -0.60804612723E+03  0.60804612724E+03  0.25500000920E-02 0. -1.
    10030    2    1    2    0    0  0.00000000000E+00  0.00000000000E+00  0.74605768334E+03  0.19621499378E+04  0.18147810644E+04 0.  0.
        1    1    3    3  502    0 -0.18045355984E+02  0.13414756044E+03  0.13431270531E+04  0.13499301773E+04  0.50400001928E-02 0.  1.
       -1    1    3    3    0  502  0.18045355984E+02 -0.13414756044E+03 -0.59706936975E+03  0.61221976051E+03  0.50400001928E-02 0. -1.
</event>
<event>
 5   0  0.1906857E-05  0.1799391E+04  0.7818609E-02  0.8706623E-01
        1   -1    0    0  501    0  0.00000000000E+00  0.00000000000E+00  0.52858910979E+03  0.52858910981E+03  0.50400001928E-02 0.  1.
       -1   -1    0    0    0  501  0.00000000000E+00  0.00000000000E+00 -0.15313447874E+04  0.15313447874E+04  0.50400001928E-02 0. -1.
    10030    2    1    2    0    0  0.00000000000E+00  0.00000000000E+00 -0.10027556776E+04  0.20599338972E+04  0.17993912059E+04 0.  0.
        4    1    3    3  502    0 -0.49038117102E+03 -0.18256510294E+03  0.33647350465E+03  0.62210910774E+03  0.12699999809E+01 0.  1.
       -4    1    3    3    0  502  0.49038117102E+03  0.18256510294E+03 -0.13392291822E+04  0.14378247895E+04  0.12699999809E+01 0. -1.
</event>
<event>
 5   0  0.3983176E-05  0.1801642E+04  0.7818609E-02  0.8705427E-01
       -2   -1    0    0    0  501  0.00000000000E+00  0.00000000000E+00  0.87864397646E+03  0.87864397646E+03  0.25500000920E-02 0.  1.
        2   -1    0    0  501    0  0.00000000000E+00  0.00000000000E+00 -0.92355783154E+03  0.92355783155E+03  0.25500000920E-02 0. -1.
    10030    2    1    2    0    0  0.00000000000E+00  0.00000000000E+00 -0.44913855084E+02  0.18022018080E+04  0.18016420572E+04 0.  0.
        3    1    3    3  502    0  0.33623588753E+03 -0.23051190221E+03 -0.82600483324E+03  0.92112664920E+03  0.10100000352E+00 0. -1.
       -3    1    3    3    0  502 -0.33623588753E+03  0.23051190221E+03  0.78109097816E+03  0.88107515881E+03  0.10100000352E+00 0.  1.
</event>
<event>
 5   0  0.1906857E-05  0.1805580E+04  0.7818609E-02  0.8703337E-01
       -1   -1    0    0    0  501  0.00000000000E+00  0.00000000000E+00  0.61071873140E+03  0.61071873143E+03  0.50400001928E-02 0. -1.
        1   -1    0    0  501    0  0.00000000000E+00  0.00000000000E+00 -0.13345426143E+04  0.13345426143E+04  0.50400001928E-02 0.  1.
    10030    2    1    2    0    0  0.00000000000E+00  0.00000000000E+00 -0.72382388292E+03  0.19452613458E+04  0.18055804302E+04 0.  0.
        4    1    3    3  502    0  0.78807974147E+03  0.35216490192E+03 -0.64683007446E+03  0.10786475584E+04  0.12699999809E+01 0. -1.
       -4    1    3    3    0  502 -0.78807974147E+03 -0.35216490192E+03 -0.76993808460E+02  0.86661378739E+03  0.12699999809E+01 0.  1.
</event>
<event>
 5   0  0.1446750E-05  0.1799580E+04  0.7818609E-02  0.8706523E-01
       -3   -1    0    0    0  501  0.00000000000E+00  0.00000000000E+00  0.84599743829E+03  0.84599744432E+03  0.10100000352E+00 0.  1.
        3   -1    0    0  501    0  0.00000000000E+00  0.00000000000E+00 -0.95700301722E+03  0.95700302255E+03  0.10100000352E+00 0. -1.
    10030    2    1    2    0    0  0.00000000000E+00  0.00000000000E+00 -0.11100557893E+03  0.18030004669E+04  0.17995800746E+04 0.  0.
        2    1    3    3  502    0 -0.80897030039E+03  0.24328014548E+03  0.25493113890E+03  0.88238770486E+03  0.25500000920E-02 0. -1.
       -2    1    3    3    0  502  0.80897030039E+03 -0.24328014548E+03 -0.36593671784E+03  0.92061276201E+03  0.25500000920E-02 0.  1.
</event>
<event>
 5   0  0.1906857E-05  0.1800196E+04  0.7818609E-02  0.8706195E-01
        1   -1    0    0  501    0  0.00000000000E+00  0.00000000000E+00  0.16321081350E+04  0.16321081350E+04  0.50400001928E-02 0. -1.
       -1   -1    0    0    0  501  0.00000000000E+00  0.00000000000E+00 -0.49639880841E+03  0.49639880844E+03  0.50400001928E-02 0.  1.
    10030    2    1    2    0    0  0.00000000000E+00  0.00000000000E+00  0.11357093266E+04  0.21285069434E+04  0.18001961376E+04 0.  0.
        4    1    3    3  502    0 -0.91241779149E+02  0.27329911938E+03  0.15761075510E+04  0.16022278540E+04  0.12699999809E+01 0. -1.
       -4    1    3    3    0  502  0.91241779149E+02 -0.27329911938E+03 -0.44039822447E+03  0.52627908939E+03  0.12699999809E+01 0.  1.
</event>
<event>
 5   0  0.2054876E-05  0.1798504E+04  0.7818609E-02  0.8707095E-01
        1   -1    0    0  501    0  0.00000000000E+00  0.00000000000E+00  0.22188899411E+04  0.22188899411E+04  0.50400001928E-02 0. -1.
       -1   -1    0    0    0  501  0.00000000000E+00  0.00000000000E+00 -0.36444092336E+03  0.36444092339E+03  0.50400001928E-02 0.  1.
    10030    2    1    2    0    0  0.00000000000E+00  0.00000000000E+00  0.18544490178E+04  0.25833308645E+04  0.17985041551E+04 0.  0.
        5    1    3    3  502    0 -0.49966534260E+03 -0.71404653907E+03  0.12455184158E+04  0.15201533240E+04  0.46999998093E+01 0. -1.
       -5    1    3    3    0  502  0.49966534260E+03  0.71404653907E+03  0.60893060199E+03  0.10631775405E+04  0.46999998093E+01 0.  1.
</event>
<event>
 5   0  0.4015729E-05  0.1801683E+04  0.7818609E-02  0.8705405E-01
       -2   -1    0    0    0  501  0.00000000000E+00  0.00000000000E+00  0.40422930599E+03  0.40422930600E+03  0.25500000920E-02 0.  1.
        2   -1    0    0  501    0  0.00000000000E+00  0.00000000000E+00 -0.20075613929E+04  0.20075613929E+04  0.25500000920E-02 0. -1.
    10030    2    1    2    0    0  0.00000000000E+00  0.00000000000E+00 -0.16033320869E+04  0.24117906989E+04  0.18016827119E+04 0.  0.
        2    1    3    3  502    0 -0.28082056169E+02  0.20313926948E+03  0.37256783540E+03  0.42527750547E+03  0.25500000920E-02 0.  1.
       -2    1    3    3    0  502  0.28082056169E+02 -0.20313926948E+03 -0.19758999223E+04  0.19865131934E+04  0.25500000920E-02 0. -1.
</event>
<event>
 5   0  0.3909859E-05  0.1800381E+04  0.7818609E-02  0.8706097E-01
       -2   -1    0    0    0  501  0.00000000000E+00  0.00000000000E+00  0.11203551378E+04  0.11203551378E+04  0.25500000920E-02 0.  1.
        2   -1    0    0  501    0  0.00000000000E+00  0.00000000000E+00 -0.72329078499E+03  0.72329078500E+03  0.25500000920E-02 0. -1.
    10030    2    1    2    0    0  0.00000000000E+00  0.00000000000E+00  0.39706435283E+03  0.18436459228E+04  0.18003805677E+04 0.  0.
        4    1    3    3  502    0 -0.14021119027E+03  0.11906841547E+03  0.11009032815E+04  0.11161658091E+04  0.12699999809E+01 0.  1.
       -4    1    3    3    0  502  0.14021119027E+03 -0.11906841547E+03 -0.70383892864E+03  0.72748011368E+03  0.12699999809E+01 0. -1.
</event>
<event>
 5   0  0.3993393E-05  0.1801892E+04  0.7818609E-02  0.8705294E-01
       -2   -1    0    0    0  501  0.00000000000E+00  0.00000000000E+00  0.80048377973E+03  0.80048377973E+03  0.25500000920E-02 0. -1.
        2   -1    0    0  501    0  0.00000000000E+00  0.00000000000E+00 -0.10140162930E+04  0.10140162930E+04  0.25500000920E-02 0.  1.
    10030    2    1    2    0    0  0.00000000000E+00  0.00000000000E+00 -0.21353251328E+03  0.18145000727E+04  0.18018918890E+04 0.  0.
        5    1    3    3  502    0 -0.34348535335E+02 -0.19150426802E+03  0.77906382248E+03  0.80300450562E+03  0.46999998093E+01 0. -1.
       -5    1    3    3    0  502  0.34348535335E+02  0.19150426802E+03 -0.99259633576E+03  0.10114955671E+04  0.46999998093E+01 0.  1.
</event>
<event>
 5   0  0.3993393E-05  0.1795612E+04  0.7818609E-02  0.8708636E-01
       -2   -1    0    0    0  501  0.00000000000E+00  0.00000000000E+00  0.92245496983E+03  0.92245496983E+03  0.25500000920E-02 0.  1.
        2   -1    0    0  501    0  0.00000000000E+00  0.00000000000E+00 -0.87381583315E+03  0.87381583316E+03  0.25500000920E-02 0. -1.
    10030    2    1    2    0    0  0.00000000000E+00  0.00000000000E+00  0.48639136678E+02  0.17962708030E+04  0.17956121608E+04 0.  0.
        5    1    3    3  502    0  0.52204391690E+03  0.17604654132E+03 -0.68482086109E+03  0.87893340911E+03  0.46999998093E+01 0. -1.
       -5    1    3    3    0  502 -0.52204391690E+03 -0.17604654132E+03  0.73345999776E+03  0.91733739387E+03  0.46999998093E+01 0.  1.
</event>
<event>
 5   0  0.1906857E-05  0.1799959E+04  0.7818609E-02  0.8706321E-01
        1   -1    0    0  501    0  0.00000000000E+00  0.00000000000E+00  0.12443741356E+04  0.12443741356E+04  0.50400001928E-02 0.  1.
       -1   -1    0    0    0  501  0.00000000000E+00  0.00000000000E+00 -0.65090003559E+03  0.65090003561E+03  0.50400001928E-02 0. -1.
    10030    2    1    2    0    0  0.00000000000E+00  0.00000000000E+00  0.59347410005E+03  0.18952741713E+04  0.17999590764E+04 0.  0.
        4    1    3    3  502    0  0.84156542678E+03  0.29198827090E+03  0.43187679218E+03  0.98995388500E+03  0.12699999809E+01 0.  1.
       -4    1    3    3    0  502 -0.84156542678E+03 -0.29198827090E+03  0.16159730787E+03  0.90532028625E+03  0.12699999809E+01 0. -1.
</event>
<event>
 5   0  0.2038338E-05  0.1799455E+04  0.7818609E-02  0.8706590E-01
       -1   -1    0    0    0  501  0.00000000000E+00  0.00000000000E+00  0.13341227119E+04  0.13341227119E+04  0.50400001928E-02 0. -1.
        1   -1    0    0  501    0  0.00000000000E+00  0.00000000000E+00 -0.60677266776E+03  0.60677266778E+03  0.50400001928E-02 0.  1.
    10030    2    1    2    0    0  0.00000000000E+00  0.00000000000E+00  0.72735004412E+03  0.19408953797E+04  0.17994545807E+04 0.  0.
        1    1    3    3  502    0  0.11330834449E+03  0.76868366935E+03  0.85297987694E+03  0.11538145583E+04  0.50400001928E-02 0. -1.
       -1    1    3    3    0  502 -0.11330834449E+03 -0.76868366935E+03 -0.12562983282E+03  0.78708082137E+03  0.50400001928E-02 0.  1.
</event>
<event>
 5   0  0.3983176E-05  0.1801433E+04  0.7818609E-02  0.8705538E-01
       -2   -1    0    0    0  501  0.00000000000E+00  0.00000000000E+00  0.68322466505E+03  0.68322466505E+03  0.25500000920E-02 0.  1.
        2   -1    0    0  501    0  0.00000000000E+00  0.00000000000E+00 -0.11874424987E+04  0.11874424987E+04  0.25500000920E-02 0. -1.
    10030    2    1    2    0    0  0.00000000000E+00  0.00000000000E+00 -0.50421783368E+03  0.18706671638E+04  0.18014327670E+04 0.  0.
        3    1    3    3  502    0  0.23725343305E+03  0.46305303224E+03  0.51139194739E+03  0.72954029101E+03  0.10100000352E+00 0.  1.
       -3    1    3    3    0  502 -0.23725343305E+03 -0.46305303224E+03 -0.10156097811E+04  0.11411268728E+04  0.10100000352E+00 0. -1.
</event>
<event>
 5   0  0.3984648E-05  0.1799666E+04  0.7818609E-02  0.8706477E-01
        2   -1    0    0  501    0  0.00000000000E+00  0.00000000000E+00  0.13344960703E+04  0.13344960703E+04  0.25500000920E-02 0. -1.
       -2   -1    0    0    0  501  0.00000000000E+00  0.00000000000E+00 -0.60674549759E+03  0.60674549760E+03  0.25500000920E-02 0.  1.
    10030    2    1    2    0    0  0.00000000000E+00  0.00000000000E+00  0.72775057275E+03  0.19412415679E+04  0.17996660604E+04 0.  0.
        1    1    3    3  502    0 -0.26215338616E+03  0.84460190559E+03  0.18459986094E+03  0.90341235629E+03  0.50400001928E-02 0.  1.
       -1    1    3    3    0  502  0.26215338616E+03 -0.84460190559E+03  0.54315071181E+03  0.10378292117E+04  0.50400001928E-02 0. -1.
</event>
<event>
 5   0  0.1446750E-05  0.1799837E+04  0.7818609E-02  0.8706386E-01
       -3   -1    0    0    0  501  0.00000000000E+00  0.00000000000E+00  0.20912260158E+04  0.20912260183E+04  0.10100000352E+00 0. -1.
        3   -1    0    0  501    0  0.00000000000E+00  0.00000000000E+00 -0.38726256908E+03  0.38726258225E+03  0.10100000352E+00 0.  1.
    10030    2    1    2    0    0  0.00000000000E+00  0.00000000000E+00  0.17039634468E+04  0.24784886005E+04  0.17998373024E+04 0.  0.
        5    1    3    3  502    0 -0.44645178295E+03  0.43032001338E+03 -0.46109079711E+02  0.62180595498E+03  0.46999998093E+01 0.  1.
       -5    1    3    3    0  502  0.44645178295E+03 -0.43032001338E+03  0.17500725265E+04  0.18566826456E+04  0.46999998093E+01 0. -1.
</event>
<event>
 5   0  0.3993393E-05  0.1800545E+04  0.7818609E-02  0.8706010E-01
       -2   -1    0    0    0  501  0.00000000000E+00  0.00000000000E+00  0.53420018313E+03  0.53420018313E+03  0.25500000920E-02 0. -1.
        2   -1    0    0  501    0  0.00000000000E+00  0.00000000000E+00 -0.15172031164E+04  0.15172031164E+04  0.25500000920E-02 0.  1.
    10030    2    1    2    0    0  0.00000000000E+00  0.00000000000E+00 -0.98300293331E+03  0.20514032996E+04  0.18005445650E+04 0.  0.
        5    1    3    3  502    0 -0.44134349672E+03  0.50589438900E+03 -0.11748629869E+04  0.13531586540E+04  0.46999998093E+01 0.  1.
       -5    1    3    3    0  502  0.44134349672E+03 -0.50589438900E+03  0.19186005358E+03  0.69824464557E+03  0.46999998093E+01 0. -1.
</event>
<event>
 5   0  0.1960300E-05  0.1799918E+04  0.7818609E-02  0.8706343E-01
       -1   -1    0    0    0  501  0.00000000000E+00  0.00000000000E+00  0.87523773759E+03  0.87523773761E+03  0.50400001928E-02 0. -1.
        1   -1    0    0  501    0  0.00000000000E+00  0.00000000000E+00 -0.92537876885E+03  0.92537876886E+03  0.50400001928E-02 0.  1.
    10030    2    1    2    0    0  0.00000000000E+00  0.00000000000E+00 -0.50141031259E+02  0.18006165065E+04  0.17999182427E+04 0.  0.
        3    1    3    3  502    0  0.11379614028E+03 -0.43151519589E+03 -0.80689240310E+03  0.92207932751E+03  0.10100000352E+00 0.  1.
       -3    1    3    3    0  502 -0.11379614028E+03  0.43151519589E+03  0.75675137184E+03  0.87853717896E+03  0.10100000352E+00 0. -1.
</event>
<event>
 5   0  0.4015729E-05  0.1805150E+04  0.7818609E-02  0.8703566E-01
       -2   -1    0    0    0  501  0.00000000000E+00  0.00000000000E+00  0.91021945175E+03  0.91021945175E+03  0.25500000920E-02 0.  1.
        2   -1    0    0  501    0  0.00000000000E+00  0.00000000000E+00 -0.89499433810E+03  0.89499433810E+03  0.25500000920E-02 0. -1.
    10030    2    1    2    0    0  0.00000000000E+00  0.00000000000E+00  0.15225113648E+02  0.18052137899E+04  0.18051495847E+04 0.  0.
        2    1    3    3  502    0  0.61739172829E+03 -0.55051318394E+03 -0.35351514969E+03  0.89956115574E+03  0.25500000920E-02 0. -1.
       -2    1    3    3    0  502 -0.61739172829E+03  0.55051318394E+03  0.36874026334E+03  0.90565263411E+03  0.25500000920E-02 0.  1.
</event>
<event>
 5   0  0.2038338E-05  0.1798875E+04  0.7818609E-02  0.8706898E-01
        1   -1    0    0  501    0  0.00000000000E+00  0.00000000000E+00  0.12296036692E+04  0.12296036693E+04  0.50400001928E-02 0.  1.
       -1   -1    0    0    0  501  0.00000000000E+00  0.00000000000E+00 -0.65792580574E+03  0.65792580576E+03  0.50400001928E-02 0. -1.
    10030    2    1    2    0    0  0.00000000000E+00  0.00000000000E+00  0.57167786350E+03  0.18875294750E+04  0.17988751873E+04 0.  0.
        1    1    3    3  502    0  0.85295096332E+01 -0.40647785836E+03 -0.55600468545E+03  0.68879475327E+03  0.50400001928E-02 0. -1.
       -1    1    3    3    0  502 -0.85295096332E+01  0.40647785836E+03  0.11276825490E+04  0.11987347217E+04  0.50400001928E-02 0.  1.
</event>
<event>
 5   0  0.3983176E-05  0.1799571E+04  0.7818609E-02  0.8706528E-01
       -2   -1    0    0    0  501  0.00000000000E+00  0.00000000000E+00  0.10285684835E+04  0.10285684835E+04  0.25500000920E-02 0. -1.
        2   -1    0    0  501    0  0.00000000000E+00  0.00000000000E+00 -0.78712704852E+03  0.78712704852E+03  0.25500000920E-02 0.  1.
    10030    2    1    2    0    0  0.00000000000E+00  0.00000000000E+00  0.24144143502E+03  0.18156955321E+04  0.17995711430E+04 0.  0.
        3    1    3    3  502    0  0.59080875884E+03 -0.55499525412E+03 -0.27334162981E+03  0.85544747262E+03  0.10100000352E+00 0.  1.
       -3    1    3    3    0  502 -0.59080875884E+03  0.55499525412E+03  0.51478306483E+03  0.96024805944E+03  0.10100000352E+00 0. -1.
</event>
<event>
 5   0  0.4015729E-05  0.1800401E+04  0.7818609E-02  0.8706086E-01
       -2   -1    0    0    0  501  0.00000000000E+00  0.00000000000E+00  0.83053886868E+03  0.83053886868E+03  0.25500000920E-02 0.  1.
        2   -1    0    0  501    0  0.00000000000E+00  0.00000000000E+00 -0.97570529102E+03  0.97570529102E+03  0.25500000920E-02 0. -1.
    10030    2    1    2    0    0  0.00000000000E+00  0.00000000000E+00 -0.14516642233E+03  0.18062441597E+04  0.18004012537E+04 0.  0.
        2    1    3    3  502    0  0.18844396832E+03 -0.66142095070E+03 -0.65530586528E+03  0.94995504120E+03  0.25500000920E-02 0. -1.
       -2    1    3    3    0  502 -0.18844396832E+03  0.66142095070E+03  0.51013944295E+03  0.85628911851E+03  0.25500000920E-02 0.  1.
</event>
<event>
 5   0  0.2038338E-05  0.1796004E+04  0.7818609E-02  0.8708428E-01
       -1   -1    0    0    0  501  0.00000000000E+00  0.00000000000E+00  0.76938159115E+03  0.76938159117E+03  0.50400001928E-02 0.  1.
        1   -1    0    0  501    0  0.00000000000E+00  0.00000000000E+00 -0.10481238710E+04  0.10481238710E+04  0.50400001928E-02 0. -1.
    10030    2    1    2    0    0  0.00000000000E+00  0.00000000000E+00 -0.27874227987E+03  0.18175054622E+04  0.17960035764E+04 0.  0.
        1    1    3    3  502    0  0.85544510227E+03  0.21236961573E+03  0.34499783658E+02  0.88208696384E+03  0.50400001928E-02 0.  1.
       -1    1    3    3    0  502 -0.85544510227E+03 -0.21236961573E+03 -0.31324206353E+03  0.93541849836E+03  0.50400001928E-02 0. -1.
</event>
<event>
 5   0  0.3993393E-05  0.1799914E+04  0.7818609E-02  0.8706345E-01
        2   -1    0    0  501    0  0.00000000000E+00  0.00000000000E+00  0.14577840346E+04  0.14577840346E+04  0.25500000920E-02 0. -1.
       -2   -1    0    0    0  501  0.00000000000E+00  0.00000000000E+00 -0.55558461290E+03  0.55558461291E+03  0.25500000920E-02 0.  1.
    10030    2    1    2    0    0  0.00000000000E+00  0.00000000000E+00  0.90219942168E+03  0.20133686475E+04  0.17999137519E+04 0.  0.
        5    1    3    3  502    0  0.47207152889E+03  0.40400369287E+03  0.11793276529E+04  0.13330064948E+04  0.46999998093E+01 0. -1.
       -5    1    3    3    0  502 -0.47207152889E+03 -0.40400369287E+03 -0.27712823125E+03  0.68036215268E+03  0.46999998093E+01 0.  1.
</event>
<event>
 5   0  0.4015729E-05  0.1802067E+04  0.7818609E-02  0.8705201E-01
       -2   -1    0    0    0  501  0.00000000000E+00  0.00000000000E+00  0.12236102961E+04  0.12236102961E+04  0.25500000920E-02 0. -1.
        2   -1    0    0  501    0  0.00000000000E+00  0.00000000000E+00 -0.66349692578E+03  0.66349692579E+03  0.25500000920E-02 0.  1.
    10030    2    1    2    0    0  0.00000000000E+00  0.00000000000E+00  0.56011337035E+03  0.18871072219E+04  0.18020673349E+04 0.  0.
        2    1    3    3  502    0 -0.68920805573E+03 -0.48771593453E+02  0.88568693705E+03  0.11233110713E+04  0.25500000920E-02 0. -1.
       -2    1    3    3    0  502  0.68920805573E+03  0.48771593453E+02 -0.32557356669E+03  0.76379615064E+03  0.25500000920E-02 0.  1.
</event>
<event>
 5   0  0.3993393E-05  0.1798446E+04  0.7818609E-02  0.8707126E-01
        2   -1    0    0  501    0  0.00000000000E+00  0.00000000000E+00  0.56428264918E+03  0.56428264919E+03  0.25500000920E-02 0. -1.
       -2   -1    0    0    0  501  0.00000000000E+00  0.00000000000E+00 -0.14329735012E+04  0.14329735012E+04  0.25500000920E-02 0.  1.
    10030    2    1    2    0    0  0.00000000000E+00  0.00000000000E+00 -0.86869085202E+03  0.19972561504E+04  0.17984460887E+04 0.  0.
        5    1    3    3  502    0 -0.48538447245E+02 -0.44971297524E+03  0.42872936598E+03  0.62324048345E+03  0.46999998093E+01 0. -1.
       -5    1    3    3    0  502  0.48538447245E+02  0.44971297524E+03 -0.12974202180E+04  0.13740156669E+04  0.46999998093E+01 0.  1.
</event>
<event>
 5   0  0.2038338E-05  0.1801611E+04  0.7818609E-02  0.8705443E-01
       -1   -1    0    0    0  501  0.00000000000E+00  0.00000000000E+00  0.71530224494E+03  0.71530224496E+03  0.50400001928E-02 0.  1.
        1   -1    0    0  501    0  0.00000000000E+00  0.00000000000E+00 -0.11344160125E+04  0.11344160125E+04  0.50400001928E-02 0. -1.
    10030    2    1    2    0    0  0.00000000000E+00  0.00000000000E+00 -0.41911376759E+03  0.18497182575E+04  0.18016107465E+04 0.  0.
        1    1    3    3  502    0 -0.28460691394E+03 -0.38124864727E+03  0.57578576680E+03  0.74691423590E+03  0.50400001928E-02 0.  1.
       -1    1    3    3    0  502  0.28460691394E+03  0.38124864727E+03 -0.99489953439E+03  0.11028040216E+04  0.50400001928E-02 0. -1.
</event>
<event>
 5   0  0.3909859E-05  0.1799747E+04  0.7818609E-02  0.8706434E-01
       -2   -1    0    0    0  501  0.00000000000E+00  0.00000000000E+00  0.86674920478E+03  0.86674920479E+03  0.25500000920E-02 0. -1.
        2   -1    0    0  501    0  0.00000000000E+00  0.00000000000E+00 -0.93426377662E+03  0.93426377663E+03  0.25500000920E-02 0.  1.
    10030    2    1    2    0    0  0.00000000000E+00  0.00000000000E+00 -0.67514571840E+02  0.18010129814E+04  0.17997470772E+04 0.  0.
        4    1    3    3  502    0  0.91761660928E+02  0.21886962760E+03 -0.90238087878E+03  0.93306858247E+03  0.12699999809E+01 0.  1.
       -4    1    3    3    0  502 -0.91761660928E+02 -0.21886962760E+03  0.83486630694E+03  0.86794439895E+03  0.12699999809E+01 0. -1.
</event>
<event>
 5   0  0.3983176E-05  0.1800462E+04  0.7818609E-02  0.8706054E-01
        2   -1    0    0  501    0  0.00000000000E+00  0.00000000000E+00  0.75752219413E+03  0.75752219414E+03  0.25500000920E-02 0. -1.
       -2   -1    0    0    0  501  0.00000000000E+00  0.00000000000E+00 -0.10698239876E+04  0.10698239876E+04  0.25500000920E-02 0.  1.
    10030    2    1    2    0    0  0.00000000000E+00  0.00000000000E+00 -0.31230179349E+03  0.18273461818E+04  0.18004615124E+04 0.  0.
        3    1    3    3  502    0 -0.30119347742E+02 -0.27316126746E+03 -0.10262094825E+04  0.10623700699E+04  0.10100000352E+00 0.  1.
       -3    1    3    3    0  502  0.30119347742E+02  0.27316126746E+03  0.71390768901E+03  0.76497611190E+03  0.10100000352E+00 0. -1.
</event>
<event>
 5   0  0.3993393E-05  0.1800877E+04  0.7818609E-02  0.8705833E-01
       -2   -1    0    0    0  501  0.00000000000E+00  0.00000000000E+00  0.69788912840E+03  0.69788912841E+03  0.25500000920E-02 0.  1.
        2   -1    0    0  501    0  0.00000000000E+00  0.00000000000E+00 -0.11617736527E+04  0.11617736527E+04  0.25500000920E-02 0. -1.
    10030    2    1    2    0    0  0.00000000000E+00  0.00000000000E+00 -0.46388452428E+03  0.18596627811E+04  0.18008766775E+04 0.  0.
        5    1    3    3  502    0 -0.89445047066E+03 -0.10332887750E+03 -0.23914197593E+03  0.93162732680E+03  0.46999998093E+01 0. -1.
       -5    1    3    3    0  502  0.89445047066E+03  0.10332887750E+03 -0.22474254835E+03  0.92803545430E+03  0.46999998093E+01 0.  1.
</event>
<event>
 5   0  0.3983176E-05  0.1802404E+04  0.7818609E-02  0.8705022E-01
       -2   -1    0    0    0  501  0.00000000000E+00  0.00000000000E+00  0.50868315841E+03  0.50868315842E+03  0.25500000920E-02 0. -1.
        2   -1    0    0  501    0  0.00000000000E+00  0.00000000000E+00 -0.15966025334E+04  0.15966025334E+04  0.25500000920E-02 0.  1.
    10030    2    1    2    0    0  0.00000000000E+00  0.00000000000E+00 -0.10879193750E+04  0.21052856918E+04  0.18024037499E+04 0.  0.
        3    1    3    3  502    0 -0.41114603269E+03 -0.80084091300E+03 -0.59320599435E+03  0.10780911789E+04  0.10100000352E+00 0.  1.
       -3    1    3    3    0  502  0.41114603269E+03  0.80084091300E+03 -0.49471338061E+03  0.10271945129E+04  0.10100000352E+00 0. -1.
</event>
<event>
 5   0  0.1960300E-05  0.1796374E+04  0.7818609E-02  0.8708230E-01
       -1   -1    0    0    0  501  0.00000000000E+00  0.00000000000E+00  0.60664331735E+03  0.60664331737E+03  0.50400001928E-02 0. -1.
        1   -1    0    0  501    0  0.00000000000E+00  0.00000000000E+00 -0.13298415356E+04  0.13298415356E+04  0.50400001928E-02 0.  1.
    10030    2    1    2    0    0  0.00000000000E+00  0.00000000000E+00 -0.72319821829E+03  0.19364848530E+04  0.17963735477E+04 0.  0.
        3    1    3    3  502    0  0.24685112405E+03 -0.74947910085E+03 -0.82411508366E+03  0.11409733044E+04  0.10100000352E+00 0. -1.
       -3    1    3    3    0  502 -0.24685112405E+03  0.74947910085E+03  0.10091686537E+03  0.79551154861E+03  0.10100000352E+00 0.  1.
</event>
<event>
 5   0  0.1960300E-05  0.1798479E+04  0.7818609E-02  0.8707108E-01
        1   -1    0    0  501    0  0.00000000000E+00  0.00000000000E+00  0.92738658585E+03  0.92738658586E+03  0.50400001928E-02 0. -1.
       -1   -1    0    0    0  501  0.00000000000E+00  0.00000000000E+00 -0.87194717385E+03  0.87194717386E+03  0.50400001928E-02 0.  1.
    10030    2    1    2    0    0  0.00000000000E+00  0.00000000000E+00  0.55439412001E+02  0.17993337597E+04  0.17984794829E+04 0.  0.
        3    1    3    3  502    0 -0.21164402593E+03  0.20008401631E+03 -0.82345188228E+03  0.87344136605E+03  0.10100000352E+00 0.  1.
       -3    1    3    3    0  502  0.21164402593E+03 -0.20008401631E+03  0.87889129428E+03  0.92589239367E+03  0.10100000352E+00 0. -1.
</event>
<event>
 5   0  0.3909859E-05  0.1801188E+04  0.7818609E-02  0.8705668E-01
        2   -1    0    0  501    0  0.00000000000E+00  0.00000000000E+00  0.11068045720E+04  0.11068045720E+04  0.25500000920E-02 0.  1.
       -2   -1    0    0    0  501  0.00000000000E+00  0.00000000000E+00 -0.73280274999E+03  0.73280274999E+03  0.25500000920E-02 0. -1.
    10030    2    1    2    0    0  0.00000000000E+00  0.00000000000E+00  0.37400182201E+03  0.18396073220E+04  0.18011878681E+04 0.  0.
        4    1    3    3  502    0  0.27410975692E+03 -0.73791443012E+03 -0.25983998713E+03  0.82895856158E+03  0.12699999809E+01 0. -1.
       -4    1    3    3    0  502 -0.27410975692E+03  0.73791443012E+03  0.63384180914E+03  0.10106487604E+04  0.12699999809E+01 0.  1.
</event>
<event>
 5   0  0.2054876E-05  0.1780987E+04  0.7818609E-02  0.8716476E-01
        1   -1    0    0  501    0  0.00000000000E+00  0.00000000000E+00  0.10395868858E+04  0.10395868858E+04  0.50400001928E-02 0.  1.
       -1   -1    0    0    0  501  0.00000000000E+00  0.00000000000E+00 -0.76278251335E+03  0.76278251336E+03  0.50400001928E-02 0. -1.
    10030    2    1    2    0    0  0.00000000000E+00  0.00000000000E+00  0.27680437243E+03  0.18023693992E+04  0.17809870270E+04 0.  0.
        5    1    3    3  502    0  0.37257399634E+03  0.48750896587E+03  0.79150303196E+03  0.10014866520E+04  0.46999998093E+01 0.  1.
       -5    1    3    3    0  502 -0.37257399634E+03 -0.48750896587E+03 -0.51469865953E+03  0.80088274714E+03  0.46999998093E+01 0. -1.
</event>
<event>
 5   0  0.1446750E-05  0.1793473E+04  0.7818609E-02  0.8709778E-01
       -3   -1    0    0    0  501  0.00000000000E+00  0.00000000000E+00  0.64324700511E+03  0.64324701304E+03  0.10100000352E+00 0. -1.
        3   -1    0    0  501    0  0.00000000000E+00  0.00000000000E+00 -0.12501205510E+04  0.12501205551E+04  0.10100000352E+00 0.  1.
    10030    2    1    2    0    0  0.00000000000E+00  0.00000000000E+00 -0.60687354591E+03  0.18933675681E+04  0.17934729570E+04 0.  0.
        3    1    3    3  502    0  0.17356301968E+03 -0.57155327007E+03 -0.10095242379E+04  0.11730031796E+04  0.10100000352E+00 0.  1.
       -3    1    3    3    0  502 -0.17356301968E+03  0.57155327007E+03  0.40265069196E+03  0.72036438853E+03  0.10100000352E+00 0. -1.
</event>
<event>
 5   0  0.1960300E-05  0.1799156E+04  0.7818609E-02  0.8706749E-01
       -1   -1    0    0    0  501  0.00000000000E+00  0.00000000000E+00  0.46831390407E+03  0.46831390410E+03  0.50400001928E-02 0. -1.
        1   -1    0    0  501    0  0.00000000000E+00  0.00000000000E+00 -0.17279869015E+04  0.17279869015E+04  0.50400001928E-02 0.  1.
    10030    2    1    2    0    0  0.00000000000E+00  0.00000000000E+00 -0.12596729975E+04  0.21963008056E+04  0.17991556821E+04 0.  0.
        3    1    3    3  502    0  0.83595592349E+03  0.30317182588E+03 -0.46377631776E+03  0.10029077451E+04  0.10100000352E+00 0. -1.
       -3    1    3    3    0  502 -0.83595592349E+03 -0.30317182588E+03 -0.79589667969E+03  0.11933930606E+04  0.10100000352E+00 0.  1.
</event>
<event>
 5   0  0.1446750E-05  0.1749640E+04  0.7818609E-02  0.8733548E-01
        3   -1    0    0  501    0  0.00000000000E+00  0.00000000000E+00  0.54425932408E+03  0.54425933345E+03  0.10100000352E+00 0. -1.
       -3   -1    0    0    0  501  0.00000000000E+00  0.00000000000E+00 -0.14061503282E+04  0.14061503318E+04  0.10100000352E+00 0.  1.
    10030    2    1    2    0    0  0.00000000000E+00  0.00000000000E+00 -0.86189100412E+03  0.19504096653E+04  0.17496404658E+04 0.  0.
        4    1    3    3  502    0  0.59510680300E+03 -0.13336486612E+02  0.28369358549E+03  0.65940399771E+03  0.12699999809E+01 0. -1.
       -4    1    3    3    0  502 -0.59510680300E+03  0.13336486612E+02 -0.11455845896E+04  0.12910056676E+04  0.12699999809E+01 0.  1.
</event>
<event>
 5   0  0.1960300E-05  0.1800098E+04  0.7818609E-02  0.8706247E-01
       -1   -1    0    0    0  501  0.00000000000E+00  0.00000000000E+00  0.38195306680E+03  0.38195306684E+03  0.50400001928E-02 0. -1.
        1   -1    0    0  501    0  0.00000000000E+00  0.00000000000E+00 -0.21209104035E+04  0.21209104035E+04  0.50400001928E-02 0.  1.
    10030    2    1    2    0    0  0.00000000000E+00  0.00000000000E+00 -0.17389573367E+04  0.25028634704E+04  0.18000980341E+04 0.  0.
        3    1    3    3  502    0  0.12392254091E+03  0.48075813914E+03 -0.19133035983E+04  0.19766678664E+04  0.10100000352E+00 0.  1.
       -3    1    3    3    0  502 -0.12392254091E+03 -0.48075813914E+03  0.17434626161E+03  0.52619560396E+03  0.10100000352E+00 0. -1.
</event>
<event>
 5   0  0.3984648E-05  0.1799175E+04  0.7818609E-02  0.8706738E-01
       -2   -1    0    0    0  501  0.00000000000E+00  0.00000000000E+00  0.10587601557E+04  0.10587601557E+04  0.25500000920E-02 0.  1.
        2   -1    0    0  501    0  0.00000000000E+00  0.00000000000E+00 -0.76434467361E+03  0.76434467361E+03  0.25500000920E-02 0. -1.
    10030    2    1    2    0    0  0.00000000000E+00  0.00000000000E+00  0.29441548209E+03  0.18231048293E+04  0.17991750172E+04 0.  0.
        1    1    3    3  502    0  0.72126403395E+03  0.53751348590E+03  0.15808038493E+03  0.91330825153E+03  0.50400001928E-02 0.  1.
       -1    1    3    3    0  502 -0.72126403395E+03 -0.53751348590E+03  0.13633509716E+03  0.90979657778E+03  0.50400001928E-02 0. -1.
</event>
<event>
 5   0  0.2001811E-05  0.1756560E+04  0.7818609E-02  0.8729748E-01
       -1   -1    0    0    0  501  0.00000000000E+00  0.00000000000E+00  0.44709282068E+03  0.44709282071E+03  0.50400001928E-02 0.  1.
        1   -1    0    0  501    0  0.00000000000E+00  0.00000000000E+00 -0.17253136469E+04  0.17253136470E+04  0.50400001928E-02 0. -1.
    10030    2    1    2    0    0  0.00000000000E+00  0.00000000000E+00 -0.12782208263E+04  0.21724064677E+04  0.17565595293E+04 0.  0.
        2    1    3    3  502    0 -0.66607954321E+03 -0.48453764317E+03 -0.26208402841E+03  0.86436492494E+03  0.25500000920E-02 0. -1.
       -2    1    3    3    0  502  0.66607954321E+03  0.48453764317E+03 -0.10161367979E+04  0.13080415427E+04  0.25500000920E-02 0.  1.
</event>
<event>
 5   0  0.1960300E-05  0.1798762E+04  0.7818609E-02  0.8706958E-01
        1   -1    0    0  501    0  0.00000000000E+00  0.00000000000E+00  0.22475397398E+04  0.22475397398E+04  0.50400001928E-02 0. -1.
       -1   -1    0    0    0  501  0.00000000000E+00  0.00000000000E+00 -0.35989841849E+03  0.35989841852E+03  0.50400001928E-02 0.  1.
    10030    2    1    2    0    0  0.00000000000E+00  0.00000000000E+00  0.18876413213E+04  0.26074381583E+04  0.17987617940E+04 0.  0.
        3    1    3    3  502    0 -0.10871912055E+03  0.15398287693E+03 -0.33094374221E+03  0.38086000613E+03  0.10100000352E+00 0.  1.
       -3    1    3    3    0  502  0.10871912055E+03 -0.15398287693E+03  0.22185850635E+04  0.22265781522E+04  0.10100000352E+00 0. -1.
</event>
<event>
 5   0  0.2001811E-05  0.1801639E+04  0.7818609E-02  0.8705428E-01
       -1   -1    0    0    0  501  0.00000000000E+00  0.00000000000E+00  0.64168105743E+03  0.64168105745E+03  0.50400001928E-02 0. -1.
        1   -1    0    0  501    0  0.00000000000E+00  0.00000000000E+00 -0.12646088444E+04  0.12646088444E+04  0.50400001928E-02 0.  1.
    10030    2    1    2    0    0  0.00000000000E+00  0.00000000000E+00 -0.62292778700E+03  0.19062899019E+04  0.18016387435E+04 0.  0.
        2    1    3    3  502    0  0.21236777594E+03 -0.26489521320E+03 -0.11943203833E+04  0.12416403361E+04  0.25500000920E-02 0.  1.
       -2    1    3    3    0  502 -0.21236777594E+03  0.26489521320E+03  0.57139259629E+03  0.66464956581E+03  0.25500000920E-02 0. -1.
</event>
<event>
 5   0  0.1960300E-05  0.1802656E+04  0.7818609E-02  0.8704888E-01
        1   -1    0    0  501    0  0.00000000000E+00  0.00000000000E+00  0.16759776328E+04  0.16759776328E+04  0.50400001928E-02 0. -1.
       -1   -1    0    0    0  501  0.00000000000E+00  0.00000000000E+00 -0.48472727108E+03  0.48472727110E+03  0.50400001928E-02 0.  1.
    10030    2    1    2    0    0  0.00000000000E+00  0.00000000000E+00  0.11912503617E+04  0.21607049039E+04  0.18026558899E+04 0.  0.
        3    1    3    3  502    0  0.48863275959E+03 -0.65251629653E+03  0.13473542560E+03  0.82625246511E+03  0.10100000352E+00 0. -1.
       -3    1    3    3    0  502 -0.48863275959E+03  0.65251629653E+03  0.10565149361E+04  0.13344524388E+04  0.10100000352E+00 0.  1.
</event>
<event>
 5   0  0.3993393E-05  0.1799083E+04  0.7818609E-02  0.8706787E-01
        2   -1    0    0  501    0  0.00000000000E+00  0.00000000000E+00  0.13931695695E+04  0.13931695695E+04  0.25500000920E-02 0.  1.
       -2   -1    0    0    0  501  0.00000000000E+00  0.00000000000E+00 -0.58081553325E+03  0.58081553325E+03  0.25500000920E-02 0. -1.
    10030    2    1    2    0    0  0.00000000000E+00  0.00000000000E+00  0.81235403622E+03  0.19739851027E+04  0.17990825733E+04 0.  0.
        5    1    3    3  502    0 -0.13595961989E+03  0.27171278173E+03  0.13351514542E+04  0.13692933761E+04  0.46999998093E+01 0.  1.
       -5    1    3    3    0  502  0.13595961989E+03 -0.27171278173E+03 -0.52279741802E+03  0.60469172665E+03  0.46999998093E+01 0. -1.
</event>
<event>
 5   0  0.3984648E-05  0.1796547E+04  0.7818609E-02  0.8708138E-01
        2   -1    0    0  501    0  0.00000000000E+00  0.00000000000E+00  0.14570178779E+04  0.14570178779E+04  0.25500000920E-02 0.  1.
       -2   -1    0    0    0  501  0.00000000000E+00  0.00000000000E+00 -0.55379936585E+03  0.55379936585E+03  0.25500000920E-02 0. -1.
    10030    2    1    2    0    0  0.00000000000E+00  0.00000000000E+00  0.90321851205E+03  0.20108172437E+04  0.17965473295E+04 0.  0.
        1    1    3    3  502    0 -0.20339948986E+03  0.36793037440E+03  0.13401071701E+04  0.14045039481E+04  0.50400001928E-02 0.  1.
       -1    1    3    3    0  502  0.20339948986E+03 -0.36793037440E+03 -0.43688865807E+03  0.60631329563E+03  0.50400001928E-02 0. -1.
</event>
<event>
 5   0  0.2038338E-05  0.1806198E+04  0.7818609E-02  0.8703010E-01
       -1   -1    0    0    0  501  0.00000000000E+00  0.00000000000E+00  0.85930790356E+03  0.85930790357E+03  0.50400001928E-02 0.  1.
        1   -1    0    0  501    0  0.00000000000E+00  0.00000000000E+00 -0.94912160526E+03  0.94912160528E+03  0.50400001928E-02 0. -1.
    10030    2    1    2    0    0  0.00000000000E+00  0.00000000000E+00 -0.89813701705E+02  0.18084295088E+04  0.18061978816E+04 0.  0.
        1    1    3    3  502    0  0.76777125183E+03  0.35259776546E+03 -0.36434620879E+03  0.92007936572E+03  0.50400001928E-02 0.  1.
       -1    1    3    3    0  502 -0.76777125183E+03 -0.35259776546E+03  0.27453250708E+03  0.88835014313E+03  0.50400001928E-02 0. -1.
</event>
<event>
 5   0  0.4015729E-05  0.1800079E+04  0.7818609E-02  0.8706257E-01
        2   -1    0    0  501    0  0.00000000000E+00  0.00000000000E+00  0.11111591332E+04  0.11111591332E+04  0.25500000920E-02 0.  1.
       -2   -1    0    0    0  501  0.00000000000E+00  0.00000000000E+00 -0.72903284584E+03  0.72903284585E+03  0.25500000920E-02 0. -1.
    10030    2    1    2    0    0  0.00000000000E+00  0.00000000000E+00  0.38212628732E+03  0.18401919790E+04  0.18000794483E+04 0.  0.
        2    1    3    3  502    0 -0.29515423963E+03  0.39732270223E+03 -0.57741289131E+03  0.76051758818E+03  0.25500000920E-02 0. -1.
       -2    1    3    3    0  502  0.29515423963E+03 -0.39732270223E+03  0.95953917863E+03  0.10796743908E+04  0.25500000920E-02 0.  1.
</event>
<event>
 5   0  0.3993393E-05  0.1800782E+04  0.7818609E-02  0.8705884E-01
        2   -1    0    0  501    0  0.00000000000E+00  0.00000000000E+00  0.14265515084E+04  0.14265515084E+04  0.25500000920E-02 0.  1.
       -2   -1    0    0    0  501  0.00000000000E+00  0.00000000000E+00 -0.56829601669E+03  0.56829601670E+03  0.25500000920E-02 0. -1.
    10030    2    1    2    0    0  0.00000000000E+00  0.00000000000E+00  0.85825549174E+03  0.19948475251E+04  0.18007815413E+04 0.  0.
        5    1    3    3  502    0  0.38950725493E+03 -0.18885365068E+03 -0.44544751047E+03  0.62114988336E+03  0.46999998093E+01 0. -1.
       -5    1    3    3    0  502 -0.38950725493E+03  0.18885365068E+03  0.13037030022E+04  0.13736976418E+04  0.46999998093E+01 0.  1.
</event>
<event>
 5   0  0.2001811E-05  0.1797815E+04  0.7818609E-02  0.8707462E-01
       -1   -1    0    0    0  501  0.00000000000E+00  0.00000000000E+00  0.81345970461E+03  0.81345970463E+03  0.50400001928E-02 0. -1.
        1   -1    0    0  501    0  0.00000000000E+00  0.00000000000E+00 -0.99333062722E+03  0.99333062723E+03  0.50400001928E-02 0.  1.
    10030    2    1    2    0    0  0.00000000000E+00  0.00000000000E+00 -0.17987092261E+03  0.18067903319E+04  0.17978147164E+04 0.  0.
        2    1    3    3  502    0  0.56908182481E+03 -0.59021636307E+03  0.28044888176E+03  0.86652239086E+03  0.25500000920E-02 0.  1.
       -2    1    3    3    0  502 -0.56908182481E+03  0.59021636307E+03 -0.46031980436E+03  0.94026794100E+03  0.25500000920E-02 0. -1.
</event>
<event>
 5   0  0.4015729E-05  0.1795201E+04  0.7818609E-02  0.8708856E-01
        2   -1    0    0  501    0  0.00000000000E+00  0.00000000000E+00  0.18982136771E+04  0.18982136771E+04  0.25500000920E-02 0.  1.
       -2   -1    0    0    0  501  0.00000000000E+00  0.00000000000E+00 -0.42444459818E+03  0.42444459819E+03  0.25500000920E-02 0. -1.
    10030    2    1    2    0    0  0.00000000000E+00  0.00000000000E+00  0.14737690790E+04  0.23226582753E+04  0.17952008706E+04 0.  0.
        2    1    3    3  502    0 -0.76729064865E+03  0.37070418849E+03  0.37201485820E+03  0.92981266371E+03  0.25500000920E-02 0. -1.
       -2    1    3    3    0  502  0.76729064865E+03 -0.37070418849E+03  0.11017542208E+04  0.13928456116E+04  0.25500000920E-02 0.  1.
</event>
<event>
 5   0  0.3983176E-05  0.1799365E+04  0.7818609E-02  0.8706637E-01
        2   -1    0    0  501    0  0.00000000000E+00  0.00000000000E+00  0.10860505079E+04  0.10860505079E+04  0.25500000920E-02 0. -1.
       -2   -1    0    0    0  501  0.00000000000E+00  0.00000000000E+00 -0.74529561236E+03  0.74529561237E+03  0.25500000920E-02 0.  1.
    10030    2    1    2    0    0  0.00000000000E+00  0.00000000000E+00  0.34075489557E+03  0.18313461203E+04  0.17993650862E+04 0.  0.
        3    1    3    3  502    0 -0.17389271832E+03  0.86227206113E+03 -0.21862923720E+02  0.87990328021E+03  0.10100000352E+00 0.  1.
       -3    1    3    3    0  502  0.17389271832E+03 -0.86227206113E+03  0.36261781929E+03  0.95144284009E+03  0.10100000352E+00 0. -1.
</event>
<event>
 5   0  0.1446750E-05  0.1801070E+04  0.7818609E-02  0.8705730E-01
       -3   -1    0    0    0  501  0.00000000000E+00  0.00000000000E+00  0.66070633841E+03  0.66070634613E+03  0.10100000352E+00 0. -1.
        3   -1    0    0  501    0  0.00000000000E+00  0.00000000000E+00 -0.12274193074E+04  0.12274193116E+04  0.10100000352E+00 0.  1.
    10030    2    1    2    0    0  0.00000000000E+00  0.00000000000E+00 -0.56671296904E+03  0.18881256577E+04  0.18010704900E+04 0.  0.
        2    1    3    3  502    0 -0.18047678622E+03  0.81643234012E+03  0.67217369336E+02  0.83883956220E+03  0.25500000920E-02 0. -1.
       -2    1    3    3    0  502  0.18047678622E+03 -0.81643234012E+03 -0.63393033838E+03  0.10492860955E+04  0.25500000920E-02 0.  1.
</event>
<event>
 5   0  0.2054876E-05  0.1792069E+04  0.7818609E-02  0.8710528E-01
        1   -1    0    0  501    0  0.00000000000E+00  0.00000000000E+00  0.15117391818E+04  0.15117391818E+04  0.50400001928E-02 0. -1.
       -1   -1    0    0    0  501  0.00000000000E+00  0.00000000000E+00 -0.53109560305E+03  0.53109560308E+03  0.50400001928E-02 0.  1.
    10030    2    1    2    0    0  0.00000000000E+00  0.00000000000E+00  0.98064357874E+03  0.20428347849E+04  0.17920692313E+04 0.  0.
        5    1    3    3  502    0 -0.13644691280E+03  0.49897154745E+03  0.13243161585E+04  0.14217685265E+04  0.46999998093E+01 0. -1.
       -5    1    3    3    0  502  0.13644691280E+03 -0.49897154745E+03 -0.34367257981E+03  0.62106625837E+03  0.46999998093E+01 0.  1.
</event>
<event>
 5   0  0.3984648E-05  0.1793653E+04  0.7818609E-02  0.8709682E-01
        2   -1    0    0  501    0  0.00000000000E+00  0.00000000000E+00  0.11985211031E+04  0.11985211031E+04  0.25500000920E-02 0.  1.
       -2   -1    0    0    0  501  0.00000000000E+00  0.00000000000E+00 -0.67107522931E+03  0.67107522931E+03  0.25500000920E-02 0. -1.
    10030    2    1    2    0    0  0.00000000000E+00  0.00000000000E+00  0.52744587381E+03  0.18695963324E+04  0.17936530591E+04 0.  0.
        1    1    3    3  502    0 -0.47037956632E+03 -0.41041237624E+02  0.10584731862E+04  0.11590111326E+04  0.50400001928E-02 0.  1.
       -1    1    3    3    0  502  0.47037956632E+03  0.41041237624E+02 -0.53102731242E+03  0.71058519979E+03  0.50400001928E-02 0. -1.
</event>
<event>
 5   0  0.1906857E-05  0.1797183E+04  0.7818609E-02  0.8707799E-01
        1   -1    0    0  501    0  0.00000000000E+00  0.00000000000E+00  0.10602537424E+04  0.10602537424E+04  0.50400001928E-02 0.  1.
       -1   -1    0    0    0  501  0.00000000000E+00  0.00000000000E+00 -0.76157829431E+03  0.76157829433E+03  0.50400001928E-02 0. -1.
    10030    2    1    2    0    0  0.00000000000E+00  0.00000000000E+00  0.29867544804E+03  0.18218320367E+04  0.17971825023E+04 0.  0.
        4    1    3    3  502    0  0.85614086294E+03  0.10740287834E+03 -0.10500607564E+03  0.86921829496E+03  0.12699999809E+01 0. -1.
       -4    1    3    3    0  502 -0.85614086294E+03 -0.10740287834E+03  0.40368152368E+03  0.95261374173E+03  0.12699999809E+01 0.  1.
</event>
<event>
 5   0  0.2001811E-05  0.1802175E+04  0.7818609E-02  0.8705144E-01
        1   -1    0    0  501    0  0.00000000000E+00  0.00000000000E+00  0.13079963032E+04  0.13079963032E+04  0.50400001928E-02 0. -1.
       -1   -1    0    0    0  501  0.00000000000E+00  0.00000000000E+00 -0.62076512489E+03  0.62076512491E+03  0.50400001928E-02 0.  1.
    10030    2    1    2    0    0  0.00000000000E+00  0.00000000000E+00  0.68723117827E+03  0.19287614281E+04  0.18021747846E+04 0.  0.
        2    1    3    3  502    0  0.87377415297E+03 -0.15479476547E+03  0.51118881372E+03  0.10240882252E+04  0.25500000920E-02 0. -1.
       -2    1    3    3    0  502 -0.87377415297E+03  0.15479476547E+03  0.17604236455E+03  0.90467320284E+03  0.25500000920E-02 0.  1.
</event>
<event>
 5   0  0.3909859E-05  0.1797294E+04  0.7818609E-02  0.8707740E-01
       -2   -1    0    0    0  501  0.00000000000E+00  0.00000000000E+00  0.78591315272E+03  0.78591315272E+03  0.25500000920E-02 0. -1.
        2   -1    0    0  501    0  0.00000000000E+00  0.00000000000E+00 -0.10275520471E+04  0.10275520471E+04  0.25500000920E-02 0.  1.
    10030    2    1    2    0    0  0.00000000000E+00  0.00000000000E+00 -0.24163889439E+03  0.18134651998E+04  0.17972942652E+04 0.  0.
        4    1    3    3  502    0  0.29416358226E+02 -0.85068955224E+03  0.16991718914E+03  0.86799279980E+03  0.12699999809E+01 0. -1.
       -4    1    3    3    0  502 -0.29416358226E+02  0.85068955224E+03 -0.41155608353E+03  0.94547240003E+03  0.12699999809E+01 0.  1.
</event>
<event>
 5   0  0.4015729E-05  0.1799820E+04  0.7818609E-02  0.8706395E-01
       -2   -1    0    0    0  501  0.00000000000E+00  0.00000000000E+00  0.83566561642E+03  0.83566561643E+03  0.25500000920E-02 0. -1.
        2   -1    0    0  501    0  0.00000000000E+00  0.00000000000E+00 -0.96909356996E+03  0.96909356997E+03  0.25500000920E-02 0.  1.
    10030    2    1    2    0    0  0.00000000000E+00  0.00000000000E+00 -0.13342795354E+03  0.18047591864E+04  0.17998201860E+04 0.  0.
        2    1    3    3  502    0  0.57568516273E+03 -0.46518891925E+03 -0.58000150336E+03  0.94032753925E+03  0.25500000920E-02 0.  1.
       -2    1    3    3    0  502 -0.57568516273E+03  0.46518891925E+03  0.44657354982E+03  0.86443164714E+03  0.25500000920E-02 0. -1.
</event>
<event>
 5   0  0.3983176E-05  0.1799591E+04  0.7818609E-02  0.8706517E-01
       -2   -1    0    0    0  501  0.00000000000E+00  0.00000000000E+00  0.47170428517E+03  0.47170428518E+03  0.25500000920E-02 0. -1.
        2   -1    0    0  501    0  0.00000000000E+00  0.00000000000E+00 -0.17163979395E+04  0.17163979395E+04  0.25500000920E-02 0.  1.
    10030    2    1    2    0    0  0.00000000000E+00  0.00000000000E+00 -0.12446936543E+04  0.21881022247E+04  0.17995913571E+04 0.  0.
        3    1    3    3  502    0  0.73547390255E+03  0.35799323258E+03 -0.10781853716E+04  0.13533531400E+04  0.10100000352E+00 0.  1.
       -3    1    3    3    0  502 -0.73547390255E+03 -0.35799323258E+03 -0.16650828275E+03  0.83474908466E+03  0.10100000352E+00 0. -1.
</event>
<event>
 5   0  0.1446750E-05  0.1798347E+04  0.7818609E-02  0.8707179E-01
       -4   -1    0    0    0  501  0.00000000000E+00  0.00000000000E+00  0.54946869095E+03  0.54947015864E+03  0.12699999809E+01 0. -1.
        4   -1    0    0  501    0  0.00000000000E+00  0.00000000000E+00 -0.14714420764E+04  0.14714426244E+04  0.12699999809E+01 0.  1.
    10030    2    1    2    0    0  0.00000000000E+00  0.00000000000E+00 -0.92197338541E+03  0.20209127831E+04  0.17983474507E+04 0.  0.
        5    1    3    3  502    0  0.12141484015E+03 -0.28480486792E+03  0.48766726414E+03  0.57766497792E+03  0.46999998093E+01 0. -1.
       -5    1    3    3    0  502 -0.12141484015E+03  0.28480486792E+03 -0.14096406495E+04  0.14432478051E+04  0.46999998093E+01 0.  1.
</event>
<event>
 5   0  0.3909859E-05  0.1822333E+04  0.7818609E-02  0.8694512E-01
       -2   -1    0    0    0  501  0.00000000000E+00  0.00000000000E+00  0.63219969535E+03  0.63219969536E+03  0.25500000920E-02 0. -1.
        2   -1    0    0  501    0  0.00000000000E+00  0.00000000000E+00 -0.13132314179E+04  0.13132314179E+04  0.25500000920E-02 0.  1.
    10030    2    1    2    0    0  0.00000000000E+00  0.00000000000E+00 -0.68103172253E+03  0.19454311132E+04  0.18223331225E+04 0.  0.
        4    1    3    3  502    0 -0.75128532330E+03  0.11050054892E+03 -0.87810199013E+03  0.11609068551E+04  0.12699999809E+01 0.  1.
       -4    1    3    3    0  502  0.75128532330E+03 -0.11050054892E+03  0.19707026760E+03  0.78452425812E+03  0.12699999809E+01 0. -1.
</event>
<event>
 5   0  0.3983176E-05  0.1800100E+04  0.7818609E-02  0.8706246E-01
        2   -1    0    0  501    0  0.00000000000E+00  0.00000000000E+00  0.18604501402E+04  0.18604501402E+04  0.25500000920E-02 0.  1.
       -2   -1    0    0    0  501  0.00000000000E+00  0.00000000000E+00 -0.43542677105E+03  0.43542677106E+03  0.25500000920E-02 0. -1.
    10030    2    1    2    0    0  0.00000000000E+00  0.00000000000E+00  0.14250233692E+04  0.22958769113E+04  0.18000997720E+04 0.  0.
        3    1    3    3  502    0 -0.40647968081E+03 -0.64196598880E+03  0.97205876705E+02  0.76602549197E+03  0.10100000352E+00 0. -1.
       -3    1    3    3    0  502  0.40647968081E+03  0.64196598880E+03  0.13278174925E+04  0.15298514193E+04  0.10100000352E+00 0.  1.
</event>
<event>
 5   0  0.1960300E-05  0.1800694E+04  0.7818609E-02  0.8705931E-01
       -1   -1    0    0    0  501  0.00000000000E+00  0.00000000000E+00  0.83456104469E+03  0.83456104471E+03  0.50400001928E-02 0.  1.
        1   -1    0    0  501    0  0.00000000000E+00  0.00000000000E+00 -0.97131839219E+03  0.97131839220E+03  0.50400001928E-02 0. -1.
    10030    2    1    2    0    0  0.00000000000E+00  0.00000000000E+00 -0.13675734750E+03  0.18058794369E+04  0.18006937465E+04 0.  0.
        3    1    3    3  502    0  0.59220560727E+03 -0.67729712769E+03 -0.33846949587E+02  0.90032466736E+03  0.10100000352E+00 0.  1.
       -3    1    3    3    0  502 -0.59220560727E+03  0.67729712769E+03 -0.10291039791E+03  0.90555476955E+03  0.10100000352E+00 0. -1.
</event>
<event>
 5   0  0.3983176E-05  0.1803034E+04  0.7818609E-02  0.8704688E-01
        2   -1    0    0  501    0  0.00000000000E+00  0.00000000000E+00  0.12264763004E+04  0.12264763004E+04  0.25500000920E-02 0. -1.
       -2   -1    0    0    0  501  0.00000000000E+00  0.00000000000E+00 -0.66265670167E+03  0.66265670167E+03  0.25500000920E-02 0.  1.
    10030    2    1    2    0    0  0.00000000000E+00  0.00000000000E+00  0.56381959876E+03  0.18891330021E+04  0.18030338210E+04 0.  0.
        3    1    3    3  502    0 -0.70029475718E+03  0.47593159694E+03  0.60622106653E+03  0.10413585471E+04  0.10100000352E+00 0. -1.
       -3    1    3    3    0  502  0.70029475718E+03 -0.47593159694E+03 -0.42401467771E+02  0.84777445501E+03  0.10100000352E+00 0.  1.
</event>
<event>
 5   0  0.2001811E-05  0.1797814E+04  0.7818609E-02  0.8707463E-01
       -1   -1    0    0    0  501  0.00000000000E+00  0.00000000000E+00  0.41003335520E+03  0.41003335523E+03  0.50400001928E-02 0.  1.
        1   -1    0    0  501    0  0.00000000000E+00  0.00000000000E+00 -0.19706528499E+04  0.19706528499E+04  0.50400001928E-02 0. -1.
    10030    2    1    2    0    0  0.00000000000E+00  0.00000000000E+00 -0.15606194947E+04  0.23806862051E+04  0.17978135610E+04 0.  0.
        2    1    3    3  502    0  0.71701198632E+03  0.29413675740E+03 -0.13833873020E+04  0.15856806261E+04  0.25500000920E-02 0. -1.
       -2    1    3    3    0  502 -0.71701198632E+03 -0.29413675740E+03 -0.17723219269E+03  0.79500557904E+03  0.25500000920E-02 0.  1.
</event>
<event>
 5   0  0.2038338E-05  0.1781765E+04  0.7818609E-02  0.8716057E-01
        1   -1    0    0  501    0  0.00000000000E+00  0.00000000000E+00  0.42933778291E+03  0.42933778294E+03  0.50400001928E-02 0. -1.
       -1   -1    0    0    0  501  0.00000000000E+00  0.00000000000E+00 -0.18485946275E+04  0.18485946275E+04  0.50400001928E-02 0.  1.
    10030    2    1    2    0    0  0.00000000000E+00  0.00000000000E+00 -0.14192568446E+04  0.22779324105E+04  0.17817648767E+04 0.  0.
        1    1    3    3  502    0 -0.80548692766E+03  0.32082695871E+03 -0.97142577619E+03  0.13020780187E+04  0.50400001928E-02 0.  1.
       -1    1    3    3    0  502  0.80548692766E+03 -0.32082695871E+03 -0.44783106840E+03  0.97585439176E+03  0.50400001928E-02 0. -1.
</event>
<event>
 5   0  0.3909859E-05  0.1796648E+04  0.7818609E-02  0.8708084E-01
       -2   -1    0    0    0  501  0.00000000000E+00  0.00000000000E+00  0.60881867944E+03  0.60881867944E+03  0.25500000920E-02 0. -1.
        2   -1    0    0  501    0  0.00000000000E+00  0.00000000000E+00 -0.13254950583E+04  0.13254950583E+04  0.25500000920E-02 0.  1.
    10030    2    1    2    0    0  0.00000000000E+00  0.00000000000E+00 -0.71667637887E+03  0.19343137378E+04  0.17966481581E+04 0.  0.
        4    1    3    3  502    0 -0.53475724078E+03  0.66522539840E+03 -0.56702157341E+02  0.85539867009E+03  0.12699999809E+01 0. -1.
       -4    1    3    3    0  502  0.53475724078E+03 -0.66522539840E+03 -0.65997422153E+03  0.10789150677E+04  0.12699999809E+01 0.  1.
</event>
<event>
 5   0  0.3909859E-05  0.1799634E+04  0.7818609E-02  0.8706494E-01
        2   -1    0    0  501    0  0.00000000000E+00  0.00000000000E+00  0.25856737159E+04  0.25856737159E+04  0.25500000920E-02 0.  1.
       -2   -1    0    0    0  501  0.00000000000E+00  0.00000000000E+00 -0.31313720548E+03  0.31313720549E+03  0.25500000920E-02 0. -1.
    10030    2    1    2    0    0  0.00000000000E+00  0.00000000000E+00  0.22725365104E+04  0.28988109214E+04  0.17996340091E+04 0.  0.
        4    1    3    3  502    0  0.62906582181E+03  0.28202733547E+03  0.20479026064E+03  0.71916888829E+03  0.12699999809E+01 0. -1.
       -4    1    3    3    0  502 -0.62906582181E+03 -0.28202733547E+03  0.20677462498E+04  0.21796420331E+04  0.12699999809E+01 0.  1.
</event>
<event>
 5   0  0.3909859E-05  0.1803708E+04  0.7818609E-02  0.8704330E-01
        2   -1    0    0  501    0  0.00000000000E+00  0.00000000000E+00  0.21144375127E+04  0.21144375127E+04  0.25500000920E-02 0.  1.
       -2   -1    0    0    0  501  0.00000000000E+00  0.00000000000E+00 -0.38466054267E+03  0.38466054268E+03  0.25500000920E-02 0. -1.
    10030    2    1    2    0    0  0.00000000000E+00  0.00000000000E+00  0.17297769700E+04  0.24990980554E+04  0.18037080485E+04 0.  0.
        4    1    3    3  502    0 -0.22654743551E+03  0.77223214064E+03  0.30093572924E+03  0.85920320391E+03  0.12699999809E+01 0. -1.
       -4    1    3    3    0  502  0.22654743551E+03 -0.77223214064E+03  0.14288412408E+04  0.16398948515E+04  0.12699999809E+01 0.  1.
</event>
<event>
 5   0  0.1446750E-05  0.1801001E+04  0.7818609E-02  0.8705767E-01
        3   -1    0    0  501    0  0.00000000000E+00  0.00000000000E+00  0.45796801112E+03  0.45796802226E+03  0.10100000352E+00 0.  1.
       -3   -1    0    0    0  501  0.00000000000E+00  0.00000000000E+00 -0.17706505866E+04  0.17706505895E+04  0.10100000352E+00 0. -1.
    10030    2    1    2    0    0  0.00000000000E+00  0.00000000000E+00 -0.13126825755E+04  0.22286186118E+04  0.18010012140E+04 0.  0.
        5    1    3    3  502    0  0.61935547819E+03 -0.30517674141E+03  0.58960584578E+02  0.69298808965E+03  0.46999998093E+01 0.  1.
       -5    1    3    3    0  502 -0.61935547819E+03  0.30517674141E+03 -0.13716431601E+04  0.15356305221E+04  0.46999998093E+01 0. -1.
</event>
<event>
 5   0  0.2038338E-05  0.1796300E+04  0.7818609E-02  0.8708270E-01
        1   -1    0    0  501    0  0.00000000000E+00  0.00000000000E+00  0.18362857424E+04  0.18362857424E+04  0.50400001928E-02 0.  1.
       -1   -1    0    0    0  501  0.00000000000E+00  0.00000000000E+00 -0.43929616334E+03  0.43929616337E+03  0.50400001928E-02 0. -1.
    10030    2    1    2    0    0  0.00000000000E+00  0.00000000000E+00  0.13969895790E+04  0.22755819057E+04  0.17962998430E+04 0.  0.
        1    1    3    3  502    0  0.15435109151E+03  0.27841471622E+02  0.18188030264E+04  0.18255530274E+04  0.50400001928E-02 0.  1.
       -1    1    3    3    0  502 -0.15435109151E+03 -0.27841471622E+02 -0.42181344733E+03  0.45002887837E+03  0.50400001928E-02 0. -1.
</event>
<event>
 5   0  0.3983176E-05  0.1807472E+04  0.7818609E-02  0.8702336E-01
       -2   -1    0    0    0  501  0.00000000000E+00  0.00000000000E+00  0.12198200094E+04  0.12198200094E+04  0.25500000920E-02 0. -1.
        2   -1    0    0  501    0  0.00000000000E+00  0.00000000000E+00 -0.66955642551E+03  0.66955642551E+03  0.25500000920E-02 0.  1.
    10030    2    1    2    0    0  0.00000000000E+00  0.00000000000E+00  0.55026358385E+03  0.18893764349E+04  0.18074715215E+04 0.  0.
        3    1    3    3  502    0  0.85042745560E+03  0.30564281092E+03  0.28526271571E+03  0.94763875621E+03  0.10100000352E+00 0.  1.
       -3    1    3    3    0  502 -0.85042745560E+03 -0.30564281092E+03  0.26500086814E+03  0.94173767866E+03  0.10100000352E+00 0. -1.
</event>
<event>
 5   0  0.3984648E-05  0.1804789E+04  0.7818609E-02  0.8703757E-01
       -2   -1    0    0    0  501  0.00000000000E+00  0.00000000000E+00  0.71048936181E+03  0.71048936181E+03  0.25500000920E-02 0. -1.
        2   -1    0    0  501    0  0.00000000000E+00  0.00000000000E+00 -0.11461335978E+04  0.11461335978E+04  0.25500000920E-02 0.  1.
    10030    2    1    2    0    0  0.00000000000E+00  0.00000000000E+00 -0.43564423598E+03  0.18566229596E+04  0.18047888834E+04 0.  0.
        1    1    3    3  502    0  0.16020752508E+03 -0.36900648424E+03 -0.10487858587E+04  0.11232915979E+04  0.50400001928E-02 0.  1.
       -1    1    3    3    0  502 -0.16020752508E+03  0.36900648424E+03  0.61314162272E+03  0.73333136169E+03  0.50400001928E-02 0. -1.
</event>
<event>
 5   0  0.2001811E-05  0.1794800E+04  0.7818609E-02  0.8709069E-01
       -1   -1    0    0    0  501  0.00000000000E+00  0.00000000000E+00  0.10653667635E+04  0.10653667636E+04  0.50400001928E-02 0.  1.
        1   -1    0    0  501    0  0.00000000000E+00  0.00000000000E+00 -0.75591536239E+03  0.75591536240E+03  0.50400001928E-02 0. -1.
    10030    2    1    2    0    0  0.00000000000E+00  0.00000000000E+00  0.30945140116E+03  0.18212821260E+04  0.17948003824E+04 0.  0.
        2    1    3    3  502    0  0.26959589229E+03  0.29985492501E+02  0.10227687401E+04  0.10581289953E+04  0.25500000920E-02 0.  1.
       -2    1    3    3    0  502 -0.26959589229E+03 -0.29985492501E+02 -0.71331733892E+03  0.76315313071E+03  0.25500000920E-02 0. -1.
</event>
<event>
 5   0  0.2038338E-05  0.1804684E+04  0.7818609E-02  0.8703812E-01
        1   -1    0    0  501    0  0.00000000000E+00  0.00000000000E+00  0.11969882297E+04  0.11969882297E+04  0.50400001928E-02 0.  1.
       -1   -1    0    0    0  501  0.00000000000E+00  0.00000000000E+00 -0.68022487501E+03  0.68022487503E+03  0.50400001928E-02 0. -1.
    10030    2    1    2    0    0  0.00000000000E+00  0.00000000000E+00  0.51676335473E+03  0.18772131048E+04  0.18046840931E+04 0.  0.
        1    1    3    3  502    0  0.65073309633E+03 -0.43305474036E+02  0.90705647772E+03  0.11171751790E+04  0.50400001928E-02 0.  1.
       -1    1    3    3    0  502 -0.65073309633E+03  0.43305474036E+02 -0.39029312299E+03  0.76003792578E+03  0.50400001928E-02 0. -1.
</event>
<event>
 5   0  0.2001811E-05  0.1798658E+04  0.7818609E-02  0.8707014E-01
       -1   -1    0    0    0  501  0.00000000000E+00  0.00000000000E+00  0.60751668100E+03  0.60751668102E+03  0.50400001928E-02 0. -1.
        1   -1    0    0  501    0  0.00000000000E+00  0.00000000000E+00 -0.13313091014E+04  0.13313091014E+04  0.50400001928E-02 0.  1.
    10030    2    1    2    0    0  0.00000000000E+00  0.00000000000E+00 -0.72379242040E+03  0.19388257824E+04  0.17986578182E+04 0.  0.
        2    1    3    3  502    0  0.82243854440E+03  0.26113590663E+03 -0.88783397479E+02  0.86745582754E+03  0.25500000920E-02 0. -1.
       -2    1    3    3    0  502 -0.82243854440E+03 -0.26113590663E+03 -0.63500902292E+03  0.10713699549E+04  0.25500000920E-02 0.  1.
</event>
<event>
 5   0  0.3983176E-05  0.1797064E+04  0.7818609E-02  0.8707862E-01
       -2   -1    0    0    0  501  0.00000000000E+00  0.00000000000E+00  0.63859883740E+03  0.63859883740E+03  0.25500000920E-02 0. -1.
        2   -1    0    0  501    0  0.00000000000E+00  0.00000000000E+00 -0.12642676150E+04  0.12642676150E+04  0.25500000920E-02 0.  1.
    10030    2    1    2    0    0  0.00000000000E+00  0.00000000000E+00 -0.62566877756E+03  0.19028664524E+04  0.17970640824E+04 0.  0.
        3    1    3    3  502    0 -0.16969031950E+03 -0.89751755824E+02 -0.12423009773E+04  0.12570449119E+04  0.10100000352E+00 0.  1.
       -3    1    3    3    0  502  0.16969031950E+03  0.89751755824E+02  0.61663219971E+03  0.64582154046E+03  0.10100000352E+00 0. -1.
</event>
<event>
 5   0  0.2001811E-05  0.1794406E+04  0.7818609E-02  0.8709280E-01
        1   -1    0    0  501    0  0.00000000000E+00  0.00000000000E+00  0.13608323234E+04  0.13608323234E+04  0.50400001928E-02 0.  1.
       -1   -1    0    0    0  501  0.00000000000E+00  0.00000000000E+00 -0.59153008730E+03  0.59153008732E+03  0.50400001928E-02 0. -1.
    10030    2    1    2    0    0  0.00000000000E+00  0.00000000000E+00  0.76930223605E+03  0.19523624107E+04  0.17944060444E+04 0.  0.
        2    1    3    3  502    0 -0.81907973923E+03 -0.32142984158E+03  0.57548902732E+03  0.10513783253E+04  0.25500000920E-02 0.  1.
       -2    1    3    3    0  502  0.81907973923E+03  0.32142984158E+03  0.19381320872E+03  0.90098408541E+03  0.25500000920E-02 0. -1.
</event>
<event>
 5   0  0.3909859E-05  0.1814389E+04  0.7818609E-02  0.8698685E-01
       -2   -1    0    0    0  501  0.00000000000E+00  0.00000000000E+00  0.19233899512E+04  0.19233899512E+04  0.25500000920E-02 0.  1.
        2   -1    0    0  501    0  0.00000000000E+00  0.00000000000E+00 -0.42789123235E+03  0.42789123236E+03  0.25500000920E-02 0. -1.
    10030    2    1    2    0    0  0.00000000000E+00  0.00000000000E+00  0.14954987188E+04  0.23512811835E+04  0.18143888189E+04 0.  0.
        4    1    3    3  502    0  0.68305645019E+03 -0.43396307382E+03  0.21641119951E+03  0.83769056564E+03  0.12699999809E+01 0.  1.
       -4    1    3    3    0  502 -0.68305645019E+03  0.43396307382E+03  0.12790875193E+04  0.15135906179E+04  0.12699999809E+01 0. -1.
</event>
<event>
 5   0  0.1960300E-05  0.1790455E+04  0.7818609E-02  0.8711392E-01
        1   -1    0    0  501    0  0.00000000000E+00  0.00000000000E+00  0.93490956440E+03  0.93490956442E+03  0.50400001928E-02 0. -1.
       -1   -1    0    0    0  501  0.00000000000E+00  0.00000000000E+00 -0.85722944809E+03  0.85722944810E+03  0.50400001928E-02 0.  1.
    10030    2    1    2    0    0  0.00000000000E+00  0.00000000000E+00  0.77680116316E+02  0.17921390125E+04  0.17904547019E+04 0.  0.
        3    1    3    3  502    0  0.25147207227E+03  0.73118322030E+03  0.49044615740E+03  0.91564433504E+03  0.10100000352E+00 0. -1.
       -3    1    3    3    0  502 -0.25147207227E+03 -0.73118322030E+03 -0.41276604108E+03  0.87649467748E+03  0.10100000352E+00 0.  1.
</event>
<event>
 5   0  0.2038338E-05  0.1801796E+04  0.7818609E-02  0.8705345E-01
       -1   -1    0    0    0  501  0.00000000000E+00  0.00000000000E+00  0.44073073265E+03  0.44073073268E+03  0.50400001928E-02 0. -1.
        1   -1    0    0  501    0  0.00000000000E+00  0.00000000000E+00 -0.18415260259E+04  0.18415260259E+04  0.50400001928E-02 0.  1.
    10030    2    1    2    0    0  0.00000000000E+00  0.00000000000E+00 -0.14007952932E+04  0.22822567586E+04  0.18017958981E+04 0.  0.
        1    1    3    3  502    0  0.64555741261E+03 -0.29651822472E+02 -0.14954641240E+04  0.16291214042E+04  0.50400001928E-02 0.  1.
       -1    1    3    3    0  502 -0.64555741261E+03  0.29651822472E+02  0.94668830749E+02  0.65313535434E+03  0.50400001928E-02 0. -1.
</event>
<event>
 5   0  0.3909859E-05  0.1799684E+04  0.7818609E-02  0.8706468E-01
       -2   -1    0    0    0  501  0.00000000000E+00  0.00000000000E+00  0.42917552678E+03  0.42917552679E+03  0.25500000920E-02 0. -1.
        2   -1    0    0  501    0  0.00000000000E+00  0.00000000000E+00 -0.18866769635E+04  0.18866769635E+04  0.25500000920E-02 0.  1.
    10030    2    1    2    0    0  0.00000000000E+00  0.00000000000E+00 -0.14575014367E+04  0.23158524903E+04  0.17996839497E+04 0.  0.
        4    1    3    3  502    0  0.93375843377E+02 -0.24698161546E+03  0.37820192719E+03  0.46125619468E+03  0.12699999809E+01 0. -1.
       -4    1    3    3    0  502 -0.93375843377E+02  0.24698161546E+03 -0.18357033639E+04  0.18545962956E+04  0.12699999809E+01 0.  1.
</event>
<event>
 5   0  0.3993393E-05  0.1800068E+04  0.7818609E-02  0.8706263E-01
       -2   -1    0    0    0  501  0.00000000000E+00  0.00000000000E+00  0.46430812152E+03  0.46430812152E+03  0.25500000920E-02 0.  1.
        2   -1    0    0  501    0  0.00000000000E+00  0.00000000000E+00 -0.17446626489E+04  0.17446626489E+04  0.25500000920E-02 0. -1.
    10030    2    1    2    0    0  0.00000000000E+00  0.00000000000E+00 -0.12803545274E+04  0.22089707705E+04  0.18000678179E+04 0.  0.
        5    1    3    3  502    0  0.28716832800E+03  0.44505937961E+03 -0.15331376989E+04  0.16220594298E+04  0.46999998093E+01 0. -1.
       -5    1    3    3    0  502 -0.28716832800E+03 -0.44505937961E+03  0.25278317151E+03  0.58691134065E+03  0.46999998093E+01 0.  1.
</event>
<event>
 5   0  0.2001811E-05  0.1800397E+04  0.7818609E-02  0.8706089E-01
        1   -1    0    0  501    0  0.00000000000E+00  0.00000000000E+00  0.12162603240E+04  0.12162603240E+04  0.50400001928E-02 0. -1.
       -1   -1    0    0    0  501  0.00000000000E+00  0.00000000000E+00 -0.66626930909E+03  0.66626930911E+03  0.50400001928E-02 0.  1.
    10030    2    1    2    0    0  0.00000000000E+00  0.00000000000E+00  0.54999101492E+03  0.18825296331E+04  0.18003965405E+04 0.  0.
        2    1    3    3  502    0  0.39405786143E+03 -0.35241830617E+03  0.10368472575E+04  0.11638438453E+04  0.25500000920E-02 0. -1.
       -2    1    3    3    0  502 -0.39405786143E+03  0.35241830617E+03 -0.48685624263E+03  0.71868578786E+03  0.25500000920E-02 0.  1.
</event>
<event>
 5   0  0.2001811E-05  0.1802182E+04  0.7818609E-02  0.8705140E-01
        1   -1    0    0  501    0  0.00000000000E+00  0.00000000000E+00  0.53398068329E+03  0.53398068331E+03  0.50400001928E-02 0. -1.
       -1   -1    0    0    0  501  0.00000000000E+00  0.00000000000E+00 -0.15205884328E+04  0.15205884328E+04  0.50400001928E-02 0.  1.
    10030    2    1    2    0    0  0.00000000000E+00  0.00000000000E+00 -0.98660774950E+03  0.20545691161E+04  0.18021818447E+04 0.  0.
        2    1    3    3  502    0  0.52953866331E+03  0.61446429438E+03 -0.94067152528E+03  0.12421113008E+04  0.25500000920E-02 0. -1.
       -2    1    3    3    0  502 -0.52953866331E+03 -0.61446429438E+03 -0.45936224220E+02  0.81245781535E+03  0.25500000920E-02 0.  1.
</event>
<event>
 5   0  0.2038338E-05  0.1803251E+04  0.7818609E-02  0.8704573E-01
        1   -1    0    0  501    0  0.00000000000E+00  0.00000000000E+00  0.74296600978E+03  0.74296600980E+03  0.50400001928E-02 0. -1.
       -1   -1    0    0    0  501  0.00000000000E+00  0.00000000000E+00 -0.10941664092E+04  0.10941664092E+04  0.50400001928E-02 0.  1.
    10030    2    1    2    0    0  0.00000000000E+00  0.00000000000E+00 -0.35120039938E+03  0.18371324190E+04  0.18032508989E+04 0.  0.
        1    1    3    3  502    0  0.28515858981E+03 -0.17937163423E+03  0.67643822012E+03  0.75568397507E+03  0.50400001928E-02 0. -1.
       -1    1    3    3    0  502 -0.28515858981E+03  0.17937163423E+03 -0.10276386195E+04  0.10814484439E+04  0.50400001928E-02 0.  1.
</event>
<event>
 5   0  0.2054876E-05  0.1802329E+04  0.7818609E-02  0.8705062E-01
       -1   -1    0    0    0  501  0.00000000000E+00  0.00000000000E+00  0.86877562518E+03  0.86877562520E+03  0.50400001928E-02 0.  1.
        1   -1    0    0  501    0  0.00000000000E+00  0.00000000000E+00 -0.93476106199E+03  0.93476106201E+03  0.50400001928E-02 0. -1.
    10030    2    1    2    0    0  0.00000000000E+00  0.00000000000E+00 -0.65985436809E+02  0.18035366872E+04  0.18023291886E+04 0.  0.
        5    1    3    3  502    0  0.65898173545E+02 -0.62957401169E+03  0.60881794067E+03  0.87828661629E+03  0.46999998093E+01 0.  1.
       -5    1    3    3    0  502 -0.65898173545E+02  0.62957401169E+03 -0.67480337748E+03  0.92525007091E+03  0.46999998093E+01 0. -1.
</event>
<event>
 5   0  0.1960300E-05  0.1802479E+04  0.7818609E-02  0.8704982E-01
       -1   -1    0    0    0  501  0.00000000000E+00  0.00000000000E+00  0.99462647472E+03  0.99462647474E+03  0.50400001928E-02 0. -1.
        1   -1    0    0  501    0  0.00000000000E+00  0.00000000000E+00 -0.81662067596E+03  0.81662067597E+03  0.50400001928E-02 0.  1.
    10030    2    1    2    0    0  0.00000000000E+00  0.00000000000E+00  0.17800579877E+03  0.18112471507E+04  0.18024788977E+04 0.  0.
        3    1    3    3  502    0 -0.26953448504E+02 -0.47143392767E+03 -0.68236146056E+03  0.82981540695E+03  0.10100000352E+00 0.  1.
       -3    1    3    3    0  502  0.26953448504E+02  0.47143392767E+03  0.86036725933E+03  0.98143174377E+03  0.10100000352E+00 0. -1.
</event>
<event>
 5   0  0.3984648E-05  0.1801040E+04  0.7818609E-02  0.8705747E-01
        2   -1    0    0  501    0  0.00000000000E+00  0.00000000000E+00  0.13264542155E+04  0.13264542155E+04  0.25500000920E-02 0.  1.
       -2   -1    0    0    0  501  0.00000000000E+00  0.00000000000E+00 -0.61135646106E+03  0.61135646107E+03  0.25500000920E-02 0. -1.
    10030    2    1    2    0    0  0.00000000000E+00  0.00000000000E+00  0.71509775444E+03  0.19378106766E+04  0.18010400939E+04 0.  0.
        1    1    3    3  502    0  0.37962436594E+03  0.17336301786E+03  0.12161238481E+04  0.12857397128E+04  0.50400001928E-02 0.  1.
       -1    1    3    3    0  502 -0.37962436594E+03 -0.17336301786E+03 -0.50102609368E+03  0.65207096374E+03  0.50400001928E-02 0. -1.
</event>
<event>
 5   0  0.2054876E-05  0.1798128E+04  0.7818609E-02  0.8707296E-01
       -1   -1    0    0    0  501  0.00000000000E+00  0.00000000000E+00  0.92586847168E+03  0.92586847169E+03  0.50400001928E-02 0. -1.
        1   -1    0    0  501    0  0.00000000000E+00  0.00000000000E+00 -0.87303518545E+03  0.87303518547E+03  0.50400001928E-02 0.  1.
    10030    2    1    2    0    0  0.00000000000E+00  0.00000000000E+00  0.52833286230E+02  0.17989036572E+04  0.17981276405E+04 0.  0.
        5    1    3    3  502    0 -0.35163437837E+03  0.45452972086E+03 -0.66529310225E+03  0.87913651107E+03  0.46999998093E+01 0.  1.
       -5    1    3    3    0  502  0.35163437837E+03 -0.45452972086E+03  0.71812638848E+03  0.91976714609E+03  0.46999998093E+01 0. -1.
</event>
<event>
 5   0  0.2038338E-05  0.1798118E+04  0.7818609E-02  0.8707301E-01
       -1   -1    0    0    0  501  0.00000000000E+00  0.00000000000E+00  0.63289187677E+03  0.63289187679E+03  0.50400001928E-02 0. -1.
        1   -1    0    0  501    0  0.00000000000E+00  0.00000000000E+00 -0.12771641465E+04  0.12771641465E+04  0.50400001928E-02 0.  1.
    10030    2    1    2    0    0  0.00000000000E+00  0.00000000000E+00 -0.64427226970E+03  0.19100560233E+04  0.17981176976E+04 0.  0.
        1    1    3    3  502    0 -0.63015406516E+03  0.26762409942E+02  0.35844935906E+03  0.72546282845E+03  0.50400001928E-02 0. -1.
       -1    1    3    3    0  502  0.63015406516E+03 -0.26762409942E+02 -0.10027216288E+04  0.11845931948E+04  0.50400001928E-02 0.  1.
</event>
<event>
 5   0  0.2038338E-05  0.1826938E+04  0.7818609E-02  0.8692104E-01
        1   -1    0    0  501    0  0.00000000000E+00  0.00000000000E+00  0.16486881831E+04  0.16486881831E+04  0.50400001928E-02 0. -1.
       -1   -1    0    0    0  501  0.00000000000E+00  0.00000000000E+00 -0.50611461737E+03  0.50611461740E+03  0.50400001928E-02 0.  1.
    10030    2    1    2    0    0  0.00000000000E+00  0.00000000000E+00  0.11425735657E+04  0.21548028005E+04  0.18269375348E+04 0.  0.
        1    1    3    3  502    0 -0.53177283754E+03  0.59481315648E+03  0.46671369807E+02  0.79922666287E+03  0.50400001928E-02 0.  1.
       -1    1    3    3    0  502  0.53177283754E+03 -0.59481315648E+03  0.10959021959E+04  0.13555761376E+04  0.50400001928E-02 0. -1.
</event>
<event>
 5   0  0.1906857E-05  0.1802495E+04  0.7818609E-02  0.8704974E-01
       -1   -1    0    0    0  501  0.00000000000E+00  0.00000000000E+00  0.39298690194E+03  0.39298690198E+03  0.50400001928E-02 0.  1.
        1   -1    0    0  501    0  0.00000000000E+00  0.00000000000E+00 -0.20668557856E+04  0.20668557856E+04  0.50400001928E-02 0. -1.
    10030    2    1    2    0    0  0.00000000000E+00  0.00000000000E+00 -0.16738688836E+04  0.24598426876E+04  0.18024952172E+04 0.  0.
        4    1    3    3  502    0 -0.64420048198E+03 -0.35053638754E+03 -0.12209917316E+03  0.74349165493E+03  0.12699999809E+01 0.  1.
       -4    1    3    3    0  502  0.64420048198E+03  0.35053638754E+03 -0.15517697105E+04  0.17163510326E+04  0.12699999809E+01 0. -1.
</event>
<event>
 5   0  0.1960300E-05  0.1800487E+04  0.7818609E-02  0.8706040E-01
       -1   -1    0    0    0  501  0.00000000000E+00  0.00000000000E+00  0.48679254547E+03  0.48679254550E+03  0.50400001928E-02 0.  1.
        1   -1    0    0  501    0  0.00000000000E+00  0.00000000000E+00 -0.16648540506E+04  0.16648540506E+04  0.50400001928E-02 0. -1.
    10030    2    1    2    0    0  0.00000000000E+00  0.00000000000E+00 -0.11780615051E+04  0.21516465961E+04  0.18004872020E+04 0.  0.
        3    1    3    3  502    0  0.14067785400E+03  0.43642217994E+03 -0.15148433629E+04  0.15827207593E+04  0.10100000352E+00 0. -1.
       -3    1    3    3    0  502 -0.14067785400E+03 -0.43642217994E+03  0.33678185780E+03  0.56892583673E+03  0.10100000352E+00 0.  1.
</event>
<event>
 5   0  0.3984648E-05  0.1796864E+04  0.7818609E-02  0.8707969E-01
        2   -1    0    0  501    0  0.00000000000E+00  0.00000000000E+00  0.15432084539E+04  0.15432084539E+04  0.25500000920E-02 0. -1.
       -2   -1    0    0    0  501  0.00000000000E+00  0.00000000000E+00 -0.52305287342E+03  0.52305287343E+03  0.25500000920E-02 0.  1.
    10030    2    1    2    0    0  0.00000000000E+00  0.00000000000E+00  0.10201555805E+04  0.20662613274E+04  0.17968635075E+04 0.  0.
        1    1    3    3  502    0  0.74968920447E+02 -0.75601898354E+03 -0.41401176854E+02  0.76085419101E+03  0.50400001928E-02 0.  1.
       -1    1    3    3    0  502 -0.74968920447E+02  0.75601898354E+03  0.10615567574E+04  0.13054071363E+04  0.50400001928E-02 0. -1.
</event>
<event>
 5   0  0.3983176E-05  0.1805786E+04  0.7818609E-02  0.8703228E-01
       -2   -1    0    0    0  501  0.00000000000E+00  0.00000000000E+00  0.58028315132E+03  0.58028315133E+03  0.25500000920E-02 0.  1.
        2   -1    0    0  501    0  0.00000000000E+00  0.00000000000E+00 -0.14048592386E+04  0.14048592386E+04  0.25500000920E-02 0. -1.
    10030    2    1    2    0    0  0.00000000000E+00  0.00000000000E+00 -0.82457608724E+03  0.19851423899E+04  0.18057864172E+04 0.  0.
        3    1    3    3  502    0 -0.53390972666E+03  0.65463489155E+03 -0.61864834530E+02  0.84701458394E+03  0.10100000352E+00 0. -1.
       -3    1    3    3    0  502  0.53390972666E+03 -0.65463489155E+03 -0.76271125271E+03  0.11381278059E+04  0.10100000352E+00 0.  1.
</event>
<event>
 5   0  0.1960300E-05  0.1802731E+04  0.7818609E-02  0.8704849E-01
        1   -1    0    0  501    0  0.00000000000E+00  0.00000000000E+00  0.82207049316E+03  0.82207049318E+03  0.50400001928E-02 0.  1.
       -1   -1    0    0    0  501  0.00000000000E+00  0.00000000000E+00 -0.98830912072E+03  0.98830912073E+03  0.50400001928E-02 0. -1.
    10030    2    1    2    0    0  0.00000000000E+00  0.00000000000E+00 -0.16623862756E+03  0.18103796139E+04  0.18027310019E+04 0.  0.
        3    1    3    3  502    0  0.80182560985E+03  0.77930722939E+02  0.32290071648E+03  0.86790690116E+03  0.10100000352E+00 0.  1.
       -3    1    3    3    0  502 -0.80182560985E+03 -0.77930722939E+02 -0.48913934404E+03  0.94247271275E+03  0.10100000352E+00 0. -1.
</event>
<event>
 5   0  0.1446750E-05  0.1795706E+04  0.7818609E-02  0.8708586E-01
       -4   -1    0    0    0  501  0.00000000000E+00  0.00000000000E+00  0.68220745040E+03  0.68220863252E+03  0.12699999809E+01 0. -1.
        4   -1    0    0  501    0  0.00000000000E+00  0.00000000000E+00 -0.11816615064E+04  0.11816621889E+04  0.12699999809E+01 0.  1.
    10030    2    1    2    0    0  0.00000000000E+00  0.00000000000E+00 -0.49945405605E+03  0.18638708214E+04  0.17957060129E+04 0.  0.
        2    1    3    3  502    0 -0.47770293078E+02  0.60086619072E+03 -0.94043286774E+03  0.11170211094E+04  0.25500000920E-02 0.  1.
       -2    1    3    3    0  502  0.47770293078E+02 -0.60086619072E+03  0.44097881169E+03  0.74684971207E+03  0.25500000920E-02 0. -1.
</event>
<event>
 5   0  0.1906857E-05  0.1803046E+04  0.7818609E-02  0.8704682E-01
        1   -1    0    0  501    0  0.00000000000E+00  0.00000000000E+00  0.13583065785E+04  0.13583065785E+04  0.50400001928E-02 0.  1.
       -1   -1    0    0    0  501  0.00000000000E+00  0.00000000000E+00 -0.59835048965E+03  0.59835048967E+03  0.50400001928E-02 0. -1.
    10030    2    1    2    0    0  0.00000000000E+00  0.00000000000E+00  0.75995608887E+03  0.19566570682E+04  0.18030456526E+04 0.  0.
        4    1    3    3  502    0  0.89351531377E+03  0.82485128412E+02  0.28556989394E+03  0.94166086761E+03  0.12699999809E+01 0. -1.
       -4    1    3    3    0  502 -0.89351531377E+03 -0.82485128412E+02  0.47438619493E+03  0.10149962006E+04  0.12699999809E+01 0.  1.
</event>
<event>
 5   0  0.2001811E-05  0.1800533E+04  0.7818609E-02  0.8706016E-01
       -1   -1    0    0    0  501  0.00000000000E+00  0.00000000000E+00  0.11067789366E+04  0.11067789366E+04  0.50400001928E-02 0. -1.
        1   -1    0    0  501    0  0.00000000000E+00  0.00000000000E+00 -0.73228681652E+03  0.73228681654E+03  0.50400001928E-02 0.  1.
    10030    2    1    2    0    0  0.00000000000E+00  0.00000000000E+00  0.37449212008E+03  0.18390657532E+04  0.18005328368E+04 0.  0.
        2    1    3    3  502    0  0.98188801989E+02 -0.65245631601E+03 -0.43834785434E+03  0.79214211260E+03  0.25500000920E-02 0.  1.
       -2    1    3    3    0  502 -0.98188801989E+02  0.65245631601E+03  0.81283997442E+03  0.10469236406E+04  0.25500000920E-02 0. -1.
</event>
<event>
 5   0  0.2038338E-05  0.1798723E+04  0.7818609E-02  0.8706979E-01
       -1   -1    0    0    0  501  0.00000000000E+00  0.00000000000E+00  0.64293915053E+03  0.64293915055E+03  0.50400001928E-02 0.  1.
        1   -1    0    0  501    0  0.00000000000E+00  0.00000000000E+00 -0.12580524088E+04  0.12580524088E+04  0.50400001928E-02 0. -1.
    10030    2    1    2    0    0  0.00000000000E+00  0.00000000000E+00 -0.61511325831E+03  0.19009915594E+04  0.17987230438E+04 0.  0.
        1    1    3    3  502    0 -0.47031886272E+03  0.67872723526E+03 -0.68416040567E+03  0.10723553297E+04  0.50400001928E-02 0. -1.
       -1    1    3    3    0  502  0.47031886272E+03 -0.67872723526E+03  0.69047147367E+02  0.82863622965E+03  0.50400001928E-02 0.  1.
</event>
<event>
 5   0  0.2054876E-05  0.1800061E+04  0.7818609E-02  0.8706267E-01
        1   -1    0    0  501    0  0.00000000000E+00  0.00000000000E+00  0.11808931136E+04  0.11808931136E+04  0.50400001928E-02 0.  1.
       -1   -1    0    0    0  501  0.00000000000E+00  0.00000000000E+00 -0.68596807112E+03  0.68596807113E+03  0.50400001928E-02 0. -1.
    10030    2    1    2    0    0  0.00000000000E+00  0.00000000000E+00  0.49492504252E+03  0.18668611848E+04  0.18000610783E+04 0.  0.
        5    1    3    3  502    0 -0.44047388718E+03 -0.13016125702E+03 -0.55525899776E+03  0.72062045676E+03  0.46999998093E+01 0. -1.
       -5    1    3    3    0  502  0.44047388718E+03  0.13016125702E+03  0.10501840403E+04  0.11462407280E+04  0.46999998093E+01 0.  1.
</event>
<event>
 5   0  0.3993393E-05  0.1799286E+04  0.7818609E-02  0.8706679E-01
        2   -1    0    0  501    0  0.00000000000E+00  0.00000000000E+00  0.44297114070E+03  0.44297114071E+03  0.25500000920E-02 0.  1.
       -2   -1    0    0    0  501  0.00000000000E+00  0.00000000000E+00 -0.18271108527E+04  0.18271108527E+04  0.25500000920E-02 0. -1.
    10030    2    1    2    0    0  0.00000000000E+00  0.00000000000E+00 -0.13841397120E+04  0.22700819934E+04  0.17992858346E+04 0.  0.
        5    1    3    3  502    0  0.84969287977E+02  0.19195579250E+03 -0.17957628776E+04  0.18079970157E+04  0.46999998093E+01 0. -1.
       -5    1    3    3    0  502 -0.84969287977E+02 -0.19195579250E+03  0.41162316560E+03  0.46208497772E+03  0.46999998093E+01 0.  1.
</event>
<event>
 5   0  0.3909859E-05  0.1794757E+04  0.7818609E-02  0.8709093E-01
        2   -1    0    0  501    0  0.00000000000E+00  0.00000000000E+00  0.16484782693E+04  0.16484782693E+04  0.25500000920E-02 0.  1.
       -2   -1    0    0    0  501  0.00000000000E+00  0.00000000000E+00 -0.48850399396E+03  0.48850399397E+03  0.25500000920E-02 0. -1.
    10030    2    1    2    0    0  0.00000000000E+00  0.00000000000E+00  0.11599742754E+04  0.21369822633E+04  0.17947570516E+04 0.  0.
        4    1    3    3  502    0 -0.38753269717E+03 -0.78723814139E+03  0.35608498262E+03  0.94695491466E+03  0.12699999809E+01 0. -1.
       -4    1    3    3    0  502  0.38753269717E+03  0.78723814139E+03  0.80388929277E+03  0.11900273487E+04  0.12699999809E+01 0.  1.
</event>
<event>
 5   0  0.2054876E-05  0.1800769E+04  0.7818609E-02  0.8705891E-01
       -1   -1    0    0    0  501  0.00000000000E+00  0.00000000000E+00  0.61727465830E+03  0.61727465832E+03  0.50400001928E-02 0.  1.
        1   -1    0    0  501    0  0.00000000000E+00  0.00000000000E+00 -0.13133415020E+04  0.13133415020E+04  0.50400001928E-02 0. -1.
    10030    2    1    2    0    0  0.00000000000E+00  0.00000000000E+00 -0.69606684371E+03  0.19306161603E+04  0.18007691989E+04 0.  0.
        5    1    3    3  502    0  0.80630890837E+03 -0.40060513682E+03 -0.34031682134E+03  0.96252592705E+03  0.46999998093E+01 0. -1.
       -5    1    3    3    0  502 -0.80630890837E+03  0.40060513682E+03 -0.35575002236E+03  0.96809023328E+03  0.46999998093E+01 0.  1.
</event>
<event>
 5   0  0.1446750E-05  0.1806395E+04  0.7818609E-02  0.8702906E-01
        3   -1    0    0  501    0  0.00000000000E+00  0.00000000000E+00  0.98191078776E+03  0.98191079296E+03  0.10100000352E+00 0.  1.
       -3   -1    0    0    0  501  0.00000000000E+00  0.00000000000E+00 -0.83079406632E+03  0.83079407246E+03  0.10100000352E+00 0. -1.
    10030    2    1    2    0    0  0.00000000000E+00  0.00000000000E+00  0.15111672144E+03  0.18127048654E+04  0.18063949362E+04 0.  0.
        4    1    3    3  502    0  0.74623036395E+03 -0.39298538168E+03  0.39990060133E+03  0.93339132744E+03  0.12699999809E+01 0.  1.
       -4    1    3    3    0  502 -0.74623036395E+03  0.39298538168E+03 -0.24878387989E+03  0.87931353798E+03  0.12699999809E+01 0. -1.
</event>
<event>
 5   0  0.3984648E-05  0.1801163E+04  0.7818609E-02  0.8705681E-01
       -2   -1    0    0    0  501  0.00000000000E+00  0.00000000000E+00  0.34852114048E+03  0.34852114049E+03  0.25500000920E-02 0. -1.
        2   -1    0    0  501    0  0.00000000000E+00  0.00000000000E+00 -0.23271091104E+04  0.23271091104E+04  0.25500000920E-02 0.  1.
    10030    2    1    2    0    0  0.00000000000E+00  0.00000000000E+00 -0.19785879699E+04  0.26756302509E+04  0.18011626481E+04 0.  0.
        1    1    3    3  502    0  0.25805503516E+03 -0.23584176559E+03  0.24361248579E+03  0.42609949874E+03  0.50400001928E-02 0. -1.
       -1    1    3    3    0  502 -0.25805503516E+03  0.23584176559E+03 -0.22222004557E+04  0.22495307522E+04  0.50400001928E-02 0.  1.
</event>
<event>
 5   0  0.3909859E-05  0.1800788E+04  0.7818609E-02  0.8705881E-01
        2   -1    0    0  501    0  0.00000000000E+00  0.00000000000E+00  0.13989618073E+04  0.13989618073E+04  0.25500000920E-02 0.  1.
       -2   -1    0    0    0  501  0.00000000000E+00  0.00000000000E+00 -0.57950788389E+03  0.57950788389E+03  0.25500000920E-02 0. -1.
    10030    2    1    2    0    0  0.00000000000E+00  0.00000000000E+00  0.81945392343E+03  0.19784696912E+04  0.18007880459E+04 0.  0.
        4    1    3    3  502    0  0.30681291776E+03  0.48932039988E+03 -0.34918139469E+03  0.67490583013E+03  0.12699999809E+01 0. -1.
       -4    1    3    3    0  502 -0.30681291776E+03 -0.48932039988E+03  0.11686353181E+04  0.13035638611E+04  0.12699999809E+01 0.  1.
</event>
<event>
 5   0  0.3909859E-05  0.1799849E+04  0.7818609E-02  0.8706380E-01
       -2   -1    0    0    0  501  0.00000000000E+00  0.00000000000E+00  0.87138949680E+03  0.87138949681E+03  0.25500000920E-02 0. -1.
        2   -1    0    0  501    0  0.00000000000E+00  0.00000000000E+00 -0.92939344120E+03  0.92939344120E+03  0.25500000920E-02 0.  1.
    10030    2    1    2    0    0  0.00000000000E+00  0.00000000000E+00 -0.58003944396E+02  0.18007829380E+04  0.17998485304E+04 0.  0.
        4    1    3    3  502    0  0.41369991696E+03  0.57183734564E+03  0.52960365247E+03  0.88239855664E+03  0.12699999809E+01 0. -1.
       -4    1    3    3    0  502 -0.41369991696E+03 -0.57183734564E+03 -0.58760759686E+03  0.91838438137E+03  0.12699999809E+01 0.  1.
</event>
<event>
 5   0  0.1906857E-05  0.1800629E+04  0.7818609E-02  0.8705965E-01
       -1   -1    0    0    0  501  0.00000000000E+00  0.00000000000E+00  0.61413156615E+03  0.61413156617E+03  0.50400001928E-02 0. -1.
        1   -1    0    0  501    0  0.00000000000E+00  0.00000000000E+00 -0.13198570328E+04  0.13198570328E+04  0.50400001928E-02 0.  1.
    10030    2    1    2    0    0  0.00000000000E+00  0.00000000000E+00 -0.70572546662E+03  0.19339885989E+04  0.18006286310E+04 0.  0.
        4    1    3    3  502    0  0.12670198468E+03  0.80774091916E+03 -0.75769397623E+03  0.11147199469E+04  0.12699999809E+01 0.  1.
       -4    1    3    3    0  502 -0.12670198468E+03 -0.80774091916E+03  0.51968509609E+02  0.81926865209E+03  0.12699999809E+01 0. -1.
</event>
<event>
 5   0  0.1960300E-05  0.1799143E+04  0.7818609E-02  0.8706755E-01
       -1   -1    0    0    0  501  0.00000000000E+00  0.00000000000E+00  0.69331120398E+03  0.69331120400E+03  0.50400001928E-02 0.  1.
        1   -1    0    0  501    0  0.00000000000E+00  0.00000000000E+00 -0.11671946282E+04  0.11671946282E+04  0.50400001928E-02 0. -1.
    10030    2    1    2    0    0  0.00000000000E+00  0.00000000000E+00 -0.47388342422E+03  0.18605058322E+04  0.17991432550E+04 0.  0.
        3    1    3    3  502    0  0.85688115919E+02 -0.89030815785E+03 -0.33633454308E+03  0.95556894267E+03  0.10100000352E+00 0.  1.
       -3    1    3    3    0  502 -0.85688115919E+02  0.89030815785E+03 -0.13754888114E+03  0.90493688953E+03  0.10100000352E+00 0. -1.
</event>
<event>
 5   0  0.1960300E-05  0.1795884E+04  0.7818609E-02  0.8708491E-01
       -1   -1    0    0    0  501  0.00000000000E+00  0.00000000000E+00  0.87177447976E+03  0.87177447978E+03  0.50400001928E-02 0. -1.
        1   -1    0    0  501    0  0.00000000000E+00  0.00000000000E+00 -0.92489498051E+03  0.92489498053E+03  0.50400001928E-02 0.  1.
    10030    2    1    2    0    0  0.00000000000E+00  0.00000000000E+00 -0.53120500748E+02  0.17966694603E+04  0.17958840057E+04 0.  0.
        3    1    3    3  502    0  0.62965855087E+03 -0.58106817720E+03  0.24223869530E+03  0.89038739487E+03  0.10100000352E+00 0. -1.
       -3    1    3    3    0  502 -0.62965855087E+03  0.58106817720E+03 -0.29535919605E+03  0.90628206544E+03  0.10100000352E+00 0.  1.
</event>
<event>
 5   0  0.3909859E-05  0.1798843E+04  0.7818609E-02  0.8706915E-01
       -2   -1    0    0    0  501  0.00000000000E+00  0.00000000000E+00  0.96847392581E+03  0.96847392581E+03  0.25500000920E-02 0.  1.
        2   -1    0    0  501    0  0.00000000000E+00  0.00000000000E+00 -0.83529228352E+03  0.83529228352E+03  0.25500000920E-02 0. -1.
    10030    2    1    2    0    0  0.00000000000E+00  0.00000000000E+00  0.13318164229E+03  0.18037662093E+04  0.17988427358E+04 0.  0.
        4    1    3    3  502    0 -0.12809088413E+03  0.49511017291E+03  0.80849142516E+03  0.95666156784E+03  0.12699999809E+01 0.  1.
       -4    1    3    3    0  502  0.12809088413E+03 -0.49511017291E+03 -0.67530978287E+03  0.84710464150E+03  0.12699999809E+01 0. -1.
</event>
<event>
 5   0  0.1906857E-05  0.1800865E+04  0.7818609E-02  0.8705840E-01
       -1   -1    0    0    0  501  0.00000000000E+00  0.00000000000E+00  0.53860786459E+03  0.53860786462E+03  0.50400001928E-02 0.  1.
        1   -1    0    0  501    0  0.00000000000E+00  0.00000000000E+00 -0.15053220446E+04  0.15053220446E+04  0.50400001928E-02 0. -1.
    10030    2    1    2    0    0  0.00000000000E+00  0.00000000000E+00 -0.96671417996E+03  0.20439299092E+04  0.18008645612E+04 0.  0.
        4    1    3    3  502    0 -0.89675907565E+03  0.39075595672E+02 -0.40251925242E+03  0.98373121502E+03  0.12699999809E+01 0.  1.
       -4    1    3    3    0  502  0.89675907565E+03 -0.39075595672E+02 -0.56419492754E+03  0.10601986942E+04  0.12699999809E+01 0. -1.
</event>
<event>
 5   0  0.3984648E-05  0.1806607E+04  0.7818609E-02  0.8702794E-01
       -2   -1    0    0    0  501  0.00000000000E+00  0.00000000000E+00  0.57975045721E+03  0.57975045722E+03  0.25500000920E-02 0.  1.
        2   -1    0    0  501    0  0.00000000000E+00  0.00000000000E+00 -0.14074288764E+04  0.14074288764E+04  0.25500000920E-02 0. -1.
    10030    2    1    2    0    0  0.00000000000E+00  0.00000000000E+00 -0.82767841922E+03  0.19871793337E+04  0.18066073559E+04 0.  0.
        1    1    3    3  502    0  0.87889049694E+03  0.97532052498E+02 -0.21102864752E+03  0.90911720751E+03  0.50400001928E-02 0. -1.
       -1    1    3    3    0  502 -0.87889049694E+03 -0.97532052498E+02 -0.61664977170E+03  0.10780621262E+04  0.50400001928E-02 0.  1.
</event>
<event>
 5   0  0.2054876E-05  0.1796888E+04  0.7818609E-02  0.8707956E-01
       -1   -1    0    0    0  501  0.00000000000E+00  0.00000000000E+00  0.47162494944E+03  0.47162494946E+03  0.50400001928E-02 0.  1.
        1   -1    0    0  501    0  0.00000000000E+00  0.00000000000E+00 -0.17115323301E+04  0.17115323301E+04  0.50400001928E-02 0. -1.
    10030    2    1    2    0    0  0.00000000000E+00  0.00000000000E+00 -0.12399073807E+04  0.21831572796E+04  0.17968876968E+04 0.  0.
        5    1    3    3  502    0  0.14909273758E+03 -0.55144925635E+03  0.22254814524E+03  0.61308620412E+03  0.46999998093E+01 0.  1.
       -5    1    3    3    0  502 -0.14909273758E+03  0.55144925635E+03 -0.14624555259E+04  0.15700710755E+04  0.46999998093E+01 0. -1.
</event>
<event>
 5   0  0.3983176E-05  0.1807242E+04  0.7818609E-02  0.8702458E-01
        2   -1    0    0  501    0  0.00000000000E+00  0.00000000000E+00  0.24357326959E+04  0.24357326959E+04  0.25500000920E-02 0.  1.
       -2   -1    0    0    0  501  0.00000000000E+00  0.00000000000E+00 -0.33522991662E+03  0.33522991663E+03  0.25500000920E-02 0. -1.
    10030    2    1    2    0    0  0.00000000000E+00  0.00000000000E+00  0.21005027793E+04  0.27709626125E+04  0.18072415097E+04 0.  0.
        3    1    3    3  502    0  0.66616056314E+03 -0.49549686000E+02  0.19832789885E+04  0.20927543152E+04  0.10100000352E+00 0.  1.
       -3    1    3    3    0  502 -0.66616056314E+03  0.49549686000E+02  0.11722379076E+03  0.67820829734E+03  0.10100000352E+00 0. -1.
</event>
<event>
 5   0  0.3984648E-05  0.1801353E+04  0.7818609E-02  0.8705581E-01
        2   -1    0    0  501    0  0.00000000000E+00  0.00000000000E+00  0.95173941420E+03  0.95173941420E+03  0.25500000920E-02 0.  1.
       -2   -1    0    0    0  501  0.00000000000E+00  0.00000000000E+00 -0.85235282735E+03  0.85235282735E+03  0.25500000920E-02 0. -1.
    10030    2    1    2    0    0  0.00000000000E+00  0.00000000000E+00  0.99386586851E+02  0.18040922415E+04  0.18013525814E+04 0.  0.
        1    1    3    3  502    0  0.29121842109E+03  0.29140774204E+03  0.85184284256E+03  0.94623615940E+03  0.50400001928E-02 0.  1.
       -1    1    3    3    0  502 -0.29121842109E+03 -0.29140774204E+03 -0.75245625571E+03  0.85785608215E+03  0.50400001928E-02 0. -1.
</event>
<event>
 5   0  0.2054876E-05  0.1800923E+04  0.7818609E-02  0.8705809E-01
        1   -1    0    0  501    0  0.00000000000E+00  0.00000000000E+00  0.19621815289E+04  0.19621815289E+04  0.50400001928E-02 0.  1.
       -1   -1    0    0    0  501  0.00000000000E+00  0.00000000000E+00 -0.41322936062E+03  0.41322936065E+03  0.50400001928E-02 0. -1.
    10030    2    1    2    0    0  0.00000000000E+00  0.00000000000E+00  0.15489521683E+04  0.23754108895E+04  0.18009231173E+04 0.  0.
        5    1    3    3  502    0 -0.84459825188E+03  0.19353470394E+03  0.10975818234E+04  0.13983954511E+04  0.46999998093E+01 0. -1.
       -5    1    3    3    0  502  0.84459825188E+03 -0.19353470394E+03  0.45137034491E+03  0.97701543844E+03  0.46999998093E+01 0.  1.
</event>
<event>
 5   0  0.2001811E-05  0.1799215E+04  0.7818609E-02  0.8706717E-01
        1   -1    0    0  501    0  0.00000000000E+00  0.00000000000E+00  0.92807840158E+03  0.92807840160E+03  0.50400001928E-02 0. -1.
       -1   -1    0    0    0  501  0.00000000000E+00  0.00000000000E+00 -0.87200981362E+03  0.87200981363E+03  0.50400001928E-02 0.  1.
    10030    2    1    2    0    0  0.00000000000E+00  0.00000000000E+00  0.56068587963E+02  0.18000882152E+04  0.17992147999E+04 0.  0.
        2    1    3    3  502    0 -0.57487431547E+03 -0.68994934945E+03 -0.24744424621E+02  0.89840017250E+03  0.25500000920E-02 0. -1.
       -2    1    3    3    0  502  0.57487431547E+03  0.68994934945E+03  0.80813012584E+02  0.90168804273E+03  0.25500000920E-02 0.  1.
</event>
<event>
 5   0  0.4015729E-05  0.1797023E+04  0.7818609E-02  0.8707884E-01
       -2   -1    0    0    0  501  0.00000000000E+00  0.00000000000E+00  0.98613004763E+03  0.98613004764E+03  0.25500000920E-02 0. -1.
        2   -1    0    0  501    0  0.00000000000E+00  0.00000000000E+00 -0.81867780309E+03  0.81867780310E+03  0.25500000920E-02 0.  1.
    10030    2    1    2    0    0  0.00000000000E+00  0.00000000000E+00  0.16745224454E+03  0.18048078507E+04  0.17970228501E+04 0.  0.
        2    1    3    3  502    0 -0.30650749909E+03 -0.84089944744E+03  0.42374774956E+01  0.89502887324E+03  0.25500000920E-02 0.  1.
       -2    1    3    3    0  502  0.30650749909E+03  0.84089944744E+03  0.16321476704E+03  0.90977897750E+03  0.25500000920E-02 0. -1.
</event>
<event>
 5   0  0.4015729E-05  0.1794867E+04  0.7818609E-02  0.8709034E-01
        2   -1    0    0  501    0  0.00000000000E+00  0.00000000000E+00  0.12347374097E+04  0.12347374097E+04  0.25500000920E-02 0.  1.
       -2   -1    0    0    0  501  0.00000000000E+00  0.00000000000E+00 -0.65227402675E+03  0.65227402676E+03  0.25500000920E-02 0. -1.
    10030    2    1    2    0    0  0.00000000000E+00  0.00000000000E+00  0.58246338299E+03  0.18870114365E+04  0.17948672845E+04 0.  0.
        2    1    3    3  502    0  0.66874858657E+03 -0.59832749426E+03  0.27765844655E+03  0.93931606788E+03  0.25500000920E-02 0.  1.
       -2    1    3    3    0  502 -0.66874858657E+03  0.59832749426E+03  0.30480493643E+03  0.94769536862E+03  0.25500000920E-02 0. -1.
</event>
<event>
 5   0  0.1960300E-05  0.1799145E+04  0.7818609E-02  0.8706754E-01
        1   -1    0    0  501    0  0.00000000000E+00  0.00000000000E+00  0.16944649926E+04  0.16944649926E+04  0.50400001928E-02 0. -1.
       -1   -1    0    0    0  501  0.00000000000E+00  0.00000000000E+00 -0.47757314724E+03  0.47757314726E+03  0.50400001928E-02 0.  1.
    10030    2    1    2    0    0  0.00000000000E+00  0.00000000000E+00  0.12168918453E+04  0.21720381399E+04  0.17991453298E+04 0.  0.
        3    1    3    3  502    0 -0.78152407229E+03 -0.44492210318E+03  0.63531706374E+03  0.11010737192E+04  0.10100000352E+00 0.  1.
       -3    1    3    3    0  502  0.78152407229E+03  0.44492210318E+03  0.58157478160E+03  0.10709644206E+04  0.10100000352E+00 0. -1.
</event>
<event>
 5   0  0.2001811E-05  0.1793576E+04  0.7818609E-02  0.8709723E-01
        1   -1    0    0  501    0  0.00000000000E+00  0.00000000000E+00  0.11868129744E+04  0.11868129744E+04  0.50400001928E-02 0.  1.
       -1   -1    0    0    0  501  0.00000000000E+00  0.00000000000E+00 -0.67763723958E+03  0.67763723960E+03  0.50400001928E-02 0. -1.
    10030    2    1    2    0    0  0.00000000000E+00  0.00000000000E+00  0.50917573485E+03  0.18644502140E+04  0.17935759453E+04 0.  0.
        2    1    3    3  502    0  0.41804184748E+03  0.31486385691E+03 -0.50242680193E+03  0.72548668212E+03  0.25500000920E-02 0. -1.
       -2    1    3    3    0  502 -0.41804184748E+03 -0.31486385691E+03  0.10116025368E+04  0.11389635319E+04  0.25500000920E-02 0.  1.
</event>
<event>
 5   0  0.3984648E-05  0.1800621E+04  0.7818609E-02  0.8705969E-01
        2   -1    0    0  501    0  0.00000000000E+00  0.00000000000E+00  0.85975148963E+03  0.85975148963E+03  0.25500000920E-02 0.  1.
       -2   -1    0    0    0  501  0.00000000000E+00  0.00000000000E+00 -0.94278313864E+03  0.94278313864E+03  0.25500000920E-02 0. -1.
    10030    2    1    2    0    0  0.00000000000E+00  0.00000000000E+00 -0.83031649008E+02  0.18025346283E+04  0.18006212348E+04 0.  0.
        1    1    3    3  502    0  0.68863143685E+03 -0.22452230830E+03 -0.57681358781E+03  0.92592517940E+03  0.50400001928E-02 0. -1.
       -1    1    3    3    0  502 -0.68863143685E+03  0.22452230830E+03  0.49378193880E+03  0.87660944887E+03  0.50400001928E-02 0.  1.
</event>
<event>
 5   0  0.1906857E-05  0.1799851E+04  0.7818609E-02  0.8706379E-01
        1   -1    0    0  501    0  0.00000000000E+00  0.00000000000E+00  0.73348062788E+03  0.73348062790E+03  0.50400001928E-02 0. -1.
       -1   -1    0    0    0  501  0.00000000000E+00  0.00000000000E+00 -0.11041403702E+04  0.11041403702E+04  0.50400001928E-02 0.  1.
    10030    2    1    2    0    0  0.00000000000E+00  0.00000000000E+00 -0.37065974227E+03  0.18376209981E+04  0.17998506294E+04 0.  0.
        4    1    3    3  502    0  0.13388320214E+03  0.26085224574E+03 -0.10540049752E+04  0.10940277449E+04  0.12699999809E+01 0.  1.
       -4    1    3    3    0  502 -0.13388320214E+03 -0.26085224574E+03  0.68334523293E+03  0.74359325319E+03  0.12699999809E+01 0. -1.
</event>
<event>
 5   0  0.3984648E-05  0.1800182E+04  0.7818609E-02  0.8706202E-01
       -2   -1    0    0    0  501  0.00000000000E+00  0.00000000000E+00  0.84809477601E+03  0.84809477601E+03  0.25500000920E-02 0. -1.
        2   -1    0    0  501    0  0.00000000000E+00  0.00000000000E+00 -0.95527548203E+03  0.95527548204E+03  0.25500000920E-02 0.  1.
    10030    2    1    2    0    0  0.00000000000E+00  0.00000000000E+00 -0.10718070602E+03  0.18033702580E+04  0.18001823752E+04 0.  0.
        1    1    3    3  502    0 -0.28240215082E+03  0.43198334448E+03  0.68514591505E+03  0.85777940616E+03  0.50400001928E-02 0. -1.
       -1    1    3    3    0  502  0.28240215082E+03 -0.43198334448E+03 -0.79232662107E+03  0.94559085189E+03  0.50400001928E-02 0.  1.
</event>
<event>
 5   0  0.2038338E-05  0.1795783E+04  0.7818609E-02  0.8708545E-01
        1   -1    0    0  501    0  0.00000000000E+00  0.00000000000E+00  0.13326123459E+04  0.13326123459E+04  0.50400001928E-02 0. -1.
       -1   -1    0    0    0  501  0.00000000000E+00  0.00000000000E+00 -0.60498425241E+03  0.60498425243E+03  0.50400001928E-02 0.  1.
    10030    2    1    2    0    0  0.00000000000E+00  0.00000000000E+00  0.72762809345E+03  0.19375965983E+04  0.17957833765E+04 0.  0.
        1    1    3    3  502    0  0.68652243699E+03  0.33268642455E+03 -0.14709416314E+03  0.77693629496E+03  0.50400001928E-02 0.  1.
       -1    1    3    3    0  502 -0.68652243699E+03 -0.33268642455E+03  0.87472225659E+03  0.11606603033E+04  0.50400001928E-02 0. -1.
</event>
<event>
 5   0  0.3909859E-05  0.1798095E+04  0.7818609E-02  0.8707313E-01
        2   -1    0    0  501    0  0.00000000000E+00  0.00000000000E+00  0.67288514320E+03  0.67288514321E+03  0.25500000920E-02 0.  1.
       -2   -1    0    0    0  501  0.00000000000E+00  0.00000000000E+00 -0.12012254045E+04  0.12012254045E+04  0.25500000920E-02 0. -1.
    10030    2    1    2    0    0  0.00000000000E+00  0.00000000000E+00 -0.52834026133E+03  0.18741105477E+04  0.17980953572E+04 0.  0.
        4    1    3    3  502    0  0.78207613807E+02 -0.38476301728E+03  0.57880201803E+03  0.69940860683E+03  0.12699999809E+01 0.  1.
       -4    1    3    3    0  502 -0.78207613807E+02  0.38476301728E+03 -0.11071422794E+04  0.11747019409E+04  0.12699999809E+01 0. -1.
</event>
<event>
 5   0  0.1446750E-05  0.1806901E+04  0.7818609E-02  0.8702638E-01
       -3   -1    0    0    0  501  0.00000000000E+00  0.00000000000E+00  0.15198538770E+04  0.15198538804E+04  0.10100000352E+00 0.  1.
        3   -1    0    0  501    0  0.00000000000E+00  0.00000000000E+00 -0.53704041830E+03  0.53704042780E+03  0.10100000352E+00 0. -1.
    10030    2    1    2    0    0  0.00000000000E+00  0.00000000000E+00  0.98281345870E+03  0.20568943082E+04  0.18069011872E+04 0.  0.
        2    1    3    3  502    0  0.69279587520E+03 -0.42870574592E+03  0.93590211603E+03  0.12408333942E+04  0.25500000920E-02 0.  1.
       -2    1    3    3    0  502 -0.69279587520E+03  0.42870574592E+03  0.46911342667E+02  0.81606091400E+03  0.25500000920E-02 0. -1.
</event>
<event>
 5   0  0.3983176E-05  0.1804146E+04  0.7818609E-02  0.8704098E-01
       -2   -1    0    0    0  501  0.00000000000E+00  0.00000000000E+00  0.82497959495E+03  0.82497959495E+03  0.25500000920E-02 0. -1.
        2   -1    0    0  501    0  0.00000000000E+00  0.00000000000E+00 -0.98637058011E+03  0.98637058012E+03  0.25500000920E-02 0.  1.
    10030    2    1    2    0    0  0.00000000000E+00  0.00000000000E+00 -0.16139098516E+03  0.18113501751E+04  0.18041458939E+04 0.  0.
        3    1    3    3  502    0 -0.85454607545E+03  0.19556790001E+02  0.20873351968E+03  0.87988701294E+03  0.10100000352E+00 0. -1.
       -3    1    3    3    0  502  0.85454607545E+03 -0.19556790001E+02 -0.37012450485E+03  0.93146316212E+03  0.10100000352E+00 0.  1.
</event>
<event>
 5   0  0.4015729E-05  0.1795552E+04  0.7818609E-02  0.8708669E-01
       -2   -1    0    0    0  501  0.00000000000E+00  0.00000000000E+00  0.90388110415E+03  0.90388110416E+03  0.25500000920E-02 0. -1.
        2   -1    0    0  501    0  0.00000000000E+00  0.00000000000E+00 -0.89171197565E+03  0.89171197566E+03  0.25500000920E-02 0.  1.
    10030    2    1    2    0    0  0.00000000000E+00  0.00000000000E+00  0.12169128501E+02  0.17955930798E+04  0.17955518429E+04 0.  0.
        2    1    3    3  502    0  0.43495040389E+03  0.78151107345E+03  0.83933595919E+02  0.89832413989E+03  0.25500000920E-02 0. -1.
       -2    1    3    3    0  502 -0.43495040389E+03 -0.78151107345E+03 -0.71764467418E+02  0.89726893993E+03  0.25500000920E-02 0.  1.
</event>
<event>
 5   0  0.3984648E-05  0.1800632E+04  0.7818609E-02  0.8705964E-01
        2   -1    0    0  501    0  0.00000000000E+00  0.00000000000E+00  0.22352787732E+04  0.22352787732E+04  0.25500000920E-02 0.  1.
       -2   -1    0    0    0  501  0.00000000000E+00  0.00000000000E+00 -0.36262529735E+03  0.36262529735E+03  0.25500000920E-02 0. -1.
    10030    2    1    2    0    0  0.00000000000E+00  0.00000000000E+00  0.18726534759E+04  0.25979040706E+04  0.18006317000E+04 0.  0.
        1    1    3    3  502    0 -0.43612657854E+03 -0.11544033575E+03 -0.18777432604E+03  0.48866354599E+03  0.50400001928E-02 0. -1.
       -1    1    3    3    0  502  0.43612657854E+03  0.11544033575E+03  0.20604278019E+04  0.21092405246E+04  0.50400001928E-02 0.  1.
</event>
<event>
 5   0  0.2001811E-05  0.1800063E+04  0.7818609E-02  0.8706266E-01
        1   -1    0    0  501    0  0.00000000000E+00  0.00000000000E+00  0.52346726191E+03  0.52346726194E+03  0.50400001928E-02 0. -1.
       -1   -1    0    0    0  501  0.00000000000E+00  0.00000000000E+00 -0.15474824817E+04  0.15474824817E+04  0.50400001928E-02 0.  1.
    10030    2    1    2    0    0  0.00000000000E+00  0.00000000000E+00 -0.10240152198E+04  0.20709497436E+04  0.18000626851E+04 0.  0.
        2    1    3    3  502    0 -0.26300634354E+03  0.57740722539E+03  0.22240095251E+03  0.67233445871E+03  0.25500000920E-02 0. -1.
       -2    1    3    3    0  502  0.26300634354E+03 -0.57740722539E+03 -0.12464161723E+04  0.13986152849E+04  0.25500000920E-02 0.  1.
</event>
<event>
 5   0  0.4015729E-05  0.1801983E+04  0.7818609E-02  0.8705245E-01
        2   -1    0    0  501    0  0.00000000000E+00  0.00000000000E+00  0.12277729402E+04  0.12277729402E+04  0.25500000920E-02 0. -1.
       -2   -1    0    0    0  501  0.00000000000E+00  0.00000000000E+00 -0.66118583842E+03  0.66118583842E+03  0.25500000920E-02 0.  1.
    10030    2    1    2    0    0  0.00000000000E+00  0.00000000000E+00  0.56658710179E+03  0.18889587786E+04  0.18019834415E+04 0.  0.
        2    1    3    3  502    0  0.76679210731E+03  0.46944292916E+03  0.22181756070E+03  0.92603986406E+03  0.25500000920E-02 0.  1.
       -2    1    3    3    0  502 -0.76679210731E+03 -0.46944292916E+03  0.34476954108E+03  0.96291891457E+03  0.25500000920E-02 0. -1.
</event>
<event>
 5   0  0.1960300E-05  0.1800615E+04  0.7818609E-02  0.8705972E-01
       -1   -1    0    0    0  501  0.00000000000E+00  0.00000000000E+00  0.24918884554E+04  0.24918884554E+04  0.50400001928E-02 0.  1.
        1   -1    0    0  501    0  0.00000000000E+00  0.00000000000E+00 -0.32527693821E+03  0.32527693825E+03  0.50400001928E-02 0. -1.
    10030    2    1    2    0    0  0.00000000000E+00  0.00000000000E+00  0.21666115172E+04  0.28171653937E+04  0.18006152806E+04 0.  0.
        3    1    3    3  502    0  0.56173716924E+03  0.34852623743E+03  0.20395236415E+04  0.21439859794E+04  0.10100000352E+00 0.  1.
       -3    1    3    3    0  502 -0.56173716924E+03 -0.34852623743E+03  0.12708787574E+03  0.67317941430E+03  0.10100000352E+00 0. -1.
</event>
<event>
 5   0  0.1906857E-05  0.1800927E+04  0.7818609E-02  0.8705806E-01
        1   -1    0    0  501    0  0.00000000000E+00  0.00000000000E+00  0.17839029894E+04  0.17839029894E+04  0.50400001928E-02 0. -1.
       -1   -1    0    0    0  501  0.00000000000E+00  0.00000000000E+00 -0.45452854765E+03  0.45452854768E+03  0.50400001928E-02 0.  1.
    10030    2    1    2    0    0  0.00000000000E+00  0.00000000000E+00  0.13293744418E+04  0.22384315371E+04  0.18009273555E+04 0.  0.
        4    1    3    3  502    0  0.55434104422E+03  0.30240711603E+02  0.15458771937E+04  0.16425426645E+04  0.12699999809E+01 0. -1.
       -4    1    3    3    0  502 -0.55434104422E+03 -0.30240711603E+02 -0.21650275193E+03  0.59588887256E+03  0.12699999809E+01 0.  1.
</event>
<event>
 5   0  0.2001811E-05  0.1805093E+04  0.7818609E-02  0.8703596E-01
       -1   -1    0    0    0  501  0.00000000000E+00  0.00000000000E+00  0.11518170818E+04  0.11518170818E+04  0.50400001928E-02 0.  1.
        1   -1    0    0  501    0  0.00000000000E+00  0.00000000000E+00 -0.70722181755E+03  0.70722181757E+03  0.50400001928E-02 0. -1.
    10030    2    1    2    0    0  0.00000000000E+00  0.00000000000E+00  0.44459526423E+03  0.18590388994E+04  0.18050929839E+04 0.  0.
        2    1    3    3  502    0  0.61546547656E+03  0.41010639836E+03 -0.31046792483E+03  0.80210681531E+03  0.25500000920E-02 0. -1.
       -2    1    3    3    0  502 -0.61546547656E+03 -0.41010639836E+03  0.75506318906E+03  0.10569320840E+04  0.25500000920E-02 0.  1.
</event>
<event>
 5   0  0.2054876E-05  0.1799921E+04  0.7818609E-02  0.8706342E-01
        1   -1    0    0  501    0  0.00000000000E+00  0.00000000000E+00  0.17785429254E+04  0.17785429254E+04  0.50400001928E-02 0. -1.
       -1   -1    0    0    0  501  0.00000000000E+00  0.00000000000E+00 -0.45538887638E+03  0.45538887641E+03  0.50400001928E-02 0.  1.
    10030    2    1    2    0    0  0.00000000000E+00  0.00000000000E+00  0.13231540490E+04  0.22339318018E+04  0.17999207365E+04 0.  0.
        5    1    3    3  502    0  0.44685478633E+03 -0.28402895416E+03 -0.24159824442E+03  0.58201670815E+03  0.46999998093E+01 0.  1.
       -5    1    3    3    0  502 -0.44685478633E+03  0.28402895416E+03  0.15647522935E+04  0.16519150937E+04  0.46999998093E+01 0. -1.
</event>
<event>
 5   0  0.3984648E-05  0.1799674E+04  0.7818609E-02  0.8706473E-01
       -2   -1    0    0    0  501  0.00000000000E+00  0.00000000000E+00  0.58856778922E+03  0.58856778922E+03  0.25500000920E-02 0.  1.
        2   -1    0    0  501    0  0.00000000000E+00  0.00000000000E+00 -0.13757238274E+04  0.13757238274E+04  0.25500000920E-02 0. -1.
    10030    2    1    2    0    0  0.00000000000E+00  0.00000000000E+00 -0.78715603820E+03  0.19642916166E+04  0.17996741168E+04 0.  0.
        1    1    3    3  502    0  0.34101383424E+03  0.94858922404E+02  0.50939095809E+03  0.62029654079E+03  0.50400001928E-02 0.  1.
       -1    1    3    3    0  502 -0.34101383424E+03 -0.94858922404E+02 -0.12965469963E+04  0.13439950759E+04  0.50400001928E-02 0. -1.
</event>
<event>
 5   0  0.3909859E-05  0.1802405E+04  0.7818609E-02  0.8705022E-01
        2   -1    0    0  501    0  0.00000000000E+00  0.00000000000E+00  0.93134298552E+03  0.93134298553E+03  0.25500000920E-02 0. -1.
       -2   -1    0    0    0  501  0.00000000000E+00  0.00000000000E+00 -0.87203708529E+03  0.87203708529E+03  0.25500000920E-02 0.  1.
    10030    2    1    2    0    0  0.00000000000E+00  0.00000000000E+00  0.59305900234E+02  0.18033800708E+04  0.18024046410E+04 0.  0.
        4    1    3    3  502    0  0.65881855504E+03  0.55995340762E+03 -0.22459931498E+03  0.89332870342E+03  0.12699999809E+01 0.  1.
       -4    1    3    3    0  502 -0.65881855504E+03 -0.55995340762E+03  0.28390521521E+03  0.91005136739E+03  0.12699999809E+01 0. -1.
</event>
<event>
 5   0  0.3983176E-05  0.1797639E+04  0.7818609E-02  0.8707556E-01
       -2   -1    0    0    0  501  0.00000000000E+00  0.00000000000E+00  0.88727418876E+03  0.88727418876E+03  0.25500000920E-02 0.  1.
        2   -1    0    0  501    0  0.00000000000E+00  0.00000000000E+00 -0.91051542231E+03  0.91051542231E+03  0.25500000920E-02 0. -1.
    10030    2    1    2    0    0  0.00000000000E+00  0.00000000000E+00 -0.23241233550E+02  0.17977896111E+04  0.17976393773E+04 0.  0.
        3    1    3    3  502    0  0.47300281379E+03  0.32832468798E+03  0.67861679364E+03  0.88997164303E+03  0.10100000352E+00 0.  1.
       -3    1    3    3    0  502 -0.47300281379E+03 -0.32832468798E+03 -0.70185802719E+03  0.90781796805E+03  0.10100000352E+00 0. -1.
</event>
<event>
 5   0  0.2001811E-05  0.1797338E+04  0.7818609E-02  0.8707716E-01
       -1   -1    0    0    0  501  0.00000000000E+00  0.00000000000E+00  0.54945844104E+03  0.54945844106E+03  0.50400001928E-02 0.  1.
        1   -1    0    0  501    0  0.00000000000E+00  0.00000000000E+00 -0.14698218004E+04  0.14698218004E+04  0.50400001928E-02 0. -1.
    10030    2    1    2    0    0  0.00000000000E+00  0.00000000000E+00 -0.92036335931E+03  0.20192802414E+04  0.17973380262E+04 0.  0.
        2    1    3    3  502    0 -0.17904486962E+03 -0.67316128995E+03 -0.10981017122E+04  0.13003963080E+04  0.25500000920E-02 0. -1.
       -2    1    3    3    0  502  0.17904486962E+03  0.67316128995E+03  0.17773835286E+03  0.71888393341E+03  0.25500000920E-02 0.  1.
</event>
<event>
 5   0  0.1446750E-05  0.1834036E+04  0.7818609E-02  0.8688406E-01
       -4   -1    0    0    0  501  0.00000000000E+00  0.00000000000E+00  0.10396833410E+04  0.10396841167E+04  0.12699999809E+01 0.  1.
        4   -1    0    0  501    0  0.00000000000E+00  0.00000000000E+00 -0.80882326361E+03  0.80882426067E+03  0.12699999809E+01 0. -1.
    10030    2    1    2    0    0  0.00000000000E+00  0.00000000000E+00  0.23086007741E+03  0.18485083774E+04  0.18340356719E+04 0.  0.
        5    1    3    3  502    0  0.57574286978E+02  0.75193203913E+03  0.64125859541E+03  0.98992487906E+03  0.46999998093E+01 0.  1.
       -5    1    3    3    0  502 -0.57574286978E+02 -0.75193203913E+03 -0.41039851800E+03  0.85858349830E+03  0.46999998093E+01 0. -1.
</event>
<event>
 5   0  0.1446750E-05  0.1797989E+04  0.7818609E-02  0.8707370E-01
        3   -1    0    0  501    0  0.00000000000E+00  0.00000000000E+00  0.86126436972E+03  0.86126437564E+03  0.10100000352E+00 0. -1.
       -3   -1    0    0    0  501  0.00000000000E+00  0.00000000000E+00 -0.93837721275E+03  0.93837721819E+03  0.10100000352E+00 0.  1.
    10030    2    1    2    0    0  0.00000000000E+00  0.00000000000E+00 -0.77112843030E+02  0.17996415938E+04  0.17979887307E+04 0.  0.
        1    1    3    3  502    0  0.19925340725E+03 -0.38789586281E+02  0.83802507402E+03  0.86226015623E+03  0.50400001928E-02 0. -1.
       -1    1    3    3    0  502 -0.19925340725E+03  0.38789586281E+02 -0.91513791705E+03  0.93738143760E+03  0.50400001928E-02 0.  1.
</event>
<event>
 5   0  0.1446750E-05  0.1806603E+04  0.7818609E-02  0.8702796E-01
        3   -1    0    0  501    0  0.00000000000E+00  0.00000000000E+00  0.18690734359E+04  0.18690734386E+04  0.10100000352E+00 0.  1.
       -3   -1    0    0    0  501  0.00000000000E+00  0.00000000000E+00 -0.43655499286E+03  0.43655500455E+03  0.10100000352E+00 0. -1.
    10030    2    1    2    0    0  0.00000000000E+00  0.00000000000E+00  0.14325184431E+04  0.23056284432E+04  0.18066027312E+04 0.  0.
        2    1    3    3  502    0  0.90551791334E+02 -0.54188370713E+03 -0.19881669380E+03  0.58426505689E+03  0.25500000920E-02 0. -1.
       -2    1    3    3    0  502 -0.90551791334E+02  0.54188370713E+03  0.16313351369E+04  0.17213633863E+04  0.25500000920E-02 0.  1.
</event>
<event>
 5   0  0.1906857E-05  0.1798125E+04  0.7818609E-02  0.8707297E-01
        1   -1    0    0  501    0  0.00000000000E+00  0.00000000000E+00  0.18507969203E+04  0.18507969203E+04  0.50400001928E-02 0. -1.
       -1   -1    0    0    0  501  0.00000000000E+00  0.00000000000E+00 -0.43673804604E+03  0.43673804607E+03  0.50400001928E-02 0.  1.
    10030    2    1    2    0    0  0.00000000000E+00  0.00000000000E+00  0.14140588742E+04  0.22875349664E+04  0.17981250575E+04 0.  0.
        4    1    3    3  502    0  0.13587910465E+03 -0.75309845555E+03  0.10668626765E+03  0.77266033121E+03  0.12699999809E+01 0.  1.
       -4    1    3    3    0  502 -0.13587910465E+03  0.75309845555E+03  0.13073726066E+04  0.15148746351E+04  0.12699999809E+01 0. -1.
</event>
<event>
 5   0  0.2038338E-05  0.1792982E+04  0.7818609E-02  0.8710041E-01
       -1   -1    0    0    0  501  0.00000000000E+00  0.00000000000E+00  0.37799942351E+03  0.37799942355E+03  0.50400001928E-02 0.  1.
        1   -1    0    0  501    0  0.00000000000E+00  0.00000000000E+00 -0.21261830017E+04  0.21261830017E+04  0.50400001928E-02 0. -1.
    10030    2    1    2    0    0  0.00000000000E+00  0.00000000000E+00 -0.17481835782E+04  0.25041824253E+04  0.17929818170E+04 0.  0.
        1    1    3    3  502    0  0.21099715691E+03  0.26041183066E+03 -0.20353873779E+04  0.20627980754E+04  0.50400001928E-02 0. -1.
       -1    1    3    3    0  502 -0.21099715691E+03 -0.26041183066E+03  0.28720379965E+03  0.44138434990E+03  0.50400001928E-02 0.  1.
</event>
<event>
 5   0  0.3909859E-05  0.1792963E+04  0.7818609E-02  0.8710051E-01
        2   -1    0    0  501    0  0.00000000000E+00  0.00000000000E+00  0.15975364030E+04  0.15975364030E+04  0.25500000920E-02 0.  1.
       -2   -1    0    0    0  501  0.00000000000E+00  0.00000000000E+00 -0.50307407502E+03  0.50307407503E+03  0.25500000920E-02 0. -1.
    10030    2    1    2    0    0  0.00000000000E+00  0.00000000000E+00  0.10944623280E+04  0.21006104781E+04  0.17929630763E+04 0.  0.
        4    1    3    3  502    0 -0.70440532260E+03  0.33473637346E+03  0.10651758649E+04  0.13201653435E+04  0.12699999809E+01 0.  1.
       -4    1    3    3    0  502  0.70440532260E+03 -0.33473637346E+03  0.29286463140E+02  0.78044513455E+03  0.12699999809E+01 0. -1.
</event>
<event>
 5   0  0.3993393E-05  0.1806885E+04  0.7818609E-02  0.8702647E-01
       -2   -1    0    0    0  501  0.00000000000E+00  0.00000000000E+00  0.33004339057E+03  0.33004339058E+03  0.25500000920E-02 0.  1.
        2   -1    0    0  501    0  0.00000000000E+00  0.00000000000E+00 -0.24730337590E+04  0.24730337590E+04  0.25500000920E-02 0. -1.
    10030    2    1    2    0    0  0.00000000000E+00  0.00000000000E+00 -0.21429903684E+04  0.28030771496E+04  0.18068851063E+04 0.  0.
        5    1    3    3  502    0 -0.59301617975E+03  0.58854047130E+03 -0.53828328004E+03  0.99389086693E+03  0.46999998093E+01 0.  1.
       -5    1    3    3    0  502  0.59301617975E+03 -0.58854047130E+03 -0.16047070884E+04  0.18091862826E+04  0.46999998093E+01 0. -1.
</event>
<event>
 5   0  0.2054876E-05  0.1800717E+04  0.7818609E-02  0.8705918E-01
        1   -1    0    0  501    0  0.00000000000E+00  0.00000000000E+00  0.79898449019E+03  0.79898449020E+03  0.50400001928E-02 0. -1.
       -1   -1    0    0    0  501  0.00000000000E+00  0.00000000000E+00 -0.10145948037E+04  0.10145948037E+04  0.50400001928E-02 0.  1.
    10030    2    1    2    0    0  0.00000000000E+00  0.00000000000E+00 -0.21561031349E+03  0.18135792939E+04  0.18007170927E+04 0.  0.
        5    1    3    3  502    0  0.51987743578E+03  0.18571393556E+03  0.60851430393E+03  0.82162884698E+03  0.46999998093E+01 0. -1.
       -5    1    3    3    0  502 -0.51987743578E+03 -0.18571393556E+03 -0.82412461742E+03  0.99195044691E+03  0.46999998093E+01 0.  1.
</event>
<event>
 5   0  0.3984648E-05  0.1798853E+04  0.7818609E-02  0.8706910E-01
       -2   -1    0    0    0  501  0.00000000000E+00  0.00000000000E+00  0.11816706554E+04  0.11816706554E+04  0.25500000920E-02 0. -1.
        2   -1    0    0  501    0  0.00000000000E+00  0.00000000000E+00 -0.68459667233E+03  0.68459667233E+03  0.25500000920E-02 0.  1.
    10030    2    1    2    0    0  0.00000000000E+00  0.00000000000E+00  0.49707398306E+03  0.18662673277E+04  0.17988527438E+04 0.  0.
        1    1    3    3  502    0 -0.71839803141E+03  0.36934253036E+03  0.65890864333E+03  0.10424347637E+04  0.50400001928E-02 0. -1.
       -1    1    3    3    0  502  0.71839803141E+03 -0.36934253036E+03 -0.16183466027E+03  0.82383256403E+03  0.50400001928E-02 0.  1.
</event>
<event>
 5   0  0.4015729E-05  0.1797954E+04  0.7818609E-02  0.8707388E-01
        2   -1    0    0  501    0  0.00000000000E+00  0.00000000000E+00  0.96125872202E+03  0.96125872202E+03  0.25500000920E-02 0.  1.
       -2   -1    0    0    0  501  0.00000000000E+00  0.00000000000E+00 -0.84073032022E+03  0.84073032022E+03  0.25500000920E-02 0. -1.
    10030    2    1    2    0    0  0.00000000000E+00  0.00000000000E+00  0.12052840180E+03  0.18019890422E+04  0.17979536737E+04 0.  0.
        2    1    3    3  502    0 -0.54196259277E+03 -0.73090391552E+02 -0.65484523380E+03  0.85316348816E+03  0.25500000920E-02 0. -1.
       -2    1    3    3    0  502  0.54196259277E+03  0.73090391552E+02  0.77537363559E+03  0.94882555408E+03  0.25500000920E-02 0.  1.
</event>
<event>
 5   0  0.4015729E-05  0.1796510E+04  0.7818609E-02  0.8708157E-01
       -2   -1    0    0    0  501  0.00000000000E+00  0.00000000000E+00  0.35625999777E+03  0.35625999778E+03  0.25500000920E-02 0. -1.
        2   -1    0    0  501    0  0.00000000000E+00  0.00000000000E+00 -0.22648130649E+04  0.22648130649E+04  0.25500000920E-02 0.  1.
    10030    2    1    2    0    0  0.00000000000E+00  0.00000000000E+00 -0.19085530672E+04  0.26210730627E+04  0.17965102810E+04 0.  0.
        2    1    3    3  502    0  0.49572930498E+03  0.66883122921E+03 -0.46214464379E+03  0.95218718159E+03  0.25500000920E-02 0. -1.
       -2    1    3    3    0  502 -0.49572930498E+03 -0.66883122921E+03 -0.14464084234E+04  0.16688858811E+04  0.25500000920E-02 0.  1.
</event>
<event>
 5   0  0.1906857E-05  0.1797406E+04  0.7818609E-02  0.8707680E-01
        1   -1    0    0  501    0  0.00000000000E+00  0.00000000000E+00  0.95967372579E+03  0.95967372580E+03  0.50400001928E-02 0.  1.
       -1   -1    0    0    0  501  0.00000000000E+00  0.00000000000E+00 -0.84160622156E+03  0.84160622157E+03  0.50400001928E-02 0. -1.
    10030    2    1    2    0    0  0.00000000000E+00  0.00000000000E+00  0.11806750423E+03  0.18012799474E+04  0.17974063295E+04 0.  0.
        4    1    3    3  502    0 -0.68536604095E+03  0.86690774111E+02 -0.51703013561E+03  0.86288103144E+03  0.12699999809E+01 0. -1.
       -4    1    3    3    0  502  0.68536604095E+03 -0.86690774111E+02  0.63509763984E+03  0.93839891593E+03  0.12699999809E+01 0.  1.
</event>
<event>
 5   0  0.2038338E-05  0.1799461E+04  0.7818609E-02  0.8706586E-01
        1   -1    0    0  501    0  0.00000000000E+00  0.00000000000E+00  0.11025165145E+04  0.11025165145E+04  0.50400001928E-02 0. -1.
       -1   -1    0    0    0  501  0.00000000000E+00  0.00000000000E+00 -0.73424285847E+03  0.73424285848E+03  0.50400001928E-02 0.  1.
    10030    2    1    2    0    0  0.00000000000E+00  0.00000000000E+00  0.36827365599E+03  0.18367593730E+04  0.17994608938E+04 0.  0.
        1    1    3    3  502    0 -0.61798850840E+03 -0.43351786935E+02 -0.48186402822E+03  0.78484528136E+03  0.50400001928E-02 0.  1.
       -1    1    3    3    0  502  0.61798850840E+03  0.43351786935E+02  0.85013768421E+03  0.10519140916E+04  0.50400001928E-02 0. -1.
</event>
<event>
 5   0  0.3993393E-05  0.1802072E+04  0.7818609E-02  0.8705198E-01
       -2   -1    0    0    0  501  0.00000000000E+00  0.00000000000E+00  0.89402377211E+03  0.89402377211E+03  0.25500000920E-02 0. -1.
        2   -1    0    0  501    0  0.00000000000E+00  0.00000000000E+00 -0.90810316026E+03  0.90810316026E+03  0.25500000920E-02 0.  1.
    10030    2    1    2    0    0  0.00000000000E+00  0.00000000000E+00 -0.14079388144E+02  0.18021269324E+04  0.18020719329E+04 0.  0.
        5    1    3    3  502    0  0.41738051429E+03  0.70393829092E+03  0.36994410683E+03  0.89811822345E+03  0.46999998093E+01 0. -1.
       -5    1    3    3    0  502 -0.41738051429E+03 -0.70393829092E+03 -0.38402349497E+03  0.90400870892E+03  0.46999998093E+01 0.  1.
</event>
<event>
 5   0  0.2054876E-05  0.1797992E+04  0.7818609E-02  0.8707368E-01
       -1   -1    0    0    0  501  0.00000000000E+00  0.00000000000E+00  0.11259427905E+04  0.11259427905E+04  0.50400001928E-02 0.  1.
        1   -1    0    0  501    0  0.00000000000E+00  0.00000000000E+00 -0.71779280306E+03  0.71779280308E+03  0.50400001928E-02 0. -1.
    10030    2    1    2    0    0  0.00000000000E+00  0.00000000000E+00  0.40814998741E+03  0.18437355936E+04  0.17979918039E+04 0.  0.
        5    1    3    3  502    0 -0.61149433563E+00  0.87219557446E+03 -0.19287861559E+02  0.87242169026E+03  0.46999998093E+01 0. -1.
       -5    1    3    3    0  502  0.61149433563E+00 -0.87219557446E+03  0.42743784897E+03  0.97131390331E+03  0.46999998093E+01 0.  1.
</event>
<event>
 5   0  0.4015729E-05  0.1800223E+04  0.7818609E-02  0.8706181E-01
        2   -1    0    0  501    0  0.00000000000E+00  0.00000000000E+00  0.27053283538E+04  0.27053283538E+04  0.25500000920E-02 0. -1.
       -2   -1    0    0    0  501  0.00000000000E+00  0.00000000000E+00 -0.29948326748E+03  0.29948326749E+03  0.25500000920E-02 0.  1.
    10030    2    1    2    0    0  0.00000000000E+00  0.00000000000E+00  0.24058450863E+04  0.30048116212E+04  0.18002228473E+04 0.  0.
        2    1    3    3  502    0  0.54460396126E+02 -0.76704732865E+03  0.19838075996E+04  0.21276325179E+04  0.25500000920E-02 0. -1.
       -2    1    3    3    0  502 -0.54460396126E+02  0.76704732865E+03  0.42203748668E+03  0.87717910332E+03  0.25500000920E-02 0.  1.
</event>
<event>
 5   0  0.3909859E-05  0.1800855E+04  0.7818609E-02  0.8705845E-01
        2   -1    0    0  501    0  0.00000000000E+00  0.00000000000E+00  0.12335726519E+04  0.12335726519E+04  0.25500000920E-02 0.  1.
       -2   -1    0    0    0  501  0.00000000000E+00  0.00000000000E+00 -0.65725297614E+03  0.65725297614E+03  0.25500000920E-02 0. -1.
    10030    2    1    2    0    0  0.00000000000E+00  0.00000000000E+00  0.57631967578E+03  0.18908256281E+04  0.18008545713E+04 0.  0.
        4    1    3    3  502    0 -0.88202721785E+03 -0.17054155551E+03  0.35212343289E+03  0.96490878330E+03  0.12699999809E+01 0. -1.
       -4    1    3    3    0  502  0.88202721785E+03  0.17054155551E+03  0.22419624289E+03  0.92591684476E+03  0.12699999809E+01 0.  1.
</event>
<event>
 5   0  0.1906857E-05  0.1803619E+04  0.7818609E-02  0.8704377E-01
        1   -1    0    0  501    0  0.00000000000E+00  0.00000000000E+00  0.16158959228E+04  0.16158959228E+04  0.50400001928E-02 0.  1.
       -1   -1    0    0    0  501  0.00000000000E+00  0.00000000000E+00 -0.50328774182E+03  0.50328774185E+03  0.50400001928E-02 0. -1.
    10030    2    1    2    0    0  0.00000000000E+00  0.00000000000E+00  0.11126081809E+04  0.21191836646E+04  0.18036192614E+04 0.  0.
        4    1    3    3  502    0 -0.34736133752E+03  0.22322125596E+02  0.15337852947E+04  0.15727864189E+04  0.12699999809E+01 0.  1.
       -4    1    3    3    0  502  0.34736133752E+03 -0.22322125596E+02 -0.42117711379E+03  0.54639724576E+03  0.12699999809E+01 0. -1.
</event>
<event>
 5   0  0.3993393E-05  0.1807291E+04  0.7818609E-02  0.8702432E-01
        2   -1    0    0  501    0  0.00000000000E+00  0.00000000000E+00  0.15135223743E+04  0.15135223743E+04  0.25500000920E-02 0.  1.
       -2   -1    0    0    0  501  0.00000000000E+00  0.00000000000E+00 -0.53951990099E+03  0.53951990100E+03  0.25500000920E-02 0. -1.
    10030    2    1    2    0    0  0.00000000000E+00  0.00000000000E+00  0.97400247328E+03  0.20530422753E+04  0.18072912787E+04 0.  0.
        5    1    3    3  502    0 -0.57023591994E+03  0.36450176630E+02  0.12822307249E+04  0.14037931976E+04  0.46999998093E+01 0.  1.
       -5    1    3    3    0  502  0.57023591994E+03 -0.36450176630E+02 -0.30822825161E+03  0.64924907767E+03  0.46999998093E+01 0. -1.
</event>
<event>
 5   0  0.3983176E-05  0.1799523E+04  0.7818609E-02  0.8706553E-01
        2   -1    0    0  501    0  0.00000000000E+00  0.00000000000E+00  0.97065822723E+03  0.97065822723E+03  0.25500000920E-02 0. -1.
       -2   -1    0    0    0  501  0.00000000000E+00  0.00000000000E+00 -0.83404325826E+03  0.83404325827E+03  0.25500000920E-02 0.  1.
    10030    2    1    2    0    0  0.00000000000E+00  0.00000000000E+00  0.13661496897E+03  0.18047014855E+04  0.17995232152E+04 0.  0.
        3    1    3    3  502    0 -0.42595640200E+03 -0.52664687316E+02 -0.72476422097E+03  0.84231562486E+03  0.10100000352E+00 0.  1.
       -3    1    3    3    0  502  0.42595640200E+03  0.52664687316E+02  0.86137918993E+03  0.96238586063E+03  0.10100000352E+00 0. -1.
</event>
<event>
 5   0  0.3909859E-05  0.1799531E+04  0.7818609E-02  0.8706549E-01
       -2   -1    0    0    0  501  0.00000000000E+00  0.00000000000E+00  0.68366769912E+03  0.68366769912E+03  0.25500000920E-02 0. -1.
        2   -1    0    0  501    0  0.00000000000E+00  0.00000000000E+00 -0.11841690177E+04  0.11841690177E+04  0.25500000920E-02 0.  1.
    10030    2    1    2    0    0  0.00000000000E+00  0.00000000000E+00 -0.50050131860E+03  0.18678367168E+04  0.17995311697E+04 0.  0.
        4    1    3    3  502    0 -0.83997665501E+03  0.30705545592E+03 -0.14785175026E+03  0.90647977745E+03  0.12699999809E+01 0. -1.
       -4    1    3    3    0  502  0.83997665501E+03 -0.30705545592E+03 -0.35264956833E+03  0.96135693939E+03  0.12699999809E+01 0.  1.
</event>
<event>
 5   0  0.2001811E-05  0.1797565E+04  0.7818609E-02  0.8707595E-01
       -1   -1    0    0    0  501  0.00000000000E+00  0.00000000000E+00  0.84964147476E+03  0.84964147477E+03  0.50400001928E-02 0. -1.
        1   -1    0    0  501    0  0.00000000000E+00  0.00000000000E+00 -0.95076578712E+03  0.95076578713E+03  0.50400001928E-02 0.  1.
    10030    2    1    2    0    0  0.00000000000E+00  0.00000000000E+00 -0.10112431236E+03  0.18004072619E+04  0.17975650704E+04 0.  0.
        2    1    3    3  502    0  0.96341977497E+02  0.24198982371E+02 -0.94525091875E+03  0.95045603096E+03  0.25500000920E-02 0.  1.
       -2    1    3    3    0  502 -0.96341977497E+02 -0.24198982371E+02  0.84412660639E+03  0.84995123095E+03  0.25500000920E-02 0. -1.
</event>
<event>
 5   0  0.3993393E-05  0.1802893E+04  0.7818609E-02  0.8704763E-01
       -2   -1    0    0    0  501  0.00000000000E+00  0.00000000000E+00  0.60201357120E+03  0.60201357120E+03  0.25500000920E-02 0. -1.
        2   -1    0    0  501    0  0.00000000000E+00  0.00000000000E+00 -0.13498123583E+04  0.13498123583E+04  0.25500000920E-02 0.  1.
    10030    2    1    2    0    0  0.00000000000E+00  0.00000000000E+00 -0.74779878713E+03  0.19518259295E+04  0.18028925185E+04 0.  0.
        5    1    3    3  502    0 -0.21656880021E+03  0.24050929949E+02 -0.13208583053E+04  0.13387192555E+04  0.46999998093E+01 0.  1.
       -5    1    3    3    0  502  0.21656880021E+03 -0.24050929949E+02  0.57305951812E+03  0.61310667405E+03  0.46999998093E+01 0. -1.
</event>
<event>
 5   0  0.1960300E-05  0.1801274E+04  0.7818609E-02  0.8705623E-01
        1   -1    0    0  501    0  0.00000000000E+00  0.00000000000E+00  0.90543693501E+03  0.90543693502E+03  0.50400001928E-02 0.  1.
       -1   -1    0    0    0  501  0.00000000000E+00  0.00000000000E+00 -0.89586201442E+03  0.89586201443E+03  0.50400001928E-02 0. -1.
    10030    2    1    2    0    0  0.00000000000E+00  0.00000000000E+00  0.95749205907E+01  0.18012989495E+04  0.18012735012E+04 0.  0.
        3    1    3    3  502    0  0.34006462569E+03  0.50543783226E+03 -0.65857339782E+03  0.89712333736E+03  0.10100000352E+00 0. -1.
       -3    1    3    3    0  502 -0.34006462569E+03 -0.50543783226E+03  0.66814831841E+03  0.90417561210E+03  0.10100000352E+00 0.  1.
</event>
<event>
 5   0  0.3909859E-05  0.1801023E+04  0.7818609E-02  0.8705756E-01
        2   -1    0    0  501    0  0.00000000000E+00  0.00000000000E+00  0.17457619042E+04  0.17457619042E+04  0.25500000920E-02 0.  1.
       -2   -1    0    0    0  501  0.00000000000E+00  0.00000000000E+00 -0.46450824377E+03  0.46450824378E+03  0.25500000920E-02 0. -1.
    10030    2    1    2    0    0  0.00000000000E+00  0.00000000000E+00  0.12812536604E+04  0.22102701479E+04  0.18010228162E+04 0.  0.
        4    1    3    3  502    0  0.32580450070E+03 -0.43601606204E+03 -0.23978649322E+03  0.59477538136E+03  0.12699999809E+01 0. -1.
       -4    1    3    3    0  502 -0.32580450070E+03  0.43601606204E+03  0.15210401536E+04  0.16154947666E+04  0.12699999809E+01 0.  1.
</event>
<event>
 5   0  0.2038338E-05  0.1809938E+04  0.7818609E-02  0.8701033E-01
       -1   -1    0    0    0  501  0.00000000000E+00  0.00000000000E+00  0.69704411702E+03  0.69704411704E+03  0.50400001928E-02 0. -1.
        1   -1    0    0  501    0  0.00000000000E+00  0.00000000000E+00 -0.11749164676E+04  0.11749164676E+04  0.50400001928E-02 0.  1.
    10030    2    1    2    0    0  0.00000000000E+00  0.00000000000E+00 -0.47787235056E+03  0.18719605846E+04  0.18099376915E+04 0.  0.
        1    1    3    3  502    0 -0.80456000314E+03 -0.39150293655E+03 -0.37914440308E+03  0.97177251782E+03  0.50400001928E-02 0. -1.
       -1    1    3    3    0  502  0.80456000314E+03  0.39150293655E+03 -0.98727947476E+02  0.90018806680E+03  0.50400001928E-02 0.  1.
</event>
<event>
 5   0  0.3993393E-05  0.1785313E+04  0.7818609E-02  0.8714149E-01
        2   -1    0    0  501    0  0.00000000000E+00  0.00000000000E+00  0.16063595731E+04  0.16063595731E+04  0.25500000920E-02 0. -1.
       -2   -1    0    0    0  501  0.00000000000E+00  0.00000000000E+00 -0.49605074637E+03  0.49605074638E+03  0.25500000920E-02 0.  1.
    10030    2    1    2    0    0  0.00000000000E+00  0.00000000000E+00  0.11103088267E+04  0.21024103195E+04  0.17853132668E+04 0.  0.
        5    1    3    3  502    0 -0.16506033312E+03 -0.71667650992E+03 -0.40610907835E+02  0.73657414378E+03  0.46999998093E+01 0.  1.
       -5    1    3    3    0  502  0.16506033312E+03  0.71667650992E+03  0.11509197346E+04  0.13658361757E+04  0.46999998093E+01 0. -1.
</event>
<event>
 5   0  0.2054876E-05  0.1800175E+04  0.7818609E-02  0.8706206E-01
        1   -1    0    0  501    0  0.00000000000E+00  0.00000000000E+00  0.11605448580E+04  0.11605448580E+04  0.50400001928E-02 0. -1.
       -1   -1    0    0    0  501  0.00000000000E+00  0.00000000000E+00 -0.69808362637E+03  0.69808362639E+03  0.50400001928E-02 0.  1.
    10030    2    1    2    0    0  0.00000000000E+00  0.00000000000E+00  0.46246123164E+03  0.18586284844E+04  0.18001748394E+04 0.  0.
        5    1    3    3  502    0 -0.60793071639E+03  0.64549389042E+03  0.71637318456E+02  0.88960447047E+03  0.46999998093E+01 0.  1.
       -5    1    3    3    0  502  0.60793071639E+03 -0.64549389042E+03  0.39082391319E+03  0.96902401395E+03  0.46999998093E+01 0. -1.
</event>
<event>
 5   0  0.2054876E-05  0.1803469E+04  0.7818609E-02  0.8704457E-01
       -1   -1    0    0    0  501  0.00000000000E+00  0.00000000000E+00  0.81383526217E+03  0.81383526218E+03  0.50400001928E-02 0.  1.
        1   -1    0    0  501    0  0.00000000000E+00  0.00000000000E+00 -0.99912718216E+03  0.99912718217E+03  0.50400001928E-02 0. -1.
    10030    2    1    2    0    0  0.00000000000E+00  0.00000000000E+00 -0.18529191999E+03  0.18129624444E+04  0.18034688046E+04 0.  0.
        5    1    3    3  502    0  0.60557981033E+03  0.66512274075E+03 -0.15612642045E+03  0.91296917588E+03  0.46999998093E+01 0. -1.
       -5    1    3    3    0  502 -0.60557981033E+03 -0.66512274075E+03 -0.29165499539E+02  0.89999326848E+03  0.46999998093E+01 0.  1.
</event>
<event>
 5   0  0.3993393E-05  0.1798148E+04  0.7818609E-02  0.8707285E-01
       -2   -1    0    0    0  501  0.00000000000E+00  0.00000000000E+00  0.64337273823E+03  0.64337273824E+03  0.25500000920E-02 0. -1.
        2   -1    0    0  501    0  0.00000000000E+00  0.00000000000E+00 -0.12564006336E+04  0.12564006336E+04  0.25500000920E-02 0.  1.
    10030    2    1    2    0    0  0.00000000000E+00  0.00000000000E+00 -0.61302789539E+03  0.18997733719E+04  0.17981478426E+04 0.  0.
        5    1    3    3  502    0  0.78697161653E+03 -0.27605921560E+03  0.48291397695E+02  0.83539641179E+03  0.46999998093E+01 0. -1.
       -5    1    3    3    0  502 -0.78697161653E+03  0.27605921560E+03 -0.66131929309E+03  0.10643769601E+04  0.46999998093E+01 0.  1.
</event>
<event>
 5   0  0.1906857E-05  0.1800164E+04  0.7818609E-02  0.8706212E-01
       -1   -1    0    0    0  501  0.00000000000E+00  0.00000000000E+00  0.11170638154E+04  0.11170638154E+04  0.50400001928E-02 0. -1.
        1   -1    0    0  501    0  0.00000000000E+00  0.00000000000E+00 -0.72524703595E+03  0.72524703597E+03  0.50400001928E-02 0.  1.
    10030    2    1    2    0    0  0.00000000000E+00  0.00000000000E+00  0.39181677943E+03  0.18423108514E+04  0.18001635716E+04 0.  0.
        4    1    3    3  502    0  0.76936424002E+03 -0.17528845250E+02  0.67365378607E+03  0.10227607886E+04  0.12699999809E+01 0. -1.
       -4    1    3    3    0  502 -0.76936424002E+03  0.17528845250E+02 -0.28183700664E+03  0.81955006281E+03  0.12699999809E+01 0.  1.
</event>
<event>
 5   0  0.1906857E-05  0.1801505E+04  0.7818609E-02  0.8705500E-01
        1   -1    0    0  501    0  0.00000000000E+00  0.00000000000E+00  0.79911923007E+03  0.79911923008E+03  0.50400001928E-02 0. -1.
       -1   -1    0    0    0  501  0.00000000000E+00  0.00000000000E+00 -0.10153112563E+04  0.10153112563E+04  0.50400001928E-02 0.  1.
    10030    2    1    2    0    0  0.00000000000E+00  0.00000000000E+00 -0.21619202626E+03  0.18144304864E+04  0.18015046483E+04 0.  0.
        4    1    3    3  502    0 -0.59020125644E+03  0.10232283819E+03 -0.78563789305E+03  0.98794534171E+03  0.12699999809E+01 0.  1.
       -4    1    3    3    0  502  0.59020125644E+03 -0.10232283819E+03  0.56944586679E+03  0.82648514471E+03  0.12699999809E+01 0. -1.
</event>
<event>
 5   0  0.2054876E-05  0.1807555E+04  0.7818609E-02  0.8702292E-01
        1   -1    0    0  501    0  0.00000000000E+00  0.00000000000E+00  0.86438857468E+03  0.86438857469E+03  0.50400001928E-02 0. -1.
       -1   -1    0    0    0  501  0.00000000000E+00  0.00000000000E+00 -0.94496123783E+03  0.94496123784E+03  0.50400001928E-02 0.  1.
    10030    2    1    2    0    0  0.00000000000E+00  0.00000000000E+00 -0.80572663152E+02  0.18093498125E+04  0.18075549204E+04 0.  0.
        5    1    3    3  502    0  0.34248156430E+03  0.56113458737E+03 -0.66108436856E+03  0.93231983749E+03  0.46999998093E+01 0.  1.
       -5    1    3    3    0  502 -0.34248156430E+03 -0.56113458737E+03  0.58051170541E+03  0.87702997505E+03  0.46999998093E+01 0. -1.
</event>
<event>
 5   0  0.1906857E-05  0.1797317E+04  0.7818609E-02  0.8707727E-01
       -1   -1    0    0    0  501  0.00000000000E+00  0.00000000000E+00  0.54488190107E+03  0.54488190110E+03  0.50400001928E-02 0. -1.
        1   -1    0    0  501    0  0.00000000000E+00  0.00000000000E+00 -0.14821331303E+04  0.14821331303E+04  0.50400001928E-02 0.  1.
    10030    2    1    2    0    0  0.00000000000E+00  0.00000000000E+00 -0.93725122925E+03  0.20270150314E+04  0.17973174653E+04 0.  0.
        4    1    3    3  502    0 -0.18666442937E+03 -0.72313882767E+03 -0.10323142577E+04  0.12741458758E+04  0.12699999809E+01 0.  1.
       -4    1    3    3    0  502  0.18666442937E+03  0.72313882767E+03  0.95063028410E+02  0.75286915566E+03  0.12699999809E+01 0. -1.
</event>
<event>
 5   0  0.1906857E-05  0.1802441E+04  0.7818609E-02  0.8705002E-01
        1   -1    0    0  501    0  0.00000000000E+00  0.00000000000E+00  0.99220979296E+03  0.99220979297E+03  0.50400001928E-02 0.  1.
       -1   -1    0    0    0  501  0.00000000000E+00  0.00000000000E+00 -0.81857560924E+03  0.81857560925E+03  0.50400001928E-02 0. -1.
    10030    2    1    2    0    0  0.00000000000E+00  0.00000000000E+00  0.17363418372E+03  0.18107854022E+04  0.18024413841E+04 0.  0.
        4    1    3    3  502    0 -0.11761525203E+03 -0.83029168074E+03 -0.24483156329E+03  0.87359128309E+03  0.12699999809E+01 0. -1.
       -4    1    3    3    0  502  0.11761525203E+03  0.83029168074E+03  0.41846574701E+03  0.93719411913E+03  0.12699999809E+01 0.  1.
</event>
<event>
 5   0  0.1906857E-05  0.1794922E+04  0.7818609E-02  0.8709004E-01
       -1   -1    0    0    0  501  0.00000000000E+00  0.00000000000E+00  0.76850849359E+03  0.76850849360E+03  0.50400001928E-02 0. -1.
        1   -1    0    0  501    0  0.00000000000E+00  0.00000000000E+00 -0.10480514052E+04  0.10480514052E+04  0.50400001928E-02 0.  1.
    10030    2    1    2    0    0  0.00000000000E+00  0.00000000000E+00 -0.27954291157E+03  0.18165598988E+04  0.17949221784E+04 0.  0.
        4    1    3    3  502    0 -0.14204937070E+03 -0.79936310475E+03  0.24729874818E+03  0.84871531192E+03  0.12699999809E+01 0.  1.
       -4    1    3    3    0  502  0.14204937070E+03  0.79936310475E+03 -0.52684165974E+03  0.96784458685E+03  0.12699999809E+01 0. -1.
</event>
<event>
 5   0  0.2038338E-05  0.1799176E+04  0.7818609E-02  0.8706738E-01
       -1   -1    0    0    0  501  0.00000000000E+00  0.00000000000E+00  0.75084200394E+03  0.75084200395E+03  0.50400001928E-02 0. -1.
        1   -1    0    0  501    0  0.00000000000E+00  0.00000000000E+00 -0.10778009535E+04  0.10778009535E+04  0.50400001928E-02 0.  1.
    10030    2    1    2    0    0  0.00000000000E+00  0.00000000000E+00 -0.32695894952E+03  0.18286429574E+04  0.17991756199E+04 0.  0.
        1    1    3    3  502    0  0.84041738361E+03 -0.31662628727E+03 -0.21633742981E+03  0.92377241138E+03  0.50400001928E-02 0. -1.
       -1    1    3    3    0  502 -0.84041738361E+03  0.31662628727E+03 -0.11062151971E+03  0.90487054605E+03  0.50400001928E-02 0.  1.
</event>
<event>
 5   0  0.4015729E-05  0.1828065E+04  0.7818609E-02  0.8691516E-01
       -2   -1    0    0    0  501  0.00000000000E+00  0.00000000000E+00  0.99581980642E+03  0.99581980642E+03  0.25500000920E-02 0.  1.
        2   -1    0    0  501    0  0.00000000000E+00  0.00000000000E+00 -0.83896243543E+03  0.83896243543E+03  0.25500000920E-02 0. -1.
    10030    2    1    2    0    0  0.00000000000E+00  0.00000000000E+00  0.15685737100E+03  0.18347822419E+04  0.18280649989E+04 0.  0.
        2    1    3    3  502    0 -0.26020153220E+03  0.49277607932E+03 -0.64874877585E+03  0.85522399164E+03  0.25500000920E-02 0. -1.
       -2    1    3    3    0  502  0.26020153220E+03 -0.49277607932E+03  0.80560614685E+03  0.97955825021E+03  0.25500000920E-02 0.  1.
</event>
<event>
 5   0  0.2038338E-05  0.1796987E+04  0.7818609E-02  0.8707903E-01
       -1   -1    0    0    0  501  0.00000000000E+00  0.00000000000E+00  0.88696299765E+03  0.88696299767E+03  0.50400001928E-02 0. -1.
        1   -1    0    0  501    0  0.00000000000E+00  0.00000000000E+00 -0.91017392864E+03  0.91017392866E+03  0.50400001928E-02 0.  1.
    10030    2    1    2    0    0  0.00000000000E+00  0.00000000000E+00 -0.23210930989E+02  0.17971369263E+04  0.17969870296E+04 0.  0.
        1    1    3    3  502    0  0.10677494896E+03 -0.88780858439E+03 -0.99280468451E+02  0.89970083010E+03  0.50400001928E-02 0. -1.
       -1    1    3    3    0  502 -0.10677494896E+03  0.88780858439E+03  0.76069537463E+02  0.89743609622E+03  0.50400001928E-02 0.  1.
</event>
<event>
 5   0  0.1906857E-05  0.1800557E+04  0.7818609E-02  0.8706003E-01
       -1   -1    0    0    0  501  0.00000000000E+00  0.00000000000E+00  0.12408358215E+04  0.12408358216E+04  0.50400001928E-02 0.  1.
        1   -1    0    0  501    0  0.00000000000E+00  0.00000000000E+00 -0.65318977416E+03  0.65318977418E+03  0.50400001928E-02 0. -1.
    10030    2    1    2    0    0  0.00000000000E+00  0.00000000000E+00  0.58764604739E+03  0.18940255957E+04  0.18005568806E+04 0.  0.
        4    1    3    3  502    0 -0.36714551427E+02  0.71269846513E+03 -0.28349559419E+03  0.76789219641E+03  0.12699999809E+01 0. -1.
       -4    1    3    3    0  502  0.36714551427E+02 -0.71269846513E+03  0.87114164157E+03  0.11261333993E+04  0.12699999809E+01 0.  1.
</event>
<event>
 5   0  0.3993393E-05  0.1798166E+04  0.7818609E-02  0.8707275E-01
        2   -1    0    0  501    0  0.00000000000E+00  0.00000000000E+00  0.96110616407E+03  0.96110616407E+03  0.25500000920E-02 0. -1.
       -2   -1    0    0    0  501  0.00000000000E+00  0.00000000000E+00 -0.84106235323E+03  0.84106235324E+03  0.25500000920E-02 0.  1.
    10030    2    1    2    0    0  0.00000000000E+00  0.00000000000E+00  0.12004381084E+03  0.18021685173E+04  0.17981659679E+04 0.  0.
        5    1    3    3  502    0  0.83135377150E+03  0.28422927467E+03  0.25121537322E+03  0.91381980045E+03  0.46999998093E+01 0.  1.
       -5    1    3    3    0  502 -0.83135377150E+03 -0.28422927467E+03 -0.13117156238E+03  0.88834871685E+03  0.46999998093E+01 0. -1.
</event>
<event>
 5   0  0.1446750E-05  0.1805233E+04  0.7818609E-02  0.8703522E-01
        4   -1    0    0  501    0  0.00000000000E+00  0.00000000000E+00  0.10829908631E+04  0.10829916078E+04  0.12699999809E+01 0.  1.
       -4   -1    0    0    0  501  0.00000000000E+00  0.00000000000E+00 -0.75228226065E+03  0.75228333265E+03  0.12699999809E+01 0. -1.
    10030    2    1    2    0    0  0.00000000000E+00  0.00000000000E+00  0.33070860245E+03  0.18352749404E+04  0.18052329288E+04 0.  0.
        4    1    3    3  502    0 -0.76960471603E+03  0.46159599763E+03  0.26367245573E+03  0.93535397619E+03  0.12699999809E+01 0. -1.
       -4    1    3    3    0  502  0.76960471603E+03 -0.46159599763E+03  0.67036146722E+02  0.89992096421E+03  0.12699999809E+01 0.  1.
</event>
<event>
 5   0  0.1960300E-05  0.1798278E+04  0.7818609E-02  0.8707216E-01
       -1   -1    0    0    0  501  0.00000000000E+00  0.00000000000E+00  0.11418513634E+04  0.11418513634E+04  0.50400001928E-02 0.  1.
        1   -1    0    0  501    0  0.00000000000E+00  0.00000000000E+00 -0.70801800303E+03  0.70801800305E+03  0.50400001928E-02 0. -1.
    10030    2    1    2    0    0  0.00000000000E+00  0.00000000000E+00  0.43383336037E+03  0.18498693665E+04  0.17982784235E+04 0.  0.
        3    1    3    3  502    0  0.33002646395E+03 -0.69088850113E+03 -0.26799530781E+03  0.81121260044E+03  0.10100000352E+00 0.  1.
       -3    1    3    3    0  502 -0.33002646395E+03  0.69088850113E+03  0.70182866819E+03  0.10386567660E+04  0.10100000352E+00 0. -1.
</event>
<event>
 5   0  0.1906857E-05  0.1801299E+04  0.7818609E-02  0.8705609E-01
       -1   -1    0    0    0  501  0.00000000000E+00  0.00000000000E+00  0.65978809048E+03  0.65978809050E+03  0.50400001928E-02 0. -1.
        1   -1    0    0  501    0  0.00000000000E+00  0.00000000000E+00 -0.12294388428E+04  0.12294388429E+04  0.50400001928E-02 0.  1.
    10030    2    1    2    0    0  0.00000000000E+00  0.00000000000E+00 -0.56965075237E+03  0.18892269334E+04  0.18012985388E+04 0.  0.
        4    1    3    3  502    0 -0.63384331532E+03 -0.63981763629E+03 -0.29174576203E+03  0.94670014188E+03  0.12699999809E+01 0. -1.
       -4    1    3    3    0  502  0.63384331532E+03  0.63981763629E+03 -0.27790499034E+03  0.94252679147E+03  0.12699999809E+01 0.  1.
</event>
<event>
 5   0  0.1906857E-05  0.1798231E+04  0.7818609E-02  0.8707241E-01
        1   -1    0    0  501    0  0.00000000000E+00  0.00000000000E+00  0.61222835508E+03  0.61222835510E+03  0.50400001928E-02 0.  1.
       -1   -1    0    0    0  501  0.00000000000E+00  0.00000000000E+00 -0.13204362066E+04  0.13204362066E+04  0.50400001928E-02 0. -1.
    10030    2    1    2    0    0  0.00000000000E+00  0.00000000000E+00 -0.70820785151E+03  0.19326645617E+04  0.17982307825E+04 0.  0.
        4    1    3    3  502    0 -0.28759046318E+03  0.38586964000E+03 -0.11703571199E+04  0.12654410514E+04  0.12699999809E+01 0. -1.
       -4    1    3    3    0  502  0.28759046318E+03 -0.38586964000E+03  0.46214926836E+03  0.66722351033E+03  0.12699999809E+01 0.  1.
</event>
<event>
 5   0  0.3909859E-05  0.1803394E+04  0.7818609E-02  0.8704497E-01
        2   -1    0    0  501    0  0.00000000000E+00  0.00000000000E+00  0.83029572595E+03  0.83029572596E+03  0.25500000920E-02 0. -1.
       -2   -1    0    0    0  501  0.00000000000E+00  0.00000000000E+00 -0.97923838377E+03  0.97923838377E+03  0.25500000920E-02 0.  1.
    10030    2    1    2    0    0  0.00000000000E+00  0.00000000000E+00 -0.14894265782E+03  0.18095341097E+04  0.18033939611E+04 0.  0.
        4    1    3    3  502    0  0.50884915299E+03 -0.18152210100E+03 -0.79885598299E+03  0.96439111781E+03  0.12699999809E+01 0.  1.
       -4    1    3    3    0  502 -0.50884915299E+03  0.18152210100E+03  0.64991332517E+03  0.84514299192E+03  0.12699999809E+01 0. -1.
</event>
<event>
 5   0  0.1446750E-05  0.1801601E+04  0.7818609E-02  0.8705448E-01
        3   -1    0    0  501    0  0.00000000000E+00  0.00000000000E+00  0.21647562768E+04  0.21647562792E+04  0.10100000352E+00 0. -1.
       -3   -1    0    0    0  501  0.00000000000E+00  0.00000000000E+00 -0.37484209503E+03  0.37484210863E+03  0.10100000352E+00 0.  1.
    10030    2    1    2    0    0  0.00000000000E+00  0.00000000000E+00  0.17899141818E+04  0.25395983878E+04  0.18016012859E+04 0.  0.
        1    1    3    3  502    0 -0.65045992925E+03  0.10076850508E+03  0.28073009187E+02  0.65881750512E+03  0.50400001928E-02 0.  1.
       -1    1    3    3    0  502  0.65045992925E+03 -0.10076850508E+03  0.17618411726E+04  0.18807808827E+04  0.50400001928E-02 0. -1.
</event>
<event>
 5   0  0.1960300E-05  0.1799292E+04  0.7818609E-02  0.8706676E-01
       -1   -1    0    0    0  501  0.00000000000E+00  0.00000000000E+00  0.81010796852E+03  0.81010796854E+03  0.50400001928E-02 0. -1.
        1   -1    0    0  501    0  0.00000000000E+00  0.00000000000E+00 -0.99907994161E+03  0.99907994162E+03  0.50400001928E-02 0.  1.
    10030    2    1    2    0    0  0.00000000000E+00  0.00000000000E+00 -0.18897197309E+03  0.18091879102E+04  0.17992916628E+04 0.  0.
        3    1    3    3  502    0 -0.38116118491E+03 -0.58247061813E+03  0.47856679760E+03  0.84473786457E+03  0.10100000352E+00 0. -1.
       -3    1    3    3    0  502  0.38116118491E+03  0.58247061813E+03 -0.66753877070E+03  0.96445004559E+03  0.10100000352E+00 0.  1.
</event>
<event>
 5   0  0.4015729E-05  0.1798984E+04  0.7818609E-02  0.8706840E-01
       -2   -1    0    0    0  501  0.00000000000E+00  0.00000000000E+00  0.14189341206E+04  0.14189341206E+04  0.25500000920E-02 0.  1.
        2   -1    0    0  501    0  0.00000000000E+00  0.00000000000E+00 -0.57020689783E+03  0.57020689783E+03  0.25500000920E-02 0. -1.
    10030    2    1    2    0    0  0.00000000000E+00  0.00000000000E+00  0.84872722279E+03  0.19891410184E+04  0.17989841835E+04 0.  0.
        2    1    3    3  502    0  0.73282528556E+03 -0.38824608381E+03  0.39239213483E+02  0.83024552792E+03  0.25500000920E-02 0.  1.
       -2    1    3    3    0  502 -0.73282528556E+03  0.38824608381E+03  0.80948800930E+03  0.11588954905E+04  0.25500000920E-02 0. -1.
</event>
<event>
 5   0  0.3993393E-05  0.1795377E+04  0.7818609E-02  0.8708762E-01
       -2   -1    0    0    0  501  0.00000000000E+00  0.00000000000E+00  0.64644570775E+03  0.64644570775E+03  0.25500000920E-02 0. -1.
        2   -1    0    0  501    0  0.00000000000E+00  0.00000000000E+00 -0.12465774209E+04  0.12465774209E+04  0.25500000920E-02 0.  1.
    10030    2    1    2    0    0  0.00000000000E+00  0.00000000000E+00 -0.60013171313E+03  0.18930231286E+04  0.17953769778E+04 0.  0.
        5    1    3    3  502    0  0.67456038296E+03  0.57987191261E+03 -0.17292845569E+03  0.90620609470E+03  0.46999998093E+01 0.  1.
       -5    1    3    3    0  502 -0.67456038296E+03 -0.57987191261E+03 -0.42720325744E+03  0.98681703393E+03  0.46999998093E+01 0. -1.
</event>
<event>
 5   0  0.3983176E-05  0.1802974E+04  0.7818609E-02  0.8704720E-01
       -2   -1    0    0    0  501  0.00000000000E+00  0.00000000000E+00  0.46406756198E+03  0.46406756199E+03  0.25500000920E-02 0.  1.
        2   -1    0    0  501    0  0.00000000000E+00  0.00000000000E+00 -0.17512077088E+04  0.17512077088E+04  0.25500000920E-02 0. -1.
    10030    2    1    2    0    0  0.00000000000E+00  0.00000000000E+00 -0.12871401468E+04  0.22152752708E+04  0.18029738678E+04 0.  0.
        3    1    3    3  502    0  0.82216432764E+02 -0.88798925739E+03 -0.48152317217E+03  0.10134836154E+04  0.10100000352E+00 0. -1.
       -3    1    3    3    0  502 -0.82216432764E+02  0.88798925739E+03 -0.80561697468E+03  0.12017916555E+04  0.10100000352E+00 0.  1.
</event>
<event>
 5   0  0.2001811E-05  0.1800495E+04  0.7818609E-02  0.8706036E-01
       -1   -1    0    0    0  501  0.00000000000E+00  0.00000000000E+00  0.26688661577E+03  0.26688661581E+03  0.50400001928E-02 0.  1.
        1   -1    0    0  501    0  0.00000000000E+00  0.00000000000E+00 -0.30366671679E+04  0.30366671679E+04  0.50400001928E-02 0. -1.
    10030    2    1    2    0    0  0.00000000000E+00  0.00000000000E+00 -0.27697805522E+04  0.33035537838E+04  0.18004952916E+04 0.  0.
        2    1    3    3  502    0 -0.54715977907E+03  0.29298956516E+03 -0.25813436568E+04  0.26549127639E+04  0.25500000920E-02 0. -1.
       -2    1    3    3    0  502  0.54715977907E+03 -0.29298956516E+03 -0.18843689532E+03  0.64864101986E+03  0.25500000920E-02 0.  1.
</event>
<event>
 5   0  0.3983176E-05  0.1799143E+04  0.7818609E-02  0.8706755E-01
        2   -1    0    0  501    0  0.00000000000E+00  0.00000000000E+00  0.23597252694E+04  0.23597252694E+04  0.25500000920E-02 0.  1.
       -2   -1    0    0    0  501  0.00000000000E+00  0.00000000000E+00 -0.34293355240E+03  0.34293355241E+03  0.25500000920E-02 0. -1.
    10030    2    1    2    0    0  0.00000000000E+00  0.00000000000E+00  0.20167917170E+04  0.27026588218E+04  0.17991430953E+04 0.  0.
        3    1    3    3  502    0  0.19594721778E+03  0.72351098519E+03  0.26126773638E+03  0.79380368991E+03  0.10100000352E+00 0. -1.
       -3    1    3    3    0  502 -0.19594721778E+03 -0.72351098519E+03  0.17555239806E+04  0.19088551319E+04  0.10100000352E+00 0.  1.
</event>
<event>
 5   0  0.2054876E-05  0.1797638E+04  0.7818609E-02  0.8707557E-01
       -1   -1    0    0    0  501  0.00000000000E+00  0.00000000000E+00  0.10968262717E+04  0.10968262717E+04  0.50400001928E-02 0. -1.
        1   -1    0    0  501    0  0.00000000000E+00  0.00000000000E+00 -0.73655736688E+03  0.73655736689E+03  0.50400001928E-02 0.  1.
    10030    2    1    2    0    0  0.00000000000E+00  0.00000000000E+00  0.36026890481E+03  0.18333836386E+04  0.17976378619E+04 0.  0.
        5    1    3    3  502    0  0.70832086913E+03 -0.24833020622E+03 -0.32413341809E+03  0.81760070186E+03  0.46999998093E+01 0. -1.
       -5    1    3    3    0  502 -0.70832086913E+03  0.24833020622E+03  0.68440232290E+03  0.10157829367E+04  0.46999998093E+01 0.  1.
</event>
<event>
 5   0  0.1960300E-05  0.1825194E+04  0.7818609E-02  0.8693015E-01
       -1   -1    0    0    0  501  0.00000000000E+00  0.00000000000E+00  0.46177852808E+03  0.46177852811E+03  0.50400001928E-02 0. -1.
        1   -1    0    0  501    0  0.00000000000E+00  0.00000000000E+00 -0.18035331239E+04  0.18035331239E+04  0.50400001928E-02 0.  1.
    10030    2    1    2    0    0  0.00000000000E+00  0.00000000000E+00 -0.13417545958E+04  0.22653116520E+04  0.18251935474E+04 0.  0.
        3    1    3    3  502    0  0.57764734595E+03 -0.70577538208E+03 -0.71085485077E+03  0.11563347159E+04  0.10100000352E+00 0. -1.
       -3    1    3    3    0  502 -0.57764734595E+03  0.70577538208E+03 -0.63089974505E+03  0.11089769361E+04  0.10100000352E+00 0.  1.
</event>
<event>
 5   0  0.1906857E-05  0.1799760E+04  0.7818609E-02  0.8706427E-01
        1   -1    0    0  501    0  0.00000000000E+00  0.00000000000E+00  0.79354443215E+03  0.79354443216E+03  0.50400001928E-02 0. -1.
       -1   -1    0    0    0  501  0.00000000000E+00  0.00000000000E+00 -0.10204650781E+04  0.10204650782E+04  0.50400001928E-02 0.  1.
    10030    2    1    2    0    0  0.00000000000E+00  0.00000000000E+00 -0.22692064600E+03  0.18140095103E+04  0.17997604074E+04 0.  0.
        4    1    3    3  502    0  0.46835353350E+03  0.39528372530E+03  0.55067874608E+03  0.82392533042E+03  0.12699999809E+01 0. -1.
       -4    1    3    3    0  502 -0.46835353350E+03 -0.39528372530E+03 -0.77759939207E+03  0.99008417990E+03  0.12699999809E+01 0.  1.
</event>
<event>
 5   0  0.3909859E-05  0.1800909E+04  0.7818609E-02  0.8705816E-01
       -2   -1    0    0    0  501  0.00000000000E+00  0.00000000000E+00  0.12255039859E+04  0.12255039859E+04  0.25500000920E-02 0.  1.
        2   -1    0    0  501    0  0.00000000000E+00  0.00000000000E+00 -0.66162040441E+03  0.66162040442E+03  0.25500000920E-02 0. -1.
    10030    2    1    2    0    0  0.00000000000E+00  0.00000000000E+00  0.56388358144E+03  0.18871243903E+04  0.18009091512E+04 0.  0.
        4    1    3    3  502    0  0.66926603086E+03 -0.50784635705E+03 -0.57594808365E+02  0.84210671371E+03  0.12699999809E+01 0. -1.
       -4    1    3    3    0  502 -0.66926603086E+03  0.50784635705E+03  0.62147838981E+03  0.10450176766E+04  0.12699999809E+01 0.  1.
</event>
<event>
 5   0  0.1906857E-05  0.1807928E+04  0.7818609E-02  0.8702095E-01
        1   -1    0    0  501    0  0.00000000000E+00  0.00000000000E+00  0.11462997942E+04  0.11462997942E+04  0.50400001928E-02 0.  1.
       -1   -1    0    0    0  501  0.00000000000E+00  0.00000000000E+00 -0.71285966695E+03  0.71285966697E+03  0.50400001928E-02 0. -1.
    10030    2    1    2    0    0  0.00000000000E+00  0.00000000000E+00  0.43344012720E+03  0.18591594611E+04  0.18079279737E+04 0.  0.
        4    1    3    3  502    0  0.11712789426E+03 -0.31694977396E+03 -0.64547373053E+03  0.72856986798E+03  0.12699999809E+01 0. -1.
       -4    1    3    3    0  502 -0.11712789426E+03  0.31694977396E+03  0.10789138577E+04  0.11305895931E+04  0.12699999809E+01 0.  1.
</event>
<event>
 5   0  0.3993393E-05  0.1800164E+04  0.7818609E-02  0.8706212E-01
        2   -1    0    0  501    0  0.00000000000E+00  0.00000000000E+00  0.14857486021E+04  0.14857486021E+04  0.25500000920E-02 0. -1.
       -2   -1    0    0    0  501  0.00000000000E+00  0.00000000000E+00 -0.54527917940E+03  0.54527917941E+03  0.25500000920E-02 0.  1.
    10030    2    1    2    0    0  0.00000000000E+00  0.00000000000E+00  0.94046942266E+03  0.20310277815E+04  0.18001641909E+04 0.  0.
        5    1    3    3  502    0  0.44657098810E+03  0.61067541535E+03 -0.79923207895E+02  0.76076272220E+03  0.46999998093E+01 0.  1.
       -5    1    3    3    0  502 -0.44657098810E+03 -0.61067541535E+03  0.10203926306E+04  0.12702650593E+04  0.46999998093E+01 0. -1.
</event>
<event>
 5   0  0.1960300E-05  0.1794685E+04  0.7818609E-02  0.8709131E-01
        1   -1    0    0  501    0  0.00000000000E+00  0.00000000000E+00  0.10938981138E+04  0.10938981138E+04  0.50400001928E-02 0.  1.
       -1   -1    0    0    0  501  0.00000000000E+00  0.00000000000E+00 -0.73610504030E+03  0.73610504032E+03  0.50400001928E-02 0. -1.
    10030    2    1    2    0    0  0.00000000000E+00  0.00000000000E+00  0.35779307350E+03  0.18300031541E+04  0.17946853932E+04 0.  0.
        3    1    3    3  502    0  0.78017173184E+03  0.17169395969E+03  0.59569110428E+03  0.99649116848E+03  0.10100000352E+00 0.  1.
       -3    1    3    3    0  502 -0.78017173184E+03 -0.17169395969E+03 -0.23789803078E+03  0.83351198564E+03  0.10100000352E+00 0. -1.
</event>
<event>
 5   0  0.4015729E-05  0.1802216E+04  0.7818609E-02  0.8705122E-01
        2   -1    0    0  501    0  0.00000000000E+00  0.00000000000E+00  0.86543940146E+03  0.86543940147E+03  0.25500000920E-02 0.  1.
       -2   -1    0    0    0  501  0.00000000000E+00  0.00000000000E+00 -0.93824619967E+03  0.93824619967E+03  0.25500000920E-02 0. -1.
    10030    2    1    2    0    0  0.00000000000E+00  0.00000000000E+00 -0.72806798209E+02  0.18036856011E+04  0.18022155581E+04 0.  0.
        2    1    3    3  502    0 -0.37298707845E+03 -0.11177778760E+03  0.77689812134E+03  0.86901342075E+03  0.25500000920E-02 0.  1.
       -2    1    3    3    0  502  0.37298707845E+03  0.11177778760E+03 -0.84970491955E+03  0.93467218039E+03  0.25500000920E-02 0. -1.
</event>
<event>
 5   0  0.3909859E-05  0.1799811E+04  0.7818609E-02  0.8706400E-01
        2   -1    0    0  501    0  0.00000000000E+00  0.00000000000E+00  0.79237084042E+03  0.79237084043E+03  0.25500000920E-02 0.  1.
       -2   -1    0    0    0  501  0.00000000000E+00  0.00000000000E+00 -0.10220340729E+04  0.10220340729E+04  0.25500000920E-02 0. -1.
    10030    2    1    2    0    0  0.00000000000E+00  0.00000000000E+00 -0.22966323247E+03  0.18144049133E+04  0.17998110982E+04 0.  0.
        4    1    3    3  502    0 -0.88675598674E+03  0.11550896651E+03 -0.21639515069E+03  0.92005813703E+03  0.12699999809E+01 0. -1.
       -4    1    3    3    0  502  0.88675598674E+03 -0.11550896651E+03 -0.13268081776E+02  0.89434677629E+03  0.12699999809E+01 0.  1.
</event>
<event>
 5   0  0.4015729E-05  0.1798106E+04  0.7818609E-02  0.8707307E-01
        2   -1    0    0  501    0  0.00000000000E+00  0.00000000000E+00  0.96562443478E+03  0.96562443478E+03  0.25500000920E-02 0. -1.
       -2   -1    0    0    0  501  0.00000000000E+00  0.00000000000E+00 -0.83707104077E+03  0.83707104077E+03  0.25500000920E-02 0.  1.
    10030    2    1    2    0    0  0.00000000000E+00  0.00000000000E+00  0.12855339401E+03  0.18026954756E+04  0.17981059486E+04 0.  0.
        2    1    3    3  502    0  0.47693342546E+03 -0.22067510272E+03  0.79561326960E+03  0.95350063872E+03  0.25500000920E-02 0. -1.
       -2    1    3    3    0  502 -0.47693342546E+03  0.22067510272E+03 -0.66705987558E+03  0.84919483683E+03  0.25500000920E-02 0.  1.
</event>
<event>
 5   0  0.1906857E-05  0.1807957E+04  0.7818609E-02  0.8702079E-01
       -1   -1    0    0    0  501  0.00000000000E+00  0.00000000000E+00  0.11433460029E+04  0.11433460030E+04  0.50400001928E-02 0. -1.
        1   -1    0    0  501    0  0.00000000000E+00  0.00000000000E+00 -0.71472435494E+03  0.71472435496E+03  0.50400001928E-02 0.  1.
    10030    2    1    2    0    0  0.00000000000E+00  0.00000000000E+00  0.42862164800E+03  0.18580703579E+04  0.18079571172E+04 0.  0.
        4    1    3    3  502    0 -0.60860873666E+03  0.66139055414E+03  0.11502260040E+03  0.90613126584E+03  0.12699999809E+01 0. -1.
       -4    1    3    3    0  502  0.60860873666E+03 -0.66139055414E+03  0.31359904761E+03  0.95193909206E+03  0.12699999809E+01 0.  1.
</event>
<event>
 5   0  0.3993393E-05  0.1800220E+04  0.7818609E-02  0.8706182E-01
       -2   -1    0    0    0  501  0.00000000000E+00  0.00000000000E+00  0.84790501716E+03  0.84790501717E+03  0.25500000920E-02 0.  1.
        2   -1    0    0  501    0  0.00000000000E+00  0.00000000000E+00 -0.95552921776E+03  0.95552921777E+03  0.25500000920E-02 0. -1.
    10030    2    1    2    0    0  0.00000000000E+00  0.00000000000E+00 -0.10762420060E+03  0.18034342349E+04  0.18002200063E+04 0.  0.
        5    1    3    3  502    0  0.64637238746E+03 -0.58491533081E+03 -0.27838353524E+03  0.91511894865E+03  0.46999998093E+01 0. -1.
       -5    1    3    3    0  502 -0.64637238746E+03  0.58491533081E+03  0.17075933464E+03  0.88831528628E+03  0.46999998093E+01 0.  1.
</event>
<event>
 5   0  0.2001811E-05  0.1799721E+04  0.7818609E-02  0.8706448E-01
        1   -1    0    0  501    0  0.00000000000E+00  0.00000000000E+00  0.70331921655E+03  0.70331921657E+03  0.50400001928E-02 0.  1.
       -1   -1    0    0    0  501  0.00000000000E+00  0.00000000000E+00 -0.11513254463E+04  0.11513254463E+04  0.50400001928E-02 0. -1.
    10030    2    1    2    0    0  0.00000000000E+00  0.00000000000E+00 -0.44800622976E+03  0.18546446629E+04  0.17997214350E+04 0.  0.
        2    1    3    3  502    0  0.15102319653E+03  0.33105789125E+03  0.62412101727E+03  0.72245025950E+03  0.25500000920E-02 0.  1.
       -2    1    3    3    0  502 -0.15102319653E+03 -0.33105789125E+03 -0.10721272470E+04  0.11321944034E+04  0.25500000920E-02 0. -1.
</event>
<event>
 5   0  0.2038338E-05  0.1799493E+04  0.7818609E-02  0.8706569E-01
       -1   -1    0    0    0  501  0.00000000000E+00  0.00000000000E+00  0.88083934397E+03  0.88083934399E+03  0.50400001928E-02 0.  1.
        1   -1    0    0  501    0  0.00000000000E+00  0.00000000000E+00 -0.91905904070E+03  0.91905904071E+03  0.50400001928E-02 0. -1.
    10030    2    1    2    0    0  0.00000000000E+00  0.00000000000E+00 -0.38219696725E+02  0.17998983847E+04  0.17994925535E+04 0.  0.
        1    1    3    3  502    0 -0.28225437170E+03  0.30616707249E+03  0.77865234586E+03  0.88300921986E+03  0.50400001928E-02 0.  1.
       -1    1    3    3    0  502  0.28225437170E+03 -0.30616707249E+03 -0.81687204258E+03  0.91688916484E+03  0.50400001928E-02 0. -1.
</event>
<event>
 5   0  0.2054876E-05  0.1803648E+04  0.7818609E-02  0.8704362E-01
        1   -1    0    0  501    0  0.00000000000E+00  0.00000000000E+00  0.91938809222E+03  0.91938809224E+03  0.50400001928E-02 0.  1.
       -1   -1    0    0    0  501  0.00000000000E+00  0.00000000000E+00 -0.88459539754E+03  0.88459539756E+03  0.50400001928E-02 0. -1.
    10030    2    1    2    0    0  0.00000000000E+00  0.00000000000E+00  0.34792694683E+02  0.18039834898E+04  0.18036479423E+04 0.  0.
        5    1    3    3  502    0 -0.85558615903E+03 -0.27553713301E+03 -0.55528106110E+02  0.90058528067E+03  0.46999998093E+01 0.  1.
       -5    1    3    3    0  502  0.85558615903E+03  0.27553713301E+03  0.90320800792E+02  0.90339820912E+03  0.46999998093E+01 0. -1.
</event>
<event>
 5   0  0.1906857E-05  0.1796975E+04  0.7818609E-02  0.8707910E-01
        1   -1    0    0  501    0  0.00000000000E+00  0.00000000000E+00  0.70557318759E+03  0.70557318761E+03  0.50400001928E-02 0. -1.
       -1   -1    0    0    0  501  0.00000000000E+00  0.00000000000E+00 -0.11441480256E+04  0.11441480256E+04  0.50400001928E-02 0.  1.
    10030    2    1    2    0    0  0.00000000000E+00  0.00000000000E+00 -0.43857483804E+03  0.18497212133E+04  0.17969754250E+04 0.  0.
        4    1    3    3  502    0 -0.56098864296E+03 -0.70125811571E+03 -0.19003941623E+03  0.91792581127E+03  0.12699999809E+01 0. -1.
       -4    1    3    3    0  502  0.56098864296E+03  0.70125811571E+03 -0.24853542182E+03  0.93179540199E+03  0.12699999809E+01 0.  1.
</event>
<event>
 5   0  0.3984648E-05  0.1799817E+04  0.7818609E-02  0.8706397E-01
        2   -1    0    0  501    0  0.00000000000E+00  0.00000000000E+00  0.16104692800E+04  0.16104692800E+04  0.25500000920E-02 0.  1.
       -2   -1    0    0    0  501  0.00000000000E+00  0.00000000000E+00 -0.50285647178E+03  0.50285647179E+03  0.25500000920E-02 0. -1.
    10030    2    1    2    0    0  0.00000000000E+00  0.00000000000E+00  0.11076128083E+04  0.21133257518E+04  0.17998165463E+04 0.  0.
        1    1    3    3  502    0 -0.26620259570E+03  0.65768487569E+03  0.12037833478E+04  0.13973215686E+04  0.50400001928E-02 0.  1.
       -1    1    3    3    0  502  0.26620259570E+03 -0.65768487569E+03 -0.96170539538E+02  0.71600418321E+03  0.50400001928E-02 0. -1.
</event>
<event>
 5   0  0.2038338E-05  0.1802067E+04  0.7818609E-02  0.8705201E-01
        1   -1    0    0  501    0  0.00000000000E+00  0.00000000000E+00  0.89776764298E+03  0.89776764299E+03  0.50400001928E-02 0. -1.
       -1   -1    0    0    0  501  0.00000000000E+00  0.00000000000E+00 -0.90431133949E+03  0.90431133950E+03  0.50400001928E-02 0.  1.
    10030    2    1    2    0    0  0.00000000000E+00  0.00000000000E+00 -0.65436965093E+01  0.18020789825E+04  0.18020671017E+04 0.  0.
        1    1    3    3  502    0  0.23613112014E+03  0.75511621147E+03 -0.43443946336E+03  0.90260514405E+03  0.50400001928E-02 0.  1.
       -1    1    3    3    0  502 -0.23613112014E+03 -0.75511621147E+03  0.42789576685E+03  0.89947383844E+03  0.50400001928E-02 0. -1.
</event>
<event>
 5   0  0.3983176E-05  0.1798103E+04  0.7818609E-02  0.8707309E-01
        2   -1    0    0  501    0  0.00000000000E+00  0.00000000000E+00  0.14485787527E+04  0.14485787527E+04  0.25500000920E-02 0. -1.
       -2   -1    0    0    0  501  0.00000000000E+00  0.00000000000E+00 -0.55799067684E+03  0.55799067684E+03  0.25500000920E-02 0.  1.
    10030    2    1    2    0    0  0.00000000000E+00  0.00000000000E+00  0.89058807583E+03  0.20065694295E+04  0.17981028209E+04 0.  0.
        3    1    3    3  502    0  0.27556308420E+03 -0.30559718392E+01 -0.50969577311E+03  0.57942570159E+03  0.10100000352E+00 0.  1.
       -3    1    3    3    0  502 -0.27556308420E+03  0.30559718392E+01  0.14002838489E+04  0.14271437279E+04  0.10100000352E+00 0. -1.
</event>
<event>
 5   0  0.3984648E-05  0.1812350E+04  0.7818609E-02  0.8699760E-01
        2   -1    0    0  501    0  0.00000000000E+00  0.00000000000E+00  0.10722421126E+04  0.10722421126E+04  0.25500000920E-02 0.  1.
       -2   -1    0    0    0  501  0.00000000000E+00  0.00000000000E+00 -0.76582778680E+03  0.76582778681E+03  0.25500000920E-02 0. -1.
    10030    2    1    2    0    0  0.00000000000E+00  0.00000000000E+00  0.30641432583E+03  0.18380698994E+04  0.18123496396E+04 0.  0.
        1    1    3    3  502    0 -0.50537459047E+03  0.60881055587E+03 -0.29476146149E+03  0.84435661236E+03  0.50400001928E-02 0. -1.
       -1    1    3    3    0  502  0.50537459047E+03 -0.60881055587E+03  0.60117578731E+03  0.99371328708E+03  0.50400001928E-02 0.  1.
</event>
<event>
 5   0  0.3984648E-05  0.1833737E+04  0.7818609E-02  0.8688561E-01
       -2   -1    0    0    0  501  0.00000000000E+00  0.00000000000E+00  0.14435471934E+04  0.14435471934E+04  0.25500000920E-02 0.  1.
        2   -1    0    0  501    0  0.00000000000E+00  0.00000000000E+00 -0.58234872300E+03  0.58234872301E+03  0.25500000920E-02 0. -1.
    10030    2    1    2    0    0  0.00000000000E+00  0.00000000000E+00  0.86119847040E+03  0.20258959164E+04  0.18337370201E+04 0.  0.
        1    1    3    3  502    0 -0.38582955993E+03 -0.45780749621E+03  0.11977694766E+04  0.13390682851E+04  0.50400001928E-02 0.  1.
       -1    1    3    3    0  502  0.38582955993E+03  0.45780749621E+03 -0.33657100624E+03  0.68682763133E+03  0.50400001928E-02 0. -1.
</event>
<event>
 5   0  0.3993393E-05  0.1800445E+04  0.7818609E-02  0.8706063E-01
       -2   -1    0    0    0  501  0.00000000000E+00  0.00000000000E+00  0.11071122200E+04  0.11071122200E+04  0.25500000920E-02 0.  1.
        2   -1    0    0  501    0  0.00000000000E+00  0.00000000000E+00 -0.73199512332E+03  0.73199512333E+03  0.25500000920E-02 0. -1.
    10030    2    1    2    0    0  0.00000000000E+00  0.00000000000E+00  0.37511709665E+03  0.18391073433E+04  0.18004452183E+04 0.  0.
        5    1    3    3  502    0 -0.78558012390E+03 -0.18860396074E+03  0.59316343200E+03  0.10022836585E+04  0.46999998093E+01 0.  1.
       -5    1    3    3    0  502  0.78558012390E+03  0.18860396074E+03 -0.21804633535E+03  0.83682368479E+03  0.46999998093E+01 0. -1.
</event>
<event>
 5   0  0.2054876E-05  0.1800204E+04  0.7818609E-02  0.8706191E-01
       -1   -1    0    0    0  501  0.00000000000E+00  0.00000000000E+00  0.14834322272E+04  0.14834322272E+04  0.50400001928E-02 0.  1.
        1   -1    0    0  501    0  0.00000000000E+00  0.00000000000E+00 -0.54615471291E+03  0.54615471294E+03  0.50400001928E-02 0. -1.
    10030    2    1    2    0    0  0.00000000000E+00  0.00000000000E+00  0.93727751425E+03  0.20295869401E+04  0.18002038798E+04 0.  0.
        5    1    3    3  502    0 -0.26164022684E+03  0.57213711064E+03 -0.25709523028E+03  0.67964441372E+03  0.46999998093E+01 0. -1.
       -5    1    3    3    0  502  0.26164022684E+03 -0.57213711064E+03  0.11943727445E+04  0.13499425264E+04  0.46999998093E+01 0.  1.
</event>
<event>
 5   0  0.3983176E-05  0.1801509E+04  0.7818609E-02  0.8705497E-01
       -2   -1    0    0    0  501  0.00000000000E+00  0.00000000000E+00  0.54832716434E+03  0.54832716435E+03  0.25500000920E-02 0. -1.
        2   -1    0    0  501    0  0.00000000000E+00  0.00000000000E+00 -0.14796988012E+04  0.14796988012E+04  0.25500000920E-02 0.  1.
    10030    2    1    2    0    0  0.00000000000E+00  0.00000000000E+00 -0.93137163684E+03  0.20280259655E+04  0.18015094202E+04 0.  0.
        3    1    3    3  502    0  0.79345582843E+03  0.22968093915E+03 -0.87006454482E+03  0.11997240549E+04  0.10100000352E+00 0.  1.
       -3    1    3    3    0  502 -0.79345582843E+03 -0.22968093915E+03 -0.61307092016E+02  0.82830191066E+03  0.10100000352E+00 0. -1.
</event>
<event>
 5   0  0.2001811E-05  0.1805045E+04  0.7818609E-02  0.8703621E-01
        1   -1    0    0  501    0  0.00000000000E+00  0.00000000000E+00  0.96604662197E+03  0.96604662199E+03  0.50400001928E-02 0. -1.
       -1   -1    0    0    0  501  0.00000000000E+00  0.00000000000E+00 -0.84317527422E+03  0.84317527423E+03  0.50400001928E-02 0.  1.
    10030    2    1    2    0    0  0.00000000000E+00  0.00000000000E+00  0.12287134776E+03  0.18092218962E+04  0.18050447367E+04 0.  0.
        2    1    3    3  502    0 -0.19479258801E+03  0.28817832507E+03 -0.77329148867E+03  0.84792135592E+03  0.25500000920E-02 0.  1.
       -2    1    3    3    0  502  0.19479258801E+03 -0.28817832507E+03  0.89616283642E+03  0.96130054030E+03  0.25500000920E-02 0. -1.
</event>
<event>
 5   0  0.2038338E-05  0.1799669E+04  0.7818609E-02  0.8706476E-01
        1   -1    0    0  501    0  0.00000000000E+00  0.00000000000E+00  0.11307310114E+04  0.11307310114E+04  0.50400001928E-02 0. -1.
       -1   -1    0    0    0  501  0.00000000000E+00  0.00000000000E+00 -0.71608724724E+03  0.71608724726E+03  0.50400001928E-02 0.  1.
    10030    2    1    2    0    0  0.00000000000E+00  0.00000000000E+00  0.41464376414E+03  0.18468182586E+04  0.17996689221E+04 0.  0.
        1    1    3    3  502    0  0.24707575785E+03 -0.16295464207E+03 -0.66470653887E+03  0.72762313620E+03  0.50400001928E-02 0.  1.
       -1    1    3    3    0  502 -0.24707575785E+03  0.16295464207E+03  0.10793503030E+04  0.11191951225E+04  0.50400001928E-02 0. -1.
</event>
<event>
 5   0  0.1960300E-05  0.1800142E+04  0.7818609E-02  0.8706224E-01
       -1   -1    0    0    0  501  0.00000000000E+00  0.00000000000E+00  0.53546804130E+03  0.53546804133E+03  0.50400001928E-02 0.  1.
        1   -1    0    0  501    0  0.00000000000E+00  0.00000000000E+00 -0.15129344422E+04  0.15129344423E+04  0.50400001928E-02 0. -1.
    10030    2    1    2    0    0  0.00000000000E+00  0.00000000000E+00 -0.97746640094E+03  0.20484024836E+04  0.18001422638E+04 0.  0.
        3    1    3    3  502    0  0.70688120738E+02  0.44383667855E+03 -0.13761146188E+04  0.14476461108E+04  0.10100000352E+00 0. -1.
       -3    1    3    3    0  502 -0.70688120738E+02 -0.44383667855E+03  0.39864821790E+03  0.60075637281E+03  0.10100000352E+00 0.  1.
</event>
<event>
 5   0  0.1960300E-05  0.1799164E+04  0.7818609E-02  0.8706744E-01
       -1   -1    0    0    0  501  0.00000000000E+00  0.00000000000E+00  0.12973519818E+04  0.12973519818E+04  0.50400001928E-02 0.  1.
        1   -1    0    0  501    0  0.00000000000E+00  0.00000000000E+00 -0.62376906519E+03  0.62376906521E+03  0.50400001928E-02 0. -1.
    10030    2    1    2    0    0  0.00000000000E+00  0.00000000000E+00  0.67358291658E+03  0.19211210470E+04  0.17991642870E+04 0.  0.
        3    1    3    3  502    0 -0.80228345058E+03 -0.13472876144E+03  0.74679519171E+03  0.11043159162E+04  0.10100000352E+00 0.  1.
       -3    1    3    3    0  502  0.80228345058E+03  0.13472876144E+03 -0.73212275129E+02  0.81680513078E+03  0.10100000352E+00 0. -1.
</event>
<event>
 5   0  0.4015729E-05  0.1795215E+04  0.7818609E-02  0.8708848E-01
        2   -1    0    0  501    0  0.00000000000E+00  0.00000000000E+00  0.27346034845E+03  0.27346034846E+03  0.25500000920E-02 0.  1.
       -2   -1    0    0    0  501  0.00000000000E+00  0.00000000000E+00 -0.29463122758E+04  0.29463122758E+04  0.25500000920E-02 0. -1.
    10030    2    1    2    0    0  0.00000000000E+00  0.00000000000E+00 -0.26728519274E+04  0.32197726243E+04  0.17952153983E+04 0.  0.
        2    1    3    3  502    0 -0.22090515280E+03  0.44299118268E+03  0.65188204401E+01  0.49505834958E+03  0.25500000920E-02 0.  1.
       -2    1    3    3    0  502  0.22090515280E+03 -0.44299118268E+03 -0.26793707478E+04  0.27247142747E+04  0.25500000920E-02 0. -1.
</event>
<event>
 5   0  0.2054876E-05  0.1795512E+04  0.7818609E-02  0.8708690E-01
       -1   -1    0    0    0  501  0.00000000000E+00  0.00000000000E+00  0.91885062381E+03  0.91885062383E+03  0.50400001928E-02 0.  1.
        1   -1    0    0  501    0  0.00000000000E+00  0.00000000000E+00 -0.87714542450E+03  0.87714542451E+03  0.50400001928E-02 0. -1.
    10030    2    1    2    0    0  0.00000000000E+00  0.00000000000E+00  0.41705199315E+02  0.17959960483E+04  0.17955117605E+04 0.  0.
        5    1    3    3  502    0 -0.31083253732E+03  0.34896501173E+03  0.78757750286E+03  0.91580230327E+03  0.46999998093E+01 0.  1.
       -5    1    3    3    0  502  0.31083253732E+03 -0.34896501173E+03 -0.74587230355E+03  0.88019374507E+03  0.46999998093E+01 0. -1.
</event>
<event>
 5   0  0.3993393E-05  0.1802013E+04  0.7818609E-02  0.8705230E-01
        2   -1    0    0  501    0  0.00000000000E+00  0.00000000000E+00  0.72333561436E+03  0.72333561437E+03  0.25500000920E-02 0.  1.
       -2   -1    0    0    0  501  0.00000000000E+00  0.00000000000E+00 -0.11223182427E+04  0.11223182427E+04  0.25500000920E-02 0. -1.
    10030    2    1    2    0    0  0.00000000000E+00  0.00000000000E+00 -0.39898262830E+03  0.18456538570E+04  0.18020130472E+04 0.  0.
        5    1    3    3  502    0 -0.50316418930E+03 -0.35412482972E+03 -0.87361967309E+03  0.10685560442E+04  0.46999998093E+01 0. -1.
       -5    1    3    3    0  502  0.50316418930E+03  0.35412482972E+03  0.47463704478E+03  0.77709781283E+03  0.46999998093E+01 0.  1.
</event>
<event>
 5   0  0.2001811E-05  0.1801223E+04  0.7818609E-02  0.8705649E-01
       -1   -1    0    0    0  501  0.00000000000E+00  0.00000000000E+00  0.58769293286E+03  0.58769293288E+03  0.50400001928E-02 0. -1.
        1   -1    0    0  501    0  0.00000000000E+00  0.00000000000E+00 -0.13801449459E+04  0.13801449459E+04  0.50400001928E-02 0.  1.
    10030    2    1    2    0    0  0.00000000000E+00  0.00000000000E+00 -0.79245201305E+03  0.19678378788E+04  0.18012233966E+04 0.  0.
        2    1    3    3  502    0  0.16339823055E+03  0.67295346489E+02  0.56856644682E+03  0.59539520477E+03  0.25500000920E-02 0. -1.
       -2    1    3    3    0  502 -0.16339823055E+03 -0.67295346489E+02 -0.13610184599E+04  0.13724426740E+04  0.25500000920E-02 0.  1.
</event>
<event>
 5   0  0.1446750E-05  0.1802985E+04  0.7818609E-02  0.8704714E-01
        4   -1    0    0  501    0  0.00000000000E+00  0.00000000000E+00  0.80776650297E+03  0.80776750134E+03  0.12699999809E+01 0.  1.
       -4   -1    0    0    0  501  0.00000000000E+00  0.00000000000E+00 -0.10060917485E+04  0.10060925501E+04  0.12699999809E+01 0. -1.
    10030    2    1    2    0    0  0.00000000000E+00  0.00000000000E+00 -0.19832524556E+03  0.18138600514E+04  0.18029851312E+04 0.  0.
        1    1    3    3  502    0  0.10436088701E+03  0.31093766413E+03  0.74561370756E+03  0.81456321218E+03  0.50400001928E-02 0.  1.
       -1    1    3    3    0  502 -0.10436088701E+03 -0.31093766413E+03 -0.94393895312E+03  0.99929683926E+03  0.50400001928E-02 0. -1.
</event>
<event>
 5   0  0.2038338E-05  0.1797938E+04  0.7818609E-02  0.8707397E-01
       -1   -1    0    0    0  501  0.00000000000E+00  0.00000000000E+00  0.89574807255E+03  0.89574807257E+03  0.50400001928E-02 0.  1.
        1   -1    0    0  501    0  0.00000000000E+00  0.00000000000E+00 -0.90220187369E+03  0.90220187371E+03  0.50400001928E-02 0. -1.
    10030    2    1    2    0    0  0.00000000000E+00  0.00000000000E+00 -0.64538011380E+01  0.17979499463E+04  0.17979383632E+04 0.  0.
        1    1    3    3  502    0  0.74690400668E+03 -0.42291141111E+03  0.26403112624E+03  0.89801564156E+03  0.50400001928E-02 0.  1.
       -1    1    3    3    0  502 -0.74690400668E+03  0.42291141111E+03 -0.27048492738E+03  0.89993430471E+03  0.50400001928E-02 0. -1.
</event>
<event>
 5   0  0.2001811E-05  0.1798476E+04  0.7818609E-02  0.8707110E-01
       -1   -1    0    0    0  501  0.00000000000E+00  0.00000000000E+00  0.48271167448E+03  0.48271167451E+03  0.50400001928E-02 0. -1.
        1   -1    0    0  501    0  0.00000000000E+00  0.00000000000E+00 -0.16751799817E+04  0.16751799817E+04  0.50400001928E-02 0.  1.
    10030    2    1    2    0    0  0.00000000000E+00  0.00000000000E+00 -0.11924683072E+04  0.21578916562E+04  0.17984759482E+04 0.  0.
        2    1    3    3  502    0 -0.21052812754E+02  0.88974976653E+03 -0.44196630150E+03  0.99369617068E+03  0.25500000920E-02 0. -1.
       -2    1    3    3    0  502  0.21052812754E+02 -0.88974976653E+03 -0.75050200574E+03  0.11641954856E+04  0.25500000920E-02 0.  1.
</event>
<event>
 5   0  0.3984648E-05  0.1797634E+04  0.7818609E-02  0.8707559E-01
       -2   -1    0    0    0  501  0.00000000000E+00  0.00000000000E+00  0.19517350069E+04  0.19517350069E+04  0.25500000920E-02 0.  1.
        2   -1    0    0  501    0  0.00000000000E+00  0.00000000000E+00 -0.41392481624E+03  0.41392481625E+03  0.25500000920E-02 0. -1.
    10030    2    1    2    0    0  0.00000000000E+00  0.00000000000E+00  0.15378101907E+04  0.23656598231E+04  0.17976335045E+04 0.  0.
        1    1    3    3  502    0  0.96490286153E+02 -0.39151161097E+03  0.18260272820E+04  0.18700180083E+04  0.50400001928E-02 0.  1.
       -1    1    3    3    0  502 -0.96490286153E+02  0.39151161097E+03 -0.28821709133E+03  0.49564181483E+03  0.50400001928E-02 0. -1.
</event>
<event>
 5   0  0.3984648E-05  0.1798969E+04  0.7818609E-02  0.8706848E-01
        2   -1    0    0  501    0  0.00000000000E+00  0.00000000000E+00  0.19987074547E+04  0.19987074547E+04  0.25500000920E-02 0.  1.
       -2   -1    0    0    0  501  0.00000000000E+00  0.00000000000E+00 -0.40479796689E+03  0.40479796690E+03  0.25500000920E-02 0. -1.
    10030    2    1    2    0    0  0.00000000000E+00  0.00000000000E+00  0.15939094878E+04  0.24035054216E+04  0.17989693873E+04 0.  0.
        1    1    3    3  502    0 -0.61509892777E+03 -0.25816869392E+03 -0.91968768060E+01  0.66714492282E+03  0.50400001928E-02 0. -1.
       -1    1    3    3    0  502  0.61509892777E+03  0.25816869392E+03  0.16031063646E+04  0.17363604988E+04  0.50400001928E-02 0.  1.
</event>
<event>
 5   0  0.1446750E-05  0.1801771E+04  0.7818609E-02  0.8705358E-01
       -3   -1    0    0    0  501  0.00000000000E+00  0.00000000000E+00  0.71001853786E+03  0.71001854504E+03  0.10100000352E+00 0.  1.
        3   -1    0    0  501    0  0.00000000000E+00  0.00000000000E+00 -0.11430616343E+04  0.11430616388E+04  0.10100000352E+00 0. -1.
    10030    2    1    2    0    0  0.00000000000E+00  0.00000000000E+00 -0.43304309646E+03  0.18530801838E+04  0.18017713074E+04 0.  0.
        1    1    3    3  502    0 -0.75297015268E+03 -0.48385287047E+03 -0.32199590413E+03  0.95118821134E+03  0.50400001928E-02 0. -1.
       -1    1    3    3    0  502  0.75297015268E+03  0.48385287047E+03 -0.11104719233E+03  0.90189197248E+03  0.50400001928E-02 0.  1.
</event>
<event>
 5   0  0.1906857E-05  0.1793907E+04  0.7818609E-02  0.8709547E-01
        1   -1    0    0  501    0  0.00000000000E+00  0.00000000000E+00  0.11989135089E+04  0.11989135090E+04  0.50400001928E-02 0. -1.
       -1   -1    0    0    0  501  0.00000000000E+00  0.00000000000E+00 -0.67104529456E+03  0.67104529458E+03  0.50400001928E-02 0.  1.
    10030    2    1    2    0    0  0.00000000000E+00  0.00000000000E+00  0.52786821438E+03  0.18699588035E+04  0.17939066517E+04 0.  0.
        4    1    3    3  502    0  0.61050161977E+03 -0.38659151297E+03 -0.28996743971E+03  0.77861926167E+03  0.12699999809E+01 0.  1.
       -4    1    3    3    0  502 -0.61050161977E+03  0.38659151297E+03  0.81783565409E+03  0.10913395419E+04  0.12699999809E+01 0. -1.
</event>
<event>
 5   0  0.3993393E-05  0.1796369E+04  0.7818609E-02  0.8708233E-01
        2   -1    0    0  501    0  0.00000000000E+00  0.00000000000E+00  0.10237778257E+04  0.10237778257E+04  0.25500000920E-02 0.  1.
       -2   -1    0    0    0  501  0.00000000000E+00  0.00000000000E+00 -0.78799830889E+03  0.78799830889E+03  0.25500000920E-02 0. -1.
    10030    2    1    2    0    0  0.00000000000E+00  0.00000000000E+00  0.23577951679E+03  0.18117761346E+04  0.17963687765E+04 0.  0.
        5    1    3    3  502    0  0.18005850414E+03 -0.82250266766E+03 -0.19749243343E+03  0.86484510432E+03  0.46999998093E+01 0. -1.
       -5    1    3    3    0  502 -0.18005850414E+03  0.82250266766E+03  0.43327195022E+03  0.94693103026E+03  0.46999998093E+01 0.  1.
</event>
<event>
 5   0  0.2054876E-05  0.1797435E+04  0.7818609E-02  0.8707665E-01
        1   -1    0    0  501    0  0.00000000000E+00  0.00000000000E+00  0.68991710741E+03  0.68991710743E+03  0.50400001928E-02 0. -1.
       -1   -1    0    0    0  501  0.00000000000E+00  0.00000000000E+00 -0.11707102004E+04  0.11707102004E+04  0.50400001928E-02 0.  1.
    10030    2    1    2    0    0  0.00000000000E+00  0.00000000000E+00 -0.48079309302E+03  0.18606273079E+04  0.17974348335E+04 0.  0.
        5    1    3    3  502    0 -0.27198434326E+03  0.82302850301E+03 -0.48605722830E+03  0.99379329789E+03  0.46999998093E+01 0.  1.
       -5    1    3    3    0  502  0.27198434326E+03 -0.82302850301E+03  0.52641352865E+01  0.86683400998E+03  0.46999998093E+01 0. -1.
</event>
<event>
 5   0  0.2001811E-05  0.1801838E+04  0.7818609E-02  0.8705322E-01
        1   -1    0    0  501    0  0.00000000000E+00  0.00000000000E+00  0.64516232777E+03  0.64516232779E+03  0.50400001928E-02 0.  1.
       -1   -1    0    0    0  501  0.00000000000E+00  0.00000000000E+00 -0.12580637894E+04  0.12580637894E+04  0.50400001928E-02 0. -1.
    10030    2    1    2    0    0  0.00000000000E+00  0.00000000000E+00 -0.61290146161E+03  0.19032261172E+04  0.18018383533E+04 0.  0.
        2    1    3    3  502    0  0.12641042763E+03 -0.80952302448E+03 -0.70216166104E+03  0.10790450044E+04  0.25500000920E-02 0. -1.
       -2    1    3    3    0  502 -0.12641042763E+03  0.80952302448E+03  0.89260199426E+02  0.82418111274E+03  0.25500000920E-02 0.  1.
</event>
<event>
 5   0  0.3993393E-05  0.1799730E+04  0.7818609E-02  0.8706443E-01
       -2   -1    0    0    0  501  0.00000000000E+00  0.00000000000E+00  0.11487692752E+04  0.11487692752E+04  0.25500000920E-02 0.  1.
        2   -1    0    0  501    0  0.00000000000E+00  0.00000000000E+00 -0.70489071044E+03  0.70489071045E+03  0.25500000920E-02 0. -1.
    10030    2    1    2    0    0  0.00000000000E+00  0.00000000000E+00  0.44387856476E+03  0.18536599856E+04  0.17997297470E+04 0.  0.
        5    1    3    3  502    0  0.12920743698E+03 -0.78870583418E+03 -0.20395279257E+03  0.82484561358E+03  0.46999998093E+01 0. -1.
       -5    1    3    3    0  502 -0.12920743698E+03  0.78870583418E+03  0.64783135733E+03  0.10288143721E+04  0.46999998093E+01 0.  1.
</event>
<event>
 5   0  0.3984648E-05  0.1798325E+04  0.7818609E-02  0.8707191E-01
        2   -1    0    0  501    0  0.00000000000E+00  0.00000000000E+00  0.10244999242E+04  0.10244999242E+04  0.25500000920E-02 0.  1.
       -2   -1    0    0    0  501  0.00000000000E+00  0.00000000000E+00 -0.78915867036E+03  0.78915867037E+03  0.25500000920E-02 0. -1.
    10030    2    1    2    0    0  0.00000000000E+00  0.00000000000E+00  0.23534125381E+03  0.18136585945E+04  0.17983247737E+04 0.  0.
        1    1    3    3  502    0  0.43063940819E+03 -0.23920793562E+02 -0.67802467901E+03  0.80357947313E+03  0.50400001928E-02 0. -1.
       -1    1    3    3    0  502 -0.43063940819E+03  0.23920793562E+02  0.91336593282E+03  0.10100791214E+04  0.50400001928E-02 0.  1.
</event>
<event>
 5   0  0.2001811E-05  0.1804763E+04  0.7818609E-02  0.8703771E-01
       -1   -1    0    0    0  501  0.00000000000E+00  0.00000000000E+00  0.45718365318E+03  0.45718365321E+03  0.50400001928E-02 0. -1.
        1   -1    0    0  501    0  0.00000000000E+00  0.00000000000E+00 -0.17811057433E+04  0.17811057433E+04  0.50400001928E-02 0.  1.
    10030    2    1    2    0    0  0.00000000000E+00  0.00000000000E+00 -0.13239220901E+04  0.22382893965E+04  0.18047630653E+04 0.  0.
        2    1    3    3  502    0 -0.37990828293E+02  0.77174140827E+03 -0.12400441200E+04  0.14610740993E+04  0.25500000920E-02 0.  1.
       -2    1    3    3    0  502  0.37990828293E+02 -0.77174140827E+03 -0.83877970140E+02  0.77721529717E+03  0.25500000920E-02 0. -1.
</event>
<event>
 5   0  0.2054876E-05  0.1801366E+04  0.7818609E-02  0.8705574E-01
       -1   -1    0    0    0  501  0.00000000000E+00  0.00000000000E+00  0.77101539428E+03  0.77101539430E+03  0.50400001928E-02 0.  1.
        1   -1    0    0  501    0  0.00000000000E+00  0.00000000000E+00 -0.10521573036E+04  0.10521573036E+04  0.50400001928E-02 0. -1.
    10030    2    1    2    0    0  0.00000000000E+00  0.00000000000E+00 -0.28114190933E+03  0.18231726979E+04  0.18013655690E+04 0.  0.
        5    1    3    3  502    0  0.42210676290E+03  0.16867790364E+03  0.64639004606E+03  0.79023321628E+03  0.46999998093E+01 0.  1.
       -5    1    3    3    0  502 -0.42210676290E+03 -0.16867790364E+03 -0.92753195539E+03  0.10329394816E+04  0.46999998093E+01 0. -1.
</event>
<event>
 5   0  0.1960300E-05  0.1801921E+04  0.7818609E-02  0.8705279E-01
       -1   -1    0    0    0  501  0.00000000000E+00  0.00000000000E+00  0.90710647916E+03  0.90710647917E+03  0.50400001928E-02 0. -1.
        1   -1    0    0  501    0  0.00000000000E+00  0.00000000000E+00 -0.89485628700E+03  0.89485628701E+03  0.50400001928E-02 0.  1.
    10030    2    1    2    0    0  0.00000000000E+00  0.00000000000E+00  0.12250192162E+02  0.18019627662E+04  0.18019211258E+04 0.  0.
        3    1    3    3  502    0  0.20483564333E+03  0.58235413994E+03 -0.65011864207E+03  0.89652007454E+03  0.10100000352E+00 0.  1.
       -3    1    3    3    0  502 -0.20483564333E+03 -0.58235413994E+03  0.66236883423E+03  0.90544269164E+03  0.10100000352E+00 0. -1.
</event>
<event>
 5   0  0.1960300E-05  0.1800699E+04  0.7818609E-02  0.8705928E-01
        1   -1    0    0  501    0  0.00000000000E+00  0.00000000000E+00  0.12150275813E+04  0.12150275813E+04  0.50400001928E-02 0. -1.
       -1   -1    0    0    0  501  0.00000000000E+00  0.00000000000E+00 -0.66716904661E+03  0.66716904662E+03  0.50400001928E-02 0.  1.
    10030    2    1    2    0    0  0.00000000000E+00  0.00000000000E+00  0.54785853467E+03  0.18821966279E+04  0.18006985234E+04 0.  0.
        3    1    3    3  502    0 -0.43706442021E+03 -0.78203059282E+03  0.18025382416E+03  0.91383182635E+03  0.10100000352E+00 0. -1.
       -3    1    3    3    0  502  0.43706442021E+03  0.78203059282E+03  0.36760471051E+03  0.96836480156E+03  0.10100000352E+00 0.  1.
</event>
<event>
 5   0  0.2054876E-05  0.1806300E+04  0.7818609E-02  0.8702956E-01
       -1   -1    0    0    0  501  0.00000000000E+00  0.00000000000E+00  0.85432430923E+03  0.85432430925E+03  0.50400001928E-02 0.  1.
        1   -1    0    0  501    0  0.00000000000E+00  0.00000000000E+00 -0.95476603938E+03  0.95476603939E+03  0.50400001928E-02 0. -1.
    10030    2    1    2    0    0  0.00000000000E+00  0.00000000000E+00 -0.10044173015E+03  0.18090903486E+04  0.18062999054E+04 0.  0.
        5    1    3    3  502    0 -0.59327758605E+03  0.52002104722E+03  0.39006895816E+03  0.88010003169E+03  0.46999998093E+01 0.  1.
       -5    1    3    3    0  502  0.59327758605E+03 -0.52002104722E+03 -0.49051068831E+03  0.92899031696E+03  0.46999998093E+01 0. -1.
</event>
<event>
 5   0  0.1906857E-05  0.1793797E+04  0.7818609E-02  0.8709605E-01
       -1   -1    0    0    0  501  0.00000000000E+00  0.00000000000E+00  0.84795635934E+03  0.84795635936E+03  0.50400001928E-02 0.  1.
        1   -1    0    0  501    0  0.00000000000E+00  0.00000000000E+00 -0.94866592437E+03  0.94866592439E+03  0.50400001928E-02 0. -1.
    10030    2    1    2    0    0  0.00000000000E+00  0.00000000000E+00 -0.10070956503E+03  0.17966222837E+04  0.17937974284E+04 0.  0.
        4    1    3    3  502    0  0.46496908092E+03  0.11019713397E+03 -0.81055337138E+03  0.94092403269E+03  0.12699999809E+01 0. -1.
       -4    1    3    3    0  502 -0.46496908092E+03 -0.11019713397E+03  0.70984380634E+03  0.85569825105E+03  0.12699999809E+01 0.  1.
</event>
<event>
 5   0  0.2054876E-05  0.1799794E+04  0.7818609E-02  0.8706409E-01
        1   -1    0    0  501    0  0.00000000000E+00  0.00000000000E+00  0.95008919469E+03  0.95008919470E+03  0.50400001928E-02 0.  1.
       -1   -1    0    0    0  501  0.00000000000E+00  0.00000000000E+00 -0.85235641607E+03  0.85235641609E+03  0.50400001928E-02 0. -1.
    10030    2    1    2    0    0  0.00000000000E+00  0.00000000000E+00  0.97732778617E+02  0.18024456108E+04  0.17997940115E+04 0.  0.
        5    1    3    3  502    0 -0.26224796134E+03 -0.14856876212E+03 -0.80028956650E+03  0.85517960135E+03  0.46999998093E+01 0. -1.
       -5    1    3    3    0  502  0.26224796134E+03  0.14856876212E+03  0.89802234512E+03  0.94726600944E+03  0.46999998093E+01 0.  1.
</event>
<event>
 5   0  0.3909859E-05  0.1799688E+04  0.7818609E-02  0.8706466E-01
        2   -1    0    0  501    0  0.00000000000E+00  0.00000000000E+00  0.14353920430E+04  0.14353920430E+04  0.25500000920E-02 0.  1.
       -2   -1    0    0    0  501  0.00000000000E+00  0.00000000000E+00 -0.56411002108E+03  0.56411002108E+03  0.25500000920E-02 0. -1.
    10030    2    1    2    0    0  0.00000000000E+00  0.00000000000E+00  0.87128202196E+03  0.19995020641E+04  0.17996877903E+04 0.  0.
        4    1    3    3  502    0  0.77039703956E+03 -0.36954840751E+03  0.74917870751E+03  0.11363749261E+04  0.12699999809E+01 0.  1.
       -4    1    3    3    0  502 -0.77039703956E+03  0.36954840751E+03  0.12210331446E+03  0.86312713800E+03  0.12699999809E+01 0. -1.
</event>
<event>
 5   0  0.2054876E-05  0.1800685E+04  0.7818609E-02  0.8705935E-01
       -1   -1    0    0    0  501  0.00000000000E+00  0.00000000000E+00  0.89559647565E+03  0.89559647566E+03  0.50400001928E-02 0. -1.
        1   -1    0    0  501    0  0.00000000000E+00  0.00000000000E+00 -0.90511343919E+03  0.90511343920E+03  0.50400001928E-02 0.  1.
    10030    2    1    2    0    0  0.00000000000E+00  0.00000000000E+00 -0.95169635399E+01  0.18007099149E+04  0.18006847656E+04 0.  0.
        5    1    3    3  502    0  0.39796283767E+03  0.30273525863E+03 -0.75348200739E+03  0.90431204926E+03  0.46999998093E+01 0.  1.
       -5    1    3    3    0  502 -0.39796283767E+03 -0.30273525863E+03  0.74396504385E+03  0.89639786560E+03  0.46999998093E+01 0. -1.
</event>
<event>
 5   0  0.3983176E-05  0.1800414E+04  0.7818609E-02  0.8706079E-01
        2   -1    0    0  501    0  0.00000000000E+00  0.00000000000E+00  0.11052559058E+04  0.11052559058E+04  0.25500000920E-02 0. -1.
       -2   -1    0    0    0  501  0.00000000000E+00  0.00000000000E+00 -0.73319929002E+03  0.73319929002E+03  0.25500000920E-02 0.  1.
    10030    2    1    2    0    0  0.00000000000E+00  0.00000000000E+00  0.37205661575E+03  0.18384551958E+04  0.18004142250E+04 0.  0.
        3    1    3    3  502    0 -0.35605653602E+03 -0.12638182425E+03  0.10203752031E+04  0.10880782084E+04  0.10100000352E+00 0. -1.
       -3    1    3    3    0  502  0.35605653602E+03  0.12638182425E+03 -0.64831858732E+03  0.75037698739E+03  0.10100000352E+00 0.  1.
</event>
<event>
 5   0  0.3983176E-05  0.1800561E+04  0.7818609E-02  0.8706001E-01
       -2   -1    0    0    0  501  0.00000000000E+00  0.00000000000E+00  0.63454156390E+03  0.63454156390E+03  0.25500000920E-02 0.  1.
        2   -1    0    0  501    0  0.00000000000E+00  0.00000000000E+00 -0.12773072640E+04  0.12773072640E+04  0.25500000920E-02 0. -1.
    10030    2    1    2    0    0  0.00000000000E+00  0.00000000000E+00 -0.64276570015E+03  0.19118488280E+04  0.18005605226E+04 0.  0.
        3    1    3    3  502    0 -0.71281837092E+03  0.35153853465E+03 -0.77038456733E+03  0.11068792902E+04  0.10100000352E+00 0. -1.
       -3    1    3    3    0  502  0.71281837092E+03 -0.35153853465E+03  0.12761886718E+03  0.80496953776E+03  0.10100000352E+00 0.  1.
</event>
<event>
 5   0  0.1446750E-05  0.1803690E+04  0.7818609E-02  0.8704340E-01
        4   -1    0    0  501    0  0.00000000000E+00  0.00000000000E+00  0.77174188144E+03  0.77174292641E+03  0.12699999809E+01 0. -1.
       -4   -1    0    0    0  501  0.00000000000E+00  0.00000000000E+00 -0.10538791301E+04  0.10538798953E+04  0.12699999809E+01 0.  1.
    10030    2    1    2    0    0  0.00000000000E+00  0.00000000000E+00 -0.28213724864E+03  0.18256228217E+04  0.18036899013E+04 0.  0.
        3    1    3    3  502    0 -0.31483385484E+03  0.50997335713E+03 -0.82315569287E+03  0.10182232005E+04  0.10100000352E+00 0.  1.
       -3    1    3    3    0  502  0.31483385484E+03 -0.50997335713E+03  0.54101844423E+03  0.80739962121E+03  0.10100000352E+00 0. -1.
</event>
<event>
 5   0  0.3993393E-05  0.1796304E+04  0.7818609E-02  0.8708268E-01
        2   -1    0    0  501    0  0.00000000000E+00  0.00000000000E+00  0.66579743358E+03  0.66579743358E+03  0.25500000920E-02 0.  1.
       -2   -1    0    0    0  501  0.00000000000E+00  0.00000000000E+00 -0.12115946780E+04  0.12115946780E+04  0.25500000920E-02 0. -1.
    10030    2    1    2    0    0  0.00000000000E+00  0.00000000000E+00 -0.54579724442E+03  0.18773921116E+04  0.17963035681E+04 0.  0.
        5    1    3    3  502    0  0.96273631577E+01  0.41826562836E+03 -0.11035173517E+04  0.11801743335E+04  0.46999998093E+01 0. -1.
       -5    1    3    3    0  502 -0.96273631577E+01 -0.41826562836E+03  0.55772010728E+03  0.69721777807E+03  0.46999998093E+01 0.  1.
</event>
<event>
 5   0  0.2054876E-05  0.1813799E+04  0.7818609E-02  0.8698995E-01
        1   -1    0    0  501    0  0.00000000000E+00  0.00000000000E+00  0.11038499051E+04  0.11038499051E+04  0.50400001928E-02 0. -1.
       -1   -1    0    0    0  501  0.00000000000E+00  0.00000000000E+00 -0.74508943426E+03  0.74508943428E+03  0.50400001928E-02 0.  1.
    10030    2    1    2    0    0  0.00000000000E+00  0.00000000000E+00  0.35876047079E+03  0.18489393393E+04  0.18137992185E+04 0.  0.
        5    1    3    3  502    0  0.42615836328E+03  0.59816033611E+02  0.99312908187E+03  0.10823660988E+04  0.46999998093E+01 0. -1.
       -5    1    3    3    0  502 -0.42615836328E+03 -0.59816033611E+02 -0.63436861108E+03  0.76657324059E+03  0.46999998093E+01 0.  1.
</event>
<event>
 5   0  0.2001811E-05  0.1799598E+04  0.7818609E-02  0.8706514E-01
       -1   -1    0    0    0  501  0.00000000000E+00  0.00000000000E+00  0.60396147431E+03  0.60396147433E+03  0.50400001928E-02 0. -1.
        1   -1    0    0  501    0  0.00000000000E+00  0.00000000000E+00 -0.13405454305E+04  0.13405454305E+04  0.50400001928E-02 0.  1.
    10030    2    1    2    0    0  0.00000000000E+00  0.00000000000E+00 -0.73658395623E+03  0.19445069049E+04  0.17995975046E+04 0.  0.
        2    1    3    3  502    0 -0.52953100981E+03  0.64740534187E+02  0.41465381646E+03  0.67567167665E+03  0.25500000920E-02 0. -1.
       -2    1    3    3    0  502  0.52953100981E+03 -0.64740534187E+02 -0.11512377727E+04  0.12688352282E+04  0.25500000920E-02 0.  1.
</event>
<event>
 5   0  0.3993393E-05  0.1807698E+04  0.7818609E-02  0.8702216E-01
        2   -1    0    0  501    0  0.00000000000E+00  0.00000000000E+00  0.11415852324E+04  0.11415852324E+04  0.25500000920E-02 0. -1.
       -2   -1    0    0    0  501  0.00000000000E+00  0.00000000000E+00 -0.71562162129E+03  0.71562162129E+03  0.25500000920E-02 0.  1.
    10030    2    1    2    0    0  0.00000000000E+00  0.00000000000E+00  0.42596361109E+03  0.18572068537E+04  0.18076980664E+04 0.  0.
        5    1    3    3  502    0 -0.15424462387E+03  0.65824869486E+03  0.82927594668E+03  0.10699548748E+04  0.46999998093E+01 0.  1.
       -5    1    3    3    0  502  0.15424462387E+03 -0.65824869486E+03 -0.40331233559E+03  0.78725197892E+03  0.46999998093E+01 0. -1.
</event>
<event>
 5   0  0.3984648E-05  0.1797548E+04  0.7818609E-02  0.8707605E-01
       -2   -1    0    0    0  501  0.00000000000E+00  0.00000000000E+00  0.74970963251E+03  0.74970963251E+03  0.25500000920E-02 0.  1.
        2   -1    0    0  501    0  0.00000000000E+00  0.00000000000E+00 -0.10774762133E+04  0.10774762133E+04  0.25500000920E-02 0. -1.
    10030    2    1    2    0    0  0.00000000000E+00  0.00000000000E+00 -0.32776658075E+03  0.18271858458E+04  0.17975475469E+04 0.  0.
        1    1    3    3  502    0  0.72752612545E+03 -0.38839406528E+03 -0.52705573203E+03  0.97873998480E+03  0.50400001928E-02 0. -1.
       -1    1    3    3    0  502 -0.72752612545E+03  0.38839406528E+03  0.19928915128E+03  0.84844586097E+03  0.50400001928E-02 0.  1.
</event>
<event>
 5   0  0.2001811E-05  0.1798526E+04  0.7818609E-02  0.8707084E-01
       -1   -1    0    0    0  501  0.00000000000E+00  0.00000000000E+00  0.32737306632E+03  0.32737306636E+03  0.50400001928E-02 0. -1.
        1   -1    0    0  501    0  0.00000000000E+00  0.00000000000E+00 -0.24701914656E+04  0.24701914656E+04  0.50400001928E-02 0.  1.
    10030    2    1    2    0    0  0.00000000000E+00  0.00000000000E+00 -0.21428183992E+04  0.27975645319E+04  0.17985262350E+04 0.  0.
        2    1    3    3  502    0  0.51337317951E+03  0.70828003326E+03 -0.13956859628E+04  0.16471648168E+04  0.25500000920E-02 0.  1.
       -2    1    3    3    0  502 -0.51337317951E+03 -0.70828003326E+03 -0.74713243643E+03  0.11503997151E+04  0.25500000920E-02 0. -1.
</event>
<event>
 5   0  0.3984648E-05  0.1793585E+04  0.7818609E-02  0.8709718E-01
        2   -1    0    0  501    0  0.00000000000E+00  0.00000000000E+00  0.10137769798E+04  0.10137769798E+04  0.25500000920E-02 0.  1.
       -2   -1    0    0    0  501  0.00000000000E+00  0.00000000000E+00 -0.79330758206E+03  0.79330758206E+03  0.25500000920E-02 0. -1.
    10030    2    1    2    0    0  0.00000000000E+00  0.00000000000E+00  0.22046939775E+03  0.18070845619E+04  0.17935851969E+04 0.  0.
        1    1    3    3  502    0  0.67607271020E+03 -0.30899736609E+02  0.70305753866E+03  0.97586833430E+03  0.50400001928E-02 0.  1.
       -1    1    3    3    0  502 -0.67607271020E+03  0.30899736609E+02 -0.48258814091E+03  0.83121622757E+03  0.50400001928E-02 0. -1.
</event>
<event>
 5   0  0.1906857E-05  0.1800455E+04  0.7818609E-02  0.8706058E-01
        1   -1    0    0  501    0  0.00000000000E+00  0.00000000000E+00  0.16355695128E+04  0.16355695128E+04  0.50400001928E-02 0.  1.
       -1   -1    0    0    0  501  0.00000000000E+00  0.00000000000E+00 -0.49549050229E+03  0.49549050231E+03  0.50400001928E-02 0. -1.
    10030    2    1    2    0    0  0.00000000000E+00  0.00000000000E+00  0.11400790105E+04  0.21310600151E+04  0.18004545642E+04 0.  0.
        4    1    3    3  502    0  0.61800586220E+03  0.54047195886E+03  0.13295325729E+03  0.83169667881E+03  0.12699999809E+01 0. -1.
       -4    1    3    3    0  502 -0.61800586220E+03 -0.54047195886E+03  0.10071257532E+04  0.12993633363E+04  0.12699999809E+01 0.  1.
</event>
<event>
 5   0  0.3983176E-05  0.1802791E+04  0.7818609E-02  0.8704817E-01
       -2   -1    0    0    0  501  0.00000000000E+00  0.00000000000E+00  0.50491683623E+03  0.50491683624E+03  0.25500000920E-02 0. -1.
        2   -1    0    0  501    0  0.00000000000E+00  0.00000000000E+00 -0.16092036497E+04  0.16092036497E+04  0.25500000920E-02 0.  1.
    10030    2    1    2    0    0  0.00000000000E+00  0.00000000000E+00 -0.11042868134E+04  0.21141204859E+04  0.18027911866E+04 0.  0.
        3    1    3    3  502    0  0.92613611819E+02 -0.18664063350E+03 -0.15805770567E+04  0.15942508741E+04  0.10100000352E+00 0.  1.
       -3    1    3    3    0  502 -0.92613611819E+02  0.18664063350E+03  0.47629024331E+03  0.51986961177E+03  0.10100000352E+00 0. -1.
</event>
<event>
 5   0  0.1906857E-05  0.1809541E+04  0.7818609E-02  0.8701242E-01
        1   -1    0    0  501    0  0.00000000000E+00  0.00000000000E+00  0.15351523663E+04  0.15351523663E+04  0.50400001928E-02 0. -1.
       -1   -1    0    0    0  501  0.00000000000E+00  0.00000000000E+00 -0.53324311387E+03  0.53324311389E+03  0.50400001928E-02 0.  1.
    10030    2    1    2    0    0  0.00000000000E+00  0.00000000000E+00  0.10019092525E+04  0.20683954802E+04  0.18095407463E+04 0.  0.
        4    1    3    3  502    0  0.32715910816E+03  0.45197101789E+03  0.13150894494E+04  0.14285561788E+04  0.12699999809E+01 0. -1.
       -4    1    3    3    0  502 -0.32715910816E+03 -0.45197101789E+03 -0.31318019692E+03  0.63983930148E+03  0.12699999809E+01 0.  1.
</event>
<event>
 5   0  0.3983176E-05  0.1800268E+04  0.7818609E-02  0.8706157E-01
        2   -1    0    0  501    0  0.00000000000E+00  0.00000000000E+00  0.19345638099E+04  0.19345638099E+04  0.25500000920E-02 0. -1.
       -2   -1    0    0    0  501  0.00000000000E+00  0.00000000000E+00 -0.41882394835E+03  0.41882394836E+03  0.25500000920E-02 0.  1.
    10030    2    1    2    0    0  0.00000000000E+00  0.00000000000E+00  0.15157398615E+04  0.23533877582E+04  0.18002684835E+04 0.  0.
        3    1    3    3  502    0 -0.21231614409E+03  0.50758408131E+03  0.16891570674E+04  0.17765053767E+04  0.10100000352E+00 0. -1.
       -3    1    3    3    0  502  0.21231614409E+03 -0.50758408131E+03 -0.17341720593E+03  0.57688238156E+03  0.10100000352E+00 0.  1.
</event>
<event>
 5   0  0.3909859E-05  0.1802232E+04  0.7818609E-02  0.8705113E-01
       -2   -1    0    0    0  501  0.00000000000E+00  0.00000000000E+00  0.43855532819E+03  0.43855532820E+03  0.25500000920E-02 0.  1.
        2   -1    0    0  501    0  0.00000000000E+00  0.00000000000E+00 -0.18515565682E+04  0.18515565682E+04  0.25500000920E-02 0. -1.
    10030    2    1    2    0    0  0.00000000000E+00  0.00000000000E+00 -0.14130012400E+04  0.22901118964E+04  0.18022319478E+04 0.  0.
        4    1    3    3  502    0 -0.49481589398E+03 -0.58731273261E+03 -0.10747313846E+03  0.77545541665E+03  0.12699999809E+01 0.  1.
       -4    1    3    3    0  502  0.49481589398E+03  0.58731273261E+03 -0.13055281016E+04  0.15146564798E+04  0.12699999809E+01 0. -1.
</event>
<event>
 5   0  0.4015729E-05  0.1799887E+04  0.7818609E-02  0.8706360E-01
       -2   -1    0    0    0  501  0.00000000000E+00  0.00000000000E+00  0.97306313472E+03  0.97306313472E+03  0.25500000920E-02 0.  1.
        2   -1    0    0  501    0  0.00000000000E+00  0.00000000000E+00 -0.83231795883E+03  0.83231795884E+03  0.25500000920E-02 0. -1.
    10030    2    1    2    0    0  0.00000000000E+00  0.00000000000E+00  0.14074517589E+03  0.18053810936E+04  0.17998865766E+04 0.  0.
        2    1    3    3  502    0  0.45297916513E+03  0.89698270596E+02 -0.70442444422E+03  0.84228837189E+03  0.25500000920E-02 0. -1.
       -2    1    3    3    0  502 -0.45297916513E+03 -0.89698270596E+02  0.84516962011E+03  0.96309272168E+03  0.25500000920E-02 0.  1.
</event>
<event>
 5   0  0.4015729E-05  0.1799602E+04  0.7818609E-02  0.8706511E-01
       -2   -1    0    0    0  501  0.00000000000E+00  0.00000000000E+00  0.14488000607E+04  0.14488000607E+04  0.25500000920E-02 0.  1.
        2   -1    0    0  501    0  0.00000000000E+00  0.00000000000E+00 -0.55883636202E+03  0.55883636203E+03  0.25500000920E-02 0. -1.
    10030    2    1    2    0    0  0.00000000000E+00  0.00000000000E+00  0.88996369872E+03  0.20076364228E+04  0.17996023508E+04 0.  0.
        2    1    3    3  502    0 -0.63050374557E+03  0.10612657745E+03 -0.26132982985E+03  0.69071781763E+03  0.25500000920E-02 0. -1.
       -2    1    3    3    0  502  0.63050374557E+03 -0.10612657745E+03  0.11512935286E+04  0.13169186051E+04  0.25500000920E-02 0.  1.
</event>
<event>
 5   0  0.1906857E-05  0.1798515E+04  0.7818609E-02  0.8707089E-01
       -1   -1    0    0    0  501  0.00000000000E+00  0.00000000000E+00  0.10738442905E+04  0.10738442906E+04  0.50400001928E-02 0.  1.
        1   -1    0    0  501    0  0.00000000000E+00  0.00000000000E+00 -0.75305545392E+03  0.75305545393E+03  0.50400001928E-02 0. -1.
    10030    2    1    2    0    0  0.00000000000E+00  0.00000000000E+00  0.32078883663E+03  0.18268997445E+04  0.17985152762E+04 0.  0.
        4    1    3    3  502    0  0.75726070586E+03  0.40451692289E+03  0.43217067050E+03  0.96117158660E+03  0.12699999809E+01 0.  1.
       -4    1    3    3    0  502 -0.75726070586E+03 -0.40451692289E+03 -0.11138183388E+03  0.86572815789E+03  0.12699999809E+01 0. -1.
</event>
<event>
 5   0  0.4015729E-05  0.1790885E+04  0.7818609E-02  0.8711162E-01
        2   -1    0    0  501    0  0.00000000000E+00  0.00000000000E+00  0.16762221164E+04  0.16762221164E+04  0.25500000920E-02 0.  1.
       -2   -1    0    0    0  501  0.00000000000E+00  0.00000000000E+00 -0.47834779117E+03  0.47834779117E+03  0.25500000920E-02 0. -1.
    10030    2    1    2    0    0  0.00000000000E+00  0.00000000000E+00  0.11978743252E+04  0.21545699075E+04  0.17908848616E+04 0.  0.
        2    1    3    3  502    0 -0.49032055959E+02 -0.76513952747E+03  0.11554484055E+04  0.13866880171E+04  0.25500000920E-02 0.  1.
       -2    1    3    3    0  502  0.49032055959E+02  0.76513952747E+03  0.42425919710E+02  0.76788189045E+03  0.25500000920E-02 0. -1.
</event>
<event>
 5   0  0.3993393E-05  0.1793966E+04  0.7818609E-02  0.8709515E-01
        2   -1    0    0  501    0  0.00000000000E+00  0.00000000000E+00  0.16630233229E+04  0.16630233229E+04  0.25500000920E-02 0. -1.
       -2   -1    0    0    0  501  0.00000000000E+00  0.00000000000E+00 -0.48380492736E+03  0.48380492736E+03  0.25500000920E-02 0.  1.
    10030    2    1    2    0    0  0.00000000000E+00  0.00000000000E+00  0.11792183955E+04  0.21468282503E+04  0.17939664188E+04 0.  0.
        5    1    3    3  502    0  0.13317990422E+03  0.17243309736E+03  0.16308611023E+04  0.16453571299E+04  0.46999998093E+01 0. -1.
       -5    1    3    3    0  502 -0.13317990422E+03 -0.17243309736E+03 -0.45164270677E+03  0.50147112034E+03  0.46999998093E+01 0.  1.
</event>
<event>
 5   0  0.3993393E-05  0.1799367E+04  0.7818609E-02  0.8706636E-01
       -2   -1    0    0    0  501  0.00000000000E+00  0.00000000000E+00  0.69542148374E+03  0.69542148374E+03  0.25500000920E-02 0. -1.
        2   -1    0    0  501    0  0.00000000000E+00  0.00000000000E+00 -0.11639417890E+04  0.11639417890E+04  0.25500000920E-02 0.  1.
    10030    2    1    2    0    0  0.00000000000E+00  0.00000000000E+00 -0.46852030523E+03  0.18593632727E+04  0.17993666951E+04 0.  0.
        5    1    3    3  502    0  0.14620901798E+03  0.77331889330E+03  0.21617417755E+03  0.81618169100E+03  0.46999998093E+01 0.  1.
       -5    1    3    3    0  502 -0.14620901798E+03 -0.77331889330E+03 -0.68469448278E+03  0.10431815817E+04  0.46999998093E+01 0. -1.
</event>
<event>
 5   0  0.3983176E-05  0.1802689E+04  0.7818609E-02  0.8704871E-01
       -2   -1    0    0    0  501  0.00000000000E+00  0.00000000000E+00  0.12307969599E+04  0.12307969599E+04  0.25500000920E-02 0. -1.
        2   -1    0    0  501    0  0.00000000000E+00  0.00000000000E+00 -0.66007761424E+03  0.66007761425E+03  0.25500000920E-02 0.  1.
    10030    2    1    2    0    0  0.00000000000E+00  0.00000000000E+00  0.57071934570E+03  0.18908745742E+04  0.18026885709E+04 0.  0.
        3    1    3    3  502    0  0.53387549093E+03  0.72053865362E+03  0.38047367907E+03  0.97414538024E+03  0.10100000352E+00 0. -1.
       -3    1    3    3    0  502 -0.53387549093E+03 -0.72053865362E+03  0.19024566664E+03  0.91672919396E+03  0.10100000352E+00 0.  1.
</event>
<event>
 5   0  0.2054876E-05  0.1800885E+04  0.7818609E-02  0.8705829E-01
        1   -1    0    0  501    0  0.00000000000E+00  0.00000000000E+00  0.79453704128E+03  0.79453704129E+03  0.50400001928E-02 0. -1.
       -1   -1    0    0    0  501  0.00000000000E+00  0.00000000000E+00 -0.10204639982E+04  0.10204639982E+04  0.50400001928E-02 0.  1.
    10030    2    1    2    0    0  0.00000000000E+00  0.00000000000E+00 -0.22592695689E+03  0.18150010395E+04  0.18008847224E+04 0.  0.
        5    1    3    3  502    0 -0.21656041583E+03 -0.32814349331E+03  0.70344657858E+03  0.80587576264E+03  0.46999998093E+01 0. -1.
       -5    1    3    3    0  502  0.21656041583E+03  0.32814349331E+03 -0.92937353547E+03  0.10091252768E+04  0.46999998093E+01 0.  1.
</event>
<event>
 5   0  0.2038338E-05  0.1815414E+04  0.7818609E-02  0.8698145E-01
       -1   -1    0    0    0  501  0.00000000000E+00  0.00000000000E+00  0.63260165868E+03  0.63260165870E+03  0.50400001928E-02 0.  1.
        1   -1    0    0  501    0  0.00000000000E+00  0.00000000000E+00 -0.13024497836E+04  0.13024497836E+04  0.50400001928E-02 0. -1.
    10030    2    1    2    0    0  0.00000000000E+00  0.00000000000E+00 -0.66984812488E+03  0.19350514423E+04  0.18154138850E+04 0.  0.
        1    1    3    3  502    0 -0.30696763353E+03  0.37514188020E+03  0.48309597419E+03  0.68435537451E+03  0.50400001928E-02 0.  1.
       -1    1    3    3    0  502  0.30696763353E+03 -0.37514188020E+03 -0.11529440991E+04  0.12506960678E+04  0.50400001928E-02 0. -1.
</event>
<event>
 5   0  0.3983176E-05  0.1798801E+04  0.7818609E-02  0.8706937E-01
        2   -1    0    0  501    0  0.00000000000E+00  0.00000000000E+00  0.16813361369E+04  0.16813361369E+04  0.25500000920E-02 0.  1.
       -2   -1    0    0    0  501  0.00000000000E+00  0.00000000000E+00 -0.48111832710E+03  0.48111832711E+03  0.25500000920E-02 0. -1.
    10030    2    1    2    0    0  0.00000000000E+00  0.00000000000E+00  0.12002178098E+04  0.21624544640E+04  0.17988014115E+04 0.  0.
        3    1    3    3  502    0 -0.21263774478E+03 -0.21211816522E+03  0.16192666488E+04  0.16468859756E+04  0.10100000352E+00 0.  1.
       -3    1    3    3    0  502  0.21263774478E+03  0.21211816522E+03 -0.41904883903E+03  0.51556848838E+03  0.10100000352E+00 0. -1.
</event>
<event>
 5   0  0.2001811E-05  0.1797421E+04  0.7818609E-02  0.8707672E-01
       -1   -1    0    0    0  501  0.00000000000E+00  0.00000000000E+00  0.72548854246E+03  0.72548854248E+03  0.50400001928E-02 0. -1.
        1   -1    0    0  501    0  0.00000000000E+00  0.00000000000E+00 -0.11132920817E+04  0.11132920817E+04  0.50400001928E-02 0.  1.
    10030    2    1    2    0    0  0.00000000000E+00  0.00000000000E+00 -0.38780353925E+03  0.18387806242E+04  0.17974210967E+04 0.  0.
        2    1    3    3  502    0  0.57884115480E+02  0.27732025140E+03 -0.10664185028E+04  0.11034063240E+04  0.25500000920E-02 0.  1.
       -2    1    3    3    0  502 -0.57884115480E+02 -0.27732025140E+03  0.67861496355E+03  0.73537430022E+03  0.25500000920E-02 0. -1.
</event>
<event>
 5   0  0.3909859E-05  0.1809656E+04  0.7818609E-02  0.8701181E-01
       -2   -1    0    0    0  501  0.00000000000E+00  0.00000000000E+00  0.52257320872E+03  0.52257320873E+03  0.25500000920E-02 0.  1.
        2   -1    0    0  501    0  0.00000000000E+00  0.00000000000E+00 -0.15666971770E+04  0.15666971770E+04  0.25500000920E-02 0. -1.
    10030    2    1    2    0    0  0.00000000000E+00  0.00000000000E+00 -0.10441239682E+04  0.20892703857E+04  0.18096562888E+04 0.  0.
        4    1    3    3  502    0  0.53989737549E+03  0.63596598688E+03 -0.92658707844E+03  0.12467987566E+04  0.12699999809E+01 0. -1.
       -4    1    3    3    0  502 -0.53989737549E+03 -0.63596598688E+03 -0.11753688980E+03  0.84247162913E+03  0.12699999809E+01 0.  1.
</event>
<event>
 5   0  0.1906857E-05  0.1817417E+04  0.7818609E-02  0.8697092E-01
        1   -1    0    0  501    0  0.00000000000E+00  0.00000000000E+00  0.21927496818E+04  0.21927496818E+04  0.50400001928E-02 0.  1.
       -1   -1    0    0    0  501  0.00000000000E+00  0.00000000000E+00 -0.37658235931E+03  0.37658235935E+03  0.50400001928E-02 0. -1.
    10030    2    1    2    0    0  0.00000000000E+00  0.00000000000E+00  0.18161673225E+04  0.25693320412E+04  0.18174166816E+04 0.  0.
        4    1    3    3  502    0  0.42139877107E+03 -0.52929831995E+03  0.50455887152E+02  0.67844015595E+03  0.12699999809E+01 0.  1.
       -4    1    3    3    0  502 -0.42139877107E+03  0.52929831995E+03  0.17657114354E+04  0.18908918852E+04  0.12699999809E+01 0. -1.
</event>
<event>
 5   0  0.3909859E-05  0.1790067E+04  0.7818609E-02  0.8711599E-01
       -2   -1    0    0    0  501  0.00000000000E+00  0.00000000000E+00  0.85281339288E+03  0.85281339289E+03  0.25500000920E-02 0.  1.
        2   -1    0    0  501    0  0.00000000000E+00  0.00000000000E+00 -0.93934403620E+03  0.93934403620E+03  0.25500000920E-02 0. -1.
    10030    2    1    2    0    0  0.00000000000E+00  0.00000000000E+00 -0.86530643315E+02  0.17921574291E+04  0.17900672329E+04 0.  0.
        4    1    3    3  502    0  0.54116575456E+03 -0.66045843658E+03 -0.31194007808E+03  0.90905112374E+03  0.12699999809E+01 0. -1.
       -4    1    3    3    0  502 -0.54116575456E+03  0.66045843658E+03  0.22540943477E+03  0.88310630535E+03  0.12699999809E+01 0.  1.
</event>
<event>
 5   0  0.3984648E-05  0.1799736E+04  0.7818609E-02  0.8706440E-01
        2   -1    0    0  501    0  0.00000000000E+00  0.00000000000E+00  0.12419309198E+04  0.12419309198E+04  0.25500000920E-02 0. -1.
       -2   -1    0    0    0  501  0.00000000000E+00  0.00000000000E+00 -0.65201872908E+03  0.65201872908E+03  0.25500000920E-02 0.  1.
    10030    2    1    2    0    0  0.00000000000E+00  0.00000000000E+00  0.58991219067E+03  0.18939496488E+04  0.17997357805E+04 0.  0.
        1    1    3    3  502    0  0.75661798340E+03 -0.36300120828E+03  0.63680193585E+03  0.10534502150E+04  0.50400001928E-02 0. -1.
       -1    1    3    3    0  502 -0.75661798340E+03  0.36300120828E+03 -0.46889745177E+02  0.84049943381E+03  0.50400001928E-02 0.  1.
</event>
<event>
 5   0  0.4015729E-05  0.1800471E+04  0.7818609E-02  0.8706049E-01
       -2   -1    0    0    0  501  0.00000000000E+00  0.00000000000E+00  0.70233558110E+03  0.70233558110E+03  0.25500000920E-02 0. -1.
        2   -1    0    0  501    0  0.00000000000E+00  0.00000000000E+00 -0.11538990960E+04  0.11538990960E+04  0.25500000920E-02 0.  1.
    10030    2    1    2    0    0  0.00000000000E+00  0.00000000000E+00 -0.45156351490E+03  0.18562346771E+04  0.18004714851E+04 0.  0.
        2    1    3    3  502    0  0.69846324761E+03  0.54717153940E+03 -0.68827435159E+02  0.88993528845E+03  0.25500000920E-02 0.  1.
       -2    1    3    3    0  502 -0.69846324761E+03 -0.54717153940E+03 -0.38273607974E+03  0.96629938866E+03  0.25500000920E-02 0. -1.
</event>
<event>
 5   0  0.1960300E-05  0.1798541E+04  0.7818609E-02  0.8707076E-01
       -1   -1    0    0    0  501  0.00000000000E+00  0.00000000000E+00  0.32605729061E+03  0.32605729065E+03  0.50400001928E-02 0.  1.
        1   -1    0    0  501    0  0.00000000000E+00  0.00000000000E+00 -0.24801993887E+04  0.24801993887E+04  0.50400001928E-02 0. -1.
    10030    2    1    2    0    0  0.00000000000E+00  0.00000000000E+00 -0.21541420981E+04  0.28062566794E+04  0.17985406228E+04 0.  0.
        3    1    3    3  502    0 -0.17665181882E+02  0.89416876306E+03 -0.12237492732E+04  0.15157216530E+04  0.10100000352E+00 0. -1.
       -3    1    3    3    0  502  0.17665181882E+02 -0.89416876306E+03 -0.93039282487E+03  0.12905350264E+04  0.10100000352E+00 0.  1.
</event>
<event>
 5   0  0.2038338E-05  0.1798095E+04  0.7818609E-02  0.8707313E-01
        1   -1    0    0  501    0  0.00000000000E+00  0.00000000000E+00  0.11965514542E+04  0.11965514542E+04  0.50400001928E-02 0. -1.
       -1   -1    0    0    0  501  0.00000000000E+00  0.00000000000E+00 -0.67551311456E+03  0.67551311458E+03  0.50400001928E-02 0.  1.
    10030    2    1    2    0    0  0.00000000000E+00  0.00000000000E+00  0.52103833962E+03  0.18720645688E+04  0.17980947690E+04 0.  0.
        1    1    3    3  502    0  0.26079813619E+03  0.74463284844E+03  0.70928758191E+03  0.10609347863E+04  0.50400001928E-02 0.  1.
       -1    1    3    3    0  502 -0.26079813619E+03 -0.74463284844E+03 -0.18824924230E+03  0.81112978251E+03  0.50400001928E-02 0. -1.
</event>
<event>
 5   0  0.2001811E-05  0.1800232E+04  0.7818609E-02  0.8706176E-01
        1   -1    0    0  501    0  0.00000000000E+00  0.00000000000E+00  0.10295944596E+04  0.10295944597E+04  0.50400001928E-02 0. -1.
       -1   -1    0    0    0  501  0.00000000000E+00  0.00000000000E+00 -0.78692018901E+03  0.78692018902E+03  0.50400001928E-02 0.  1.
    10030    2    1    2    0    0  0.00000000000E+00  0.00000000000E+00  0.24267427064E+03  0.18165146487E+04  0.18002318371E+04 0.  0.
        2    1    3    3  502    0  0.26012848013E+03  0.41711318190E+03  0.88218533911E+03  0.10099015820E+04  0.25500000920E-02 0. -1.
       -2    1    3    3    0  502 -0.26012848013E+03 -0.41711318190E+03 -0.63951106848E+03  0.80661306672E+03  0.25500000920E-02 0.  1.
</event>
<event>
 5   0  0.4015729E-05  0.1802100E+04  0.7818609E-02  0.8705184E-01
        2   -1    0    0  501    0  0.00000000000E+00  0.00000000000E+00  0.11884263212E+04  0.11884263212E+04  0.25500000920E-02 0.  1.
       -2   -1    0    0    0  501  0.00000000000E+00  0.00000000000E+00 -0.68316479803E+03  0.68316479804E+03  0.25500000920E-02 0. -1.
    10030    2    1    2    0    0  0.00000000000E+00  0.00000000000E+00  0.50526152319E+03  0.18715911193E+04  0.18020999170E+04 0.  0.
        2    1    3    3  502    0 -0.60059280863E+03  0.41746807882E+03  0.79913477903E+03  0.10833317653E+04  0.25500000920E-02 0.  1.
       -2    1    3    3    0  502  0.60059280863E+03 -0.41746807882E+03 -0.29387325585E+03  0.78825935397E+03  0.25500000920E-02 0. -1.
</event>
<event>
 5   0  0.3993393E-05  0.1796896E+04  0.7818609E-02  0.8707952E-01
        2   -1    0    0  501    0  0.00000000000E+00  0.00000000000E+00  0.14368626875E+04  0.14368626875E+04  0.25500000920E-02 0.  1.
       -2   -1    0    0    0  501  0.00000000000E+00  0.00000000000E+00 -0.56178556398E+03  0.56178556399E+03  0.25500000920E-02 0. -1.
    10030    2    1    2    0    0  0.00000000000E+00  0.00000000000E+00  0.87507712349E+03  0.19986482515E+04  0.17968958960E+04 0.  0.
        5    1    3    3  502    0 -0.53820233194E+03  0.61536840410E+02 -0.35969272802E+03  0.65026877630E+03  0.46999998093E+01 0. -1.
       -5    1    3    3    0  502  0.53820233194E+03 -0.61536840410E+02  0.12347698515E+04  0.13483794752E+04  0.46999998093E+01 0.  1.
</event>
<event>
 5   0  0.2038338E-05  0.1800232E+04  0.7818609E-02  0.8706176E-01
       -1   -1    0    0    0  501  0.00000000000E+00  0.00000000000E+00  0.80941137880E+03  0.80941137882E+03  0.50400001928E-02 0. -1.
        1   -1    0    0  501    0  0.00000000000E+00  0.00000000000E+00 -0.10009849532E+04  0.10009849532E+04  0.50400001928E-02 0.  1.
    10030    2    1    2    0    0  0.00000000000E+00  0.00000000000E+00 -0.19157357438E+03  0.18103963320E+04  0.18002317752E+04 0.  0.
        1    1    3    3  502    0 -0.35562991985E+03  0.24468701198E+03  0.69852367595E+03  0.82114535840E+03  0.50400001928E-02 0. -1.
       -1    1    3    3    0  502  0.35562991985E+03 -0.24468701198E+03 -0.89009725033E+03  0.98925097362E+03  0.50400001928E-02 0.  1.
</event>
<event>
 5   0  0.3984648E-05  0.1799167E+04  0.7818609E-02  0.8706742E-01
       -2   -1    0    0    0  501  0.00000000000E+00  0.00000000000E+00  0.92698073785E+03  0.92698073785E+03  0.25500000920E-02 0.  1.
        2   -1    0    0  501    0  0.00000000000E+00  0.00000000000E+00 -0.87299622562E+03  0.87299622562E+03  0.25500000920E-02 0. -1.
    10030    2    1    2    0    0  0.00000000000E+00  0.00000000000E+00  0.53984512233E+02  0.17999769635E+04  0.17991672355E+04 0.  0.
        1    1    3    3  502    0 -0.55956092100E+03 -0.33270209994E+03  0.64811913704E+03  0.91861718220E+03  0.50400001928E-02 0.  1.
       -1    1    3    3    0  502  0.55956092100E+03  0.33270209994E+03 -0.59413462481E+03  0.88135978127E+03  0.50400001928E-02 0. -1.
</event>
<event>
 5   0  0.2038338E-05  0.1801893E+04  0.7818609E-02  0.8705294E-01
        1   -1    0    0  501    0  0.00000000000E+00  0.00000000000E+00  0.20624122867E+04  0.20624122867E+04  0.50400001928E-02 0.  1.
       -1   -1    0    0    0  501  0.00000000000E+00  0.00000000000E+00 -0.39357030220E+03  0.39357030223E+03  0.50400001928E-02 0. -1.
    10030    2    1    2    0    0  0.00000000000E+00  0.00000000000E+00  0.16688419845E+04  0.24559825889E+04  0.18018925905E+04 0.  0.
        1    1    3    3  502    0  0.13842517955E+03  0.86894903570E+03  0.57058150440E+03  0.10487121674E+04  0.50400001928E-02 0. -1.
       -1    1    3    3    0  502 -0.13842517955E+03 -0.86894903570E+03  0.10982604801E+04  0.14072704214E+04  0.50400001928E-02 0.  1.
</event>
<event>
 5   0  0.3993393E-05  0.1803904E+04  0.7818609E-02  0.8704226E-01
        2   -1    0    0  501    0  0.00000000000E+00  0.00000000000E+00  0.12929141244E+04  0.12929141244E+04  0.25500000920E-02 0.  1.
       -2   -1    0    0    0  501  0.00000000000E+00  0.00000000000E+00 -0.62921218529E+03  0.62921218529E+03  0.25500000920E-02 0. -1.
    10030    2    1    2    0    0  0.00000000000E+00  0.00000000000E+00  0.66370193915E+03  0.19221263097E+04  0.18039039017E+04 0.  0.
        5    1    3    3  502    0 -0.64603554926E+03 -0.61257433514E+03  0.17785973430E+03  0.90789064433E+03  0.46999998093E+01 0.  1.
       -5    1    3    3    0  502  0.64603554926E+03  0.61257433514E+03  0.48584220486E+03  0.10142356654E+04  0.46999998093E+01 0. -1.
</event>
<event>
 5   0  0.3984648E-05  0.1804286E+04  0.7818609E-02  0.8704023E-01
       -2   -1    0    0    0  501  0.00000000000E+00  0.00000000000E+00  0.35407897384E+03  0.35407897385E+03  0.25500000920E-02 0. -1.
        2   -1    0    0  501    0  0.00000000000E+00  0.00000000000E+00 -0.22985330563E+04  0.22985330563E+04  0.25500000920E-02 0.  1.
    10030    2    1    2    0    0  0.00000000000E+00  0.00000000000E+00 -0.19444540824E+04  0.26526120301E+04  0.18042862588E+04 0.  0.
        1    1    3    3  502    0  0.28391193369E+02  0.37632787685E+03  0.23244767277E+03  0.44323881978E+03  0.50400001928E-02 0. -1.
       -1    1    3    3    0  502 -0.28391193369E+02 -0.37632787685E+03 -0.21769017552E+04  0.22093732103E+04  0.50400001928E-02 0.  1.
</event>
<event>
 5   0  0.3993393E-05  0.1808673E+04  0.7818609E-02  0.8701701E-01
        2   -1    0    0  501    0  0.00000000000E+00  0.00000000000E+00  0.20145574474E+04  0.20145574474E+04  0.25500000920E-02 0.  1.
       -2   -1    0    0    0  501  0.00000000000E+00  0.00000000000E+00 -0.40595757877E+03  0.40595757878E+03  0.25500000920E-02 0. -1.
    10030    2    1    2    0    0  0.00000000000E+00  0.00000000000E+00  0.16085998686E+04  0.24205150262E+04  0.18086733963E+04 0.  0.
        5    1    3    3  502    0 -0.41173794995E+03  0.28547941099E+03  0.18118193220E+04  0.18798239223E+04  0.46999998093E+01 0.  1.
       -5    1    3    3    0  502  0.41173794995E+03 -0.28547941099E+03 -0.20321945336E+03  0.54069110382E+03  0.46999998093E+01 0. -1.
</event>
<event>
 5   0  0.3993393E-05  0.1799803E+04  0.7818609E-02  0.8706404E-01
       -2   -1    0    0    0  501  0.00000000000E+00  0.00000000000E+00  0.61245954093E+03  0.61245954094E+03  0.25500000920E-02 0. -1.
        2   -1    0    0  501    0  0.00000000000E+00  0.00000000000E+00 -0.13222473547E+04  0.13222473547E+04  0.25500000920E-02 0.  1.
    10030    2    1    2    0    0  0.00000000000E+00  0.00000000000E+00 -0.70978781374E+03  0.19347068956E+04  0.17998033313E+04 0.  0.
        5    1    3    3  502    0 -0.70292608483E+03  0.50380833377E+03 -0.87506644373E+02  0.86925682092E+03  0.46999998093E+01 0. -1.
       -5    1    3    3    0  502  0.70292608483E+03 -0.50380833377E+03 -0.62228116937E+03  0.10654500747E+04  0.46999998093E+01 0.  1.
</event>
<event>
 5   0  0.1446750E-05  0.1793693E+04  0.7818609E-02  0.8709661E-01
        4   -1    0    0  501    0  0.00000000000E+00  0.00000000000E+00  0.42903765911E+03  0.42903953877E+03  0.12699999809E+01 0. -1.
       -4   -1    0    0    0  501  0.00000000000E+00  0.00000000000E+00 -0.18747326601E+04  0.18747330902E+04  0.12699999809E+01 0.  1.
    10030    2    1    2    0    0  0.00000000000E+00  0.00000000000E+00 -0.14456950010E+04  0.23037726290E+04  0.17936929198E+04 0.  0.
        3    1    3    3  502    0  0.43653160722E+03  0.25887563865E+02  0.28282931116E+03  0.52079020682E+03  0.10100000352E+00 0. -1.
       -3    1    3    3    0  502 -0.43653160722E+03 -0.25887563865E+02 -0.17285243121E+04  0.17829824222E+04  0.10100000352E+00 0.  1.
</event>
<event>
 5   0  0.3984648E-05  0.1793630E+04  0.7818609E-02  0.8709694E-01
        2   -1    0    0  501    0  0.00000000000E+00  0.00000000000E+00  0.16873048529E+04  0.16873048529E+04  0.25500000920E-02 0.  1.
       -2   -1    0    0    0  501  0.00000000000E+00  0.00000000000E+00 -0.47666403222E+03  0.47666403223E+03  0.25500000920E-02 0. -1.
    10030    2    1    2    0    0  0.00000000000E+00  0.00000000000E+00  0.12106408207E+04  0.21639688851E+04  0.17936304355E+04 0.  0.
        1    1    3    3  502    0  0.44766304029E+02  0.46211135418E+02  0.16845168583E+04  0.16857450985E+04  0.50400001928E-02 0.  1.
       -1    1    3    3    0  502 -0.44766304029E+02 -0.46211135418E+02 -0.47387603767E+03  0.47822378665E+03  0.50400001928E-02 0. -1.
</event>
<event>
 5   0  0.2001811E-05  0.1798102E+04  0.7818609E-02  0.8707310E-01
        1   -1    0    0  501    0  0.00000000000E+00  0.00000000000E+00  0.99249150146E+03  0.99249150147E+03  0.50400001928E-02 0. -1.
       -1   -1    0    0    0  501  0.00000000000E+00  0.00000000000E+00 -0.81440758087E+03  0.81440758088E+03  0.50400001928E-02 0.  1.
    10030    2    1    2    0    0  0.00000000000E+00  0.00000000000E+00  0.17808392059E+03  0.18068990824E+04  0.17981018912E+04 0.  0.
        2    1    3    3  502    0  0.16273771219E+03 -0.63167162145E+03  0.71077731704E+03  0.96472638336E+03  0.25500000920E-02 0. -1.
       -2    1    3    3    0  502 -0.16273771219E+03  0.63167162145E+03 -0.53269339645E+03  0.84217269900E+03  0.25500000920E-02 0.  1.
</event>
<event>
 5   0  0.3909859E-05  0.1797904E+04  0.7818609E-02  0.8707415E-01
        2   -1    0    0  501    0  0.00000000000E+00  0.00000000000E+00  0.98423827626E+03  0.98423827626E+03  0.25500000920E-02 0.  1.
       -2   -1    0    0    0  501  0.00000000000E+00  0.00000000000E+00 -0.82105569787E+03  0.82105569787E+03  0.25500000920E-02 0. -1.
    10030    2    1    2    0    0  0.00000000000E+00  0.00000000000E+00  0.16318257839E+03  0.18052939741E+04  0.17979037180E+04 0.  0.
        4    1    3    3  502    0 -0.45333164059E+02 -0.21592785728E+03  0.95662786156E+03  0.98174253943E+03  0.12699999809E+01 0.  1.
       -4    1    3    3    0  502  0.45333164059E+02  0.21592785728E+03 -0.79344528317E+03  0.82355143470E+03  0.12699999809E+01 0. -1.
</event>
<event>
 5   0  0.1960300E-05  0.1796308E+04  0.7818609E-02  0.8708265E-01
        1   -1    0    0  501    0  0.00000000000E+00  0.00000000000E+00  0.10278889891E+04  0.10278889891E+04  0.50400001928E-02 0.  1.
       -1   -1    0    0    0  501  0.00000000000E+00  0.00000000000E+00 -0.78479320427E+03  0.78479320429E+03  0.50400001928E-02 0. -1.
    10030    2    1    2    0    0  0.00000000000E+00  0.00000000000E+00  0.24309578485E+03  0.18126821934E+04  0.17963076501E+04 0.  0.
        3    1    3    3  502    0  0.75444836396E+03 -0.10102027407E+02 -0.37011610456E+03  0.84040485832E+03  0.10100000352E+00 0. -1.
       -3    1    3    3    0  502 -0.75444836396E+03  0.10102027407E+02  0.61321188941E+03  0.97227733510E+03  0.10100000352E+00 0.  1.
</event>
<event>
 5   0  0.3983176E-05  0.1797434E+04  0.7818609E-02  0.8707665E-01
       -2   -1    0    0    0  501  0.00000000000E+00  0.00000000000E+00  0.86340831883E+03  0.86340831883E+03  0.25500000920E-02 0.  1.
        2   -1    0    0  501    0  0.00000000000E+00  0.00000000000E+00 -0.93546948598E+03  0.93546948598E+03  0.25500000920E-02 0. -1.
    10030    2    1    2    0    0  0.00000000000E+00  0.00000000000E+00 -0.72061167154E+02  0.17988778048E+04  0.17974338777E+04 0.  0.
        3    1    3    3  502    0  0.16068003084E+03  0.62587989766E+03  0.58908979894E+03  0.87439723240E+03  0.10100000352E+00 0.  1.
       -3    1    3    3    0  502 -0.16068003084E+03 -0.62587989766E+03 -0.66115096610E+03  0.92448057242E+03  0.10100000352E+00 0. -1.
</event>
<event>
 5   0  0.1906857E-05  0.1800173E+04  0.7818609E-02  0.8706207E-01
        1   -1    0    0  501    0  0.00000000000E+00  0.00000000000E+00  0.10033332817E+04  0.10033332818E+04  0.50400001928E-02 0.  1.
       -1   -1    0    0    0  501  0.00000000000E+00  0.00000000000E+00 -0.80746443039E+03  0.80746443040E+03  0.50400001928E-02 0. -1.
    10030    2    1    2    0    0  0.00000000000E+00  0.00000000000E+00  0.19586885135E+03  0.18107977122E+04  0.18001732548E+04 0.  0.
        4    1    3    3  502    0 -0.73126709155E+03 -0.53036154815E+02 -0.42724842586E+03  0.84859131695E+03  0.12699999809E+01 0. -1.
       -4    1    3    3    0  502  0.73126709155E+03  0.53036154815E+02  0.62311727721E+03  0.96220639520E+03  0.12699999809E+01 0.  1.
</event>
<event>
 5   0  0.3984648E-05  0.1800293E+04  0.7818609E-02  0.8706143E-01
       -2   -1    0    0    0  501  0.00000000000E+00  0.00000000000E+00  0.48110973804E+03  0.48110973805E+03  0.25500000920E-02 0. -1.
        2   -1    0    0  501    0  0.00000000000E+00  0.00000000000E+00 -0.16841564094E+04  0.16841564095E+04  0.25500000920E-02 0.  1.
    10030    2    1    2    0    0  0.00000000000E+00  0.00000000000E+00 -0.12030466714E+04  0.21652661475E+04  0.18002933639E+04 0.  0.
        1    1    3    3  502    0 -0.20995243672E+03  0.26384479680E+03  0.40228401557E+03  0.52490621228E+03  0.50400001928E-02 0. -1.
       -1    1    3    3    0  502  0.20995243672E+03 -0.26384479680E+03 -0.16053306870E+04  0.16403599352E+04  0.50400001928E-02 0.  1.
</event>
<event>
 5   0  0.2054876E-05  0.1798785E+04  0.7818609E-02  0.8706946E-01
        1   -1    0    0  501    0  0.00000000000E+00  0.00000000000E+00  0.76622351547E+03  0.76622351549E+03  0.50400001928E-02 0.  1.
       -1   -1    0    0    0  501  0.00000000000E+00  0.00000000000E+00 -0.10557063984E+04  0.10557063985E+04  0.50400001928E-02 0. -1.
    10030    2    1    2    0    0  0.00000000000E+00  0.00000000000E+00 -0.28948288296E+03  0.18219299139E+04  0.17987852211E+04 0.  0.
        5    1    3    3  502    0 -0.58786552010E+03  0.46873058151E+03 -0.64464099886E+03  0.99039302056E+03  0.46999998093E+01 0. -1.
       -5    1    3    3    0  502  0.58786552010E+03 -0.46873058151E+03  0.35515811590E+03  0.83153689338E+03  0.46999998093E+01 0.  1.
</event>
<event>
 5   0  0.1906857E-05  0.1798439E+04  0.7818609E-02  0.8707130E-01
       -1   -1    0    0    0  501  0.00000000000E+00  0.00000000000E+00  0.90507678797E+03  0.90507678799E+03  0.50400001928E-02 0.  1.
        1   -1    0    0  501    0  0.00000000000E+00  0.00000000000E+00 -0.89340032336E+03  0.89340032337E+03  0.50400001928E-02 0. -1.
    10030    2    1    2    0    0  0.00000000000E+00  0.00000000000E+00  0.11676464614E+02  0.17984771114E+04  0.17984392067E+04 0.  0.
        4    1    3    3  502    0 -0.74218454230E+03 -0.55774363218E+02 -0.49879662765E+03  0.89596225539E+03  0.12699999809E+01 0.  1.
       -4    1    3    3    0  502  0.74218454230E+03  0.55774363218E+02  0.51047309226E+03  0.90251485597E+03  0.12699999809E+01 0. -1.
</event>
<event>
 5   0  0.3983176E-05  0.1800357E+04  0.7818609E-02  0.8706110E-01
        2   -1    0    0  501    0  0.00000000000E+00  0.00000000000E+00  0.13681554448E+04  0.13681554448E+04  0.25500000920E-02 0. -1.
       -2   -1    0    0    0  501  0.00000000000E+00  0.00000000000E+00 -0.59227256880E+03  0.59227256880E+03  0.25500000920E-02 0.  1.
    10030    2    1    2    0    0  0.00000000000E+00  0.00000000000E+00  0.77588287597E+03  0.19604280136E+04  0.18003565645E+04 0.  0.
        3    1    3    3  502    0  0.42422120816E+03 -0.29700090851E+03  0.11897140291E+04  0.12975332960E+04  0.10100000352E+00 0. -1.
       -3    1    3    3    0  502 -0.42422120816E+03  0.29700090851E+03 -0.41383115308E+03  0.66289471757E+03  0.10100000352E+00 0.  1.
</event>
<event>
 5   0  0.2054876E-05  0.1795122E+04  0.7818609E-02  0.8708898E-01
       -1   -1    0    0    0  501  0.00000000000E+00  0.00000000000E+00  0.35707586124E+03  0.35707586128E+03  0.50400001928E-02 0.  1.
        1   -1    0    0  501    0  0.00000000000E+00  0.00000000000E+00 -0.22561480793E+04  0.22561480793E+04  0.50400001928E-02 0. -1.
    10030    2    1    2    0    0  0.00000000000E+00  0.00000000000E+00 -0.18990722181E+04  0.26132239406E+04  0.17951223006E+04 0.  0.
        5    1    3    3  502    0  0.37243826397E+01  0.49432517355E+03 -0.20400976872E+04  0.20991407555E+04  0.46999998093E+01 0. -1.
       -5    1    3    3    0  502 -0.37243826397E+01 -0.49432517355E+03  0.14102546913E+03  0.51408318507E+03  0.46999998093E+01 0.  1.
</event>
<event>
 5   0  0.1960300E-05  0.1795617E+04  0.7818609E-02  0.8708634E-01
        1   -1    0    0  501    0  0.00000000000E+00  0.00000000000E+00  0.16926571690E+04  0.16926571690E+04  0.50400001928E-02 0. -1.
       -1   -1    0    0    0  501  0.00000000000E+00  0.00000000000E+00 -0.47620975347E+03  0.47620975349E+03  0.50400001928E-02 0.  1.
    10030    2    1    2    0    0  0.00000000000E+00  0.00000000000E+00  0.12164474155E+04  0.21688669225E+04  0.17956167221E+04 0.  0.
        3    1    3    3  502    0  0.13522057887E+03 -0.75563290600E+03  0.45826646028E+02  0.76900311135E+03  0.10100000352E+00 0.  1.
       -3    1    3    3    0  502 -0.13522057887E+03  0.75563290600E+03  0.11706207695E+04  0.13998638112E+04  0.10100000352E+00 0. -1.
</event>
<event>
 5   0  0.2001811E-05  0.1780390E+04  0.7818609E-02  0.8716798E-01
        1   -1    0    0  501    0  0.00000000000E+00  0.00000000000E+00  0.12544313309E+04  0.12544313309E+04  0.50400001928E-02 0. -1.
       -1   -1    0    0    0  501  0.00000000000E+00  0.00000000000E+00 -0.63171796640E+03  0.63171796642E+03  0.50400001928E-02 0.  1.
    10030    2    1    2    0    0  0.00000000000E+00  0.00000000000E+00  0.62271336453E+03  0.18861492974E+04  0.17803896308E+04 0.  0.
        2    1    3    3  502    0 -0.29241804946E+03  0.64797124732E+03  0.87897479207E+03  0.11304741209E+04  0.25500000920E-02 0. -1.
       -2    1    3    3    0  502  0.29241804946E+03 -0.64797124732E+03 -0.25626142754E+03  0.75567517642E+03  0.25500000920E-02 0.  1.
</event>
<event>
 5   0  0.4015729E-05  0.1801224E+04  0.7818609E-02  0.8705649E-01
        2   -1    0    0  501    0  0.00000000000E+00  0.00000000000E+00  0.13012962640E+04  0.13012962641E+04  0.25500000920E-02 0.  1.
       -2   -1    0    0    0  501  0.00000000000E+00  0.00000000000E+00 -0.62330302481E+03  0.62330302481E+03  0.25500000920E-02 0. -1.
    10030    2    1    2    0    0  0.00000000000E+00  0.00000000000E+00  0.67799323924E+03  0.19245992889E+04  0.18012239145E+04 0.  0.
        2    1    3    3  502    0  0.50627734459E+03 -0.44664951251E+02  0.11334213958E+04  0.12421577065E+04  0.25500000920E-02 0.  1.
       -2    1    3    3    0  502 -0.50627734459E+03  0.44664951251E+02 -0.45542815653E+03  0.68244158232E+03  0.25500000920E-02 0. -1.
</event>
<event>
 5   0  0.2001811E-05  0.1800862E+04  0.7818609E-02  0.8705841E-01
       -1   -1    0    0    0  501  0.00000000000E+00  0.00000000000E+00  0.38357794863E+03  0.38357794866E+03  0.50400001928E-02 0. -1.
        1   -1    0    0  501    0  0.00000000000E+00  0.00000000000E+00 -0.21137200027E+04  0.21137200027E+04  0.50400001928E-02 0.  1.
    10030    2    1    2    0    0  0.00000000000E+00  0.00000000000E+00 -0.17301420540E+04  0.24972979513E+04  0.18008624408E+04 0.  0.
        2    1    3    3  502    0  0.48794275561E+03  0.27028407078E+03  0.11513224462E+03  0.56955864090E+03  0.25500000920E-02 0. -1.
       -2    1    3    3    0  502 -0.48794275561E+03 -0.27028407078E+03 -0.18452742987E+04  0.19277393104E+04  0.25500000920E-02 0.  1.
</event>
<event>
 5   0  0.2001811E-05  0.1798498E+04  0.7818609E-02  0.8707099E-01
       -1   -1    0    0    0  501  0.00000000000E+00  0.00000000000E+00  0.65701501264E+03  0.65701501266E+03  0.50400001928E-02 0. -1.
        1   -1    0    0  501    0  0.00000000000E+00  0.00000000000E+00 -0.12307918647E+04  0.12307918647E+04  0.50400001928E-02 0.  1.
    10030    2    1    2    0    0  0.00000000000E+00  0.00000000000E+00 -0.57377685208E+03  0.18878068774E+04  0.17984979651E+04 0.  0.
        2    1    3    3  502    0  0.22315183334E+03  0.25819130139E+03 -0.11601815412E+04  0.12093306816E+04  0.25500000920E-02 0.  1.
       -2    1    3    3    0  502 -0.22315183334E+03 -0.25819130139E+03  0.58640468913E+03  0.67847619581E+03  0.25500000920E-02 0. -1.
</event>
<event>
 5   0  0.1960300E-05  0.1803037E+04  0.7818609E-02  0.8704686E-01
        1   -1    0    0  501    0  0.00000000000E+00  0.00000000000E+00  0.10790790331E+04  0.10790790331E+04  0.50400001928E-02 0.  1.
       -1   -1    0    0    0  501  0.00000000000E+00  0.00000000000E+00 -0.75317527915E+03  0.75317527916E+03  0.50400001928E-02 0. -1.
    10030    2    1    2    0    0  0.00000000000E+00  0.00000000000E+00  0.32590375394E+03  0.18322543123E+04  0.18030370512E+04 0.  0.
        3    1    3    3  502    0  0.31532101181E+03  0.77554610619E+03  0.50279067535E+03  0.97657440921E+03  0.10100000352E+00 0.  1.
       -3    1    3    3    0  502 -0.31532101181E+03 -0.77554610619E+03 -0.17688692141E+03  0.85567990305E+03  0.10100000352E+00 0. -1.
</event>
<event>
 5   0  0.3984648E-05  0.1802045E+04  0.7818609E-02  0.8705213E-01
        2   -1    0    0  501    0  0.00000000000E+00  0.00000000000E+00  0.20797920577E+04  0.20797920577E+04  0.25500000920E-02 0. -1.
       -2   -1    0    0    0  501  0.00000000000E+00  0.00000000000E+00 -0.39034739378E+03  0.39034739378E+03  0.25500000920E-02 0.  1.
    10030    2    1    2    0    0  0.00000000000E+00  0.00000000000E+00  0.16894446639E+04  0.24701394514E+04  0.18020448489E+04 0.  0.
        1    1    3    3  502    0  0.18988384240E+03  0.70936156677E+03  0.15603913115E+04  0.17245494342E+04  0.50400001928E-02 0. -1.
       -1    1    3    3    0  502 -0.18988384240E+03 -0.70936156677E+03  0.12905335238E+03  0.74559001723E+03  0.50400001928E-02 0.  1.
</event>
<event>
 5   0  0.3909859E-05  0.1797687E+04  0.7818609E-02  0.8707531E-01
        2   -1    0    0  501    0  0.00000000000E+00  0.00000000000E+00  0.13293351723E+04  0.13293351723E+04  0.25500000920E-02 0. -1.
       -2   -1    0    0    0  501  0.00000000000E+00  0.00000000000E+00 -0.60776188294E+03  0.60776188294E+03  0.25500000920E-02 0.  1.
    10030    2    1    2    0    0  0.00000000000E+00  0.00000000000E+00  0.72157328941E+03  0.19370970553E+04  0.17976865660E+04 0.  0.
        4    1    3    3  502    0 -0.69710648904E+03 -0.56712772140E+03  0.38025201282E+03  0.97579942386E+03  0.12699999809E+01 0. -1.
       -4    1    3    3    0  502  0.69710648904E+03  0.56712772140E+03  0.34132127658E+03  0.96129763143E+03  0.12699999809E+01 0.  1.
</event>
<event>
 5   0  0.2038338E-05  0.1795081E+04  0.7818609E-02  0.8708920E-01
       -1   -1    0    0    0  501  0.00000000000E+00  0.00000000000E+00  0.65956558426E+03  0.65956558428E+03  0.50400001928E-02 0. -1.
        1   -1    0    0  501    0  0.00000000000E+00  0.00000000000E+00 -0.12213779981E+04  0.12213779981E+04  0.50400001928E-02 0.  1.
    10030    2    1    2    0    0  0.00000000000E+00  0.00000000000E+00 -0.56181241383E+03  0.18809435824E+04  0.17950809374E+04 0.  0.
        1    1    3    3  502    0 -0.51089567726E+02  0.32107965349E+03  0.59569582426E+03  0.67864261794E+03  0.50400001928E-02 0. -1.
       -1    1    3    3    0  502  0.51089567726E+02 -0.32107965349E+03 -0.11575082381E+04  0.12023009644E+04  0.50400001928E-02 0.  1.
</event>
<event>
 5   0  0.3984648E-05  0.1801127E+04  0.7818609E-02  0.8705700E-01
        2   -1    0    0  501    0  0.00000000000E+00  0.00000000000E+00  0.12711312291E+04  0.12711312291E+04  0.25500000920E-02 0.  1.
       -2   -1    0    0    0  501  0.00000000000E+00  0.00000000000E+00 -0.63802595800E+03  0.63802595800E+03  0.25500000920E-02 0. -1.
    10030    2    1    2    0    0  0.00000000000E+00  0.00000000000E+00  0.63310527113E+03  0.19091571871E+04  0.18011271140E+04 0.  0.
        1    1    3    3  502    0  0.19020014227E+03  0.18076659435E+03 -0.59660698393E+03  0.65176111349E+03  0.50400001928E-02 0. -1.
       -1    1    3    3    0  502 -0.19020014227E+03 -0.18076659435E+03  0.12297122551E+04  0.12573960737E+04  0.50400001928E-02 0.  1.
</event>
<event>
 5   0  0.3909859E-05  0.1798621E+04  0.7818609E-02  0.8707033E-01
       -2   -1    0    0    0  501  0.00000000000E+00  0.00000000000E+00  0.36366797766E+03  0.36366797767E+03  0.25500000920E-02 0.  1.
        2   -1    0    0  501    0  0.00000000000E+00  0.00000000000E+00 -0.22238946559E+04  0.22238946559E+04  0.25500000920E-02 0. -1.
    10030    2    1    2    0    0  0.00000000000E+00  0.00000000000E+00 -0.18602266783E+04  0.25875626336E+04  0.17986208851E+04 0.  0.
        4    1    3    3  502    0  0.45414181935E+03  0.45221605771E+03 -0.22501520019E+02  0.64128939351E+03  0.12699999809E+01 0.  1.
       -4    1    3    3    0  502 -0.45414181935E+03 -0.45221605771E+03 -0.18377251583E+04  0.19462732401E+04  0.12699999809E+01 0. -1.
</event>
<event>
 5   0  0.3993393E-05  0.1797963E+04  0.7818609E-02  0.8707383E-01
       -2   -1    0    0    0  501  0.00000000000E+00  0.00000000000E+00  0.11853234881E+04  0.11853234881E+04  0.25500000920E-02 0.  1.
        2   -1    0    0  501    0  0.00000000000E+00  0.00000000000E+00 -0.68181206462E+03  0.68181206462E+03  0.25500000920E-02 0. -1.
    10030    2    1    2    0    0  0.00000000000E+00  0.00000000000E+00  0.50351142352E+03  0.18671355528E+04  0.17979631305E+04 0.  0.
        5    1    3    3  502    0  0.38636247611E+03  0.78646443996E+03  0.43171333075E+02  0.87731871761E+03  0.46999998093E+01 0. -1.
       -5    1    3    3    0  502 -0.38636247611E+03 -0.78646443996E+03  0.46034009044E+03  0.98981683515E+03  0.46999998093E+01 0.  1.
</event>
<event>
 5   0  0.3984648E-05  0.1798870E+04  0.7818609E-02  0.8706900E-01
        2   -1    0    0  501    0  0.00000000000E+00  0.00000000000E+00  0.58055056363E+03  0.58055056364E+03  0.25500000920E-02 0.  1.
       -2   -1    0    0    0  501  0.00000000000E+00  0.00000000000E+00 -0.13934765316E+04  0.13934765316E+04  0.25500000920E-02 0. -1.
    10030    2    1    2    0    0  0.00000000000E+00  0.00000000000E+00 -0.81292596797E+03  0.19740270952E+04  0.17988702964E+04 0.  0.
        1    1    3    3  502    0 -0.17830758482E+03 -0.24699700599E+03 -0.13351408657E+04  0.13694532658E+04  0.50400001928E-02 0. -1.
       -1    1    3    3    0  502  0.17830758482E+03  0.24699700599E+03  0.52221489778E+03  0.60457382945E+03  0.50400001928E-02 0.  1.
</event>
<event>
 5   0  0.3993393E-05  0.1801586E+04  0.7818609E-02  0.8705457E-01
       -2   -1    0    0    0  501  0.00000000000E+00  0.00000000000E+00  0.51858211994E+03  0.51858211995E+03  0.25500000920E-02 0. -1.
        2   -1    0    0  501    0  0.00000000000E+00  0.00000000000E+00 -0.15647041319E+04  0.15647041319E+04  0.25500000920E-02 0.  1.
    10030    2    1    2    0    0  0.00000000000E+00  0.00000000000E+00 -0.10461220120E+04  0.20832862519E+04  0.18015855082E+04 0.  0.
        5    1    3    3  502    0 -0.31859350832E+03 -0.74642187593E+03 -0.97501697727E+03  0.12685927780E+04  0.46999998093E+01 0.  1.
       -5    1    3    3    0  502  0.31859350832E+03  0.74642187593E+03 -0.71105034712E+02  0.81469347387E+03  0.46999998093E+01 0. -1.
</event>
<event>
 5   0  0.3984648E-05  0.1799931E+04  0.7818609E-02  0.8706336E-01
       -2   -1    0    0    0  501  0.00000000000E+00  0.00000000000E+00  0.69787138021E+03  0.69787138021E+03  0.25500000920E-02 0.  1.
        2   -1    0    0  501    0  0.00000000000E+00  0.00000000000E+00 -0.11605830518E+04  0.11605830518E+04  0.25500000920E-02 0. -1.
    10030    2    1    2    0    0  0.00000000000E+00  0.00000000000E+00 -0.46271167161E+03  0.18584544320E+04  0.17999307723E+04 0.  0.
        1    1    3    3  502    0 -0.66649411594E+03 -0.54692089974E+03 -0.49781821429E+03  0.99557011388E+03  0.50400001928E-02 0. -1.
       -1    1    3    3    0  502  0.66649411594E+03  0.54692089974E+03  0.35106542684E+02  0.86288431815E+03  0.50400001928E-02 0.  1.
</event>
<event>
 5   0  0.1906857E-05  0.1799734E+04  0.7818609E-02  0.8706441E-01
       -1   -1    0    0    0  501  0.00000000000E+00  0.00000000000E+00  0.68598275814E+03  0.68598275815E+03  0.50400001928E-02 0. -1.
        1   -1    0    0  501    0  0.00000000000E+00  0.00000000000E+00 -0.11804389166E+04  0.11804389167E+04  0.50400001928E-02 0.  1.
    10030    2    1    2    0    0  0.00000000000E+00  0.00000000000E+00 -0.49445615851E+03  0.18664216748E+04  0.17997341402E+04 0.  0.
        4    1    3    3  502    0  0.29097794109E+03 -0.23411991792E+03 -0.10962700642E+04  0.11581407361E+04  0.12699999809E+01 0.  1.
       -4    1    3    3    0  502 -0.29097794109E+03  0.23411991792E+03  0.60181390566E+03  0.70828093869E+03  0.12699999809E+01 0. -1.
</event>
<event>
 5   0  0.1960300E-05  0.1798865E+04  0.7818609E-02  0.8706903E-01
       -1   -1    0    0    0  501  0.00000000000E+00  0.00000000000E+00  0.60470631249E+03  0.60470631251E+03  0.50400001928E-02 0. -1.
        1   -1    0    0  501    0  0.00000000000E+00  0.00000000000E+00 -0.13378047552E+04  0.13378047553E+04  0.50400001928E-02 0.  1.
    10030    2    1    2    0    0  0.00000000000E+00  0.00000000000E+00 -0.73309844275E+03  0.19425110678E+04  0.17988651761E+04 0.  0.
        3    1    3    3  502    0  0.40771361418E+03  0.18636526476E+03 -0.12085695836E+04  0.12890317497E+04  0.10100000352E+00 0.  1.
       -3    1    3    3    0  502 -0.40771361418E+03 -0.18636526476E+03  0.47547114089E+03  0.65347931804E+03  0.10100000352E+00 0. -1.
</event>
<event>
 5   0  0.3984648E-05  0.1798961E+04  0.7818609E-02  0.8706852E-01
       -2   -1    0    0    0  501  0.00000000000E+00  0.00000000000E+00  0.43377789325E+03  0.43377789325E+03  0.25500000920E-02 0. -1.
        2   -1    0    0  501    0  0.00000000000E+00  0.00000000000E+00 -0.18651601259E+04  0.18651601259E+04  0.25500000920E-02 0.  1.
    10030    2    1    2    0    0  0.00000000000E+00  0.00000000000E+00 -0.14313822326E+04  0.22989380191E+04  0.17989610668E+04 0.  0.
        1    1    3    3  502    0 -0.10860573124E+03  0.67755415387E+03  0.27475396003E+02  0.68675303690E+03  0.50400001928E-02 0. -1.
       -1    1    3    3    0  502  0.10860573124E+03 -0.67755415387E+03 -0.14588576286E+04  0.16121849822E+04  0.50400001928E-02 0.  1.
</event>
<event>
 5   0  0.2001811E-05  0.1798354E+04  0.7818609E-02  0.8707175E-01
       -1   -1    0    0    0  501  0.00000000000E+00  0.00000000000E+00  0.48674051996E+03  0.48674051999E+03  0.50400001928E-02 0.  1.
        1   -1    0    0  501    0  0.00000000000E+00  0.00000000000E+00 -0.16610895135E+04  0.16610895136E+04  0.50400001928E-02 0. -1.
    10030    2    1    2    0    0  0.00000000000E+00  0.00000000000E+00 -0.11743489936E+04  0.21478300335E+04  0.17983543295E+04 0.  0.
        2    1    3    3  502    0  0.69331133968E+03  0.14957297921E+03  0.72920913875E+02  0.71300080611E+03  0.25500000920E-02 0.  1.
       -2    1    3    3    0  502 -0.69331133968E+03 -0.14957297921E+03 -0.12472699075E+04  0.14348292274E+04  0.25500000920E-02 0. -1.
</event>
<event>
 5   0  0.4015729E-05  0.1798745E+04  0.7818609E-02  0.8706967E-01
        2   -1    0    0  501    0  0.00000000000E+00  0.00000000000E+00  0.98407679330E+03  0.98407679331E+03  0.25500000920E-02 0. -1.
       -2   -1    0    0    0  501  0.00000000000E+00  0.00000000000E+00 -0.82195946887E+03  0.82195946887E+03  0.25500000920E-02 0.  1.
    10030    2    1    2    0    0  0.00000000000E+00  0.00000000000E+00  0.16211732443E+03  0.18060362622E+04  0.17987453832E+04 0.  0.
        2    1    3    3  502    0 -0.20340600239E+02 -0.41362924534E+03 -0.72053083670E+03  0.83106412464E+03  0.25500000920E-02 0.  1.
       -2    1    3    3    0  502  0.20340600239E+02  0.41362924534E+03  0.88264816113E+03  0.97497213754E+03  0.25500000920E-02 0. -1.
</event>
<event>
 5   0  0.1906857E-05  0.1804211E+04  0.7818609E-02  0.8704063E-01
        1   -1    0    0  501    0  0.00000000000E+00  0.00000000000E+00  0.11320405283E+04  0.11320405283E+04  0.50400001928E-02 0.  1.
       -1   -1    0    0    0  501  0.00000000000E+00  0.00000000000E+00 -0.71887401894E+03  0.71887401896E+03  0.50400001928E-02 0. -1.
    10030    2    1    2    0    0  0.00000000000E+00  0.00000000000E+00  0.41316650938E+03  0.18509145473E+04  0.18042112118E+04 0.  0.
        4    1    3    3  502    0 -0.40442416541E+03  0.66615818957E+03  0.67273208791E+03  0.10295123671E+04  0.12699999809E+01 0.  1.
       -4    1    3    3    0  502  0.40442416541E+03 -0.66615818957E+03 -0.25956557854E+03  0.82140218015E+03  0.12699999809E+01 0. -1.
</event>
<event>
 5   0  0.3993393E-05  0.1809370E+04  0.7818609E-02  0.8701332E-01
        2   -1    0    0  501    0  0.00000000000E+00  0.00000000000E+00  0.12935230681E+04  0.12935230682E+04  0.25500000920E-02 0. -1.
       -2   -1    0    0    0  501  0.00000000000E+00  0.00000000000E+00 -0.63273311414E+03  0.63273311414E+03  0.25500000920E-02 0.  1.
    10030    2    1    2    0    0  0.00000000000E+00  0.00000000000E+00  0.66078995401E+03  0.19262561823E+04  0.18093699225E+04 0.  0.
        5    1    3    3  502    0  0.18307729671E+03 -0.57328803052E+03  0.10494980236E+04  0.12098118259E+04  0.46999998093E+01 0. -1.
       -5    1    3    3    0  502 -0.18307729671E+03  0.57328803052E+03 -0.38870806957E+03  0.71644435642E+03  0.46999998093E+01 0.  1.
</event>
<event>
 5   0  0.1906857E-05  0.1799177E+04  0.7818609E-02  0.8706737E-01
        1   -1    0    0  501    0  0.00000000000E+00  0.00000000000E+00  0.15425760170E+04  0.15425760170E+04  0.50400001928E-02 0.  1.
       -1   -1    0    0    0  501  0.00000000000E+00  0.00000000000E+00 -0.52461584356E+03  0.52461584359E+03  0.50400001928E-02 0. -1.
    10030    2    1    2    0    0  0.00000000000E+00  0.00000000000E+00  0.10179601734E+04  0.20671918606E+04  0.17991773881E+04 0.  0.
        4    1    3    3  502    0  0.40209569583E+03 -0.72986053783E+03  0.11954899116E+03  0.84182594845E+03  0.12699999809E+01 0. -1.
       -4    1    3    3    0  502 -0.40209569583E+03  0.72986053783E+03  0.89841118225E+03  0.12253659121E+04  0.12699999809E+01 0.  1.
</event>
<event>
 5   0  0.3984648E-05  0.1799135E+04  0.7818609E-02  0.8706760E-01
        2   -1    0    0  501    0  0.00000000000E+00  0.00000000000E+00  0.13708553746E+04  0.13708553746E+04  0.25500000920E-02 0.  1.
       -2   -1    0    0    0  501  0.00000000000E+00  0.00000000000E+00 -0.59030425083E+03  0.59030425083E+03  0.25500000920E-02 0. -1.
    10030    2    1    2    0    0  0.00000000000E+00  0.00000000000E+00  0.78055112377E+03  0.19611596254E+04  0.17991350754E+04 0.  0.
        1    1    3    3  502    0  0.31545139348E+02  0.30954413916E+03  0.13103307908E+04  0.13467662942E+04  0.50400001928E-02 0.  1.
       -1    1    3    3    0  502 -0.31545139348E+02 -0.30954413916E+03 -0.52977966699E+03  0.61439333125E+03  0.50400001928E-02 0. -1.
</event>
<event>
 5   0  0.2001811E-05  0.1795298E+04  0.7818609E-02  0.8708804E-01
        1   -1    0    0  501    0  0.00000000000E+00  0.00000000000E+00  0.16543390999E+04  0.16543391000E+04  0.50400001928E-02 0. -1.
       -1   -1    0    0    0  501  0.00000000000E+00  0.00000000000E+00 -0.48706686205E+03  0.48706686208E+03  0.50400001928E-02 0.  1.
    10030    2    1    2    0    0  0.00000000000E+00  0.00000000000E+00  0.11672722379E+04  0.21414059620E+04  0.17952980301E+04 0.  0.
        2    1    3    3  502    0  0.21150536981E+03 -0.61994952519E+03 -0.14844854944E+03  0.67164641522E+03  0.25500000920E-02 0.  1.
       -2    1    3    3    0  502 -0.21150536981E+03  0.61994952519E+03  0.13157207873E+04  0.14697595468E+04  0.25500000920E-02 0. -1.
</event>
<event>
 5   0  0.2001811E-05  0.1798371E+04  0.7818609E-02  0.8707166E-01
        1   -1    0    0  501    0  0.00000000000E+00  0.00000000000E+00  0.12692858208E+04  0.12692858208E+04  0.50400001928E-02 0.  1.
       -1   -1    0    0    0  501  0.00000000000E+00  0.00000000000E+00 -0.63699950248E+03  0.63699950250E+03  0.50400001928E-02 0. -1.
    10030    2    1    2    0    0  0.00000000000E+00  0.00000000000E+00  0.63228631828E+03  0.19062853233E+04  0.17983708587E+04 0.  0.
        2    1    3    3  502    0 -0.42910942171E+03  0.50606318236E+03  0.95943681574E+03  0.11665135420E+04  0.25500000920E-02 0.  1.
       -2    1    3    3    0  502  0.42910942171E+03 -0.50606318236E+03 -0.32715049745E+03  0.73977178125E+03  0.25500000920E-02 0. -1.
</event>
<event>
 5   0  0.1960300E-05  0.1801778E+04  0.7818609E-02  0.8705355E-01
        1   -1    0    0  501    0  0.00000000000E+00  0.00000000000E+00  0.16222752012E+04  0.16222752012E+04  0.50400001928E-02 0. -1.
       -1   -1    0    0    0  501  0.00000000000E+00  0.00000000000E+00 -0.50028559117E+03  0.50028559120E+03  0.50400001928E-02 0.  1.
    10030    2    1    2    0    0  0.00000000000E+00  0.00000000000E+00  0.11219896100E+04  0.21225607924E+04  0.18017779087E+04 0.  0.
        3    1    3    3  502    0 -0.11813603978E+02 -0.68696055483E+03  0.12474442053E+04  0.14241388348E+04  0.10100000352E+00 0. -1.
       -3    1    3    3    0  502  0.11813603978E+02  0.68696055483E+03 -0.12545459534E+03  0.69842195758E+03  0.10100000352E+00 0.  1.
</event>
<event>
 5   0  0.2054876E-05  0.1851158E+04  0.7818609E-02  0.8679557E-01
        1   -1    0    0  501    0  0.00000000000E+00  0.00000000000E+00  0.21819960885E+04  0.21819960886E+04  0.50400001928E-02 0. -1.
       -1   -1    0    0    0  501  0.00000000000E+00  0.00000000000E+00 -0.39262071516E+03  0.39262071519E+03  0.50400001928E-02 0.  1.
    10030    2    1    2    0    0  0.00000000000E+00  0.00000000000E+00  0.17893753734E+04  0.25746168037E+04  0.18511584101E+04 0.  0.
        5    1    3    3  502    0  0.91581392975E+02 -0.70843335780E+03  0.17132732864E+04  0.18562307017E+04  0.46999998093E+01 0. -1.
       -5    1    3    3    0  502 -0.91581392975E+02  0.70843335780E+03  0.76102086983E+02  0.71838610206E+03  0.46999998093E+01 0.  1.
</event>
<event>
 5   0  0.1906857E-05  0.1807943E+04  0.7818609E-02  0.8702087E-01
        1   -1    0    0  501    0  0.00000000000E+00  0.00000000000E+00  0.13653232835E+04  0.13653232835E+04  0.50400001928E-02 0.  1.
       -1   -1    0    0    0  501  0.00000000000E+00  0.00000000000E+00 -0.59851343553E+03  0.59851343555E+03  0.50400001928E-02 0. -1.
    10030    2    1    2    0    0  0.00000000000E+00  0.00000000000E+00  0.76680984797E+03  0.19638367191E+04  0.18079428410E+04 0.  0.
        4    1    3    3  502    0 -0.53766051075E+03 -0.56677024444E+03  0.87743579945E+03  0.11748202117E+04  0.12699999809E+01 0.  1.
       -4    1    3    3    0  502  0.53766051075E+03  0.56677024444E+03 -0.11062595147E+03  0.78901650734E+03  0.12699999809E+01 0. -1.
</event>
<event>
 5   0  0.3909859E-05  0.1799806E+04  0.7818609E-02  0.8706403E-01
       -2   -1    0    0    0  501  0.00000000000E+00  0.00000000000E+00  0.10411812893E+04  0.10411812893E+04  0.25500000920E-02 0.  1.
        2   -1    0    0  501    0  0.00000000000E+00  0.00000000000E+00 -0.77779492258E+03  0.77779492259E+03  0.25500000920E-02 0. -1.
    10030    2    1    2    0    0  0.00000000000E+00  0.00000000000E+00  0.26338636668E+03  0.18189762118E+04  0.17998061232E+04 0.  0.
        4    1    3    3  502    0 -0.25277116165E+03 -0.35114182478E+01 -0.74117151706E+03  0.78309796374E+03  0.12699999809E+01 0. -1.
       -4    1    3    3    0  502  0.25277116165E+03  0.35114182478E+01  0.10045578837E+04  0.10358782481E+04  0.12699999809E+01 0.  1.
</event>
<event>
 5   0  0.3984648E-05  0.1803032E+04  0.7818609E-02  0.8704689E-01
        2   -1    0    0  501    0  0.00000000000E+00  0.00000000000E+00  0.13617284431E+04  0.13617284431E+04  0.25500000920E-02 0. -1.
       -2   -1    0    0    0  501  0.00000000000E+00  0.00000000000E+00 -0.59683799682E+03  0.59683799682E+03  0.25500000920E-02 0.  1.
    10030    2    1    2    0    0  0.00000000000E+00  0.00000000000E+00  0.76489044630E+03  0.19585664399E+04  0.18030321974E+04 0.  0.
        1    1    3    3  502    0  0.23029544868E+03 -0.68209943428E+03 -0.20698176713E+03  0.74909083820E+03  0.50400001928E-02 0.  1.
       -1    1    3    3    0  502 -0.23029544868E+03  0.68209943428E+03  0.97187221343E+03  0.12094756017E+04  0.50400001928E-02 0. -1.
</event>
<event>
 5   0  0.3993393E-05  0.1796092E+04  0.7818609E-02  0.8708381E-01
        2   -1    0    0  501    0  0.00000000000E+00  0.00000000000E+00  0.21911061742E+04  0.21911061742E+04  0.25500000920E-02 0. -1.
       -2   -1    0    0    0  501  0.00000000000E+00  0.00000000000E+00 -0.36807270808E+03  0.36807270809E+03  0.25500000920E-02 0.  1.
    10030    2    1    2    0    0  0.00000000000E+00  0.00000000000E+00  0.18230334661E+04  0.25591788823E+04  0.17960917385E+04 0.  0.
        5    1    3    3  502    0  0.50664299599E+03 -0.36960874849E+03  0.18273885607E+04  0.19320115926E+04  0.46999998093E+01 0. -1.
       -5    1    3    3    0  502 -0.50664299599E+03  0.36960874849E+03 -0.43550945812E+01  0.62716728964E+03  0.46999998093E+01 0.  1.
</event>
<event>
 5   0  0.4015729E-05  0.1818648E+04  0.7818609E-02  0.8696445E-01
       -2   -1    0    0    0  501  0.00000000000E+00  0.00000000000E+00  0.72476471821E+03  0.72476471821E+03  0.25500000920E-02 0. -1.
        2   -1    0    0  501    0  0.00000000000E+00  0.00000000000E+00 -0.11408813891E+04  0.11408813891E+04  0.25500000920E-02 0.  1.
    10030    2    1    2    0    0  0.00000000000E+00  0.00000000000E+00 -0.41611667092E+03  0.18656461073E+04  0.18186484856E+04 0.  0.
        2    1    3    3  502    0 -0.49825460554E+03 -0.31627636776E+03 -0.91773212462E+03  0.10911098228E+04  0.25500000920E-02 0.  1.
       -2    1    3    3    0  502  0.49825460554E+03  0.31627636776E+03  0.50161545370E+03  0.77453628459E+03  0.25500000920E-02 0. -1.
</event>
<event>
 5   0  0.2001811E-05  0.1797667E+04  0.7818609E-02  0.8707541E-01
       -1   -1    0    0    0  501  0.00000000000E+00  0.00000000000E+00  0.14466400863E+04  0.14466400863E+04  0.50400001928E-02 0.  1.
        1   -1    0    0  501    0  0.00000000000E+00  0.00000000000E+00 -0.55846747608E+03  0.55846747610E+03  0.50400001928E-02 0. -1.
    10030    2    1    2    0    0  0.00000000000E+00  0.00000000000E+00  0.88817261018E+03  0.20051075624E+04  0.17976667520E+04 0.  0.
        2    1    3    3  502    0 -0.94893511774E+02  0.88700356141E+03  0.56688784923E+03  0.10569493508E+04  0.25500000920E-02 0.  1.
       -2    1    3    3    0  502  0.94893511774E+02 -0.88700356141E+03  0.32128476095E+03  0.94815821157E+03  0.25500000920E-02 0. -1.
</event>
<event>
 5   0  0.2038338E-05  0.1808361E+04  0.7818609E-02  0.8701866E-01
        1   -1    0    0  501    0  0.00000000000E+00  0.00000000000E+00  0.10953851400E+04  0.10953851400E+04  0.50400001928E-02 0.  1.
       -1   -1    0    0    0  501  0.00000000000E+00  0.00000000000E+00 -0.74635189084E+03  0.74635189086E+03  0.50400001928E-02 0. -1.
    10030    2    1    2    0    0  0.00000000000E+00  0.00000000000E+00  0.34903324915E+03  0.18417370309E+04  0.18083614356E+04 0.  0.
        1    1    3    3  502    0 -0.74003242293E+03  0.49593145963E+03  0.16913123020E+02  0.89100059113E+03  0.50400001928E-02 0.  1.
       -1    1    3    3    0  502  0.74003242293E+03 -0.49593145963E+03  0.33212012613E+03  0.95073643974E+03  0.50400001928E-02 0. -1.
</event>
<event>
 5   0  0.3993393E-05  0.1798813E+04  0.7818609E-02  0.8706931E-01
       -2   -1    0    0    0  501  0.00000000000E+00  0.00000000000E+00  0.14140634286E+04  0.14140634286E+04  0.25500000920E-02 0.  1.
        2   -1    0    0  501    0  0.00000000000E+00  0.00000000000E+00 -0.57206208645E+03  0.57206208645E+03  0.25500000920E-02 0. -1.
    10030    2    1    2    0    0  0.00000000000E+00  0.00000000000E+00  0.84200134219E+03  0.19861255151E+04  0.17988130257E+04 0.  0.
        5    1    3    3  502    0  0.68226838466E+03  0.51799722914E+03  0.72357835731E+03  0.11213380433E+04  0.46999998093E+01 0.  1.
       -5    1    3    3    0  502 -0.68226838466E+03 -0.51799722914E+03  0.11842298488E+03  0.86478747184E+03  0.46999998093E+01 0. -1.
</event>
<event>
 5   0  0.3984648E-05  0.1796864E+04  0.7818609E-02  0.8707969E-01
        2   -1    0    0  501    0  0.00000000000E+00  0.00000000000E+00  0.12963935821E+04  0.12963935821E+04  0.25500000920E-02 0. -1.
       -2   -1    0    0    0  501  0.00000000000E+00  0.00000000000E+00 -0.62263523304E+03  0.62263523305E+03  0.25500000920E-02 0.  1.
    10030    2    1    2    0    0  0.00000000000E+00  0.00000000000E+00  0.67375834906E+03  0.19190288152E+04  0.17968642911E+04 0.  0.
        1    1    3    3  502    0 -0.45478188693E+03  0.58756551064E+03  0.87631392307E+03  0.11489063869E+04  0.50400001928E-02 0. -1.
       -1    1    3    3    0  502  0.45478188693E+03 -0.58756551064E+03 -0.20255557401E+03  0.77012242829E+03  0.50400001928E-02 0.  1.
</event>
<event>
 5   0  0.2054876E-05  0.1799705E+04  0.7818609E-02  0.8706457E-01
        1   -1    0    0  501    0  0.00000000000E+00  0.00000000000E+00  0.12633591425E+04  0.12633591425E+04  0.50400001928E-02 0. -1.
       -1   -1    0    0    0  501  0.00000000000E+00  0.00000000000E+00 -0.64093746084E+03  0.64093746086E+03  0.50400001928E-02 0.  1.
    10030    2    1    2    0    0  0.00000000000E+00  0.00000000000E+00  0.62242168166E+03  0.19042966034E+04  0.17997046435E+04 0.  0.
        5    1    3    3  502    0 -0.50151357220E+03  0.12379093870E+03 -0.46840758940E+03  0.69732906106E+03  0.46999998093E+01 0.  1.
       -5    1    3    3    0  502  0.50151357220E+03 -0.12379093870E+03  0.10908292711E+04  0.12069675423E+04  0.46999998093E+01 0. -1.
</event>
<event>
 5   0  0.1960300E-05  0.1800978E+04  0.7818609E-02  0.8705779E-01
        1   -1    0    0  501    0  0.00000000000E+00  0.00000000000E+00  0.84600918976E+03  0.84600918977E+03  0.50400001928E-02 0.  1.
       -1   -1    0    0    0  501  0.00000000000E+00  0.00000000000E+00 -0.95847745614E+03  0.95847745616E+03  0.50400001928E-02 0. -1.
    10030    2    1    2    0    0  0.00000000000E+00  0.00000000000E+00 -0.11246826638E+03  0.18044866459E+04  0.18009783298E+04 0.  0.
        3    1    3    3  502    0  0.36947599697E+03  0.49381202457E+03 -0.71365092209E+03  0.94321814908E+03  0.10100000352E+00 0. -1.
       -3    1    3    3    0  502 -0.36947599697E+03 -0.49381202457E+03  0.60118265571E+03  0.86126849685E+03  0.10100000352E+00 0.  1.
</event>
<event>
 5   0  0.3993393E-05  0.1802415E+04  0.7818609E-02  0.8705016E-01
       -2   -1    0    0    0  501  0.00000000000E+00  0.00000000000E+00  0.14336100402E+04  0.14336100402E+04  0.25500000920E-02 0.  1.
        2   -1    0    0  501    0  0.00000000000E+00  0.00000000000E+00 -0.56652420635E+03  0.56652420636E+03  0.25500000920E-02 0. -1.
    10030    2    1    2    0    0  0.00000000000E+00  0.00000000000E+00  0.86708583385E+03  0.20001342466E+04  0.18024148138E+04 0.  0.
        5    1    3    3  502    0  0.35369451713E+03  0.44328770518E+03  0.12107657498E+04  0.13370039610E+04  0.46999998093E+01 0.  1.
       -5    1    3    3    0  502 -0.35369451713E+03 -0.44328770518E+03 -0.34367991590E+03  0.66313028554E+03  0.46999998093E+01 0. -1.
</event>
<event>
 5   0  0.1960300E-05  0.1800191E+04  0.7818609E-02  0.8706198E-01
       -1   -1    0    0    0  501  0.00000000000E+00  0.00000000000E+00  0.51782557603E+03  0.51782557605E+03  0.50400001928E-02 0. -1.
        1   -1    0    0  501    0  0.00000000000E+00  0.00000000000E+00 -0.15645654745E+04  0.15645654745E+04  0.50400001928E-02 0.  1.
    10030    2    1    2    0    0  0.00000000000E+00  0.00000000000E+00 -0.10467398984E+04  0.20823910505E+04  0.18001911211E+04 0.  0.
        3    1    3    3  502    0  0.21623059172E+03 -0.55626913924E+03 -0.13027737228E+04  0.14329725772E+04  0.10100000352E+00 0.  1.
       -3    1    3    3    0  502 -0.21623059172E+03  0.55626913924E+03  0.25603382435E+03  0.64941847331E+03  0.10100000352E+00 0. -1.
</event>
<event>
 5   0  0.3993393E-05  0.1797164E+04  0.7818609E-02  0.8707809E-01
        2   -1    0    0  501    0  0.00000000000E+00  0.00000000000E+00  0.12635812249E+04  0.12635812249E+04  0.25500000920E-02 0.  1.
       -2   -1    0    0    0  501  0.00000000000E+00  0.00000000000E+00 -0.63901650988E+03  0.63901650988E+03  0.25500000920E-02 0. -1.
    10030    2    1    2    0    0  0.00000000000E+00  0.00000000000E+00  0.62456471506E+03  0.19025977348E+04  0.17971636145E+04 0.  0.
        5    1    3    3  502    0 -0.48923497779E+03  0.29016847594E+03 -0.42414099312E+03  0.70955357794E+03  0.46999998093E+01 0. -1.
       -5    1    3    3    0  502  0.48923497779E+03 -0.29016847594E+03  0.10487057082E+04  0.11930441569E+04  0.46999998093E+01 0.  1.
</event>
<event>
 5   0  0.2001811E-05  0.1800486E+04  0.7818609E-02  0.8706041E-01
       -1   -1    0    0    0  501  0.00000000000E+00  0.00000000000E+00  0.69823248864E+03  0.69823248866E+03  0.50400001928E-02 0. -1.
        1   -1    0    0  501    0  0.00000000000E+00  0.00000000000E+00 -0.11606983627E+04  0.11606983628E+04  0.50400001928E-02 0.  1.
    10030    2    1    2    0    0  0.00000000000E+00  0.00000000000E+00 -0.46246587410E+03  0.18589308514E+04  0.18004858305E+04 0.  0.
        2    1    3    3  502    0 -0.59639617245E+03 -0.31091688796E+03 -0.84905486383E+03  0.10831675159E+04  0.25500000920E-02 0.  1.
       -2    1    3    3    0  502  0.59639617245E+03  0.31091688796E+03  0.38658898972E+03  0.77576333551E+03  0.25500000920E-02 0. -1.
</event>
<event>
 5   0  0.3984648E-05  0.1798607E+04  0.7818609E-02  0.8707040E-01
        2   -1    0    0  501    0  0.00000000000E+00  0.00000000000E+00  0.79868420754E+03  0.79868420755E+03  0.25500000920E-02 0.  1.
       -2   -1    0    0    0  501  0.00000000000E+00  0.00000000000E+00 -0.10125994769E+04  0.10125994769E+04  0.25500000920E-02 0. -1.
    10030    2    1    2    0    0  0.00000000000E+00  0.00000000000E+00 -0.21391526932E+03  0.18112836844E+04  0.17986074733E+04 0.  0.
        1    1    3    3  502    0  0.29712619513E+03 -0.10331936517E+02  0.74776226813E+03  0.80469816355E+03  0.50400001928E-02 0.  1.
       -1    1    3    3    0  502 -0.29712619513E+03  0.10331936517E+02 -0.96167753746E+03  0.10065855209E+04  0.50400001928E-02 0. -1.
</event>
<event>
 5   0  0.2001811E-05  0.1802184E+04  0.7818609E-02  0.8705139E-01
        1   -1    0    0  501    0  0.00000000000E+00  0.00000000000E+00  0.12400413069E+04  0.12400413069E+04  0.50400001928E-02 0.  1.
       -1   -1    0    0    0  501  0.00000000000E+00  0.00000000000E+00 -0.65479001037E+03  0.65479001039E+03  0.50400001928E-02 0. -1.
    10030    2    1    2    0    0  0.00000000000E+00  0.00000000000E+00  0.58525129648E+03  0.18948313173E+04  0.18021838532E+04 0.  0.
        2    1    3    3  502    0 -0.28944127839E+03  0.20919037708E+03  0.11624587135E+04  0.12160785863E+04  0.25500000920E-02 0.  1.
       -2    1    3    3    0  502  0.28944127839E+03 -0.20919037708E+03 -0.57720741701E+03  0.67875273094E+03  0.25500000920E-02 0. -1.
</event>
<event>
 5   0  0.3909859E-05  0.1800857E+04  0.7818609E-02  0.8705844E-01
        2   -1    0    0  501    0  0.00000000000E+00  0.00000000000E+00  0.22102841959E+04  0.22102841959E+04  0.25500000920E-02 0.  1.
       -2   -1    0    0    0  501  0.00000000000E+00  0.00000000000E+00 -0.36681769963E+03  0.36681769964E+03  0.25500000920E-02 0. -1.
    10030    2    1    2    0    0  0.00000000000E+00  0.00000000000E+00  0.18434664962E+04  0.25771018955E+04  0.18008568675E+04 0.  0.
        4    1    3    3  502    0  0.62112627036E+03  0.50790603627E+03  0.33692295727E+03  0.87022128073E+03  0.12699999809E+01 0. -1.
       -4    1    3    3    0  502 -0.62112627036E+03 -0.50790603627E+03  0.15065435390E+04  0.17068806148E+04  0.12699999809E+01 0.  1.
</event>
<event>
 5   0  0.1906857E-05  0.1802993E+04  0.7818609E-02  0.8704710E-01
        1   -1    0    0  501    0  0.00000000000E+00  0.00000000000E+00  0.18601816395E+04  0.18601816395E+04  0.50400001928E-02 0. -1.
       -1   -1    0    0    0  501  0.00000000000E+00  0.00000000000E+00 -0.43689040512E+03  0.43689040515E+03  0.50400001928E-02 0.  1.
    10030    2    1    2    0    0  0.00000000000E+00  0.00000000000E+00  0.14232912344E+04  0.22970720446E+04  0.18029925237E+04 0.  0.
        4    1    3    3  502    0 -0.17483894050E+03 -0.72981759531E+03  0.75277248044E+02  0.75423514537E+03  0.12699999809E+01 0.  1.
       -4    1    3    3    0  502  0.17483894050E+03  0.72981759531E+03  0.13480139863E+04  0.15428368993E+04  0.12699999809E+01 0. -1.
</event>
<event>
 5   0  0.1446750E-05  0.1798994E+04  0.7818609E-02  0.8706835E-01
        4   -1    0    0  501    0  0.00000000000E+00  0.00000000000E+00  0.55997409774E+03  0.55997553790E+03  0.12699999809E+01 0.  1.
       -4   -1    0    0    0  501  0.00000000000E+00  0.00000000000E+00 -0.14448756509E+04  0.14448762091E+04  0.12699999809E+01 0. -1.
    10030    2    1    2    0    0  0.00000000000E+00  0.00000000000E+00 -0.88490155320E+03  0.20048517470E+04  0.17989940991E+04 0.  0.
        5    1    3    3  502    0  0.41158070865E+02 -0.56388804260E+03 -0.12220808132E+04  0.13465390137E+04  0.46999998093E+01 0. -1.
       -5    1    3    3    0  502 -0.41158070865E+02  0.56388804260E+03  0.33717926004E+03  0.65831273327E+03  0.46999998093E+01 0.  1.
</event>
<event>
 5   0  0.2054876E-05  0.1801617E+04  0.7818609E-02  0.8705440E-01
       -1   -1    0    0    0  501  0.00000000000E+00  0.00000000000E+00  0.87248911387E+03  0.87248911389E+03  0.50400001928E-02 0. -1.
        1   -1    0    0  501    0  0.00000000000E+00  0.00000000000E+00 -0.93004749774E+03  0.93004749775E+03  0.50400001928E-02 0.  1.
    10030    2    1    2    0    0  0.00000000000E+00  0.00000000000E+00 -0.57558383868E+02  0.18025366116E+04  0.18016174035E+04 0.  0.
        5    1    3    3  502    0 -0.16933143550E+03 -0.17982462370E+03 -0.89549145337E+03  0.92894405827E+03  0.46999998093E+01 0.  1.
       -5    1    3    3    0  502  0.16933143550E+03  0.17982462370E+03  0.83793306950E+03  0.87359255337E+03  0.46999998093E+01 0. -1.
</event>
<event>
 5   0  0.2001811E-05  0.1798285E+04  0.7818609E-02  0.8707212E-01
       -1   -1    0    0    0  501  0.00000000000E+00  0.00000000000E+00  0.12585968820E+04  0.12585968820E+04  0.50400001928E-02 0.  1.
        1   -1    0    0  501    0  0.00000000000E+00  0.00000000000E+00 -0.64234811361E+03  0.64234811363E+03  0.50400001928E-02 0. -1.
    10030    2    1    2    0    0  0.00000000000E+00  0.00000000000E+00  0.61624876842E+03  0.19009449957E+04  0.17982851086E+04 0.  0.
        2    1    3    3  502    0 -0.14147128809E+03 -0.67015612553E+03 -0.30765433355E+03  0.75084921715E+03  0.25500000920E-02 0. -1.
       -2    1    3    3    0  502  0.14147128809E+03  0.67015612553E+03  0.92390310197E+03  0.11500957785E+04  0.25500000920E-02 0.  1.
</event>
<event>
 5   0  0.1960300E-05  0.1792961E+04  0.7818609E-02  0.8710052E-01
       -1   -1    0    0    0  501  0.00000000000E+00  0.00000000000E+00  0.53573133834E+03  0.53573133837E+03  0.50400001928E-02 0.  1.
        1   -1    0    0  501    0  0.00000000000E+00  0.00000000000E+00 -0.15001494486E+04  0.15001494486E+04  0.50400001928E-02 0. -1.
    10030    2    1    2    0    0  0.00000000000E+00  0.00000000000E+00 -0.96441811024E+03  0.20358807870E+04  0.17929607601E+04 0.  0.
        3    1    3    3  502    0 -0.53062324594E+02  0.25515671183E+03  0.49176774862E+03  0.55655735254E+03  0.10100000352E+00 0.  1.
       -3    1    3    3    0  502  0.53062324594E+02 -0.25515671183E+03 -0.14561858589E+04  0.14793234344E+04  0.10100000352E+00 0. -1.
</event>
<event>
 5   0  0.2054876E-05  0.1835042E+04  0.7818609E-02  0.8687883E-01
        1   -1    0    0  501    0  0.00000000000E+00  0.00000000000E+00  0.15882711792E+04  0.15882711792E+04  0.50400001928E-02 0. -1.
       -1   -1    0    0    0  501  0.00000000000E+00  0.00000000000E+00 -0.53003849052E+03  0.53003849055E+03  0.50400001928E-02 0.  1.
    10030    2    1    2    0    0  0.00000000000E+00  0.00000000000E+00  0.10582326886E+04  0.21183096697E+04  0.18350420795E+04 0.  0.
        5    1    3    3  502    0 -0.37255082688E+03 -0.57530313607E+03 -0.17500411800E+03  0.70740112263E+03  0.46999998093E+01 0.  1.
       -5    1    3    3    0  502  0.37255082688E+03  0.57530313607E+03  0.12332368066E+04  0.14109085471E+04  0.46999998093E+01 0. -1.
</event>
<event>
 5   0  0.2054876E-05  0.1802368E+04  0.7818609E-02  0.8705041E-01
       -1   -1    0    0    0  501  0.00000000000E+00  0.00000000000E+00  0.67741336757E+03  0.67741336759E+03  0.50400001928E-02 0. -1.
        1   -1    0    0  501    0  0.00000000000E+00  0.00000000000E+00 -0.11988733095E+04  0.11988733095E+04  0.50400001928E-02 0.  1.
    10030    2    1    2    0    0  0.00000000000E+00  0.00000000000E+00 -0.52145994190E+03  0.18762866771E+04  0.18023682264E+04 0.  0.
        5    1    3    3  502    0 -0.58455626290E+03  0.45966145557E+03 -0.79064082975E+03  0.10854168277E+04  0.46999998093E+01 0.  1.
       -5    1    3    3    0  502  0.58455626290E+03 -0.45966145557E+03  0.26918088785E+03  0.79086984935E+03  0.46999998093E+01 0. -1.
</event>
<event>
 5   0  0.2054876E-05  0.1814184E+04  0.7818609E-02  0.8698793E-01
        1   -1    0    0  501    0  0.00000000000E+00  0.00000000000E+00  0.15722921608E+04  0.15722921608E+04  0.50400001928E-02 0.  1.
       -1   -1    0    0    0  501  0.00000000000E+00  0.00000000000E+00 -0.52332223444E+03  0.52332223446E+03  0.50400001928E-02 0. -1.
    10030    2    1    2    0    0  0.00000000000E+00  0.00000000000E+00  0.10489699263E+04  0.20956143953E+04  0.18141835043E+04 0.  0.
        5    1    3    3  502    0  0.85319327335E+03 -0.21601811402E+03  0.77806326552E+03  0.11747370439E+04  0.46999998093E+01 0.  1.
       -5    1    3    3    0  502 -0.85319327335E+03  0.21601811402E+03  0.27090666082E+03  0.92087735131E+03  0.46999998093E+01 0. -1.
</event>
<event>
 5   0  0.3909859E-05  0.1799509E+04  0.7818609E-02  0.8706560E-01
       -2   -1    0    0    0  501  0.00000000000E+00  0.00000000000E+00  0.70208765717E+03  0.70208765717E+03  0.25500000920E-02 0.  1.
        2   -1    0    0  501    0  0.00000000000E+00  0.00000000000E+00 -0.11530734055E+04  0.11530734055E+04  0.25500000920E-02 0. -1.
    10030    2    1    2    0    0  0.00000000000E+00  0.00000000000E+00 -0.45098574837E+03  0.18551610627E+04  0.17995094952E+04 0.  0.
        4    1    3    3  502    0 -0.20895446861E+03  0.45772175221E+02  0.67549155444E+03  0.70855311375E+03  0.12699999809E+01 0.  1.
       -4    1    3    3    0  502  0.20895446861E+03 -0.45772175221E+02 -0.11264773028E+04  0.11466079490E+04  0.12699999809E+01 0. -1.
</event>
<event>
 5   0  0.1906857E-05  0.1797978E+04  0.7818609E-02  0.8707376E-01
       -1   -1    0    0    0  501  0.00000000000E+00  0.00000000000E+00  0.10125117075E+04  0.10125117075E+04  0.50400001928E-02 0.  1.
        1   -1    0    0  501    0  0.00000000000E+00  0.00000000000E+00 -0.79819402047E+03  0.79819402049E+03  0.50400001928E-02 0. -1.
    10030    2    1    2    0    0  0.00000000000E+00  0.00000000000E+00  0.21431768706E+03  0.18107057280E+04  0.17979775200E+04 0.  0.
        4    1    3    3  502    0  0.48313313329E+03 -0.72927749190E+03  0.31578689179E+03  0.93004637443E+03  0.12699999809E+01 0.  1.
       -4    1    3    3    0  502 -0.48313313329E+03  0.72927749190E+03 -0.10146920473E+03  0.88065935360E+03  0.12699999809E+01 0. -1.
</event>
<event>
 5   0  0.3983176E-05  0.1799786E+04  0.7818609E-02  0.8706413E-01
       -2   -1    0    0    0  501  0.00000000000E+00  0.00000000000E+00  0.49439142799E+03  0.49439142800E+03  0.25500000920E-02 0. -1.
        2   -1    0    0  501    0  0.00000000000E+00  0.00000000000E+00 -0.16379884269E+04  0.16379884270E+04  0.25500000920E-02 0.  1.
    10030    2    1    2    0    0  0.00000000000E+00  0.00000000000E+00 -0.11435969990E+04  0.21323798549E+04  0.17997860289E+04 0.  0.
        3    1    3    3  502    0  0.67352083254E+03 -0.17201793418E+03  0.10528636447E+03  0.70306878062E+03  0.10100000352E+00 0.  1.
       -3    1    3    3    0  502 -0.67352083254E+03  0.17201793418E+03 -0.12488833634E+04  0.14293110743E+04  0.10100000352E+00 0. -1.
</event>
<event>
 5   0  0.3984648E-05  0.1800414E+04  0.7818609E-02  0.8706079E-01
       -2   -1    0    0    0  501  0.00000000000E+00  0.00000000000E+00  0.87990077993E+03  0.87990077993E+03  0.25500000920E-02 0. -1.
        2   -1    0    0  501    0  0.00000000000E+00  0.00000000000E+00 -0.92098155793E+03  0.92098155793E+03  0.25500000920E-02 0.  1.
    10030    2    1    2    0    0  0.00000000000E+00  0.00000000000E+00 -0.41080778003E+02  0.18008823379E+04  0.18004137204E+04 0.  0.
        1    1    3    3  502    0  0.77620783163E+03 -0.40395961474E+03 -0.23199650793E+03  0.90526479438E+03  0.50400001928E-02 0.  1.
       -1    1    3    3    0  502 -0.77620783163E+03  0.40395961474E+03  0.19091572993E+03  0.89561754348E+03  0.50400001928E-02 0. -1.
</event>
<event>
 5   0  0.1906857E-05  0.1799599E+04  0.7818609E-02  0.8706513E-01
       -1   -1    0    0    0  501  0.00000000000E+00  0.00000000000E+00  0.51246418410E+03  0.51246418412E+03  0.50400001928E-02 0. -1.
        1   -1    0    0  501    0  0.00000000000E+00  0.00000000000E+00 -0.15798938978E+04  0.15798938978E+04  0.50400001928E-02 0.  1.
    10030    2    1    2    0    0  0.00000000000E+00  0.00000000000E+00 -0.10674297137E+04  0.20923580819E+04  0.17995988856E+04 0.  0.
        4    1    3    3  502    0  0.29066943439E+03  0.81852516227E+03 -0.80679689902E+03  0.11854935725E+04  0.12699999809E+01 0.  1.
       -4    1    3    3    0  502 -0.29066943439E+03 -0.81852516227E+03 -0.26063281464E+03  0.90686450935E+03  0.12699999809E+01 0. -1.
</event>
<event>
 5   0  0.3984648E-05  0.1807232E+04  0.7818609E-02  0.8702463E-01
       -2   -1    0    0    0  501  0.00000000000E+00  0.00000000000E+00  0.31220937148E+03  0.31220937149E+03  0.25500000920E-02 0. -1.
        2   -1    0    0  501    0  0.00000000000E+00  0.00000000000E+00 -0.26153023230E+04  0.26153023230E+04  0.25500000920E-02 0.  1.
    10030    2    1    2    0    0  0.00000000000E+00  0.00000000000E+00 -0.23030929515E+04  0.29275116945E+04  0.18072320211E+04 0.  0.
        1    1    3    3  502    0  0.78011510771E+03  0.20819695264E+02 -0.41363707848E+03  0.88323760886E+03  0.50400001928E-02 0. -1.
       -1    1    3    3    0  502 -0.78011510771E+03 -0.20819695264E+02 -0.18894558730E+04  0.20442740856E+04  0.50400001928E-02 0.  1.
</event>
<event>
 5   0  0.3983176E-05  0.1797572E+04  0.7818609E-02  0.8707592E-01
        2   -1    0    0  501    0  0.00000000000E+00  0.00000000000E+00  0.57506721056E+03  0.57506721057E+03  0.25500000920E-02 0.  1.
       -2   -1    0    0    0  501  0.00000000000E+00  0.00000000000E+00 -0.14047341498E+04  0.14047341498E+04  0.25500000920E-02 0. -1.
    10030    2    1    2    0    0  0.00000000000E+00  0.00000000000E+00 -0.82966693922E+03  0.19798013604E+04  0.17975723063E+04 0.  0.
        3    1    3    3  502    0 -0.15850273004E+03 -0.16533842905E+03 -0.13720523842E+04  0.13910383412E+04  0.10100000352E+00 0. -1.
       -3    1    3    3    0  502  0.15850273004E+03  0.16533842905E+03  0.54238544499E+03  0.58876301913E+03  0.10100000352E+00 0.  1.
</event>
<event>
 5   0  0.2001811E-05  0.1798983E+04  0.7818609E-02  0.8706840E-01
        1   -1    0    0  501    0  0.00000000000E+00  0.00000000000E+00  0.14051887858E+04  0.14051887858E+04  0.50400001928E-02 0.  1.
       -1   -1    0    0    0  501  0.00000000000E+00  0.00000000000E+00 -0.57578399057E+03  0.57578399059E+03  0.50400001928E-02 0. -1.
    10030    2    1    2    0    0  0.00000000000E+00  0.00000000000E+00  0.82940479520E+03  0.19809727764E+04  0.17989832757E+04 0.  0.
        2    1    3    3  502    0 -0.96944421601E+02  0.11907629264E+03  0.13906503077E+04  0.13991017342E+04  0.25500000920E-02 0.  1.
       -2    1    3    3    0  502  0.96944421601E+02 -0.11907629264E+03 -0.56124551252E+03  0.58187104214E+03  0.25500000920E-02 0. -1.
</event>
<event>
 5   0  0.3983176E-05  0.1800633E+04  0.7818609E-02  0.8705963E-01
       -2   -1    0    0    0  501  0.00000000000E+00  0.00000000000E+00  0.61379658346E+03  0.61379658347E+03  0.25500000920E-02 0. -1.
        2   -1    0    0  501    0  0.00000000000E+00  0.00000000000E+00 -0.13205841726E+04  0.13205841726E+04  0.25500000920E-02 0.  1.
    10030    2    1    2    0    0  0.00000000000E+00  0.00000000000E+00 -0.70678758914E+03  0.19343807561E+04  0.18006332812E+04 0.  0.
        3    1    3    3  502    0 -0.20657772614E+03  0.60521086915E+03  0.32740992134E+03  0.71843706743E+03  0.10100000352E+00 0. -1.
       -3    1    3    3    0  502  0.20657772614E+03 -0.60521086915E+03 -0.10341975105E+04  0.12159436886E+04  0.10100000352E+00 0.  1.
</event>
<event>
 5   0  0.1906857E-05  0.1800649E+04  0.7818609E-02  0.8705954E-01
       -1   -1    0    0    0  501  0.00000000000E+00  0.00000000000E+00  0.57022702597E+03  0.57022702599E+03  0.50400001928E-02 0.  1.
        1   -1    0    0  501    0  0.00000000000E+00  0.00000000000E+00 -0.14215120148E+04  0.14215120148E+04  0.50400001928E-02 0. -1.
    10030    2    1    2    0    0  0.00000000000E+00  0.00000000000E+00 -0.85128498882E+03  0.19917390408E+04  0.18006494035E+04 0.  0.
        4    1    3    3  502    0  0.44652137191E+03 -0.76004342045E+03 -0.62820377749E+03  0.10824458118E+04  0.12699999809E+01 0.  1.
       -4    1    3    3    0  502 -0.44652137191E+03  0.76004342045E+03 -0.22308121133E+03  0.90929322899E+03  0.12699999809E+01 0. -1.
</event>
<event>
 5   0  0.2001811E-05  0.1798198E+04  0.7818609E-02  0.8707258E-01
        1   -1    0    0  501    0  0.00000000000E+00  0.00000000000E+00  0.92000650510E+03  0.92000650511E+03  0.50400001928E-02 0. -1.
       -1   -1    0    0    0  501  0.00000000000E+00  0.00000000000E+00 -0.87866649017E+03  0.87866649018E+03  0.50400001928E-02 0.  1.
    10030    2    1    2    0    0  0.00000000000E+00  0.00000000000E+00  0.41340014930E+02  0.17986729953E+04  0.17981978610E+04 0.  0.
        2    1    3    3  502    0 -0.55369322494E+03 -0.24809376826E+03  0.68436034662E+03  0.91459050357E+03  0.25500000920E-02 0. -1.
       -2    1    3    3    0  502  0.55369322494E+03  0.24809376826E+03 -0.64302033169E+03  0.88408249172E+03  0.25500000920E-02 0.  1.
</event>
<event>
 5   0  0.1906857E-05  0.1793415E+04  0.7818609E-02  0.8709809E-01
       -1   -1    0    0    0  501  0.00000000000E+00  0.00000000000E+00  0.42669673366E+03  0.42669673369E+03  0.50400001928E-02 0. -1.
        1   -1    0    0  501    0  0.00000000000E+00  0.00000000000E+00 -0.18844403457E+04  0.18844403457E+04  0.50400001928E-02 0.  1.
    10030    2    1    2    0    0  0.00000000000E+00  0.00000000000E+00 -0.14577436121E+04  0.23111370794E+04  0.17934152228E+04 0.  0.
        4    1    3    3  502    0 -0.10112612169E+03 -0.56314778029E+03  0.16089664146E+03  0.59434944020E+03  0.12699999809E+01 0. -1.
       -4    1    3    3    0  502  0.10112612169E+03  0.56314778029E+03 -0.16186402535E+04  0.17167876392E+04  0.12699999809E+01 0.  1.
</event>
<event>
 5   0  0.3984648E-05  0.1813080E+04  0.7818609E-02  0.8699375E-01
       -2   -1    0    0    0  501  0.00000000000E+00  0.00000000000E+00  0.54643896365E+03  0.54643896365E+03  0.25500000920E-02 0. -1.
        2   -1    0    0  501    0  0.00000000000E+00  0.00000000000E+00 -0.15039454906E+04  0.15039454906E+04  0.25500000920E-02 0.  1.
    10030    2    1    2    0    0  0.00000000000E+00  0.00000000000E+00 -0.95750652692E+03  0.20503844542E+04  0.18130796069E+04 0.  0.
        1    1    3    3  502    0 -0.80562743310E+03  0.21098723245E+03 -0.88376679553E+03  0.12143290008E+04  0.50400001928E-02 0. -1.
       -1    1    3    3    0  502  0.80562743310E+03 -0.21098723245E+03 -0.73739731389E+02  0.83605545344E+03  0.50400001928E-02 0.  1.
</event>
<event>
 5   0  0.2038338E-05  0.1800942E+04  0.7818609E-02  0.8705799E-01
       -1   -1    0    0    0  501  0.00000000000E+00  0.00000000000E+00  0.69950512675E+03  0.69950512677E+03  0.50400001928E-02 0.  1.
        1   -1    0    0  501    0  0.00000000000E+00  0.00000000000E+00 -0.11591741256E+04  0.11591741256E+04  0.50400001928E-02 0. -1.
    10030    2    1    2    0    0  0.00000000000E+00  0.00000000000E+00 -0.45966899883E+03  0.18586792524E+04  0.18009422463E+04 0.  0.
        1    1    3    3  502    0 -0.45943754498E+03 -0.38267286530E+02 -0.10281315595E+04  0.11267660568E+04  0.50400001928E-02 0. -1.
       -1    1    3    3    0  502  0.45943754498E+03  0.38267286530E+02  0.56846256069E+03  0.73191319560E+03  0.50400001928E-02 0.  1.
</event>
<event>
 5   0  0.1906857E-05  0.1801925E+04  0.7818609E-02  0.8705276E-01
        1   -1    0    0  501    0  0.00000000000E+00  0.00000000000E+00  0.13082058118E+04  0.13082058118E+04  0.50400001928E-02 0.  1.
       -1   -1    0    0    0  501  0.00000000000E+00  0.00000000000E+00 -0.62049369040E+03  0.62049369042E+03  0.50400001928E-02 0. -1.
    10030    2    1    2    0    0  0.00000000000E+00  0.00000000000E+00  0.68771212143E+03  0.19286995023E+04  0.18019250284E+04 0.  0.
        4    1    3    3  502    0  0.88360497565E+03  0.17201378211E+03  0.38369491152E+03  0.97855500216E+03  0.12699999809E+01 0. -1.
       -4    1    3    3    0  502 -0.88360497565E+03 -0.17201378211E+03  0.30401720990E+03  0.95014450009E+03  0.12699999809E+01 0.  1.
</event>
<event>
 5   0  0.4015729E-05  0.1800483E+04  0.7818609E-02  0.8706043E-01
       -2   -1    0    0    0  501  0.00000000000E+00  0.00000000000E+00  0.74744800133E+03  0.74744800134E+03  0.25500000920E-02 0. -1.
        2   -1    0    0  501    0  0.00000000000E+00  0.00000000000E+00 -0.10842692289E+04  0.10842692289E+04  0.25500000920E-02 0.  1.
    10030    2    1    2    0    0  0.00000000000E+00  0.00000000000E+00 -0.33682122758E+03  0.18317172303E+04  0.18004831219E+04 0.  0.
        2    1    3    3  502    0  0.46038166499E+03 -0.60325398973E+03  0.32431365892E+03  0.82525511386E+03  0.25500000920E-02 0. -1.
       -2    1    3    3    0  502 -0.46038166499E+03  0.60325398973E+03 -0.66113488650E+03  0.10064621164E+04  0.25500000920E-02 0.  1.
</event>
<event>
 5   0  0.4015729E-05  0.1798625E+04  0.7818609E-02  0.8707031E-01
       -2   -1    0    0    0  501  0.00000000000E+00  0.00000000000E+00  0.76301054063E+03  0.76301054063E+03  0.25500000920E-02 0.  1.
        2   -1    0    0  501    0  0.00000000000E+00  0.00000000000E+00 -0.10599632789E+04  0.10599632789E+04  0.25500000920E-02 0. -1.
    10030    2    1    2    0    0  0.00000000000E+00  0.00000000000E+00 -0.29695273829E+03  0.18229738196E+04  0.17986252022E+04 0.  0.
        2    1    3    3  502    0  0.63385196425E+03 -0.26778037002E+03  0.43840334226E+03  0.81588732657E+03  0.25500000920E-02 0.  1.
       -2    1    3    3    0  502 -0.63385196425E+03  0.26778037002E+03 -0.73535608055E+03  0.10070864930E+04  0.25500000920E-02 0. -1.
</event>
<event>
 5   0  0.3993393E-05  0.1801150E+04  0.7818609E-02  0.8705688E-01
       -2   -1    0    0    0  501  0.00000000000E+00  0.00000000000E+00  0.51651322979E+03  0.51651322980E+03  0.25500000920E-02 0.  1.
        2   -1    0    0  501    0  0.00000000000E+00  0.00000000000E+00 -0.15702129828E+04  0.15702129828E+04  0.25500000920E-02 0. -1.
    10030    2    1    2    0    0  0.00000000000E+00  0.00000000000E+00 -0.10536997530E+04  0.20867262126E+04  0.18011504981E+04 0.  0.
        5    1    3    3  502    0 -0.10499852561E+03 -0.14117577434E+03 -0.15500934549E+04  0.15600535563E+04  0.46999998093E+01 0. -1.
       -5    1    3    3    0  502  0.10499852561E+03  0.14117577434E+03  0.49639370187E+03  0.52667265630E+03  0.46999998093E+01 0.  1.
</event>
<event>
 5   0  0.3984648E-05  0.1800409E+04  0.7818609E-02  0.8706082E-01
       -2   -1    0    0    0  501  0.00000000000E+00  0.00000000000E+00  0.65282418360E+03  0.65282418361E+03  0.25500000920E-02 0. -1.
        2   -1    0    0  501    0  0.00000000000E+00  0.00000000000E+00 -0.12413272154E+04  0.12413272154E+04  0.25500000920E-02 0.  1.
    10030    2    1    2    0    0  0.00000000000E+00  0.00000000000E+00 -0.58850303177E+03  0.18941513990E+04  0.18004093156E+04 0.  0.
        1    1    3    3  502    0 -0.37521886346E+03 -0.60588729619E+02 -0.11527719390E+04  0.12138135496E+04  0.50400001928E-02 0.  1.
       -1    1    3    3    0  502  0.37521886346E+03  0.60588729619E+02  0.56426890725E+03  0.68033784943E+03  0.50400001928E-02 0. -1.
</event>
<event>
 5   0  0.1960300E-05  0.1798698E+04  0.7818609E-02  0.8706992E-01
        1   -1    0    0  501    0  0.00000000000E+00  0.00000000000E+00  0.13579215567E+04  0.13579215567E+04  0.50400001928E-02 0.  1.
       -1   -1    0    0    0  501  0.00000000000E+00  0.00000000000E+00 -0.59563738664E+03  0.59563738666E+03  0.50400001928E-02 0. -1.
    10030    2    1    2    0    0  0.00000000000E+00  0.00000000000E+00  0.76228417008E+03  0.19535589434E+04  0.17986982485E+04 0.  0.
        3    1    3    3  502    0 -0.44735931995E+03 -0.78406961153E+00 -0.46622013232E+03  0.64613636169E+03  0.10100000352E+00 0. -1.
       -3    1    3    3    0  502  0.44735931995E+03  0.78406961153E+00  0.12285043024E+04  0.13074225817E+04  0.10100000352E+00 0.  1.
</event>
<event>
 5   0  0.3909859E-05  0.1801178E+04  0.7818609E-02  0.8705673E-01
        2   -1    0    0  501    0  0.00000000000E+00  0.00000000000E+00  0.13849912506E+04  0.13849912506E+04  0.25500000920E-02 0.  1.
       -2   -1    0    0    0  501  0.00000000000E+00  0.00000000000E+00 -0.58560728057E+03  0.58560728058E+03  0.25500000920E-02 0. -1.
    10030    2    1    2    0    0  0.00000000000E+00  0.00000000000E+00  0.79938397001E+03  0.19705985312E+04  0.18011784585E+04 0.  0.
        4    1    3    3  502    0 -0.12124978162E+03 -0.88174921644E+03  0.24937841211E+03  0.92432375040E+03  0.12699999809E+01 0.  1.
       -4    1    3    3    0  502  0.12124978162E+03  0.88174921644E+03  0.55000555791E+03  0.10462747808E+04  0.12699999809E+01 0. -1.
</event>
<event>
 5   0  0.3993393E-05  0.1795779E+04  0.7818609E-02  0.8708548E-01
       -2   -1    0    0    0  501  0.00000000000E+00  0.00000000000E+00  0.55520171760E+03  0.55520171761E+03  0.25500000920E-02 0.  1.
        2   -1    0    0  501    0  0.00000000000E+00  0.00000000000E+00 -0.14520941482E+04  0.14520941482E+04  0.25500000920E-02 0. -1.
    10030    2    1    2    0    0  0.00000000000E+00  0.00000000000E+00 -0.89689243063E+03  0.20072958658E+04  0.17957785668E+04 0.  0.
        5    1    3    3  502    0  0.60529372261E+03  0.65595360956E+03 -0.33934065844E+03  0.95489779610E+03  0.46999998093E+01 0. -1.
       -5    1    3    3    0  502 -0.60529372261E+03 -0.65595360956E+03 -0.55755177218E+03  0.10523980697E+04  0.46999998093E+01 0.  1.
</event>
<event>
 5   0  0.3983176E-05  0.1799963E+04  0.7818609E-02  0.8706319E-01
        2   -1    0    0  501    0  0.00000000000E+00  0.00000000000E+00  0.64253818814E+03  0.64253818814E+03  0.25500000920E-02 0.  1.
       -2   -1    0    0    0  501  0.00000000000E+00  0.00000000000E+00 -0.12605733560E+04  0.12605733560E+04  0.25500000920E-02 0. -1.
    10030    2    1    2    0    0  0.00000000000E+00  0.00000000000E+00 -0.61803516786E+03  0.19031115441E+04  0.17999627998E+04 0.  0.
        3    1    3    3  502    0 -0.72300096652E+03 -0.10124151328E+03 -0.86547230810E+03  0.11322643542E+04  0.10100000352E+00 0. -1.
       -3    1    3    3    0  502  0.72300096652E+03  0.10124151328E+03  0.24743714024E+03  0.77084718990E+03  0.10100000352E+00 0.  1.
</event>
<event>
 5   0  0.2038338E-05  0.1803028E+04  0.7818609E-02  0.8704691E-01
        1   -1    0    0  501    0  0.00000000000E+00  0.00000000000E+00  0.48035896287E+03  0.48035896289E+03  0.50400001928E-02 0. -1.
       -1   -1    0    0    0  501  0.00000000000E+00  0.00000000000E+00 -0.16919165606E+04  0.16919165607E+04  0.50400001928E-02 0.  1.
    10030    2    1    2    0    0  0.00000000000E+00  0.00000000000E+00 -0.12115575978E+04  0.21722755235E+04  0.18030277695E+04 0.  0.
        1    1    3    3  502    0 -0.68457347241E+03 -0.44712179680E+03 -0.14832446185E+03  0.83099872822E+03  0.50400001928E-02 0. -1.
       -1    1    3    3    0  502  0.68457347241E+03  0.44712179680E+03 -0.10632331359E+04  0.13412767953E+04  0.50400001928E-02 0.  1.
</event>
<event>
 5   0  0.1446750E-05  0.1796494E+04  0.7818609E-02  0.8708166E-01
       -4   -1    0    0    0  501  0.00000000000E+00  0.00000000000E+00  0.80490666318E+03  0.80490766509E+03  0.12699999809E+01 0.  1.
        4   -1    0    0  501    0  0.00000000000E+00  0.00000000000E+00 -0.10024099610E+04  0.10024107655E+04  0.12699999809E+01 0. -1.
    10030    2    1    2    0    0  0.00000000000E+00  0.00000000000E+00 -0.19750329777E+03  0.18073184306E+04  0.17964944633E+04 0.  0.
        5    1    3    3  502    0 -0.77725583826E+03  0.29363321872E+03 -0.44209798188E+03  0.94118001510E+03  0.46999998093E+01 0. -1.
       -5    1    3    3    0  502  0.77725583826E+03 -0.29363321872E+03  0.24459468410E+03  0.86613841546E+03  0.46999998093E+01 0.  1.
</event>
<event>
 5   0  0.2001811E-05  0.1801581E+04  0.7818609E-02  0.8705459E-01
       -1   -1    0    0    0  501  0.00000000000E+00  0.00000000000E+00  0.62469239642E+03  0.62469239645E+03  0.50400001928E-02 0.  1.
        1   -1    0    0  501    0  0.00000000000E+00  0.00000000000E+00 -0.12989172101E+04  0.12989172101E+04  0.50400001928E-02 0. -1.
    10030    2    1    2    0    0  0.00000000000E+00  0.00000000000E+00 -0.67422481371E+03  0.19236096066E+04  0.18015811997E+04 0.  0.
        2    1    3    3  502    0  0.49190724841E+03  0.20144998470E+02 -0.11425584577E+04  0.12441134962E+04  0.25500000920E-02 0. -1.
       -2    1    3    3    0  502 -0.49190724841E+03 -0.20144998470E+02  0.46833364400E+03  0.67949611044E+03  0.25500000920E-02 0.  1.
</event>
<event>
 5   0  0.4015729E-05  0.1814033E+04  0.7818609E-02  0.8698872E-01
        2   -1    0    0  501    0  0.00000000000E+00  0.00000000000E+00  0.17357611696E+04  0.17357611696E+04  0.25500000920E-02 0.  1.
       -2   -1    0    0    0  501  0.00000000000E+00  0.00000000000E+00 -0.47395856261E+03  0.47395856262E+03  0.25500000920E-02 0. -1.
    10030    2    1    2    0    0  0.00000000000E+00  0.00000000000E+00  0.12618026070E+04  0.22097197323E+04  0.18140329314E+04 0.  0.
        2    1    3    3  502    0 -0.49828831068E+03  0.43509451019E+03  0.13868071975E+04  0.15365001388E+04  0.25500000920E-02 0.  1.
       -2    1    3    3    0  502  0.49828831068E+03 -0.43509451019E+03 -0.12500459052E+03  0.67321959346E+03  0.25500000920E-02 0. -1.
</event>
<event>
 5   0  0.3909859E-05  0.1800064E+04  0.7818609E-02  0.8706265E-01
       -2   -1    0    0    0  501  0.00000000000E+00  0.00000000000E+00  0.12170547751E+04  0.12170547751E+04  0.25500000920E-02 0.  1.
        2   -1    0    0  501    0  0.00000000000E+00  0.00000000000E+00 -0.66558872624E+03  0.66558872625E+03  0.25500000920E-02 0. -1.
    10030    2    1    2    0    0  0.00000000000E+00  0.00000000000E+00  0.55146604889E+03  0.18826435014E+04  0.18000643739E+04 0.  0.
        4    1    3    3  502    0 -0.11687346696E+03  0.79248654649E+03  0.70487607037E+03  0.10670268137E+04  0.12699999809E+01 0.  1.
       -4    1    3    3    0  502  0.11687346696E+03 -0.79248654649E+03 -0.15341002148E+03  0.81561668769E+03  0.12699999809E+01 0. -1.
</event>
<event>
 5   0  0.3993393E-05  0.1796049E+04  0.7818609E-02  0.8708404E-01
        2   -1    0    0  501    0  0.00000000000E+00  0.00000000000E+00  0.14632673523E+04  0.14632673523E+04  0.25500000920E-02 0. -1.
       -2   -1    0    0    0  501  0.00000000000E+00  0.00000000000E+00 -0.55112797887E+03  0.55112797888E+03  0.25500000920E-02 0.  1.
    10030    2    1    2    0    0  0.00000000000E+00  0.00000000000E+00  0.91213937340E+03  0.20143953311E+04  0.17960485276E+04 0.  0.
        5    1    3    3  502    0  0.79894453544E+03  0.13529376403E+03  0.21964295892E+02  0.81063018300E+03  0.46999998093E+01 0.  1.
       -5    1    3    3    0  502 -0.79894453544E+03 -0.13529376403E+03  0.89017507751E+03  0.12037651482E+04  0.46999998093E+01 0. -1.
</event>
<event>
 5   0  0.1906857E-05  0.1801156E+04  0.7818609E-02  0.8705685E-01
       -1   -1    0    0    0  501  0.00000000000E+00  0.00000000000E+00  0.10346040787E+04  0.10346040787E+04  0.50400001928E-02 0. -1.
        1   -1    0    0  501    0  0.00000000000E+00  0.00000000000E+00 -0.78391451008E+03  0.78391451010E+03  0.50400001928E-02 0.  1.
    10030    2    1    2    0    0  0.00000000000E+00  0.00000000000E+00  0.25068956862E+03  0.18185185888E+04  0.18011564613E+04 0.  0.
        4    1    3    3  502    0 -0.69796347511E+03  0.16982482220E+03 -0.42307259558E+03  0.83365791357E+03  0.12699999809E+01 0. -1.
       -4    1    3    3    0  502  0.69796347511E+03 -0.16982482220E+03  0.67376216420E+03  0.98486067524E+03  0.12699999809E+01 0.  1.
</event>
<event>
 5   0  0.1906857E-05  0.1800787E+04  0.7818609E-02  0.8705881E-01
       -1   -1    0    0    0  501  0.00000000000E+00  0.00000000000E+00  0.92045989715E+03  0.92045989716E+03  0.50400001928E-02 0. -1.
        1   -1    0    0  501    0  0.00000000000E+00  0.00000000000E+00 -0.88076428566E+03  0.88076428568E+03  0.50400001928E-02 0.  1.
    10030    2    1    2    0    0  0.00000000000E+00  0.00000000000E+00  0.39695611488E+02  0.18012241828E+04  0.18007867212E+04 0.  0.
        4    1    3    3  502    0 -0.54918540741E+03  0.59618793107E+02  0.73103922297E+03  0.91628541985E+03  0.12699999809E+01 0. -1.
       -4    1    3    3    0  502  0.54918540741E+03 -0.59618793107E+02 -0.69134361148E+03  0.88493876299E+03  0.12699999809E+01 0.  1.
</event>
<event>
 5   0  0.4015729E-05  0.1801553E+04  0.7818609E-02  0.8705474E-01
        2   -1    0    0  501    0  0.00000000000E+00  0.00000000000E+00  0.18328434127E+04  0.18328434127E+04  0.25500000920E-02 0. -1.
       -2   -1    0    0    0  501  0.00000000000E+00  0.00000000000E+00 -0.44269896965E+03  0.44269896966E+03  0.25500000920E-02 0.  1.
    10030    2    1    2    0    0  0.00000000000E+00  0.00000000000E+00  0.13901444430E+04  0.22755423823E+04  0.18015525419E+04 0.  0.
        2    1    3    3  502    0  0.12296955750E+03  0.37432430062E+03 -0.32808437722E+03  0.51271780999E+03  0.25500000920E-02 0.  1.
       -2    1    3    3    0  502 -0.12296955750E+03 -0.37432430062E+03  0.17182288202E+04  0.17628245723E+04  0.25500000920E-02 0. -1.
</event>
<event>
 5   0  0.3984648E-05  0.1798252E+04  0.7818609E-02  0.8707230E-01
       -2   -1    0    0    0  501  0.00000000000E+00  0.00000000000E+00  0.52807644222E+03  0.52807644223E+03  0.25500000920E-02 0. -1.
        2   -1    0    0  501    0  0.00000000000E+00  0.00000000000E+00 -0.15308914126E+04  0.15308914126E+04  0.25500000920E-02 0.  1.
    10030    2    1    2    0    0  0.00000000000E+00  0.00000000000E+00 -0.10028149703E+04  0.20589678548E+04  0.17982521409E+04 0.  0.
        1    1    3    3  502    0  0.70011737879E+03 -0.26352531179E+03 -0.10725436557E+04  0.13076543226E+04  0.50400001928E-02 0.  1.
       -1    1    3    3    0  502 -0.70011737879E+03  0.26352531179E+03  0.69728685355E+02  0.75131353218E+03  0.50400001928E-02 0. -1.
</event>
<event>
 5   0  0.3984648E-05  0.1795462E+04  0.7818609E-02  0.8708716E-01
       -2   -1    0    0    0  501  0.00000000000E+00  0.00000000000E+00  0.58418426381E+03  0.58418426382E+03  0.25500000920E-02 0. -1.
        2   -1    0    0  501    0  0.00000000000E+00  0.00000000000E+00 -0.13795663548E+04  0.13795663548E+04  0.25500000920E-02 0.  1.
    10030    2    1    2    0    0  0.00000000000E+00  0.00000000000E+00 -0.79538209103E+03  0.19637506187E+04  0.17954620078E+04 0.  0.
        1    1    3    3  502    0 -0.31002715655E+03  0.79593106078E+03 -0.95580207836E+02  0.85951071399E+03  0.50400001928E-02 0.  1.
       -1    1    3    3    0  502  0.31002715655E+03 -0.79593106078E+03 -0.69980188319E+03  0.11042399047E+04  0.50400001928E-02 0. -1.
</event>
<event>
 5   0  0.2001811E-05  0.1799359E+04  0.7818609E-02  0.8706640E-01
        1   -1    0    0  501    0  0.00000000000E+00  0.00000000000E+00  0.94252758253E+03  0.94252758254E+03  0.50400001928E-02 0. -1.
       -1   -1    0    0    0  501  0.00000000000E+00  0.00000000000E+00 -0.85877932153E+03  0.85877932154E+03  0.50400001928E-02 0.  1.
    10030    2    1    2    0    0  0.00000000000E+00  0.00000000000E+00  0.83748261005E+02  0.18013069041E+04  0.17993589946E+04 0.  0.
        2    1    3    3  502    0 -0.61700759149E+03 -0.10266808781E+03  0.68924573966E+03  0.93075173589E+03  0.25500000920E-02 0. -1.
       -2    1    3    3    0  502  0.61700759149E+03  0.10266808781E+03 -0.60549747865E+03  0.87055516820E+03  0.25500000920E-02 0.  1.
</event>
<event>
 5   0  0.3993393E-05  0.1801015E+04  0.7818609E-02  0.8705760E-01
       -2   -1    0    0    0  501  0.00000000000E+00  0.00000000000E+00  0.56854008884E+03  0.56854008884E+03  0.25500000920E-02 0.  1.
        2   -1    0    0  501    0  0.00000000000E+00  0.00000000000E+00 -0.14263083249E+04  0.14263083249E+04  0.25500000920E-02 0. -1.
    10030    2    1    2    0    0  0.00000000000E+00  0.00000000000E+00 -0.85776823602E+03  0.19948484137E+04  0.18010146715E+04 0.  0.
        5    1    3    3  502    0 -0.86036302306E+03 -0.14951447212E+03 -0.67234059832E+03  0.11021084697E+04  0.46999998093E+01 0. -1.
       -5    1    3    3    0  502  0.86036302306E+03  0.14951447212E+03 -0.18542763770E+03  0.89273994401E+03  0.46999998093E+01 0.  1.
</event>
<event>
 5   0  0.1906857E-05  0.1796288E+04  0.7818609E-02  0.8708276E-01
       -1   -1    0    0    0  501  0.00000000000E+00  0.00000000000E+00  0.20370834342E+04  0.20370834342E+04  0.50400001928E-02 0.  1.
        1   -1    0    0  501    0  0.00000000000E+00  0.00000000000E+00 -0.39598922232E+03  0.39598922235E+03  0.50400001928E-02 0. -1.
    10030    2    1    2    0    0  0.00000000000E+00  0.00000000000E+00  0.16410942119E+04  0.24330726566E+04  0.17962884902E+04 0.  0.
        4    1    3    3  502    0  0.53360226115E+03  0.59753621222E+03  0.27054578021E+03  0.84556343943E+03  0.12699999809E+01 0. -1.
       -4    1    3    3    0  502 -0.53360226115E+03 -0.59753621222E+03  0.13705484317E+04  0.15875092172E+04  0.12699999809E+01 0.  1.
</event>
<event>
 5   0  0.2038338E-05  0.1800801E+04  0.7818609E-02  0.8705874E-01
        1   -1    0    0  501    0  0.00000000000E+00  0.00000000000E+00  0.14488774159E+04  0.14488774159E+04  0.50400001928E-02 0. -1.
       -1   -1    0    0    0  501  0.00000000000E+00  0.00000000000E+00 -0.55955100982E+03  0.55955100985E+03  0.50400001928E-02 0.  1.
    10030    2    1    2    0    0  0.00000000000E+00  0.00000000000E+00  0.88932640604E+03  0.20084284257E+04  0.18008007343E+04 0.  0.
        1    1    3    3  502    0 -0.24824847343E+03 -0.49670843960E+03  0.12351677686E+04  0.13542473907E+04  0.50400001928E-02 0. -1.
       -1    1    3    3    0  502  0.24824847343E+03  0.49670843960E+03 -0.34584136256E+03  0.65418103505E+03  0.50400001928E-02 0.  1.
</event>
<event>
 5   0  0.2038338E-05  0.1800945E+04  0.7818609E-02  0.8705797E-01
       -1   -1    0    0    0  501  0.00000000000E+00  0.00000000000E+00  0.69434486143E+03  0.69434486145E+03  0.50400001928E-02 0. -1.
        1   -1    0    0  501    0  0.00000000000E+00  0.00000000000E+00 -0.11677919683E+04  0.11677919683E+04  0.50400001928E-02 0.  1.
    10030    2    1    2    0    0  0.00000000000E+00  0.00000000000E+00 -0.47344710686E+03  0.18621368298E+04  0.18009445882E+04 0.  0.
        1    1    3    3  502    0 -0.94470195643E+02 -0.45662336133E+03 -0.10332361279E+04  0.11335812313E+04  0.50400001928E-02 0.  1.
       -1    1    3    3    0  502  0.94470195643E+02  0.45662336133E+03  0.55978902101E+03  0.72855559846E+03  0.50400001928E-02 0. -1.
</event>
<event>
 5   0  0.2001811E-05  0.1800238E+04  0.7818609E-02  0.8706173E-01
       -1   -1    0    0    0  501  0.00000000000E+00  0.00000000000E+00  0.69406974897E+03  0.69406974899E+03  0.50400001928E-02 0. -1.
        1   -1    0    0  501    0  0.00000000000E+00  0.00000000000E+00 -0.11673383619E+04  0.11673383619E+04  0.50400001928E-02 0.  1.
    10030    2    1    2    0    0  0.00000000000E+00  0.00000000000E+00 -0.47326861292E+03  0.18614081109E+04  0.18002380330E+04 0.  0.
        2    1    3    3  502    0  0.46056367074E+03  0.55774900039E+02  0.56092777632E+03  0.72792149614E+03  0.25500000920E-02 0. -1.
       -2    1    3    3    0  502 -0.46056367074E+03 -0.55774900039E+02 -0.10341963892E+04  0.11334866148E+04  0.25500000920E-02 0.  1.
</event>
<event>
 5   0  0.2038338E-05  0.1799613E+04  0.7818609E-02  0.8706505E-01
       -1   -1    0    0    0  501  0.00000000000E+00  0.00000000000E+00  0.13801979905E+04  0.13801979905E+04  0.50400001928E-02 0. -1.
        1   -1    0    0  501    0  0.00000000000E+00  0.00000000000E+00 -0.58661988984E+03  0.58661988986E+03  0.50400001928E-02 0.  1.
    10030    2    1    2    0    0  0.00000000000E+00  0.00000000000E+00  0.79357810062E+03  0.19668178803E+04  0.17996128396E+04 0.  0.
        1    1    3    3  502    0  0.68184192439E+03 -0.44886061446E+03 -0.16885355233E+02  0.81649824024E+03  0.50400001928E-02 0.  1.
       -1    1    3    3    0  502 -0.68184192439E+03  0.44886061446E+03  0.81046345585E+03  0.11503196401E+04  0.50400001928E-02 0. -1.
</event>
<event>
 5   0  0.3983176E-05  0.1794634E+04  0.7818609E-02  0.8709158E-01
        2   -1    0    0  501    0  0.00000000000E+00  0.00000000000E+00  0.94879895505E+03  0.94879895506E+03  0.25500000920E-02 0. -1.
       -2   -1    0    0    0  501  0.00000000000E+00  0.00000000000E+00 -0.84862835931E+03  0.84862835932E+03  0.25500000920E-02 0.  1.
    10030    2    1    2    0    0  0.00000000000E+00  0.00000000000E+00  0.10017059574E+03  0.17974273144E+04  0.17946338909E+04 0.  0.
        3    1    3    3  502    0  0.52718900251E+02  0.23158751191E+03 -0.81657404529E+03  0.85041474573E+03  0.10100000352E+00 0.  1.
       -3    1    3    3    0  502 -0.52718900251E+02 -0.23158751191E+03  0.91674464103E+03  0.94701256864E+03  0.10100000352E+00 0. -1.
</event>
<event>
 5   0  0.1960300E-05  0.1800587E+04  0.7818609E-02  0.8705987E-01
       -1   -1    0    0    0  501  0.00000000000E+00  0.00000000000E+00  0.78837974762E+03  0.78837974764E+03  0.50400001928E-02 0. -1.
        1   -1    0    0  501    0  0.00000000000E+00  0.00000000000E+00 -0.10280941180E+04  0.10280941180E+04  0.50400001928E-02 0.  1.
    10030    2    1    2    0    0  0.00000000000E+00  0.00000000000E+00 -0.23971437039E+03  0.18164738657E+04  0.18005872168E+04 0.  0.
        3    1    3    3  502    0 -0.16451974150E+03 -0.39419377480E+03  0.67964579279E+03  0.80272902731E+03  0.10100000352E+00 0. -1.
       -3    1    3    3    0  502  0.16451974150E+03  0.39419377480E+03 -0.91936016318E+03  0.10137448383E+04  0.10100000352E+00 0.  1.
</event>
<event>
 5   0  0.3909859E-05  0.1797814E+04  0.7818609E-02  0.8707463E-01
        2   -1    0    0  501    0  0.00000000000E+00  0.00000000000E+00  0.13967566531E+04  0.13967566531E+04  0.25500000920E-02 0. -1.
       -2   -1    0    0    0  501  0.00000000000E+00  0.00000000000E+00 -0.57850731558E+03  0.57850731559E+03  0.25500000920E-02 0.  1.
    10030    2    1    2    0    0  0.00000000000E+00  0.00000000000E+00  0.81824933751E+03  0.19752639687E+04  0.17978141638E+04 0.  0.
        4    1    3    3  502    0  0.22389549193E+03  0.56484258408E+03 -0.31872445043E+03  0.68612187277E+03  0.12699999809E+01 0.  1.
       -4    1    3    3    0  502 -0.22389549193E+03 -0.56484258408E+03  0.11369737879E+04  0.12891420959E+04  0.12699999809E+01 0. -1.
</event>
<event>
 5   0  0.3983176E-05  0.1800305E+04  0.7818609E-02  0.8706137E-01
        2   -1    0    0  501    0  0.00000000000E+00  0.00000000000E+00  0.25495722629E+04  0.25495722629E+04  0.25500000920E-02 0.  1.
       -2   -1    0    0    0  501  0.00000000000E+00  0.00000000000E+00 -0.31780805244E+03  0.31780805245E+03  0.25500000920E-02 0. -1.
    10030    2    1    2    0    0  0.00000000000E+00  0.00000000000E+00  0.22317642105E+04  0.28673803153E+04  0.18003050802E+04 0.  0.
        3    1    3    3  502    0 -0.75700228648E+03  0.91389412017E+02  0.18778448211E+04  0.20267475592E+04  0.10100000352E+00 0.  1.
       -3    1    3    3    0  502  0.75700228648E+03 -0.91389412017E+02  0.35391938936E+03  0.84063275616E+03  0.10100000352E+00 0. -1.
</event>
<event>
 5   0  0.4015729E-05  0.1802185E+04  0.7818609E-02  0.8705139E-01
       -2   -1    0    0    0  501  0.00000000000E+00  0.00000000000E+00  0.46254614908E+03  0.46254614908E+03  0.25500000920E-02 0.  1.
        2   -1    0    0  501    0  0.00000000000E+00  0.00000000000E+00 -0.17554299951E+04  0.17554299951E+04  0.25500000920E-02 0. -1.
    10030    2    1    2    0    0  0.00000000000E+00  0.00000000000E+00 -0.12928838460E+04  0.22179761442E+04  0.18021846567E+04 0.  0.
        2    1    3    3  502    0 -0.21684457478E+03  0.87381166067E+03 -0.69247456084E+03  0.11358210270E+04  0.25500000920E-02 0.  1.
       -2    1    3    3    0  502  0.21684457478E+03 -0.87381166067E+03 -0.60040928517E+03  0.10821551172E+04  0.25500000920E-02 0. -1.
</event>
<event>
 5   0  0.2054876E-05  0.1800435E+04  0.7818609E-02  0.8706068E-01
       -1   -1    0    0    0  501  0.00000000000E+00  0.00000000000E+00  0.81719985125E+03  0.81719985126E+03  0.50400001928E-02 0.  1.
        1   -1    0    0  501    0  0.00000000000E+00  0.00000000000E+00 -0.99166906529E+03  0.99166906530E+03  0.50400001928E-02 0. -1.
    10030    2    1    2    0    0  0.00000000000E+00  0.00000000000E+00 -0.17446921404E+03  0.18088689166E+04  0.18004352948E+04 0.  0.
        5    1    3    3  502    0  0.78746230659E+03 -0.36665607404E+03  0.15016902352E+03  0.88153637846E+03  0.46999998093E+01 0. -1.
       -5    1    3    3    0  502 -0.78746230659E+03  0.36665607404E+03 -0.32463823756E+03  0.92733253810E+03  0.46999998093E+01 0.  1.
</event>
<event>
 5   0  0.2038338E-05  0.1800497E+04  0.7818609E-02  0.8706035E-01
        1   -1    0    0  501    0  0.00000000000E+00  0.00000000000E+00  0.67804577796E+03  0.67804577798E+03  0.50400001928E-02 0.  1.
       -1   -1    0    0    0  501  0.00000000000E+00  0.00000000000E+00 -0.11952691091E+04  0.11952691091E+04  0.50400001928E-02 0. -1.
    10030    2    1    2    0    0  0.00000000000E+00  0.00000000000E+00 -0.51722333117E+03  0.18733148871E+04  0.18004967903E+04 0.  0.
        1    1    3    3  502    0  0.59165745971E+03  0.28631114986E+03 -0.89864463443E+03  0.11133709190E+04  0.50400001928E-02 0. -1.
       -1    1    3    3    0  502 -0.59165745971E+03 -0.28631114986E+03  0.38142130325E+03  0.75994396818E+03  0.50400001928E-02 0.  1.
</event>
<event>
 5   0  0.3909859E-05  0.1805377E+04  0.7818609E-02  0.8703445E-01
        2   -1    0    0  501    0  0.00000000000E+00  0.00000000000E+00  0.13867298374E+04  0.13867298375E+04  0.25500000920E-02 0.  1.
       -2   -1    0    0    0  501  0.00000000000E+00  0.00000000000E+00 -0.58760271011E+03  0.58760271012E+03  0.25500000920E-02 0. -1.
    10030    2    1    2    0    0  0.00000000000E+00  0.00000000000E+00  0.79912712734E+03  0.19743325476E+04  0.18053766484E+04 0.  0.
        4    1    3    3  502    0 -0.22355619791E+03 -0.84834921996E+03  0.16713928258E+03  0.89309065907E+03  0.12699999809E+01 0. -1.
       -4    1    3    3    0  502  0.22355619791E+03  0.84834921996E+03  0.63198784475E+03  0.10812418885E+04  0.12699999809E+01 0.  1.
</event>
<event>
 5   0  0.3909859E-05  0.1799628E+04  0.7818609E-02  0.8706497E-01
       -2   -1    0    0    0  501  0.00000000000E+00  0.00000000000E+00  0.87366666296E+03  0.87366666297E+03  0.25500000920E-02 0. -1.
        2   -1    0    0  501    0  0.00000000000E+00  0.00000000000E+00 -0.92674363914E+03  0.92674363914E+03  0.25500000920E-02 0.  1.
    10030    2    1    2    0    0  0.00000000000E+00  0.00000000000E+00 -0.53076976173E+02  0.18004103021E+04  0.17996277644E+04 0.  0.
        4    1    3    3  502    0  0.27967552109E+02 -0.50556773375E+02 -0.92488509416E+03  0.92668884833E+03  0.12699999809E+01 0.  1.
       -4    1    3    3    0  502 -0.27967552109E+02  0.50556773375E+02  0.87180811799E+03  0.87372145378E+03  0.12699999809E+01 0. -1.
</event>
<event>
 5   0  0.3993393E-05  0.1804509E+04  0.7818609E-02  0.8703905E-01
        2   -1    0    0  501    0  0.00000000000E+00  0.00000000000E+00  0.65165558749E+03  0.65165558749E+03  0.25500000920E-02 0. -1.
       -2   -1    0    0    0  501  0.00000000000E+00  0.00000000000E+00 -0.12492228900E+04  0.12492228900E+04  0.25500000920E-02 0.  1.
    10030    2    1    2    0    0  0.00000000000E+00  0.00000000000E+00 -0.59756730254E+03  0.19008784775E+04  0.18045088820E+04 0.  0.
        5    1    3    3  502    0  0.14228838923E+03  0.76185731295E+03  0.18780325214E+03  0.79747395100E+03  0.46999998093E+01 0. -1.
       -5    1    3    3    0  502 -0.14228838923E+03 -0.76185731295E+03 -0.78537055468E+03  0.11034045265E+04  0.46999998093E+01 0.  1.
</event>
<event>
 5   0  0.3983176E-05  0.1800614E+04  0.7818609E-02  0.8705973E-01
       -2   -1    0    0    0  501  0.00000000000E+00  0.00000000000E+00  0.67438777114E+03  0.67438777114E+03  0.25500000920E-02 0.  1.
        2   -1    0    0  501    0  0.00000000000E+00  0.00000000000E+00 -0.12019089154E+04  0.12019089154E+04  0.25500000920E-02 0. -1.
    10030    2    1    2    0    0  0.00000000000E+00  0.00000000000E+00 -0.52752114429E+03  0.18762966866E+04  0.18006139782E+04 0.  0.
        3    1    3    3  502    0 -0.52187245195E+03 -0.34349200262E+03  0.41172596383E+03  0.74823518459E+03  0.10100000352E+00 0.  1.
       -3    1    3    3    0  502  0.52187245195E+03  0.34349200262E+03 -0.93924710812E+03  0.11280615020E+04  0.10100000352E+00 0. -1.
</event>
<event>
 5   0  0.3909859E-05  0.1801132E+04  0.7818609E-02  0.8705698E-01
       -2   -1    0    0    0  501  0.00000000000E+00  0.00000000000E+00  0.51908875667E+03  0.51908875668E+03  0.25500000920E-02 0.  1.
        2   -1    0    0  501    0  0.00000000000E+00  0.00000000000E+00 -0.15623902302E+04  0.15623902302E+04  0.25500000920E-02 0. -1.
    10030    2    1    2    0    0  0.00000000000E+00  0.00000000000E+00 -0.10433014735E+04  0.20814789869E+04  0.18011320907E+04 0.  0.
        4    1    3    3  502    0 -0.14730741003E+03 -0.41499474528E+03  0.38617680106E+03  0.58570832864E+03  0.12699999809E+01 0.  1.
       -4    1    3    3    0  502  0.14730741003E+03  0.41499474528E+03 -0.14294782746E+04  0.14957706583E+04  0.12699999809E+01 0. -1.
</event>
<event>
 5   0  0.2054876E-05  0.1791938E+04  0.7818609E-02  0.8710599E-01
       -1   -1    0    0    0  501  0.00000000000E+00  0.00000000000E+00  0.70813518188E+03  0.70813518190E+03  0.50400001928E-02 0. -1.
        1   -1    0    0  501    0  0.00000000000E+00  0.00000000000E+00 -0.11336259120E+04  0.11336259120E+04  0.50400001928E-02 0.  1.
    10030    2    1    2    0    0  0.00000000000E+00  0.00000000000E+00 -0.42549073009E+03  0.18417610939E+04  0.17919379357E+04 0.  0.
        5    1    3    3  502    0  0.35775595126E+03 -0.54498953612E+03  0.41894487455E+03  0.77494503874E+03  0.46999998093E+01 0. -1.
       -5    1    3    3    0  502 -0.35775595126E+03  0.54498953612E+03 -0.84443560464E+03  0.10668160552E+04  0.46999998093E+01 0.  1.
</event>
<event>
 5   0  0.2001811E-05  0.1800917E+04  0.7818609E-02  0.8705812E-01
       -1   -1    0    0    0  501  0.00000000000E+00  0.00000000000E+00  0.45360686838E+03  0.45360686841E+03  0.50400001928E-02 0.  1.
        1   -1    0    0  501    0  0.00000000000E+00  0.00000000000E+00 -0.17875065747E+04  0.17875065747E+04  0.50400001928E-02 0. -1.
    10030    2    1    2    0    0  0.00000000000E+00  0.00000000000E+00 -0.13338997063E+04  0.22411134431E+04  0.18009167217E+04 0.  0.
        2    1    3    3  502    0  0.14845738410E+03 -0.66943903679E+03  0.59350316678E+02  0.68826643022E+03  0.25500000920E-02 0.  1.
       -2    1    3    3    0  502 -0.14845738410E+03  0.66943903679E+03 -0.13932500230E+04  0.15528470129E+04  0.25500000920E-02 0. -1.
</event>
<event>
 5   0  0.3909859E-05  0.1812098E+04  0.7818609E-02  0.8699892E-01
       -2   -1    0    0    0  501  0.00000000000E+00  0.00000000000E+00  0.73302533664E+03  0.73302533665E+03  0.25500000920E-02 0.  1.
        2   -1    0    0  501    0  0.00000000000E+00  0.00000000000E+00 -0.11199135197E+04  0.11199135197E+04  0.25500000920E-02 0. -1.
    10030    2    1    2    0    0  0.00000000000E+00  0.00000000000E+00 -0.38688818303E+03  0.18529388563E+04  0.18120982145E+04 0.  0.
        4    1    3    3  502    0  0.40512641655E+02 -0.59516217055E+02 -0.11169830354E+04  0.11193016432E+04  0.12699999809E+01 0. -1.
       -4    1    3    3    0  502 -0.40512641655E+02  0.59516217055E+02  0.73009485233E+03  0.73363721315E+03  0.12699999809E+01 0.  1.
</event>
<event>
 5   0  0.3983176E-05  0.1799324E+04  0.7818609E-02  0.8706659E-01
       -2   -1    0    0    0  501  0.00000000000E+00  0.00000000000E+00  0.60419621318E+03  0.60419621319E+03  0.25500000920E-02 0.  1.
        2   -1    0    0  501    0  0.00000000000E+00  0.00000000000E+00 -0.13396180472E+04  0.13396180472E+04  0.25500000920E-02 0. -1.
    10030    2    1    2    0    0  0.00000000000E+00  0.00000000000E+00 -0.73542183397E+03  0.19438142603E+04  0.17993244857E+04 0.  0.
        3    1    3    3  502    0 -0.32083980208E+03  0.80445329863E+03 -0.10462049625E+03  0.87236961588E+03  0.10100000352E+00 0.  1.
       -3    1    3    3    0  502  0.32083980208E+03 -0.80445329863E+03 -0.63080133772E+03  0.10714446445E+04  0.10100000352E+00 0. -1.
</event>
<event>
 5   0  0.1446750E-05  0.1800301E+04  0.7818609E-02  0.8706139E-01
        3   -1    0    0  501    0  0.00000000000E+00  0.00000000000E+00  0.74211407691E+03  0.74211408378E+03  0.10100000352E+00 0. -1.
       -3   -1    0    0    0  501  0.00000000000E+00  0.00000000000E+00 -0.10918418980E+04  0.10918419027E+04  0.10100000352E+00 0.  1.
    10030    2    1    2    0    0  0.00000000000E+00  0.00000000000E+00 -0.34972782112E+03  0.18339559865E+04  0.18003013668E+04 0.  0.
        4    1    3    3  502    0  0.52614286253E+03 -0.66155053082E+03  0.14042838453E+03  0.85685305666E+03  0.12699999809E+01 0. -1.
       -4    1    3    3    0  502 -0.52614286253E+03  0.66155053082E+03 -0.49015620565E+03  0.97710292982E+03  0.12699999809E+01 0.  1.
</event>
<event>
 5   0  0.4015729E-05  0.1800820E+04  0.7818609E-02  0.8705863E-01
        2   -1    0    0  501    0  0.00000000000E+00  0.00000000000E+00  0.74431725209E+03  0.74431725210E+03  0.25500000920E-02 0.  1.
       -2   -1    0    0    0  501  0.00000000000E+00  0.00000000000E+00 -0.10892377441E+04  0.10892377441E+04  0.25500000920E-02 0. -1.
    10030    2    1    2    0    0  0.00000000000E+00  0.00000000000E+00 -0.34492049200E+03  0.18335549962E+04  0.18008203070E+04 0.  0.
        2    1    3    3  502    0  0.29099513993E+03 -0.82654271605E+03 -0.38331746758E+03  0.95644305313E+03  0.25500000920E-02 0. -1.
       -2    1    3    3    0  502 -0.29099513993E+03  0.82654271605E+03  0.38396975584E+02  0.87711194306E+03  0.25500000920E-02 0.  1.
</event>
<event>
 5   0  0.3909859E-05  0.1795794E+04  0.7818609E-02  0.8708539E-01
        2   -1    0    0  501    0  0.00000000000E+00  0.00000000000E+00  0.88804890669E+03  0.88804890670E+03  0.25500000920E-02 0. -1.
       -2   -1    0    0    0  501  0.00000000000E+00  0.00000000000E+00 -0.90785434737E+03  0.90785434737E+03  0.25500000920E-02 0.  1.
    10030    2    1    2    0    0  0.00000000000E+00  0.00000000000E+00 -0.19805440672E+02  0.17959032541E+04  0.17957940423E+04 0.  0.
        4    1    3    3  502    0  0.62170808206E+03  0.62213912932E+03  0.17077207664E+03  0.89595912328E+03  0.12699999809E+01 0.  1.
       -4    1    3    3    0  502 -0.62170808206E+03 -0.62213912932E+03 -0.19057751731E+03  0.89994413078E+03  0.12699999809E+01 0. -1.
</event>
<event>
 5   0  0.2038338E-05  0.1798795E+04  0.7818609E-02  0.8706941E-01
       -1   -1    0    0    0  501  0.00000000000E+00  0.00000000000E+00  0.60255494982E+03  0.60255494984E+03  0.50400001928E-02 0. -1.
        1   -1    0    0  501    0  0.00000000000E+00  0.00000000000E+00 -0.13424764078E+04  0.13424764078E+04  0.50400001928E-02 0.  1.
    10030    2    1    2    0    0  0.00000000000E+00  0.00000000000E+00 -0.73992145795E+03  0.19450313576E+04  0.17987949350E+04 0.  0.
        1    1    3    3  502    0 -0.34391794988E+03  0.61221748103E+03  0.23771080731E+03  0.74134757588E+03  0.50400001928E-02 0. -1.
       -1    1    3    3    0  502  0.34391794988E+03 -0.61221748103E+03 -0.97763226526E+03  0.12036837817E+04  0.50400001928E-02 0.  1.
</event>
<event>
 5   0  0.4015729E-05  0.1778803E+04  0.7818609E-02  0.8717654E-01
        2   -1    0    0  501    0  0.00000000000E+00  0.00000000000E+00  0.20121408387E+04  0.20121408387E+04  0.25500000920E-02 0. -1.
       -2   -1    0    0    0  501  0.00000000000E+00  0.00000000000E+00 -0.39313094933E+03  0.39313094934E+03  0.25500000920E-02 0.  1.
    10030    2    1    2    0    0  0.00000000000E+00  0.00000000000E+00  0.16190098894E+04  0.24052717880E+04  0.17788027863E+04 0.  0.
        2    1    3    3  502    0 -0.48060205042E+03 -0.58466142430E+03  0.14411762097E+04  0.16278194554E+04  0.25500000920E-02 0. -1.
       -2    1    3    3    0  502  0.48060205042E+03  0.58466142430E+03  0.17783367968E+03  0.77745233266E+03  0.25500000920E-02 0.  1.
</event>
<event>
 5   0  0.2054876E-05  0.1799876E+04  0.7818609E-02  0.8706366E-01
       -1   -1    0    0    0  501  0.00000000000E+00  0.00000000000E+00  0.68520402809E+03  0.68520402810E+03  0.50400001928E-02 0.  1.
        1   -1    0    0  501    0  0.00000000000E+00  0.00000000000E+00 -0.11819664617E+04  0.11819664617E+04  0.50400001928E-02 0. -1.
    10030    2    1    2    0    0  0.00000000000E+00  0.00000000000E+00 -0.49676243361E+03  0.18671704898E+04  0.17998757520E+04 0.  0.
        5    1    3    3  502    0  0.89188082593E+03 -0.11723562282E+03 -0.22151922819E+03  0.92643858802E+03  0.46999998093E+01 0.  1.
       -5    1    3    3    0  502 -0.89188082593E+03  0.11723562282E+03 -0.27524320542E+03  0.94073190179E+03  0.46999998093E+01 0. -1.
</event>
<event>
 5   0  0.1960300E-05  0.1799278E+04  0.7818609E-02  0.8706683E-01
        1   -1    0    0  501    0  0.00000000000E+00  0.00000000000E+00  0.14488240560E+04  0.14488240560E+04  0.50400001928E-02 0. -1.
       -1   -1    0    0    0  501  0.00000000000E+00  0.00000000000E+00 -0.55862571978E+03  0.55862571981E+03  0.50400001928E-02 0.  1.
    10030    2    1    2    0    0  0.00000000000E+00  0.00000000000E+00  0.89019833617E+03  0.20074497758E+04  0.17992780565E+04 0.  0.
        3    1    3    3  502    0  0.36377465438E+03  0.56676860267E+03 -0.22039510918E+03  0.70861319667E+03  0.10100000352E+00 0.  1.
       -3    1    3    3    0  502 -0.36377465438E+03 -0.56676860267E+03  0.11105934454E+04  0.12988365791E+04  0.10100000352E+00 0. -1.
</event>
<event>
 5   0  0.3993393E-05  0.1800103E+04  0.7818609E-02  0.8706245E-01
        2   -1    0    0  501    0  0.00000000000E+00  0.00000000000E+00  0.14382715715E+04  0.14382715715E+04  0.25500000920E-02 0. -1.
       -2   -1    0    0    0  501  0.00000000000E+00  0.00000000000E+00 -0.56324054809E+03  0.56324054810E+03  0.25500000920E-02 0.  1.
    10030    2    1    2    0    0  0.00000000000E+00  0.00000000000E+00  0.87503102337E+03  0.20015121196E+04  0.18001031840E+04 0.  0.
        5    1    3    3  502    0  0.37550619835E+03  0.45200814432E+03  0.11955214900E+04  0.13321448835E+04  0.46999998093E+01 0. -1.
       -5    1    3    3    0  502 -0.37550619835E+03 -0.45200814432E+03 -0.32049046663E+03  0.66936723608E+03  0.46999998093E+01 0.  1.
</event>
<event>
 5   0  0.2054876E-05  0.1808710E+04  0.7818609E-02  0.8701681E-01
        1   -1    0    0  501    0  0.00000000000E+00  0.00000000000E+00  0.12057693918E+04  0.12057693918E+04  0.50400001928E-02 0.  1.
       -1   -1    0    0    0  501  0.00000000000E+00  0.00000000000E+00 -0.67828735483E+03  0.67828735485E+03  0.50400001928E-02 0. -1.
    10030    2    1    2    0    0  0.00000000000E+00  0.00000000000E+00  0.52748203694E+03  0.18840567466E+04  0.18087101828E+04 0.  0.
        5    1    3    3  502    0  0.56995525158E+03 -0.39078328077E+03 -0.34389054238E+03  0.77190890425E+03  0.46999998093E+01 0. -1.
       -5    1    3    3    0  502 -0.56995525158E+03  0.39078328077E+03  0.87137257932E+03  0.11121478424E+04  0.46999998093E+01 0.  1.
</event>
<event>
 5   0  0.3983176E-05  0.1799291E+04  0.7818609E-02  0.8706677E-01
        2   -1    0    0  501    0  0.00000000000E+00  0.00000000000E+00  0.22108767360E+04  0.22108767360E+04  0.25500000920E-02 0.  1.
       -2   -1    0    0    0  501  0.00000000000E+00  0.00000000000E+00 -0.36608199588E+03  0.36608199589E+03  0.25500000920E-02 0. -1.
    10030    2    1    2    0    0  0.00000000000E+00  0.00000000000E+00  0.18447947401E+04  0.25769587318E+04  0.17992911584E+04 0.  0.
        3    1    3    3  502    0 -0.44454456320E+03 -0.29053620870E+03  0.19624316870E+04  0.20330197475E+04  0.10100000352E+00 0.  1.
       -3    1    3    3    0  502  0.44454456320E+03  0.29053620870E+03 -0.11763694693E+03  0.54393898438E+03  0.10100000352E+00 0. -1.
</event>
<event>
 5   0  0.2038338E-05  0.1800327E+04  0.7818609E-02  0.8706125E-01
        1   -1    0    0  501    0  0.00000000000E+00  0.00000000000E+00  0.86586400747E+03  0.86586400749E+03  0.50400001928E-02 0.  1.
       -1   -1    0    0    0  501  0.00000000000E+00  0.00000000000E+00 -0.93582193378E+03  0.93582193380E+03  0.50400001928E-02 0. -1.
    10030    2    1    2    0    0  0.00000000000E+00  0.00000000000E+00 -0.69957926313E+02  0.18016859413E+04  0.18003272257E+04 0.  0.
        1    1    3    3  502    0  0.67312077577E+02 -0.16445282595E+03  0.84813752486E+03  0.86655231167E+03  0.50400001928E-02 0.  1.
       -1    1    3    3    0  502 -0.67312077577E+02  0.16445282595E+03 -0.91809545117E+03  0.93513362962E+03  0.50400001928E-02 0. -1.
</event>
<event>
 5   0  0.1960300E-05  0.1806112E+04  0.7818609E-02  0.8703056E-01
       -1   -1    0    0    0  501  0.00000000000E+00  0.00000000000E+00  0.10862884495E+04  0.10862884495E+04  0.50400001928E-02 0. -1.
        1   -1    0    0  501    0  0.00000000000E+00  0.00000000000E+00 -0.75073049690E+03  0.75073049692E+03  0.50400001928E-02 0.  1.
    10030    2    1    2    0    0  0.00000000000E+00  0.00000000000E+00  0.33555795260E+03  0.18370189464E+04  0.18061116992E+04 0.  0.
        3    1    3    3  502    0  0.28585321682E+03 -0.83619347077E+03  0.35691344888E+03  0.95305760703E+03  0.10100000352E+00 0.  1.
       -3    1    3    3    0  502 -0.28585321682E+03  0.83619347077E+03 -0.21355496280E+02  0.88396133940E+03  0.10100000352E+00 0. -1.
</event>
<event>
 5   0  0.3983176E-05  0.1800048E+04  0.7818609E-02  0.8706274E-01
       -2   -1    0    0    0  501  0.00000000000E+00  0.00000000000E+00  0.68913215692E+03  0.68913215692E+03  0.25500000920E-02 0.  1.
        2   -1    0    0  501    0  0.00000000000E+00  0.00000000000E+00 -0.11754541959E+04  0.11754541959E+04  0.25500000920E-02 0. -1.
    10030    2    1    2    0    0  0.00000000000E+00  0.00000000000E+00 -0.48632203894E+03  0.18645863528E+04  0.18000480942E+04 0.  0.
        3    1    3    3  502    0  0.16186668916E+03  0.32385290494E+03  0.61037341237E+03  0.70967403913E+03  0.10100000352E+00 0.  1.
       -3    1    3    3    0  502 -0.16186668916E+03 -0.32385290494E+03 -0.10966954513E+04  0.11549123136E+04  0.10100000352E+00 0. -1.
</event>
<event>
 5   0  0.3993393E-05  0.1805463E+04  0.7818609E-02  0.8703400E-01
        2   -1    0    0  501    0  0.00000000000E+00  0.00000000000E+00  0.68698368194E+03  0.68698368195E+03  0.25500000920E-02 0. -1.
       -2   -1    0    0    0  501  0.00000000000E+00  0.00000000000E+00 -0.11862350646E+04  0.11862350646E+04  0.25500000920E-02 0.  1.
    10030    2    1    2    0    0  0.00000000000E+00  0.00000000000E+00 -0.49925138270E+03  0.18732187466E+04  0.18054629682E+04 0.  0.
        5    1    3    3  502    0 -0.19397480942E+02 -0.34374363729E+03 -0.11154279577E+04  0.11673635121E+04  0.46999998093E+01 0.  1.
       -5    1    3    3    0  502  0.19397480942E+02  0.34374363729E+03  0.61617657504E+03  0.70585523450E+03  0.46999998093E+01 0. -1.
</event>
<event>
 5   0  0.3993393E-05  0.1803177E+04  0.7818609E-02  0.8704612E-01
        2   -1    0    0  501    0  0.00000000000E+00  0.00000000000E+00  0.53349010674E+03  0.53349010674E+03  0.25500000920E-02 0. -1.
       -2   -1    0    0    0  501  0.00000000000E+00  0.00000000000E+00 -0.15236687458E+04  0.15236687458E+04  0.25500000920E-02 0.  1.
    10030    2    1    2    0    0  0.00000000000E+00  0.00000000000E+00 -0.99017863905E+03  0.20571588525E+04  0.18031774198E+04 0.  0.
        5    1    3    3  502    0  0.58263677355E+03  0.26332467129E+03  0.23007872501E+03  0.67953204642E+03  0.46999998093E+01 0. -1.
       -5    1    3    3    0  502 -0.58263677355E+03 -0.26332467129E+03 -0.12202573641E+04  0.13776268061E+04  0.46999998093E+01 0.  1.
</event>
<event>
 5   0  0.1906857E-05  0.1805583E+04  0.7818609E-02  0.8703336E-01
        1   -1    0    0  501    0  0.00000000000E+00  0.00000000000E+00  0.16127283490E+04  0.16127283490E+04  0.50400001928E-02 0. -1.
       -1   -1    0    0    0  501  0.00000000000E+00  0.00000000000E+00 -0.50537477952E+03  0.50537477955E+03  0.50400001928E-02 0.  1.
    10030    2    1    2    0    0  0.00000000000E+00  0.00000000000E+00  0.11073535695E+04  0.21181031286E+04  0.18055827135E+04 0.  0.
        4    1    3    3  502    0  0.57906165863E+03 -0.23547835847E+03  0.13177763161E+04  0.14585261376E+04  0.12699999809E+01 0. -1.
       -4    1    3    3    0  502 -0.57906165863E+03  0.23547835847E+03 -0.21042274665E+03  0.65957699097E+03  0.12699999809E+01 0.  1.
</event>
<event>
 5   0  0.2054876E-05  0.1798821E+04  0.7818609E-02  0.8706927E-01
        1   -1    0    0  501    0  0.00000000000E+00  0.00000000000E+00  0.73258422766E+03  0.73258422767E+03  0.50400001928E-02 0.  1.
       -1   -1    0    0    0  501  0.00000000000E+00  0.00000000000E+00 -0.11042266549E+04  0.11042266549E+04  0.50400001928E-02 0. -1.
    10030    2    1    2    0    0  0.00000000000E+00  0.00000000000E+00 -0.37164242720E+03  0.18368108825E+04  0.17988207594E+04 0.  0.
        5    1    3    3  502    0  0.58557861091E+03 -0.68042020584E+03 -0.12949302964E+03  0.90700854505E+03  0.46999998093E+01 0. -1.
       -5    1    3    3    0  502 -0.58557861091E+03  0.68042020584E+03 -0.24214939755E+03  0.92980233749E+03  0.46999998093E+01 0.  1.
</event>
<event>
 5   0  0.1906857E-05  0.1808119E+04  0.7818609E-02  0.8701994E-01
        1   -1    0    0  501    0  0.00000000000E+00  0.00000000000E+00  0.10963176937E+04  0.10963176938E+04  0.50400001928E-02 0. -1.
       -1   -1    0    0    0  501  0.00000000000E+00  0.00000000000E+00 -0.74551737824E+03  0.74551737826E+03  0.50400001928E-02 0.  1.
    10030    2    1    2    0    0  0.00000000000E+00  0.00000000000E+00  0.35080031551E+03  0.18418350720E+04  0.18081193465E+04 0.  0.
        4    1    3    3  502    0  0.88841930313E+03  0.15572216431E+03  0.23806167230E+03  0.93285219802E+03  0.12699999809E+01 0. -1.
       -4    1    3    3    0  502 -0.88841930313E+03 -0.15572216431E+03  0.11273864320E+03  0.90898287399E+03  0.12699999809E+01 0.  1.
</event>
<event>
 5   0  0.1960300E-05  0.1801370E+04  0.7818609E-02  0.8705571E-01
       -1   -1    0    0    0  501  0.00000000000E+00  0.00000000000E+00  0.67718374236E+03  0.67718374238E+03  0.50400001928E-02 0. -1.
        1   -1    0    0  501    0  0.00000000000E+00  0.00000000000E+00 -0.11979518996E+04  0.11979518996E+04  0.50400001928E-02 0.  1.
    10030    2    1    2    0    0  0.00000000000E+00  0.00000000000E+00 -0.52076815722E+03  0.18751356420E+04  0.18013700903E+04 0.  0.
        3    1    3    3  502    0  0.62404041601E+03  0.15445161564E+03  0.39628259635E+03  0.75519643058E+03  0.10100000352E+00 0. -1.
       -3    1    3    3    0  502 -0.62404041601E+03 -0.15445161564E+03 -0.91705075356E+03  0.11199392114E+04  0.10100000352E+00 0.  1.
</event>
<event>
 5   0  0.1906857E-05  0.1801835E+04  0.7818609E-02  0.8705324E-01
       -1   -1    0    0    0  501  0.00000000000E+00  0.00000000000E+00  0.57269069282E+03  0.57269069284E+03  0.50400001928E-02 0.  1.
        1   -1    0    0  501    0  0.00000000000E+00  0.00000000000E+00 -0.14172612882E+04  0.14172612882E+04  0.50400001928E-02 0. -1.
    10030    2    1    2    0    0  0.00000000000E+00  0.00000000000E+00 -0.84457059542E+03  0.19899519811E+04  0.18018350081E+04 0.  0.
        4    1    3    3  502    0 -0.40639970892E+02  0.84345987604E+03 -0.75540452106E+02  0.84781138381E+03  0.12699999809E+01 0. -1.
       -4    1    3    3    0  502  0.40639970892E+02 -0.84345987604E+03 -0.76903014331E+03  0.11421405973E+04  0.12699999809E+01 0.  1.
</event>
<event>
 5   0  0.3983176E-05  0.1797980E+04  0.7818609E-02  0.8707374E-01
       -2   -1    0    0    0  501  0.00000000000E+00  0.00000000000E+00  0.49259769386E+03  0.49259769387E+03  0.25500000920E-02 0. -1.
        2   -1    0    0  501    0  0.00000000000E+00  0.00000000000E+00 -0.16406560130E+04  0.16406560130E+04  0.25500000920E-02 0.  1.
    10030    2    1    2    0    0  0.00000000000E+00  0.00000000000E+00 -0.11480583191E+04  0.21332537068E+04  0.17979803875E+04 0.  0.
        3    1    3    3  502    0 -0.88700115586E+03 -0.13393825498E+03 -0.50410928021E+03  0.10289979024E+04  0.10100000352E+00 0. -1.
       -3    1    3    3    0  502  0.88700115586E+03  0.13393825498E+03 -0.64394903889E+03  0.11042558044E+04  0.10100000352E+00 0.  1.
</event>
<event>
 5   0  0.3993393E-05  0.1798970E+04  0.7818609E-02  0.8706847E-01
        2   -1    0    0  501    0  0.00000000000E+00  0.00000000000E+00  0.17912830717E+04  0.17912830717E+04  0.25500000920E-02 0.  1.
       -2   -1    0    0    0  501  0.00000000000E+00  0.00000000000E+00 -0.45167241335E+03  0.45167241336E+03  0.25500000920E-02 0. -1.
    10030    2    1    2    0    0  0.00000000000E+00  0.00000000000E+00  0.13396106584E+04  0.22429554851E+04  0.17989698697E+04 0.  0.
        5    1    3    3  502    0  0.71760629786E+03  0.18256307019E+03  0.13064831726E+04  0.15017351443E+04  0.46999998093E+01 0.  1.
       -5    1    3    3    0  502 -0.71760629786E+03 -0.18256307019E+03  0.33127485788E+02  0.74122034081E+03  0.46999998093E+01 0. -1.
</event>
<event>
 5   0  0.3993393E-05  0.1798717E+04  0.7818609E-02  0.8706982E-01
        2   -1    0    0  501    0  0.00000000000E+00  0.00000000000E+00  0.19300455479E+04  0.19300455479E+04  0.25500000920E-02 0.  1.
       -2   -1    0    0    0  501  0.00000000000E+00  0.00000000000E+00 -0.41908099115E+03  0.41908099115E+03  0.25500000920E-02 0. -1.
    10030    2    1    2    0    0  0.00000000000E+00  0.00000000000E+00  0.15109645568E+04  0.23491265391E+04  0.17987166549E+04 0.  0.
        5    1    3    3  502    0  0.36636574779E+03 -0.78135063270E+03  0.42485326927E+03  0.96190179477E+03  0.46999998093E+01 0. -1.
       -5    1    3    3    0  502 -0.36636574779E+03  0.78135063270E+03  0.10861112875E+04  0.13872247443E+04  0.46999998093E+01 0.  1.
</event>
<event>
 5   0  0.2038338E-05  0.1799905E+04  0.7818609E-02  0.8706350E-01
       -1   -1    0    0    0  501  0.00000000000E+00  0.00000000000E+00  0.65599743254E+03  0.65599743255E+03  0.50400001928E-02 0.  1.
        1   -1    0    0  501    0  0.00000000000E+00  0.00000000000E+00 -0.12346309954E+04  0.12346309954E+04  0.50400001928E-02 0. -1.
    10030    2    1    2    0    0  0.00000000000E+00  0.00000000000E+00 -0.57863356290E+03  0.18906284280E+04  0.17999052899E+04 0.  0.
        1    1    3    3  502    0 -0.65165631924E+03 -0.74299267505E+02  0.35797307600E+03  0.74720884813E+03  0.50400001928E-02 0.  1.
       -1    1    3    3    0  502  0.65165631924E+03  0.74299267505E+02 -0.93660663891E+03  0.11434195799E+04  0.50400001928E-02 0. -1.
</event>
<event>
 5   0  0.3984648E-05  0.1799183E+04  0.7818609E-02  0.8706734E-01
       -2   -1    0    0    0  501  0.00000000000E+00  0.00000000000E+00  0.64248320036E+03  0.64248320036E+03  0.25500000920E-02 0.  1.
        2   -1    0    0  501    0  0.00000000000E+00  0.00000000000E+00 -0.12595888685E+04  0.12595888685E+04  0.25500000920E-02 0. -1.
    10030    2    1    2    0    0  0.00000000000E+00  0.00000000000E+00 -0.61710566813E+03  0.19020720688E+04  0.17991828005E+04 0.  0.
        1    1    3    3  502    0 -0.71281376505E+03 -0.52922235062E+03 -0.46206320861E+03  0.10008407310E+04  0.50400001928E-02 0. -1.
       -1    1    3    3    0  502  0.71281376505E+03  0.52922235062E+03 -0.15504245951E+03  0.90123133785E+03  0.50400001928E-02 0.  1.
</event>
<event>
 5   0  0.3984648E-05  0.1801910E+04  0.7818609E-02  0.8705285E-01
        2   -1    0    0  501    0  0.00000000000E+00  0.00000000000E+00  0.12122921076E+04  0.12122921076E+04  0.25500000920E-02 0.  1.
       -2   -1    0    0    0  501  0.00000000000E+00  0.00000000000E+00 -0.66957429917E+03  0.66957429918E+03  0.25500000920E-02 0. -1.
    10030    2    1    2    0    0  0.00000000000E+00  0.00000000000E+00  0.54271780846E+03  0.18818664068E+04  0.18019096963E+04 0.  0.
        1    1    3    3  502    0 -0.88740871978E+03 -0.51227224228E+02  0.42485397881E+03  0.98520016635E+03  0.50400001928E-02 0. -1.
       -1    1    3    3    0  502  0.88740871978E+03  0.51227224228E+02  0.11786382966E+03  0.89666624047E+03  0.50400001928E-02 0.  1.
</event>
<event>
 5   0  0.1960300E-05  0.1803058E+04  0.7818609E-02  0.8704675E-01
       -1   -1    0    0    0  501  0.00000000000E+00  0.00000000000E+00  0.71988254359E+03  0.71988254361E+03  0.50400001928E-02 0.  1.
        1   -1    0    0  501    0  0.00000000000E+00  0.00000000000E+00 -0.11290096099E+04  0.11290096099E+04  0.50400001928E-02 0. -1.
    10030    2    1    2    0    0  0.00000000000E+00  0.00000000000E+00 -0.40912706634E+03  0.18488921535E+04  0.18030577470E+04 0.  0.
        3    1    3    3  502    0 -0.34984412089E+03 -0.53814995471E+02  0.64564992950E+03  0.73630890550E+03  0.10100000352E+00 0.  1.
       -3    1    3    3    0  502  0.34984412089E+03  0.53814995471E+02 -0.10547769958E+04  0.11125832480E+04  0.10100000352E+00 0. -1.
</event>
<event>
 5   0  0.3909859E-05  0.1795421E+04  0.7818609E-02  0.8708738E-01
        2   -1    0    0  501    0  0.00000000000E+00  0.00000000000E+00  0.16269870025E+04  0.16269870025E+04  0.25500000920E-02 0.  1.
       -2   -1    0    0    0  501  0.00000000000E+00  0.00000000000E+00 -0.49532286071E+03  0.49532286071E+03  0.25500000920E-02 0. -1.
    10030    2    1    2    0    0  0.00000000000E+00  0.00000000000E+00  0.11316641418E+04  0.21223098633E+04  0.17954206821E+04 0.  0.
        4    1    3    3  502    0 -0.17892126102E+02 -0.80650233409E+03  0.10027705740E+03  0.81291035435E+03  0.12699999809E+01 0. -1.
       -4    1    3    3    0  502  0.17892126102E+02  0.80650233409E+03  0.10313870844E+04  0.13093995089E+04  0.12699999809E+01 0.  1.
</event>
<event>
 5   0  0.2001811E-05  0.1799185E+04  0.7818609E-02  0.8706733E-01
        1   -1    0    0  501    0  0.00000000000E+00  0.00000000000E+00  0.20849059985E+04  0.20849059986E+04  0.50400001928E-02 0.  1.
       -1   -1    0    0    0  501  0.00000000000E+00  0.00000000000E+00 -0.38815501036E+03  0.38815501039E+03  0.50400001928E-02 0. -1.
    10030    2    1    2    0    0  0.00000000000E+00  0.00000000000E+00  0.16967509882E+04  0.24730610089E+04  0.17991850483E+04 0.  0.
        2    1    3    3  502    0  0.46379950305E+03  0.72899800128E+03  0.11926123204E+04  0.14727091402E+04  0.25500000920E-02 0.  1.
       -2    1    3    3    0  502 -0.46379950305E+03 -0.72899800128E+03  0.50413866775E+03  0.10003518687E+04  0.25500000920E-02 0. -1.
</event>
<event>
 5   0  0.4015729E-05  0.1803243E+04  0.7818609E-02  0.8704577E-01
       -2   -1    0    0    0  501  0.00000000000E+00  0.00000000000E+00  0.56449127858E+03  0.56449127859E+03  0.25500000920E-02 0. -1.
        2   -1    0    0  501    0  0.00000000000E+00  0.00000000000E+00 -0.14400948951E+04  0.14400948951E+04  0.25500000920E-02 0.  1.
    10030    2    1    2    0    0  0.00000000000E+00  0.00000000000E+00 -0.87560361651E+03  0.20045861737E+04  0.18032426444E+04 0.  0.
        2    1    3    3  502    0  0.83090338088E+02  0.47572152469E+03 -0.12841995035E+04  0.13719997588E+04  0.25500000920E-02 0.  1.
       -2    1    3    3    0  502 -0.83090338088E+02 -0.47572152469E+03  0.40859588704E+03  0.63258641485E+03  0.25500000920E-02 0. -1.
</event>
<event>
 5   0  0.2038338E-05  0.1798418E+04  0.7818609E-02  0.8707141E-01
       -1   -1    0    0    0  501  0.00000000000E+00  0.00000000000E+00  0.43018450743E+03  0.43018450746E+03  0.50400001928E-02 0. -1.
        1   -1    0    0  501    0  0.00000000000E+00  0.00000000000E+00 -0.18796044076E+04  0.18796044076E+04  0.50400001928E-02 0.  1.
    10030    2    1    2    0    0  0.00000000000E+00  0.00000000000E+00 -0.14494199002E+04  0.23097889151E+04  0.17984178561E+04 0.  0.
        1    1    3    3  502    0 -0.25804492391E+03 -0.14086323469E+03  0.36671659284E+03  0.47001137554E+03  0.50400001928E-02 0. -1.
       -1    1    3    3    0  502  0.25804492391E+03  0.14086323469E+03 -0.18161364930E+04  0.18397775396E+04  0.50400001928E-02 0.  1.
</event>
<event>
 5   0  0.4015729E-05  0.1798712E+04  0.7818609E-02  0.8706985E-01
        2   -1    0    0  501    0  0.00000000000E+00  0.00000000000E+00  0.12721716894E+04  0.12721716894E+04  0.25500000920E-02 0. -1.
       -2   -1    0    0    0  501  0.00000000000E+00  0.00000000000E+00 -0.63579568476E+03  0.63579568477E+03  0.25500000920E-02 0.  1.
    10030    2    1    2    0    0  0.00000000000E+00  0.00000000000E+00  0.63637600462E+03  0.19079673741E+04  0.17987120619E+04 0.  0.
        2    1    3    3  502    0  0.77882101293E+02  0.31460236045E+03 -0.57169771823E+03  0.65717467080E+03  0.25500000920E-02 0.  1.
       -2    1    3    3    0  502 -0.77882101293E+02 -0.31460236045E+03  0.12080737228E+04  0.12507927033E+04  0.25500000920E-02 0. -1.
</event>
<event>
 5   0  0.3993393E-05  0.1797911E+04  0.7818609E-02  0.8707411E-01
       -2   -1    0    0    0  501  0.00000000000E+00  0.00000000000E+00  0.55708890443E+03  0.55708890444E+03  0.25500000920E-02 0. -1.
        2   -1    0    0  501    0  0.00000000000E+00  0.00000000000E+00 -0.14506137126E+04  0.14506137126E+04  0.25500000920E-02 0.  1.
    10030    2    1    2    0    0  0.00000000000E+00  0.00000000000E+00 -0.89352480819E+03  0.20077026171E+04  0.17979107919E+04 0.  0.
        5    1    3    3  502    0 -0.23051616357E+03  0.55708167544E+03  0.29784309753E+03  0.67246583223E+03  0.46999998093E+01 0. -1.
       -5    1    3    3    0  502  0.23051616357E+03 -0.55708167544E+03 -0.11913679057E+04  0.13352367848E+04  0.46999998093E+01 0.  1.
</event>
<event>
 5   0  0.3993393E-05  0.1802526E+04  0.7818609E-02  0.8704958E-01
        2   -1    0    0  501    0  0.00000000000E+00  0.00000000000E+00  0.24098926102E+04  0.24098926102E+04  0.25500000920E-02 0.  1.
       -2   -1    0    0    0  501  0.00000000000E+00  0.00000000000E+00 -0.33705843862E+03  0.33705843863E+03  0.25500000920E-02 0. -1.
    10030    2    1    2    0    0  0.00000000000E+00  0.00000000000E+00  0.20728341716E+04  0.27469510488E+04  0.18025256064E+04 0.  0.
        5    1    3    3  502    0 -0.29212004213E+03 -0.57128896023E+03  0.20009041598E+04  0.21012721722E+04  0.46999998093E+01 0.  1.
       -5    1    3    3    0  502  0.29212004213E+03  0.57128896023E+03  0.71930011786E+02  0.64567887660E+03  0.46999998093E+01 0. -1.
</event>
<event>
 5   0  0.3993393E-05  0.1801573E+04  0.7818609E-02  0.8705464E-01
       -2   -1    0    0    0  501  0.00000000000E+00  0.00000000000E+00  0.98976580649E+03  0.98976580649E+03  0.25500000920E-02 0. -1.
        2   -1    0    0  501    0  0.00000000000E+00  0.00000000000E+00 -0.81980599140E+03  0.81980599140E+03  0.25500000920E-02 0.  1.
    10030    2    1    2    0    0  0.00000000000E+00  0.00000000000E+00  0.16995981509E+03  0.18095717979E+04  0.18015725778E+04 0.  0.
        5    1    3    3  502    0  0.61224723734E+02  0.13201189756E+03  0.97786913135E+03  0.98864843900E+03  0.46999998093E+01 0. -1.
       -5    1    3    3    0  502 -0.61224723734E+02 -0.13201189756E+03 -0.80790931626E+03  0.82092335890E+03  0.46999998093E+01 0.  1.
</event>
<event>
 5   0  0.2038338E-05  0.1795896E+04  0.7818609E-02  0.8708485E-01
       -1   -1    0    0    0  501  0.00000000000E+00  0.00000000000E+00  0.39657672572E+03  0.39657672575E+03  0.50400001928E-02 0. -1.
        1   -1    0    0  501    0  0.00000000000E+00  0.00000000000E+00 -0.20331762323E+04  0.20331762323E+04  0.50400001928E-02 0.  1.
    10030    2    1    2    0    0  0.00000000000E+00  0.00000000000E+00 -0.16365995066E+04  0.24297529581E+04  0.17958957354E+04 0.  0.
        1    1    3    3  502    0  0.70771251694E+03 -0.53104565506E+03 -0.10254549024E+04  0.13544091890E+04  0.50400001928E-02 0.  1.
       -1    1    3    3    0  502 -0.70771251694E+03  0.53104565506E+03 -0.61114460416E+03  0.10753437690E+04  0.50400001928E-02 0. -1.
</event>
<event>
 5   0  0.1960300E-05  0.1785842E+04  0.7818609E-02  0.8713865E-01
       -1   -1    0    0    0  501  0.00000000000E+00  0.00000000000E+00  0.96038289791E+03  0.96038289793E+03  0.50400001928E-02 0.  1.
        1   -1    0    0  501    0  0.00000000000E+00  0.00000000000E+00 -0.83019774110E+03  0.83019774112E+03  0.50400001928E-02 0. -1.
    10030    2    1    2    0    0  0.00000000000E+00  0.00000000000E+00  0.13018515681E+03  0.17905806390E+04  0.17858417763E+04 0.  0.
        3    1    3    3  502    0  0.11597730384E+03  0.16926101388E+03 -0.80624030440E+03  0.83193957982E+03  0.10100000352E+00 0. -1.
       -3    1    3    3    0  502 -0.11597730384E+03 -0.16926101388E+03  0.93642546121E+03  0.95864105923E+03  0.10100000352E+00 0.  1.
</event>
<event>
 5   0  0.1960300E-05  0.1801822E+04  0.7818609E-02  0.8705331E-01
        1   -1    0    0  501    0  0.00000000000E+00  0.00000000000E+00  0.88877907661E+03  0.88877907663E+03  0.50400001928E-02 0.  1.
       -1   -1    0    0    0  501  0.00000000000E+00  0.00000000000E+00 -0.91320864698E+03  0.91320864699E+03  0.50400001928E-02 0. -1.
    10030    2    1    2    0    0  0.00000000000E+00  0.00000000000E+00 -0.24429570362E+02  0.18019877236E+04  0.18018221200E+04 0.  0.
        3    1    3    3  502    0  0.49480113029E+03  0.71302528546E+03  0.22948388765E+03  0.89771714984E+03  0.10100000352E+00 0.  1.
       -3    1    3    3    0  502 -0.49480113029E+03 -0.71302528546E+03 -0.25391345801E+03  0.90427057377E+03  0.10100000352E+00 0. -1.
</event>
<event>
 5   0  0.3984648E-05  0.1798673E+04  0.7818609E-02  0.8707006E-01
        2   -1    0    0  501    0  0.00000000000E+00  0.00000000000E+00  0.17144935831E+04  0.17144935832E+04  0.25500000920E-02 0.  1.
       -2   -1    0    0    0  501  0.00000000000E+00  0.00000000000E+00 -0.47174620241E+03  0.47174620242E+03  0.25500000920E-02 0. -1.
    10030    2    1    2    0    0  0.00000000000E+00  0.00000000000E+00  0.12427473807E+04  0.21862397856E+04  0.17986726627E+04 0.  0.
        1    1    3    3  502    0  0.17803996830E+03  0.63811872708E+03  0.13606298064E+04  0.15133430576E+04  0.50400001928E-02 0.  1.
       -1    1    3    3    0  502 -0.17803996830E+03 -0.63811872708E+03 -0.11788242562E+03  0.67289672793E+03  0.50400001928E-02 0. -1.
</event>
<event>
 5   0  0.2054876E-05  0.1804070E+04  0.7818609E-02  0.8704138E-01
       -1   -1    0    0    0  501  0.00000000000E+00  0.00000000000E+00  0.75877653989E+03  0.75877653990E+03  0.50400001928E-02 0.  1.
        1   -1    0    0  501    0  0.00000000000E+00  0.00000000000E+00 -0.10723409557E+04  0.10723409557E+04  0.50400001928E-02 0. -1.
    10030    2    1    2    0    0  0.00000000000E+00  0.00000000000E+00 -0.31356441585E+03  0.18311174957E+04  0.18040700208E+04 0.  0.
        5    1    3    3  502    0  0.52904696176E+03  0.50652871466E+02  0.58297162424E+03  0.78888174386E+03  0.46999998093E+01 0.  1.
       -5    1    3    3    0  502 -0.52904696176E+03 -0.50652871466E+02 -0.89653604009E+03  0.10422357518E+04  0.46999998093E+01 0. -1.
</event>
<event>
 5   0  0.3984648E-05  0.1799710E+04  0.7818609E-02  0.8706454E-01
        2   -1    0    0  501    0  0.00000000000E+00  0.00000000000E+00  0.11683482193E+04  0.11683482193E+04  0.25500000920E-02 0. -1.
       -2   -1    0    0    0  501  0.00000000000E+00  0.00000000000E+00 -0.69306280489E+03  0.69306280489E+03  0.25500000920E-02 0.  1.
    10030    2    1    2    0    0  0.00000000000E+00  0.00000000000E+00  0.47528541437E+03  0.18614110242E+04  0.17997096365E+04 0.  0.
        1    1    3    3  502    0 -0.11965564915E+03 -0.87029728794E+02 -0.68039558217E+03  0.69629720402E+03  0.50400001928E-02 0.  1.
       -1    1    3    3    0  502  0.11965564915E+03  0.87029728794E+02  0.11556809965E+04  0.11651138201E+04  0.50400001928E-02 0. -1.
</event>
<event>
 5   0  0.3983176E-05  0.1804229E+04  0.7818609E-02  0.8704054E-01
        2   -1    0    0  501    0  0.00000000000E+00  0.00000000000E+00  0.16796969397E+04  0.16796969397E+04  0.25500000920E-02 0. -1.
       -2   -1    0    0    0  501  0.00000000000E+00  0.00000000000E+00 -0.48449852973E+03  0.48449852974E+03  0.25500000920E-02 0.  1.
    10030    2    1    2    0    0  0.00000000000E+00  0.00000000000E+00  0.11951984100E+04  0.21641954694E+04  0.18042291403E+04 0.  0.
        3    1    3    3  502    0 -0.32614523903E+02 -0.41757171500E+03  0.15559945897E+04  0.16113810902E+04  0.10100000352E+00 0. -1.
       -3    1    3    3    0  502  0.32614523903E+02  0.41757171500E+03 -0.36079617979E+03  0.55281437923E+03  0.10100000352E+00 0.  1.
</event>
<event>
 5   0  0.4015729E-05  0.1796962E+04  0.7818609E-02  0.8707917E-01
        2   -1    0    0  501    0  0.00000000000E+00  0.00000000000E+00  0.97939935798E+03  0.97939935799E+03  0.25500000920E-02 0.  1.
       -2   -1    0    0    0  501  0.00000000000E+00  0.00000000000E+00 -0.82424834290E+03  0.82424834290E+03  0.25500000920E-02 0. -1.
    10030    2    1    2    0    0  0.00000000000E+00  0.00000000000E+00  0.15515101509E+03  0.18036477009E+04  0.17969622120E+04 0.  0.
        2    1    3    3  502    0 -0.40381608974E+03 -0.18603296039E+03  0.86124440670E+03  0.96923558786E+03  0.25500000920E-02 0.  1.
       -2    1    3    3    0  502  0.40381608974E+03  0.18603296039E+03 -0.70609339162E+03  0.83441211303E+03  0.25500000920E-02 0. -1.
</event>
<event>
 5   0  0.2001811E-05  0.1802683E+04  0.7818609E-02  0.8704874E-01
       -1   -1    0    0    0  501  0.00000000000E+00  0.00000000000E+00  0.52055994641E+03  0.52055994644E+03  0.50400001928E-02 0. -1.
        1   -1    0    0  501    0  0.00000000000E+00  0.00000000000E+00 -0.15606581077E+04  0.15606581078E+04  0.50400001928E-02 0.  1.
    10030    2    1    2    0    0  0.00000000000E+00  0.00000000000E+00 -0.10400981613E+04  0.20812180542E+04  0.18026825577E+04 0.  0.
        2    1    3    3  502    0 -0.36958875576E+03 -0.11238510869E+03  0.42014445343E+03  0.57074304446E+03  0.25500000920E-02 0. -1.
       -2    1    3    3    0  502  0.36958875576E+03  0.11238510869E+03 -0.14602426148E+04  0.15104750097E+04  0.25500000920E-02 0.  1.
</event>
<event>
 5   0  0.3993393E-05  0.1798728E+04  0.7818609E-02  0.8706976E-01
       -2   -1    0    0    0  501  0.00000000000E+00  0.00000000000E+00  0.60476623205E+03  0.60476623206E+03  0.25500000920E-02 0. -1.
        2   -1    0    0  501    0  0.00000000000E+00  0.00000000000E+00 -0.13374682799E+04  0.13374682799E+04  0.25500000920E-02 0.  1.
    10030    2    1    2    0    0  0.00000000000E+00  0.00000000000E+00 -0.73270204782E+03  0.19422345119E+04  0.17987280529E+04 0.  0.
        5    1    3    3  502    0  0.74474582133E+03  0.46475309533E+03 -0.15533223206E+03  0.89151106013E+03  0.46999998093E+01 0. -1.
       -5    1    3    3    0  502 -0.74474582133E+03 -0.46475309533E+03 -0.57736981576E+03  0.10507234518E+04  0.46999998093E+01 0.  1.
</event>
<event>
 5   0  0.1446750E-05  0.1793525E+04  0.7818609E-02  0.8709750E-01
        3   -1    0    0  501    0  0.00000000000E+00  0.00000000000E+00  0.68241052414E+03  0.68241053161E+03  0.10100000352E+00 0. -1.
       -3   -1    0    0    0  501  0.00000000000E+00  0.00000000000E+00 -0.11784448820E+04  0.11784448863E+04  0.10100000352E+00 0.  1.
    10030    2    1    2    0    0  0.00000000000E+00  0.00000000000E+00 -0.49603435785E+03  0.18608554179E+04  0.17935252444E+04 0.  0.
        1    1    3    3  502    0 -0.34508313578E+03  0.71213001490E+03  0.18968688352E+03  0.81375219971E+03  0.50400001928E-02 0. -1.
       -1    1    3    3    0  502  0.34508313578E+03 -0.71213001490E+03 -0.68572124136E+03  0.10471032182E+04  0.50400001928E-02 0.  1.
</event>
<event>
 5   0  0.3993393E-05  0.1800583E+04  0.7818609E-02  0.8705989E-01
        2   -1    0    0  501    0  0.00000000000E+00  0.00000000000E+00  0.15122386776E+04  0.15122386776E+04  0.25500000920E-02 0. -1.
       -2   -1    0    0    0  501  0.00000000000E+00  0.00000000000E+00 -0.53597696356E+03  0.53597696357E+03  0.25500000920E-02 0.  1.
    10030    2    1    2    0    0  0.00000000000E+00  0.00000000000E+00  0.97626171403E+03  0.20482156412E+04  0.18005833439E+04 0.  0.
        5    1    3    3  502    0  0.10664089573E+03  0.86416116527E+03  0.22784742345E+03  0.90004629802E+03  0.46999998093E+01 0.  1.
       -5    1    3    3    0  502 -0.10664089573E+03 -0.86416116527E+03  0.74841429058E+03  0.11481693432E+04  0.46999998093E+01 0. -1.
</event>
<event>
 5   0  0.3984648E-05  0.1815041E+04  0.7818609E-02  0.8698342E-01
        2   -1    0    0  501    0  0.00000000000E+00  0.00000000000E+00  0.16748178648E+04  0.16748178648E+04  0.25500000920E-02 0. -1.
       -2   -1    0    0    0  501  0.00000000000E+00  0.00000000000E+00 -0.49175080596E+03  0.49175080596E+03  0.25500000920E-02 0.  1.
    10030    2    1    2    0    0  0.00000000000E+00  0.00000000000E+00  0.11830670588E+04  0.21665686708E+04  0.18150405338E+04 0.  0.
        1    1    3    3  502    0  0.34129720859E+03  0.77229299716E+03  0.19442745185E+03  0.86644231898E+03  0.50400001928E-02 0.  1.
       -1    1    3    3    0  502 -0.34129720859E+03 -0.77229299716E+03  0.98863960699E+03  0.13001263518E+04  0.50400001928E-02 0. -1.
</event>
<event>
 5   0  0.3909859E-05  0.1797210E+04  0.7818609E-02  0.8707785E-01
        2   -1    0    0  501    0  0.00000000000E+00  0.00000000000E+00  0.15257919586E+04  0.15257919586E+04  0.25500000920E-02 0.  1.
       -2   -1    0    0    0  501  0.00000000000E+00  0.00000000000E+00 -0.52922728942E+03  0.52922728943E+03  0.25500000920E-02 0. -1.
    10030    2    1    2    0    0  0.00000000000E+00  0.00000000000E+00  0.99656466922E+03  0.20550192481E+04  0.17972097735E+04 0.  0.
        4    1    3    3  502    0 -0.79627737331E+03  0.91548499121E+02  0.96282471686E+03  0.12527856286E+04  0.12699999809E+01 0.  1.
       -4    1    3    3    0  502  0.79627737331E+03 -0.91548499121E+02  0.33739952362E+02  0.80223361948E+03  0.12699999809E+01 0. -1.
</event>
<event>
 5   0  0.2001811E-05  0.1799421E+04  0.7818609E-02  0.8706607E-01
       -1   -1    0    0    0  501  0.00000000000E+00  0.00000000000E+00  0.86910669107E+03  0.86910669108E+03  0.50400001928E-02 0. -1.
        1   -1    0    0  501    0  0.00000000000E+00  0.00000000000E+00 -0.93139243106E+03  0.93139243108E+03  0.50400001928E-02 0.  1.
    10030    2    1    2    0    0  0.00000000000E+00  0.00000000000E+00 -0.62285739994E+02  0.18004991222E+04  0.17994214558E+04 0.  0.
        2    1    3    3  502    0 -0.56580709487E+03 -0.45152818609E+03 -0.56575118583E+03  0.91874358540E+03  0.25500000920E-02 0.  1.
       -2    1    3    3    0  502  0.56580709487E+03  0.45152818609E+03  0.50346544584E+03  0.88175553676E+03  0.25500000920E-02 0. -1.
</event>
<event>
 5   0  0.2001811E-05  0.1791527E+04  0.7818609E-02  0.8710818E-01
       -1   -1    0    0    0  501  0.00000000000E+00  0.00000000000E+00  0.69292460288E+03  0.69292460290E+03  0.50400001928E-02 0. -1.
        1   -1    0    0  501    0  0.00000000000E+00  0.00000000000E+00 -0.11579789125E+04  0.11579789125E+04  0.50400001928E-02 0.  1.
    10030    2    1    2    0    0  0.00000000000E+00  0.00000000000E+00 -0.46505430965E+03  0.18509035155E+04  0.17915268105E+04 0.  0.
        2    1    3    3  502    0 -0.61150071727E+03 -0.58298854267E+03 -0.54002099524E+03  0.10027120441E+04  0.25500000920E-02 0.  1.
       -2    1    3    3    0  502  0.61150071727E+03  0.58298854267E+03  0.74966685585E+02  0.84819147134E+03  0.25500000920E-02 0. -1.
</event>
<event>
 5   0  0.3993393E-05  0.1794423E+04  0.7818609E-02  0.8709271E-01
        2   -1    0    0  501    0  0.00000000000E+00  0.00000000000E+00  0.10274853600E+04  0.10274853600E+04  0.25500000920E-02 0. -1.
       -2   -1    0    0    0  501  0.00000000000E+00  0.00000000000E+00 -0.78345467843E+03  0.78345467843E+03  0.25500000920E-02 0.  1.
    10030    2    1    2    0    0  0.00000000000E+00  0.00000000000E+00  0.24403068155E+03  0.18109400384E+04  0.17944227064E+04 0.  0.
        5    1    3    3  502    0 -0.27759785106E+03 -0.75327042737E+03  0.52631394866E+03  0.95995071030E+03  0.46999998093E+01 0. -1.
       -5    1    3    3    0  502  0.27759785106E+03  0.75327042737E+03 -0.28228326711E+03  0.85098932811E+03  0.46999998093E+01 0.  1.
</event>
<event>
 5   0  0.3983176E-05  0.1801842E+04  0.7818609E-02  0.8705321E-01
        2   -1    0    0  501    0  0.00000000000E+00  0.00000000000E+00  0.84123425518E+03  0.84123425519E+03  0.25500000920E-02 0.  1.
       -2   -1    0    0    0  501  0.00000000000E+00  0.00000000000E+00 -0.96484228150E+03  0.96484228150E+03  0.25500000920E-02 0. -1.
    10030    2    1    2    0    0  0.00000000000E+00  0.00000000000E+00 -0.12360802632E+03  0.18060765367E+04  0.18018417001E+04 0.  0.
        3    1    3    3  502    0  0.19030539577E+03 -0.29119428697E+03  0.77120160655E+03  0.84602729540E+03  0.10100000352E+00 0.  1.
       -3    1    3    3    0  502 -0.19030539577E+03  0.29119428697E+03 -0.89480963287E+03  0.96004924129E+03  0.10100000352E+00 0. -1.
</event>
<event>
 5   0  0.2001811E-05  0.1797756E+04  0.7818609E-02  0.8707493E-01
       -1   -1    0    0    0  501  0.00000000000E+00  0.00000000000E+00  0.10033539481E+04  0.10033539481E+04  0.50400001928E-02 0.  1.
        1   -1    0    0  501    0  0.00000000000E+00  0.00000000000E+00 -0.80528123597E+03  0.80528123599E+03  0.50400001928E-02 0. -1.
    10030    2    1    2    0    0  0.00000000000E+00  0.00000000000E+00  0.19807271212E+03  0.18086351841E+04  0.17977564990E+04 0.  0.
        2    1    3    3  502    0  0.36138000591E+03  0.73237275794E+03  0.47683069531E+03  0.94569174536E+03  0.25500000920E-02 0.  1.
       -2    1    3    3    0  502 -0.36138000591E+03 -0.73237275794E+03 -0.27875798319E+03  0.86294343873E+03  0.25500000920E-02 0. -1.
</event>
<event>
 5   0  0.3909859E-05  0.1801021E+04  0.7818609E-02  0.8705757E-01
        2   -1    0    0  501    0  0.00000000000E+00  0.00000000000E+00  0.18611441822E+04  0.18611441822E+04  0.25500000920E-02 0. -1.
       -2   -1    0    0    0  501  0.00000000000E+00  0.00000000000E+00 -0.43570999839E+03  0.43570999840E+03  0.25500000920E-02 0.  1.
    10030    2    1    2    0    0  0.00000000000E+00  0.00000000000E+00  0.14254341838E+04  0.22968541806E+04  0.18010209645E+04 0.  0.
        4    1    3    3  502    0 -0.15047949804E+03  0.83470655635E+03  0.32686903513E+03  0.90896869780E+03  0.12699999809E+01 0.  1.
       -4    1    3    3    0  502  0.15047949804E+03 -0.83470655635E+03  0.10985651486E+04  0.13878854828E+04  0.12699999809E+01 0. -1.
</event>
<event>
 5   0  0.1906857E-05  0.1800442E+04  0.7818609E-02  0.8706064E-01
       -1   -1    0    0    0  501  0.00000000000E+00  0.00000000000E+00  0.10701990286E+04  0.10701990286E+04  0.50400001928E-02 0. -1.
        1   -1    0    0  501    0  0.00000000000E+00  0.00000000000E+00 -0.75724058098E+03  0.75724058099E+03  0.50400001928E-02 0.  1.
    10030    2    1    2    0    0  0.00000000000E+00  0.00000000000E+00  0.31295844759E+03  0.18274396096E+04  0.18004423170E+04 0.  0.
        4    1    3    3  502    0  0.18003333969E+03  0.62011107271E+03  0.79313812767E+03  0.10227509220E+04  0.12699999809E+01 0. -1.
       -4    1    3    3    0  502 -0.18003333969E+03 -0.62011107271E+03 -0.48017968009E+03  0.80468868761E+03  0.12699999809E+01 0.  1.
</event>
<event>
 5   0  0.1960300E-05  0.1799089E+04  0.7818609E-02  0.8706784E-01
       -1   -1    0    0    0  501  0.00000000000E+00  0.00000000000E+00  0.52527820257E+03  0.52527820259E+03  0.50400001928E-02 0.  1.
        1   -1    0    0  501    0  0.00000000000E+00  0.00000000000E+00 -0.15404795031E+04  0.15404795031E+04  0.50400001928E-02 0. -1.
    10030    2    1    2    0    0  0.00000000000E+00  0.00000000000E+00 -0.10152013005E+04  0.20657577057E+04  0.17990889967E+04 0.  0.
        3    1    3    3  502    0  0.35950870974E+02 -0.42392982380E+03 -0.14176517753E+04  0.14801167274E+04  0.10100000352E+00 0. -1.
       -3    1    3    3    0  502 -0.35950870974E+02  0.42392982380E+03  0.40245047474E+03  0.58564097829E+03  0.10100000352E+00 0.  1.
</event>
<event>
 5   0  0.3984648E-05  0.1799208E+04  0.7818609E-02  0.8706721E-01
        2   -1    0    0  501    0  0.00000000000E+00  0.00000000000E+00  0.10021867532E+04  0.10021867532E+04  0.25500000920E-02 0. -1.
       -2   -1    0    0    0  501  0.00000000000E+00  0.00000000000E+00 -0.80752115575E+03  0.80752115575E+03  0.25500000920E-02 0.  1.
    10030    2    1    2    0    0  0.00000000000E+00  0.00000000000E+00  0.19466559741E+03  0.18097079089E+04  0.17992076091E+04 0.  0.
        1    1    3    3  502    0  0.13094351127E+03 -0.83565738358E+03  0.40541685534E+03  0.93799375931E+03  0.50400001928E-02 0.  1.
       -1    1    3    3    0  502 -0.13094351127E+03  0.83565738358E+03 -0.21075125794E+03  0.87171414961E+03  0.50400001928E-02 0. -1.
</event>
<event>
 5   0  0.2001811E-05  0.1832073E+04  0.7818609E-02  0.8689427E-01
       -1   -1    0    0    0  501  0.00000000000E+00  0.00000000000E+00  0.53941755409E+03  0.53941755411E+03  0.50400001928E-02 0. -1.
        1   -1    0    0  501    0  0.00000000000E+00  0.00000000000E+00 -0.15556096198E+04  0.15556096198E+04  0.50400001928E-02 0.  1.
    10030    2    1    2    0    0  0.00000000000E+00  0.00000000000E+00 -0.10161920657E+04  0.20950271739E+04  0.18320732914E+04 0.  0.
        2    1    3    3  502    0  0.55792666891E+03 -0.40047225304E+03  0.18509604605E+03  0.71128105529E+03  0.25500000920E-02 0. -1.
       -2    1    3    3    0  502 -0.55792666891E+03  0.40047225304E+03 -0.12012881118E+04  0.13837461186E+04  0.25500000920E-02 0.  1.
</event>
<event>
 5   0  0.3984648E-05  0.1800726E+04  0.7818609E-02  0.8705913E-01
       -2   -1    0    0    0  501  0.00000000000E+00  0.00000000000E+00  0.50595668943E+03  0.50595668943E+03  0.25500000920E-02 0. -1.
        2   -1    0    0  501    0  0.00000000000E+00  0.00000000000E+00 -0.16022195549E+04  0.16022195549E+04  0.25500000920E-02 0.  1.
    10030    2    1    2    0    0  0.00000000000E+00  0.00000000000E+00 -0.10962628655E+04  0.21081762444E+04  0.18007261888E+04 0.  0.
        1    1    3    3  502    0  0.61181374985E+03  0.20271646836E+03  0.18789209373E+03  0.67135197174E+03  0.50400001928E-02 0. -1.
       -1    1    3    3    0  502 -0.61181374985E+03 -0.20271646836E+03 -0.12841549592E+04  0.14368242726E+04  0.50400001928E-02 0.  1.
</event>
<event>
 5   0  0.3983176E-05  0.1799030E+04  0.7818609E-02  0.8706815E-01
       -2   -1    0    0    0  501  0.00000000000E+00  0.00000000000E+00  0.88297189307E+03  0.88297189307E+03  0.25500000920E-02 0. -1.
        2   -1    0    0  501    0  0.00000000000E+00  0.00000000000E+00 -0.91636800507E+03  0.91636800507E+03  0.25500000920E-02 0.  1.
    10030    2    1    2    0    0  0.00000000000E+00  0.00000000000E+00 -0.33396112002E+02  0.17993398981E+04  0.17990299522E+04 0.  0.
        3    1    3    3  502    0 -0.20587171924E+03 -0.69787036308E+03 -0.54567571653E+03  0.90948788131E+03  0.10100000352E+00 0. -1.
       -3    1    3    3    0  502  0.20587171924E+03  0.69787036308E+03  0.51227960453E+03  0.88985201683E+03  0.10100000352E+00 0.  1.
</event>
<event>
 5   0  0.2038338E-05  0.1800880E+04  0.7818609E-02  0.8705831E-01
        1   -1    0    0  501    0  0.00000000000E+00  0.00000000000E+00  0.18954412251E+04  0.18954412251E+04  0.50400001928E-02 0. -1.
       -1   -1    0    0    0  501  0.00000000000E+00  0.00000000000E+00 -0.42775927863E+03  0.42775927866E+03  0.50400001928E-02 0.  1.
    10030    2    1    2    0    0  0.00000000000E+00  0.00000000000E+00  0.14676819465E+04  0.23232005038E+04  0.18008804193E+04 0.  0.
        1    1    3    3  502    0  0.89759666879E+03  0.71502893508E+02  0.73338026055E+03  0.11613091966E+04  0.50400001928E-02 0.  1.
       -1    1    3    3    0  502 -0.89759666879E+03 -0.71502893508E+02  0.73430168591E+03  0.11618913071E+04  0.50400001928E-02 0. -1.
</event>
<event>
 5   0  0.2038338E-05  0.1790417E+04  0.7818609E-02  0.8711412E-01
       -1   -1    0    0    0  501  0.00000000000E+00  0.00000000000E+00  0.86433249632E+03  0.86433249633E+03  0.50400001928E-02 0. -1.
        1   -1    0    0  501    0  0.00000000000E+00  0.00000000000E+00 -0.92718796858E+03  0.92718796860E+03  0.50400001928E-02 0.  1.
    10030    2    1    2    0    0  0.00000000000E+00  0.00000000000E+00 -0.62855472266E+02  0.17915204649E+04  0.17904174837E+04 0.  0.
        1    1    3    3  502    0 -0.89170442490E+03 -0.73824784632E+02 -0.29178822672E+01  0.89475996461E+03  0.50400001928E-02 0.  1.
       -1    1    3    3    0  502  0.89170442490E+03  0.73824784632E+02 -0.59937589999E+02  0.89676050032E+03  0.50400001928E-02 0. -1.
</event>
<event>
 5   0  0.3984648E-05  0.1793706E+04  0.7818609E-02  0.8709654E-01
        2   -1    0    0  501    0  0.00000000000E+00  0.00000000000E+00  0.14104299710E+04  0.14104299710E+04  0.25500000920E-02 0. -1.
       -2   -1    0    0    0  501  0.00000000000E+00  0.00000000000E+00 -0.57028358993E+03  0.57028358994E+03  0.25500000920E-02 0.  1.
    10030    2    1    2    0    0  0.00000000000E+00  0.00000000000E+00  0.84014638102E+03  0.19807135609E+04  0.17937057364E+04 0.  0.
        1    1    3    3  502    0 -0.14303925694E+03 -0.36608049821E+03 -0.47011881838E+03  0.61276982923E+03  0.50400001928E-02 0.  1.
       -1    1    3    3    0  502  0.14303925694E+03  0.36608049821E+03  0.13102651994E+04  0.13679437317E+04  0.50400001928E-02 0. -1.
</event>
<event>
 5   0  0.2001811E-05  0.1802746E+04  0.7818609E-02  0.8704840E-01
        1   -1    0    0  501    0  0.00000000000E+00  0.00000000000E+00  0.38740582392E+03  0.38740582395E+03  0.50400001928E-02 0.  1.
       -1   -1    0    0    0  501  0.00000000000E+00  0.00000000000E+00 -0.20972157867E+04  0.20972157867E+04  0.50400001928E-02 0. -1.
    10030    2    1    2    0    0  0.00000000000E+00  0.00000000000E+00 -0.17098099628E+04  0.24846216106E+04  0.18027463602E+04 0.  0.
        2    1    3    3  502    0  0.39632168175E+03  0.70678363605E+03 -0.13990221708E+04  0.16167489038E+04  0.25500000920E-02 0. -1.
       -2    1    3    3    0  502 -0.39632168175E+03 -0.70678363605E+03 -0.31078779199E+03  0.86787270683E+03  0.25500000920E-02 0.  1.
</event>
<event>
 5   0  0.2038338E-05  0.1815507E+04  0.7818609E-02  0.8698096E-01
        1   -1    0    0  501    0  0.00000000000E+00  0.00000000000E+00  0.82725412741E+03  0.82725412742E+03  0.50400001928E-02 0.  1.
       -1   -1    0    0    0  501  0.00000000000E+00  0.00000000000E+00 -0.99608650202E+03  0.99608650203E+03  0.50400001928E-02 0. -1.
    10030    2    1    2    0    0  0.00000000000E+00  0.00000000000E+00 -0.16883237461E+03  0.18233406295E+04  0.18155072791E+04 0.  0.
        1    1    3    3  502    0  0.35107000704E+03  0.56992115362E+03 -0.70021458630E+03  0.96869021781E+03  0.50400001928E-02 0. -1.
       -1    1    3    3    0  502 -0.35107000704E+03 -0.56992115362E+03  0.53138221169E+03  0.85465041164E+03  0.50400001928E-02 0.  1.
</event>
<event>
 5   0  0.3983176E-05  0.1797899E+04  0.7818609E-02  0.8707418E-01
       -2   -1    0    0    0  501  0.00000000000E+00  0.00000000000E+00  0.48767317960E+03  0.48767317960E+03  0.25500000920E-02 0.  1.
        2   -1    0    0  501    0  0.00000000000E+00  0.00000000000E+00 -0.16570726780E+04  0.16570726780E+04  0.25500000920E-02 0. -1.
    10030    2    1    2    0    0  0.00000000000E+00  0.00000000000E+00 -0.11693994984E+04  0.21447458576E+04  0.17978986642E+04 0.  0.
        3    1    3    3  502    0 -0.57804105591E+03 -0.41308375171E+03  0.72315793080E+02  0.71414230541E+03  0.10100000352E+00 0.  1.
       -3    1    3    3    0  502  0.57804105591E+03  0.41308375171E+03 -0.12417152915E+04  0.14306035522E+04  0.10100000352E+00 0. -1.
</event>
<event>
 5   0  0.1906857E-05  0.1795112E+04  0.7818609E-02  0.8708903E-01
        1   -1    0    0  501    0  0.00000000000E+00  0.00000000000E+00  0.24642461251E+04  0.24642461251E+04  0.50400001928E-02 0.  1.
       -1   -1    0    0    0  501  0.00000000000E+00  0.00000000000E+00 -0.32691826823E+03  0.32691826827E+03  0.50400001928E-02 0. -1.
    10030    2    1    2    0    0  0.00000000000E+00  0.00000000000E+00  0.21373278568E+04  0.27911643933E+04  0.17951123372E+04 0.  0.
        4    1    3    3  502    0  0.28386218822E+03  0.24933904582E+01 -0.25527889086E+03  0.38177596037E+03  0.12699999809E+01 0. -1.
       -4    1    3    3    0  502 -0.28386218822E+03 -0.24933904582E+01  0.23926067477E+04  0.24093884330E+04  0.12699999809E+01 0.  1.
</event>
<event>
 5   0  0.1906857E-05  0.1786506E+04  0.7818609E-02  0.8713509E-01
        1   -1    0    0  501    0  0.00000000000E+00  0.00000000000E+00  0.85523089575E+03  0.85523089576E+03  0.50400001928E-02 0.  1.
       -1   -1    0    0    0  501  0.00000000000E+00  0.00000000000E+00 -0.93296538510E+03  0.93296538511E+03  0.50400001928E-02 0. -1.
    10030    2    1    2    0    0  0.00000000000E+00  0.00000000000E+00 -0.77734489353E+02  0.17881962809E+04  0.17865058881E+04 0.  0.
        4    1    3    3  502    0  0.55836941268E+03  0.67944057087E+03 -0.19548676114E+03  0.90090653069E+03  0.12699999809E+01 0.  1.
       -4    1    3    3    0  502 -0.55836941268E+03 -0.67944057087E+03  0.11775227178E+03  0.88728975018E+03  0.12699999809E+01 0. -1.
</event>
<event>
 5   0  0.1906857E-05  0.1800765E+04  0.7818609E-02  0.8705893E-01
        1   -1    0    0  501    0  0.00000000000E+00  0.00000000000E+00  0.15111678081E+04  0.15111678081E+04  0.50400001928E-02 0. -1.
       -1   -1    0    0    0  501  0.00000000000E+00  0.00000000000E+00 -0.53646497066E+03  0.53646497068E+03  0.50400001928E-02 0.  1.
    10030    2    1    2    0    0  0.00000000000E+00  0.00000000000E+00  0.97470283745E+03  0.20476327788E+04  0.18007649418E+04 0.  0.
        4    1    3    3  502    0 -0.57672683436E+03 -0.20788603118E+02  0.12732125943E+04  0.13978976825E+04  0.12699999809E+01 0. -1.
       -4    1    3    3    0  502  0.57672683436E+03  0.20788603118E+02 -0.29850975689E+03  0.64973509629E+03  0.12699999809E+01 0.  1.
</event>
<event>
 5   0  0.4015729E-05  0.1793566E+04  0.7818609E-02  0.8709728E-01
        2   -1    0    0  501    0  0.00000000000E+00  0.00000000000E+00  0.10197017262E+04  0.10197017262E+04  0.25500000920E-02 0. -1.
       -2   -1    0    0    0  501  0.00000000000E+00  0.00000000000E+00 -0.78868141507E+03  0.78868141507E+03  0.25500000920E-02 0.  1.
    10030    2    1    2    0    0  0.00000000000E+00  0.00000000000E+00  0.23102031115E+03  0.18083831413E+04  0.17935660572E+04 0.  0.
        2    1    3    3  502    0  0.82365052973E+03  0.72061487404E+02  0.46569301274E+03  0.94892730766E+03  0.25500000920E-02 0. -1.
       -2    1    3    3    0  502 -0.82365052973E+03 -0.72061487404E+02 -0.23467270158E+03  0.85945583364E+03  0.25500000920E-02 0.  1.
</event>
<event>
 5   0  0.3909859E-05  0.1806136E+04  0.7818609E-02  0.8703043E-01
        2   -1    0    0  501    0  0.00000000000E+00  0.00000000000E+00  0.19322240175E+04  0.19322240175E+04  0.25500000920E-02 0.  1.
       -2   -1    0    0    0  501  0.00000000000E+00  0.00000000000E+00 -0.42206914171E+03  0.42206914171E+03  0.25500000920E-02 0. -1.
    10030    2    1    2    0    0  0.00000000000E+00  0.00000000000E+00  0.15101548758E+04  0.23542931592E+04  0.18061363544E+04 0.  0.
        4    1    3    3  502    0  0.11529279904E+03  0.78811387042E+03  0.13098139581E+04  0.15329807957E+04  0.12699999809E+01 0.  1.
       -4    1    3    3    0  502 -0.11529279904E+03 -0.78811387042E+03  0.20034091768E+03  0.82131236351E+03  0.12699999809E+01 0. -1.
</event>
<event>
 5   0  0.3983176E-05  0.1800684E+04  0.7818609E-02  0.8705936E-01
       -2   -1    0    0    0  501  0.00000000000E+00  0.00000000000E+00  0.54109013623E+03  0.54109013623E+03  0.25500000920E-02 0.  1.
        2   -1    0    0  501    0  0.00000000000E+00  0.00000000000E+00 -0.14981164661E+04  0.14981164661E+04  0.25500000920E-02 0. -1.
    10030    2    1    2    0    0  0.00000000000E+00  0.00000000000E+00 -0.95702632985E+03  0.20392066023E+04  0.18006843618E+04 0.  0.
        3    1    3    3  502    0 -0.43762822286E+03 -0.78679451867E+03 -0.48667604464E+03  0.10234342474E+04  0.10100000352E+00 0. -1.
       -3    1    3    3    0  502  0.43762822286E+03  0.78679451867E+03 -0.47035028521E+03  0.10157723549E+04  0.10100000352E+00 0.  1.
</event>
<event>
 5   0  0.1960300E-05  0.1800214E+04  0.7818609E-02  0.8706186E-01
       -1   -1    0    0    0  501  0.00000000000E+00  0.00000000000E+00  0.33435832350E+03  0.33435832354E+03  0.50400001928E-02 0. -1.
        1   -1    0    0  501    0  0.00000000000E+00  0.00000000000E+00 -0.24231266981E+04  0.24231266981E+04  0.50400001928E-02 0.  1.
    10030    2    1    2    0    0  0.00000000000E+00  0.00000000000E+00 -0.20887683746E+04  0.27574850216E+04  0.18002139656E+04 0.  0.
        3    1    3    3  502    0 -0.79203933086E+03  0.11703583428E+03 -0.41437152921E+03  0.90151398356E+03  0.10100000352E+00 0. -1.
       -3    1    3    3    0  502  0.79203933086E+03 -0.11703583428E+03 -0.16743968454E+04  0.18559710381E+04  0.10100000352E+00 0.  1.
</event>
<event>
 5   0  0.3993393E-05  0.1771151E+04  0.7818609E-02  0.8721793E-01
        2   -1    0    0  501    0  0.00000000000E+00  0.00000000000E+00  0.45354691913E+03  0.45354691914E+03  0.25500000920E-02 0.  1.
       -2   -1    0    0    0  501  0.00000000000E+00  0.00000000000E+00 -0.17291346701E+04  0.17291346701E+04  0.25500000920E-02 0. -1.
    10030    2    1    2    0    0  0.00000000000E+00  0.00000000000E+00 -0.12755877510E+04  0.21826815892E+04  0.17711507021E+04 0.  0.
        5    1    3    3  502    0  0.33840919024E+03 -0.64799974621E+03 -0.21867759712E+02  0.73138549346E+03  0.46999998093E+01 0.  1.
       -5    1    3    3    0  502 -0.33840919024E+03  0.64799974621E+03 -0.12537199912E+04  0.14512960958E+04  0.46999998093E+01 0. -1.
</event>
<event>
 5   0  0.4015729E-05  0.1787016E+04  0.7818609E-02  0.8713235E-01
       -2   -1    0    0    0  501  0.00000000000E+00  0.00000000000E+00  0.55207057867E+03  0.55207057868E+03  0.25500000920E-02 0. -1.
        2   -1    0    0  501    0  0.00000000000E+00  0.00000000000E+00 -0.14461126647E+04  0.14461126647E+04  0.25500000920E-02 0.  1.
    10030    2    1    2    0    0  0.00000000000E+00  0.00000000000E+00 -0.89404208602E+03  0.19981832434E+04  0.17870156749E+04 0.  0.
        2    1    3    3  502    0  0.39877956162E+03  0.17762219372E+03  0.42470632200E+03  0.60905684663E+03  0.25500000920E-02 0. -1.
       -2    1    3    3    0  502 -0.39877956162E+03 -0.17762219372E+03 -0.13187484080E+04  0.13891263967E+04  0.25500000920E-02 0.  1.
</event>
<event>
 5   0  0.1960300E-05  0.1796969E+04  0.7818609E-02  0.8707913E-01
        1   -1    0    0  501    0  0.00000000000E+00  0.00000000000E+00  0.10248753489E+04  0.10248753489E+04  0.50400001928E-02 0. -1.
       -1   -1    0    0    0  501  0.00000000000E+00  0.00000000000E+00 -0.78768060739E+03  0.78768060740E+03  0.50400001928E-02 0.  1.
    10030    2    1    2    0    0  0.00000000000E+00  0.00000000000E+00  0.23719474149E+03  0.18125559563E+04  0.17969690452E+04 0.  0.
        3    1    3    3  502    0 -0.43259864672E+03  0.30062372964E+03  0.85275560686E+03  0.10023514110E+04  0.10100000352E+00 0. -1.
       -3    1    3    3    0  502  0.43259864672E+03 -0.30062372964E+03 -0.61556086538E+03  0.81020454525E+03  0.10100000352E+00 0.  1.
</event>
<event>
 5   0  0.3993393E-05  0.1801775E+04  0.7818609E-02  0.8705356E-01
        2   -1    0    0  501    0  0.00000000000E+00  0.00000000000E+00  0.57148334475E+03  0.57148334476E+03  0.25500000920E-02 0. -1.
       -2   -1    0    0    0  501  0.00000000000E+00  0.00000000000E+00 -0.14201601318E+04  0.14201601318E+04  0.25500000920E-02 0.  1.
    10030    2    1    2    0    0  0.00000000000E+00  0.00000000000E+00 -0.84867678708E+03  0.19916434766E+04  0.18017745278E+04 0.  0.
        5    1    3    3  502    0 -0.41493772714E+03 -0.79652271699E+03 -0.50214023290E+03  0.10289745670E+04  0.46999998093E+01 0.  1.
       -5    1    3    3    0  502  0.41493772714E+03  0.79652271699E+03 -0.34653655419E+03  0.96266890958E+03  0.46999998093E+01 0. -1.
</event>
<event>
 5   0  0.1446750E-05  0.1792236E+04  0.7818609E-02  0.8710439E-01
       -3   -1    0    0    0  501  0.00000000000E+00  0.00000000000E+00  0.35936120161E+03  0.35936121580E+03  0.10100000352E+00 0. -1.
        3   -1    0    0  501    0  0.00000000000E+00  0.00000000000E+00 -0.22345968842E+04  0.22345968865E+04  0.10100000352E+00 0.  1.
    10030    2    1    2    0    0  0.00000000000E+00  0.00000000000E+00 -0.18752356826E+04  0.25939581023E+04  0.17922359697E+04 0.  0.
        2    1    3    3  502    0  0.57456714192E+03  0.27612511977E+03 -0.18491546546E+04  0.19559512823E+04  0.25500000920E-02 0.  1.
       -2    1    3    3    0  502 -0.57456714192E+03 -0.27612511977E+03 -0.26081028074E+02  0.63800682000E+03  0.25500000920E-02 0. -1.
</event>
<event>
 5   0  0.3993393E-05  0.1807912E+04  0.7818609E-02  0.8702103E-01
        2   -1    0    0  501    0  0.00000000000E+00  0.00000000000E+00  0.17508781081E+04  0.17508781081E+04  0.25500000920E-02 0. -1.
       -2   -1    0    0    0  501  0.00000000000E+00  0.00000000000E+00 -0.46670106333E+03  0.46670106334E+03  0.25500000920E-02 0.  1.
    10030    2    1    2    0    0  0.00000000000E+00  0.00000000000E+00  0.12841770448E+04  0.22175791715E+04  0.18079122488E+04 0.  0.
        5    1    3    3  502    0 -0.83404064927E+03 -0.13408142201E+03  0.24745031049E+03  0.88025869977E+03  0.46999998093E+01 0.  1.
       -5    1    3    3    0  502  0.83404064927E+03  0.13408142201E+03  0.10367267343E+04  0.13373204717E+04  0.46999998093E+01 0. -1.
</event>
<event>
 5   0  0.3984648E-05  0.1797940E+04  0.7818609E-02  0.8707396E-01
        2   -1    0    0  501    0  0.00000000000E+00  0.00000000000E+00  0.15501171250E+04  0.15501171250E+04  0.25500000920E-02 0. -1.
       -2   -1    0    0    0  501  0.00000000000E+00  0.00000000000E+00 -0.52134580606E+03  0.52134580606E+03  0.25500000920E-02 0.  1.
    10030    2    1    2    0    0  0.00000000000E+00  0.00000000000E+00  0.10287713189E+04  0.20714629310E+04  0.17979400012E+04 0.  0.
        1    1    3    3  502    0 -0.71442777310E+03 -0.11722099013E+02 -0.11413613242E+03  0.72358241226E+03  0.50400001928E-02 0.  1.
       -1    1    3    3    0  502  0.71442777310E+03  0.11722099013E+02  0.11429074513E+04  0.13478805188E+04  0.50400001928E-02 0. -1.
</event>
<event>
 5   0  0.3909859E-05  0.1799823E+04  0.7818609E-02  0.8706393E-01
       -2   -1    0    0    0  501  0.00000000000E+00  0.00000000000E+00  0.47494828130E+03  0.47494828131E+03  0.25500000920E-02 0.  1.
        2   -1    0    0  501    0  0.00000000000E+00  0.00000000000E+00 -0.17051138429E+04  0.17051138429E+04  0.25500000920E-02 0. -1.
    10030    2    1    2    0    0  0.00000000000E+00  0.00000000000E+00 -0.12301655616E+04  0.21800621242E+04  0.17998232014E+04 0.  0.
        4    1    3    3  502    0  0.12616485221E+03  0.81861937690E+03 -0.10412414412E+04  0.13305038917E+04  0.12699999809E+01 0. -1.
       -4    1    3    3    0  502 -0.12616485221E+03 -0.81861937690E+03 -0.18892412040E+03  0.84955823246E+03  0.12699999809E+01 0.  1.
</event>
<event>
 5   0  0.1960300E-05  0.1800886E+04  0.7818609E-02  0.8705829E-01
        1   -1    0    0  501    0  0.00000000000E+00  0.00000000000E+00  0.64484874973E+03  0.64484874975E+03  0.50400001928E-02 0. -1.
       -1   -1    0    0    0  501  0.00000000000E+00  0.00000000000E+00 -0.12573451644E+04  0.12573451644E+04  0.50400001928E-02 0.  1.
    10030    2    1    2    0    0  0.00000000000E+00  0.00000000000E+00 -0.61249641463E+03  0.19021939141E+04  0.18008858456E+04 0.  0.
        3    1    3    3  502    0  0.34020509528E+03  0.56535901486E+03 -0.95343765374E+03  0.11594885477E+04  0.10100000352E+00 0.  1.
       -3    1    3    3    0  502 -0.34020509528E+03 -0.56535901486E+03  0.34094123911E+03  0.74270536639E+03  0.10100000352E+00 0. -1.
</event>
<event>
 5   0  0.1906857E-05  0.1800342E+04  0.7818609E-02  0.8706118E-01
        1   -1    0    0  501    0  0.00000000000E+00  0.00000000000E+00  0.91726039054E+03  0.91726039055E+03  0.50400001928E-02 0. -1.
       -1   -1    0    0    0  501  0.00000000000E+00  0.00000000000E+00 -0.88339951777E+03  0.88339951778E+03  0.50400001928E-02 0.  1.
    10030    2    1    2    0    0  0.00000000000E+00  0.00000000000E+00  0.33860872774E+02  0.18006599083E+04  0.18003415084E+04 0.  0.
        4    1    3    3  502    0  0.79766588601E+03 -0.78037223077E+02 -0.39295309479E+03  0.89262221655E+03  0.12699999809E+01 0.  1.
       -4    1    3    3    0  502 -0.79766588601E+03  0.78037223077E+02  0.42681396756E+03  0.90803769178E+03  0.12699999809E+01 0. -1.
</event>
<event>
 5   0  0.3984648E-05  0.1803348E+04  0.7818609E-02  0.8704521E-01
       -2   -1    0    0    0  501  0.00000000000E+00  0.00000000000E+00  0.58220225300E+03  0.58220225301E+03  0.25500000920E-02 0. -1.
        2   -1    0    0  501    0  0.00000000000E+00  0.00000000000E+00 -0.13964493996E+04  0.13964493996E+04  0.25500000920E-02 0.  1.
    10030    2    1    2    0    0  0.00000000000E+00  0.00000000000E+00 -0.81424714660E+03  0.19786516526E+04  0.18033479827E+04 0.  0.
        1    1    3    3  502    0  0.10653115024E+03  0.81220432638E+03  0.63241157662E+01  0.81918541749E+03  0.50400001928E-02 0. -1.
       -1    1    3    3    0  502 -0.10653115024E+03 -0.81220432638E+03 -0.82057126236E+03  0.11594662351E+04  0.50400001928E-02 0.  1.
</event>
<event>
 5   0  0.2038338E-05  0.1794781E+04  0.7818609E-02  0.8709080E-01
        1   -1    0    0  501    0  0.00000000000E+00  0.00000000000E+00  0.16049973175E+04  0.16049973175E+04  0.50400001928E-02 0.  1.
       -1   -1    0    0    0  501  0.00000000000E+00  0.00000000000E+00 -0.50175132147E+03  0.50175132149E+03  0.50400001928E-02 0. -1.
    10030    2    1    2    0    0  0.00000000000E+00  0.00000000000E+00  0.11032459960E+04  0.21067486390E+04  0.17947807945E+04 0.  0.
        1    1    3    3  502    0 -0.80145983240E+03 -0.70886769084E+02  0.85117651740E+02  0.80907837176E+03  0.50400001928E-02 0. -1.
       -1    1    3    3    0  502  0.80145983240E+03  0.70886769084E+02  0.10181283443E+04  0.12976702672E+04  0.50400001928E-02 0.  1.
</event>
<event>
 5   0  0.3909859E-05  0.1795359E+04  0.7818609E-02  0.8708771E-01
        2   -1    0    0  501    0  0.00000000000E+00  0.00000000000E+00  0.56905295948E+03  0.56905295948E+03  0.25500000920E-02 0.  1.
       -2   -1    0    0    0  501  0.00000000000E+00  0.00000000000E+00 -0.14160873384E+04  0.14160873384E+04  0.25500000920E-02 0. -1.
    10030    2    1    2    0    0  0.00000000000E+00  0.00000000000E+00 -0.84703437889E+03  0.19851402979E+04  0.17953592296E+04 0.  0.
        4    1    3    3  502    0  0.57964418122E+03  0.19494251997E+03 -0.11501246116E+04  0.13026043904E+04  0.12699999809E+01 0. -1.
       -4    1    3    3    0  502 -0.57964418122E+03 -0.19494251997E+03  0.30309023266E+03  0.68253590745E+03  0.12699999809E+01 0.  1.
</event>
<event>
 5   0  0.3993393E-05  0.1801609E+04  0.7818609E-02  0.8705444E-01
        2   -1    0    0  501    0  0.00000000000E+00  0.00000000000E+00  0.97549960565E+03  0.97549960565E+03  0.25500000920E-02 0. -1.
       -2   -1    0    0    0  501  0.00000000000E+00  0.00000000000E+00 -0.83182919126E+03  0.83182919127E+03  0.25500000920E-02 0.  1.
    10030    2    1    2    0    0  0.00000000000E+00  0.00000000000E+00  0.14367041438E+03  0.18073287969E+04  0.18016093340E+04 0.  0.
        5    1    3    3  502    0 -0.50978335627E+03 -0.71736539789E+03  0.26462954104E+03  0.91899024392E+03  0.46999998093E+01 0.  1.
       -5    1    3    3    0  502  0.50978335627E+03  0.71736539789E+03 -0.12095912666E+03  0.88833855300E+03  0.46999998093E+01 0. -1.
</event>
<event>
 5   0  0.3993393E-05  0.1799344E+04  0.7818609E-02  0.8706648E-01
       -2   -1    0    0    0  501  0.00000000000E+00  0.00000000000E+00  0.66316544514E+03  0.66316544514E+03  0.25500000920E-02 0.  1.
        2   -1    0    0  501    0  0.00000000000E+00  0.00000000000E+00 -0.12205251164E+04  0.12205251164E+04  0.25500000920E-02 0. -1.
    10030    2    1    2    0    0  0.00000000000E+00  0.00000000000E+00 -0.55735967122E+03  0.18836905615E+04  0.17993444163E+04 0.  0.
        5    1    3    3  502    0  0.98859999547E+02  0.84589968814E+03  0.24857193048E+02  0.85203260029E+03  0.46999998093E+01 0.  1.
       -5    1    3    3    0  502 -0.98859999547E+02 -0.84589968814E+03 -0.58221686427E+03  0.10316579612E+04  0.46999998093E+01 0. -1.
</event>
<event>
 5   0  0.1906857E-05  0.1798881E+04  0.7818609E-02  0.8706895E-01
        1   -1    0    0  501    0  0.00000000000E+00  0.00000000000E+00  0.11349629369E+04  0.11349629369E+04  0.50400001928E-02 0. -1.
       -1   -1    0    0    0  501  0.00000000000E+00  0.00000000000E+00 -0.71279292662E+03  0.71279292664E+03  0.50400001928E-02 0.  1.
    10030    2    1    2    0    0  0.00000000000E+00  0.00000000000E+00  0.42217001031E+03  0.18477558636E+04  0.17988813785E+04 0.  0.
        4    1    3    3  502    0  0.82914122131E+03  0.29630444881E+03  0.39970543890E+03  0.96697339263E+03  0.12699999809E+01 0. -1.
       -4    1    3    3    0  502 -0.82914122131E+03 -0.29630444881E+03  0.22464571410E+02  0.88078247095E+03  0.12699999809E+01 0.  1.
</event>
<event>
 5   0  0.1906857E-05  0.1804462E+04  0.7818609E-02  0.8703930E-01
        1   -1    0    0  501    0  0.00000000000E+00  0.00000000000E+00  0.68887710247E+03  0.68887710249E+03  0.50400001928E-02 0. -1.
       -1   -1    0    0    0  501  0.00000000000E+00  0.00000000000E+00 -0.11816632597E+04  0.11816632597E+04  0.50400001928E-02 0.  1.
    10030    2    1    2    0    0  0.00000000000E+00  0.00000000000E+00 -0.49278615722E+03  0.18705403622E+04  0.18044619835E+04 0.  0.
        4    1    3    3  502    0 -0.69356252083E+03  0.56689897643E+03 -0.13467007641E+03  0.90583721614E+03  0.12699999809E+01 0. -1.
       -4    1    3    3    0  502  0.69356252083E+03 -0.56689897643E+03 -0.35811608081E+03  0.96470314605E+03  0.12699999809E+01 0.  1.
</event>
<event>
 5   0  0.2038338E-05  0.1802478E+04  0.7818609E-02  0.8704983E-01
       -1   -1    0    0    0  501  0.00000000000E+00  0.00000000000E+00  0.16518337145E+04  0.16518337145E+04  0.50400001928E-02 0. -1.
        1   -1    0    0  501    0  0.00000000000E+00  0.00000000000E+00 -0.49171498323E+03  0.49171498326E+03  0.50400001928E-02 0.  1.
    10030    2    1    2    0    0  0.00000000000E+00  0.00000000000E+00  0.11601187313E+04  0.21435486978E+04  0.18024776140E+04 0.  0.
        1    1    3    3  502    0  0.83828816872E+03 -0.25051000649E+03  0.83718771560E+03  0.12109358316E+04  0.50400001928E-02 0. -1.
       -1    1    3    3    0  502 -0.83828816872E+03  0.25051000649E+03  0.32293101568E+03  0.93261286614E+03  0.50400001928E-02 0.  1.
</event>
<event>
 5   0  0.3993393E-05  0.1800981E+04  0.7818609E-02  0.8705778E-01
       -2   -1    0    0    0  501  0.00000000000E+00  0.00000000000E+00  0.52086213156E+03  0.52086213156E+03  0.25500000920E-02 0.  1.
        2   -1    0    0  501    0  0.00000000000E+00  0.00000000000E+00 -0.15568098549E+04  0.15568098549E+04  0.25500000920E-02 0. -1.
    10030    2    1    2    0    0  0.00000000000E+00  0.00000000000E+00 -0.10359477234E+04  0.20776719865E+04  0.18009811764E+04 0.  0.
        5    1    3    3  502    0 -0.32523806439E+03  0.21698786866E+02  0.45039850620E+03  0.55599598943E+03  0.46999998093E+01 0.  1.
       -5    1    3    3    0  502  0.32523806439E+03 -0.21698786866E+02 -0.14863462296E+04  0.15216759971E+04  0.46999998093E+01 0. -1.
</event>
<event>
 5   0  0.3909859E-05  0.1805210E+04  0.7818609E-02  0.8703534E-01
        2   -1    0    0  501    0  0.00000000000E+00  0.00000000000E+00  0.13425224474E+04  0.13425224474E+04  0.25500000920E-02 0. -1.
       -2   -1    0    0    0  501  0.00000000000E+00  0.00000000000E+00 -0.60683959728E+03  0.60683959729E+03  0.25500000920E-02 0.  1.
    10030    2    1    2    0    0  0.00000000000E+00  0.00000000000E+00  0.73568285011E+03  0.19493620447E+04  0.18052099948E+04 0.  0.
        4    1    3    3  502    0 -0.45630883250E+01 -0.49929457612E+03  0.11798008622E+04  0.12811118542E+04  0.12699999809E+01 0. -1.
       -4    1    3    3    0  502  0.45630883250E+01  0.49929457612E+03 -0.44411801211E+03  0.66825019050E+03  0.12699999809E+01 0.  1.
</event>
<event>
 5   0  0.3984648E-05  0.1813593E+04  0.7818609E-02  0.8699104E-01
        2   -1    0    0  501    0  0.00000000000E+00  0.00000000000E+00  0.12334572326E+04  0.12334572326E+04  0.25500000920E-02 0. -1.
       -2   -1    0    0    0  501  0.00000000000E+00  0.00000000000E+00 -0.66664630270E+03  0.66664630270E+03  0.25500000920E-02 0.  1.
    10030    2    1    2    0    0  0.00000000000E+00  0.00000000000E+00  0.56681092991E+03  0.19001035353E+04  0.18135927918E+04 0.  0.
        1    1    3    3  502    0  0.88196685627E+03  0.17320728180E+03  0.15762280082E+03  0.91253013396E+03  0.50400001928E-02 0.  1.
       -1    1    3    3    0  502 -0.88196685627E+03 -0.17320728180E+03  0.40918812910E+03  0.98757340135E+03  0.50400001928E-02 0. -1.
</event>
<event>
 5   0  0.3984648E-05  0.1804039E+04  0.7818609E-02  0.8704155E-01
       -2   -1    0    0    0  501  0.00000000000E+00  0.00000000000E+00  0.58107840209E+03  0.58107840209E+03  0.25500000920E-02 0. -1.
        2   -1    0    0  501    0  0.00000000000E+00  0.00000000000E+00 -0.14002224861E+04  0.14002224861E+04  0.25500000920E-02 0.  1.
    10030    2    1    2    0    0  0.00000000000E+00  0.00000000000E+00 -0.81914408405E+03  0.19813008882E+04  0.18040388519E+04 0.  0.
        1    1    3    3  502    0 -0.45564492573E+03 -0.30337793682E+03  0.37780233953E+03  0.66512034901E+03  0.50400001928E-02 0. -1.
       -1    1    3    3    0  502  0.45564492573E+03  0.30337793682E+03 -0.11969464236E+04  0.13161805392E+04  0.50400001928E-02 0.  1.
</event>
<event>
 5   0  0.2001811E-05  0.1798095E+04  0.7818609E-02  0.8707313E-01
        1   -1    0    0  501    0  0.00000000000E+00  0.00000000000E+00  0.19471139865E+04  0.19471139865E+04  0.50400001928E-02 0.  1.
       -1   -1    0    0    0  501  0.00000000000E+00  0.00000000000E+00 -0.41512034582E+03  0.41512034585E+03  0.50400001928E-02 0. -1.
    10030    2    1    2    0    0  0.00000000000E+00  0.00000000000E+00  0.15319936407E+04  0.23622343324E+04  0.17980952494E+04 0.  0.
        2    1    3    3  502    0 -0.80117017379E+03 -0.13370200457E+03  0.25967428890E+03  0.85274885501E+03  0.25500000920E-02 0. -1.
       -2    1    3    3    0  502  0.80117017379E+03  0.13370200457E+03  0.12723193518E+04  0.15094854774E+04  0.25500000920E-02 0.  1.
</event>
<event>
 5   0  0.2054876E-05  0.1795170E+04  0.7818609E-02  0.8708872E-01
        1   -1    0    0  501    0  0.00000000000E+00  0.00000000000E+00  0.68087717901E+03  0.68087717902E+03  0.50400001928E-02 0.  1.
       -1   -1    0    0    0  501  0.00000000000E+00  0.00000000000E+00 -0.11832660072E+04  0.11832660072E+04  0.50400001928E-02 0. -1.
    10030    2    1    2    0    0  0.00000000000E+00  0.00000000000E+00 -0.50238882821E+03  0.18641431862E+04  0.17951699875E+04 0.  0.
        5    1    3    3  502    0 -0.58579200774E+03  0.36169832523E+03  0.34683071825E+03  0.77090310151E+03  0.46999998093E+01 0.  1.
       -5    1    3    3    0  502  0.58579200774E+03 -0.36169832523E+03 -0.84921954645E+03  0.10932400847E+04  0.46999998093E+01 0. -1.
</event>
<event>
 5   0  0.3993393E-05  0.1797643E+04  0.7818609E-02  0.8707554E-01
       -2   -1    0    0    0  501  0.00000000000E+00  0.00000000000E+00  0.54500788886E+03  0.54500788887E+03  0.25500000920E-02 0. -1.
        2   -1    0    0  501    0  0.00000000000E+00  0.00000000000E+00 -0.14823268082E+04  0.14823268082E+04  0.25500000920E-02 0.  1.
    10030    2    1    2    0    0  0.00000000000E+00  0.00000000000E+00 -0.93731891936E+03  0.20273346971E+04  0.17976426835E+04 0.  0.
        5    1    3    3  502    0 -0.80692682765E+03 -0.19015695312E+03 -0.77064975846E+02  0.83261736260E+03  0.46999998093E+01 0. -1.
       -5    1    3    3    0  502  0.80692682765E+03  0.19015695312E+03 -0.86025394352E+03  0.11947173345E+04  0.46999998093E+01 0.  1.
</event>
<event>
 5   0  0.1906857E-05  0.1799682E+04  0.7818609E-02  0.8706469E-01
       -1   -1    0    0    0  501  0.00000000000E+00  0.00000000000E+00  0.96874122937E+03  0.96874122938E+03  0.50400001928E-02 0.  1.
        1   -1    0    0  501    0  0.00000000000E+00  0.00000000000E+00 -0.83584100234E+03  0.83584100235E+03  0.50400001928E-02 0. -1.
    10030    2    1    2    0    0  0.00000000000E+00  0.00000000000E+00  0.13290022703E+03  0.18045822317E+04  0.17996817943E+04 0.  0.
        4    1    3    3  502    0 -0.29917572702E+03  0.57422416784E+03 -0.56012939738E+03  0.85614605371E+03  0.12699999809E+01 0. -1.
       -4    1    3    3    0  502  0.29917572702E+03 -0.57422416784E+03  0.69302962442E+03  0.94843617803E+03  0.12699999809E+01 0.  1.
</event>
<event>
 5   0  0.4015729E-05  0.1801666E+04  0.7818609E-02  0.8705414E-01
       -2   -1    0    0    0  501  0.00000000000E+00  0.00000000000E+00  0.64689240052E+03  0.64689240052E+03  0.25500000920E-02 0. -1.
        2   -1    0    0  501    0  0.00000000000E+00  0.00000000000E+00 -0.12544598144E+04  0.12544598144E+04  0.25500000920E-02 0.  1.
    10030    2    1    2    0    0  0.00000000000E+00  0.00000000000E+00 -0.60756741391E+03  0.19013522150E+04  0.18016664738E+04 0.  0.
        2    1    3    3  502    0 -0.38062635328E+03  0.56526389120E+02  0.55579442878E+03  0.67600229330E+03  0.25500000920E-02 0. -1.
       -2    1    3    3    0  502  0.38062635328E+03 -0.56526389120E+02 -0.11633618427E+04  0.12253499217E+04  0.25500000920E-02 0.  1.
</event>
<event>
 5   0  0.2038338E-05  0.1799724E+04  0.7818609E-02  0.8706446E-01
        1   -1    0    0  501    0  0.00000000000E+00  0.00000000000E+00  0.10893302456E+04  0.10893302456E+04  0.50400001928E-02 0.  1.
       -1   -1    0    0    0  501  0.00000000000E+00  0.00000000000E+00 -0.74334800667E+03  0.74334800668E+03  0.50400001928E-02 0. -1.
    10030    2    1    2    0    0  0.00000000000E+00  0.00000000000E+00  0.34598223893E+03  0.18326782523E+04  0.17997238307E+04 0.  0.
        1    1    3    3  502    0 -0.69940087782E+03  0.31092428694E+02  0.74869540928E+03  0.10250234841E+04  0.50400001928E-02 0.  1.
       -1    1    3    3    0  502  0.69940087782E+03 -0.31092428694E+02 -0.40271317035E+03  0.80765476821E+03  0.50400001928E-02 0. -1.
</event>
<event>
 5   0  0.3983176E-05  0.1800624E+04  0.7818609E-02  0.8705968E-01
       -2   -1    0    0    0  501  0.00000000000E+00  0.00000000000E+00  0.35049831263E+03  0.35049831264E+03  0.25500000920E-02 0.  1.
        2   -1    0    0  501    0  0.00000000000E+00  0.00000000000E+00 -0.23125976838E+04  0.23125976838E+04  0.25500000920E-02 0. -1.
    10030    2    1    2    0    0  0.00000000000E+00  0.00000000000E+00 -0.19620993712E+04  0.26630959965E+04  0.18006238763E+04 0.  0.
        3    1    3    3  502    0 -0.51575043908E+03 -0.71340173143E+03 -0.70191291261E+03  0.11258873358E+04  0.10100000352E+00 0. -1.
       -3    1    3    3    0  502  0.51575043908E+03  0.71340173143E+03 -0.12601864586E+04  0.15372086607E+04  0.10100000352E+00 0.  1.
</event>
<event>
 5   0  0.3993393E-05  0.1800489E+04  0.7818609E-02  0.8706040E-01
       -2   -1    0    0    0  501  0.00000000000E+00  0.00000000000E+00  0.47636524514E+03  0.47636524514E+03  0.25500000920E-02 0. -1.
        2   -1    0    0  501    0  0.00000000000E+00  0.00000000000E+00 -0.17012995048E+04  0.17012995048E+04  0.25500000920E-02 0.  1.
    10030    2    1    2    0    0  0.00000000000E+00  0.00000000000E+00 -0.12249342597E+04  0.21776647500E+04  0.18004887733E+04 0.  0.
        5    1    3    3  502    0  0.63728600464E+03  0.41915118186E+03 -0.34190578305E+02  0.76355238891E+03  0.46999998093E+01 0. -1.
       -5    1    3    3    0  502 -0.63728600464E+03 -0.41915118186E+03 -0.11907436814E+04  0.14141123610E+04  0.46999998093E+01 0.  1.
</event>
<event>
 5   0  0.2038338E-05  0.1799992E+04  0.7818609E-02  0.8706304E-01
       -1   -1    0    0    0  501  0.00000000000E+00  0.00000000000E+00  0.83830448802E+03  0.83830448804E+03  0.50400001928E-02 0.  1.
        1   -1    0    0  501    0  0.00000000000E+00  0.00000000000E+00 -0.96622767965E+03  0.96622767966E+03  0.50400001928E-02 0. -1.
    10030    2    1    2    0    0  0.00000000000E+00  0.00000000000E+00 -0.12792319163E+03  0.18045321677E+04  0.17999922226E+04 0.  0.
        1    1    3    3  502    0 -0.77408380174E+03 -0.24494880964E+03 -0.45325446831E+03  0.92986303536E+03  0.50400001928E-02 0. -1.
       -1    1    3    3    0  502  0.77408380174E+03  0.24494880964E+03  0.32533127669E+03  0.87466913234E+03  0.50400001928E-02 0.  1.
</event>
<event>
 5   0  0.1906857E-05  0.1795298E+04  0.7818609E-02  0.8708804E-01
       -1   -1    0    0    0  501  0.00000000000E+00  0.00000000000E+00  0.98022789128E+03  0.98022789129E+03  0.50400001928E-02 0. -1.
        1   -1    0    0  501    0  0.00000000000E+00  0.00000000000E+00 -0.82202715977E+03  0.82202715979E+03  0.50400001928E-02 0.  1.
    10030    2    1    2    0    0  0.00000000000E+00  0.00000000000E+00  0.15820073151E+03  0.18022550511E+04  0.17952982476E+04 0.  0.
        4    1    3    3  502    0  0.77577353651E+03  0.23934246110E+03  0.46355034518E+03  0.93487428516E+03  0.12699999809E+01 0. -1.
       -4    1    3    3    0  502 -0.77577353651E+03 -0.23934246110E+03 -0.30534961367E+03  0.86738076593E+03  0.12699999809E+01 0.  1.
</event>
<event>
 5   0  0.2054876E-05  0.1800062E+04  0.7818609E-02  0.8706266E-01
       -1   -1    0    0    0  501  0.00000000000E+00  0.00000000000E+00  0.92847668292E+03  0.92847668293E+03  0.50400001928E-02 0.  1.
        1   -1    0    0  501    0  0.00000000000E+00  0.00000000000E+00 -0.87245693350E+03  0.87245693351E+03  0.50400001928E-02 0. -1.
    10030    2    1    2    0    0  0.00000000000E+00  0.00000000000E+00  0.56019749423E+02  0.18009336164E+04  0.18000621318E+04 0.  0.
        5    1    3    3  502    0  0.90826686276E+02  0.54819942701E+03  0.73635104358E+03  0.92250043257E+03  0.46999998093E+01 0.  1.
       -5    1    3    3    0  502 -0.90826686276E+02 -0.54819942701E+03 -0.68033129416E+03  0.87843318387E+03  0.46999998093E+01 0. -1.
</event>
<event>
 5   0  0.2054876E-05  0.1800980E+04  0.7818609E-02  0.8705779E-01
        1   -1    0    0  501    0  0.00000000000E+00  0.00000000000E+00  0.10487582388E+04  0.10487582389E+04  0.50400001928E-02 0.  1.
       -1   -1    0    0    0  501  0.00000000000E+00  0.00000000000E+00 -0.77318288229E+03  0.77318288230E+03  0.50400001928E-02 0. -1.
    10030    2    1    2    0    0  0.00000000000E+00  0.00000000000E+00  0.27557535655E+03  0.18219411212E+04  0.18009796423E+04 0.  0.
        5    1    3    3  502    0 -0.39391760832E+03  0.10568493386E+03  0.94995132288E+03  0.10338133261E+04  0.46999998093E+01 0.  1.
       -5    1    3    3    0  502  0.39391760832E+03 -0.10568493386E+03 -0.67437596632E+03  0.78812779506E+03  0.46999998093E+01 0. -1.
</event>
<event>
 5   0  0.3993393E-05  0.1805670E+04  0.7818609E-02  0.8703290E-01
       -2   -1    0    0    0  501  0.00000000000E+00  0.00000000000E+00  0.53084447242E+03  0.53084447242E+03  0.25500000920E-02 0.  1.
        2   -1    0    0  501    0  0.00000000000E+00  0.00000000000E+00 -0.15354985413E+04  0.15354985413E+04  0.25500000920E-02 0. -1.
    10030    2    1    2    0    0  0.00000000000E+00  0.00000000000E+00 -0.10046540689E+04  0.20663430137E+04  0.18056698625E+04 0.  0.
        5    1    3    3  502    0 -0.13247342363E+03 -0.77480349960E+03  0.58775873536E+01  0.78608288812E+03  0.46999998093E+01 0.  1.
       -5    1    3    3    0  502  0.13247342363E+03  0.77480349960E+03 -0.10105316562E+04  0.12802601256E+04  0.46999998093E+01 0. -1.
</event>
<event>
 5   0  0.3993393E-05  0.1799555E+04  0.7818609E-02  0.8706536E-01
        2   -1    0    0  501    0  0.00000000000E+00  0.00000000000E+00  0.15119804651E+04  0.15119804651E+04  0.25500000920E-02 0. -1.
       -2   -1    0    0    0  501  0.00000000000E+00  0.00000000000E+00 -0.53545663046E+03  0.53545663046E+03  0.25500000920E-02 0.  1.
    10030    2    1    2    0    0  0.00000000000E+00  0.00000000000E+00  0.97652383460E+03  0.20474370955E+04  0.17995554619E+04 0.  0.
        5    1    3    3  502    0  0.15369360031E+03 -0.33247298148E+03  0.14233049632E+04  0.14696867402E+04  0.46999998093E+01 0. -1.
       -5    1    3    3    0  502 -0.15369360031E+03  0.33247298148E+03 -0.44678112858E+03  0.57775035529E+03  0.46999998093E+01 0.  1.
</event>
<event>
 5   0  0.3983176E-05  0.1803418E+04  0.7818609E-02  0.8704484E-01
       -2   -1    0    0    0  501  0.00000000000E+00  0.00000000000E+00  0.55686762035E+03  0.55686762036E+03  0.25500000920E-02 0. -1.
        2   -1    0    0  501    0  0.00000000000E+00  0.00000000000E+00 -0.14600946096E+04  0.14600946096E+04  0.25500000920E-02 0.  1.
    10030    2    1    2    0    0  0.00000000000E+00  0.00000000000E+00 -0.90322698929E+03  0.20169622300E+04  0.18034183217E+04 0.  0.
        3    1    3    3  502    0 -0.48975337459E+03 -0.75363696637E+03 -0.37055876768E+03  0.97218355032E+03  0.10100000352E+00 0. -1.
       -3    1    3    3    0  502  0.48975337459E+03  0.75363696637E+03 -0.53266822161E+03  0.10447786797E+04  0.10100000352E+00 0.  1.
</event>
<event>
 5   0  0.3993393E-05  0.1794632E+04  0.7818609E-02  0.8709159E-01
       -2   -1    0    0    0  501  0.00000000000E+00  0.00000000000E+00  0.71553477139E+03  0.71553477139E+03  0.25500000920E-02 0.  1.
        2   -1    0    0  501    0  0.00000000000E+00  0.00000000000E+00 -0.11252787131E+04  0.11252787131E+04  0.25500000920E-02 0. -1.
    10030    2    1    2    0    0  0.00000000000E+00  0.00000000000E+00 -0.40974394167E+03  0.18408134845E+04  0.17946320478E+04 0.  0.
        5    1    3    3  502    0  0.53974396266E+03  0.71631270673E+03 -0.23251957196E+03  0.92656078073E+03  0.46999998093E+01 0. -1.
       -5    1    3    3    0  502 -0.53974396266E+03 -0.71631270673E+03 -0.17722436971E+03  0.91425270372E+03  0.46999998093E+01 0.  1.
</event>
<event>
 5   0  0.2001811E-05  0.1799406E+04  0.7818609E-02  0.8706615E-01
       -1   -1    0    0    0  501  0.00000000000E+00  0.00000000000E+00  0.63229330529E+03  0.63229330531E+03  0.50400001928E-02 0. -1.
        1   -1    0    0  501    0  0.00000000000E+00  0.00000000000E+00 -0.12802056888E+04  0.12802056888E+04  0.50400001928E-02 0.  1.
    10030    2    1    2    0    0  0.00000000000E+00  0.00000000000E+00 -0.64791238352E+03  0.19124989941E+04  0.17994059981E+04 0.  0.
        2    1    3    3  502    0 -0.32997397224E+03 -0.79322156135E+03 -0.39989715117E+02  0.86004793184E+03  0.25500000920E-02 0. -1.
       -2    1    3    3    0  502  0.32997397224E+03  0.79322156135E+03 -0.60792266841E+03  0.10524510623E+04  0.25500000920E-02 0.  1.
</event>
<event>
 5   0  0.3983176E-05  0.1800593E+04  0.7818609E-02  0.8705984E-01
       -2   -1    0    0    0  501  0.00000000000E+00  0.00000000000E+00  0.43069583662E+03  0.43069583663E+03  0.25500000920E-02 0. -1.
        2   -1    0    0  501    0  0.00000000000E+00  0.00000000000E+00 -0.18819170741E+04  0.18819170741E+04  0.25500000920E-02 0.  1.
    10030    2    1    2    0    0  0.00000000000E+00  0.00000000000E+00 -0.14512212375E+04  0.23126129107E+04  0.18005930675E+04 0.  0.
        3    1    3    3  502    0  0.60949714222E+03 -0.52739307909E+03 -0.21041724439E+03  0.83300999585E+03  0.10100000352E+00 0. -1.
       -3    1    3    3    0  502 -0.60949714222E+03  0.52739307909E+03 -0.12408039931E+04  0.14796029149E+04  0.10100000352E+00 0.  1.
</event>
<event>
 5   0  0.3909859E-05  0.1801054E+04  0.7818609E-02  0.8705739E-01
        2   -1    0    0  501    0  0.00000000000E+00  0.00000000000E+00  0.94054536407E+03  0.94054536407E+03  0.25500000920E-02 0.  1.
       -2   -1    0    0    0  501  0.00000000000E+00  0.00000000000E+00 -0.86221123072E+03  0.86221123073E+03  0.25500000920E-02 0. -1.
    10030    2    1    2    0    0  0.00000000000E+00  0.00000000000E+00  0.78334133343E+02  0.18027565948E+04  0.18010538869E+04 0.  0.
        4    1    3    3  502    0  0.80730381677E+03 -0.85895885387E+02  0.42918863146E+03  0.91832567751E+03  0.12699999809E+01 0.  1.
       -4    1    3    3    0  502 -0.80730381677E+03  0.85895885387E+02 -0.35085449812E+03  0.88443091729E+03  0.12699999809E+01 0. -1.
</event>
<event>
 5   0  0.3983176E-05  0.1798881E+04  0.7818609E-02  0.8706895E-01
        2   -1    0    0  501    0  0.00000000000E+00  0.00000000000E+00  0.15373932463E+04  0.15373932463E+04  0.25500000920E-02 0.  1.
       -2   -1    0    0    0  501  0.00000000000E+00  0.00000000000E+00 -0.52621126473E+03  0.52621126473E+03  0.25500000920E-02 0. -1.
    10030    2    1    2    0    0  0.00000000000E+00  0.00000000000E+00  0.10111819815E+04  0.20636045110E+04  0.17988814797E+04 0.  0.
        3    1    3    3  502    0  0.70670461804E+03  0.48113697145E+03  0.82611784952E+03  0.11888628659E+04  0.10100000352E+00 0.  1.
       -3    1    3    3    0  502 -0.70670461804E+03 -0.48113697145E+03  0.18506413201E+03  0.87474164507E+03  0.10100000352E+00 0. -1.
</event>
<event>
 5   0  0.2001811E-05  0.1798802E+04  0.7818609E-02  0.8706937E-01
        1   -1    0    0  501    0  0.00000000000E+00  0.00000000000E+00  0.14013450011E+04  0.14013450011E+04  0.50400001928E-02 0.  1.
       -1   -1    0    0    0  501  0.00000000000E+00  0.00000000000E+00 -0.57724676634E+03  0.57724676636E+03  0.50400001928E-02 0. -1.
    10030    2    1    2    0    0  0.00000000000E+00  0.00000000000E+00  0.82409823475E+03  0.19785917675E+04  0.17988016794E+04 0.  0.
        2    1    3    3  502    0 -0.80875447967E+03 -0.30109840448E+03  0.13339506091E+03  0.87323438998E+03  0.25500000920E-02 0. -1.
       -2    1    3    3    0  502  0.80875447967E+03  0.30109840448E+03  0.69070317384E+03  0.11053573775E+04  0.25500000920E-02 0.  1.
</event>
<event>
 5   0  0.4015729E-05  0.1797749E+04  0.7818609E-02  0.8707497E-01
        2   -1    0    0  501    0  0.00000000000E+00  0.00000000000E+00  0.20190407413E+04  0.20190407413E+04  0.25500000920E-02 0. -1.
       -2   -1    0    0    0  501  0.00000000000E+00  0.00000000000E+00 -0.40017795810E+03  0.40017795811E+03  0.25500000920E-02 0.  1.
    10030    2    1    2    0    0  0.00000000000E+00  0.00000000000E+00  0.16188627832E+04  0.24192186994E+04  0.17977492608E+04 0.  0.
        2    1    3    3  502    0  0.30822962227E+03  0.24221269607E+03  0.18979491145E+04  0.19380101474E+04  0.25500000920E-02 0. -1.
       -2    1    3    3    0  502 -0.30822962227E+03 -0.24221269607E+03 -0.27908633132E+03  0.48120855200E+03  0.25500000920E-02 0.  1.
</event>
<event>
 5   0  0.1906857E-05  0.1795003E+04  0.7818609E-02  0.8708962E-01
       -1   -1    0    0    0  501  0.00000000000E+00  0.00000000000E+00  0.12543346065E+04  0.12543346065E+04  0.50400001928E-02 0.  1.
        1   -1    0    0  501    0  0.00000000000E+00  0.00000000000E+00 -0.64218002593E+03  0.64218002595E+03  0.50400001928E-02 0. -1.
    10030    2    1    2    0    0  0.00000000000E+00  0.00000000000E+00  0.61215458058E+03  0.18965146325E+04  0.17950026520E+04 0.  0.
        4    1    3    3  502    0 -0.21288381071E+03 -0.20499436842E+03  0.12014485780E+04  0.12372641215E+04  0.12699999809E+01 0.  1.
       -4    1    3    3    0  502  0.21288381071E+03  0.20499436842E+03 -0.58929399739E+03  0.65925051097E+03  0.12699999809E+01 0. -1.
</event>
<event>
 5   0  0.1906857E-05  0.1791050E+04  0.7818609E-02  0.8711074E-01
       -1   -1    0    0    0  501  0.00000000000E+00  0.00000000000E+00  0.92863427641E+03  0.92863427643E+03  0.50400001928E-02 0. -1.
        1   -1    0    0  501    0  0.00000000000E+00  0.00000000000E+00 -0.86359581895E+03  0.86359581896E+03  0.50400001928E-02 0.  1.
    10030    2    1    2    0    0  0.00000000000E+00  0.00000000000E+00  0.65038457464E+02  0.17922300954E+04  0.17910496123E+04 0.  0.
        4    1    3    3  502    0 -0.33309701400E+03  0.32104890160E+03  0.79979513941E+03  0.92395881720E+03  0.12699999809E+01 0. -1.
       -4    1    3    3    0  502  0.33309701400E+03 -0.32104890160E+03 -0.73475668195E+03  0.86827127819E+03  0.12699999809E+01 0.  1.
</event>
<event>
 5   0  0.3909859E-05  0.1799012E+04  0.7818609E-02  0.8706825E-01
       -2   -1    0    0    0  501  0.00000000000E+00  0.00000000000E+00  0.89301374554E+03  0.89301374555E+03  0.25500000920E-02 0. -1.
        2   -1    0    0  501    0  0.00000000000E+00  0.00000000000E+00 -0.90604551318E+03  0.90604551319E+03  0.25500000920E-02 0.  1.
    10030    2    1    2    0    0  0.00000000000E+00  0.00000000000E+00 -0.13031767641E+02  0.17990592587E+04  0.17990120593E+04 0.  0.
        4    1    3    3  502    0  0.69097369571E+03 -0.57566185652E+03 -0.23197545833E+02  0.89965046560E+03  0.12699999809E+01 0. -1.
       -4    1    3    3    0  502 -0.69097369571E+03  0.57566185652E+03  0.10165778193E+02  0.89940879313E+03  0.12699999809E+01 0.  1.
</event>
<event>
 5   0  0.1960300E-05  0.1799033E+04  0.7818609E-02  0.8706814E-01
        1   -1    0    0  501    0  0.00000000000E+00  0.00000000000E+00  0.10081937869E+04  0.10081937869E+04  0.50400001928E-02 0. -1.
       -1   -1    0    0    0  501  0.00000000000E+00  0.00000000000E+00 -0.80255400916E+03  0.80255400918E+03  0.50400001928E-02 0.  1.
    10030    2    1    2    0    0  0.00000000000E+00  0.00000000000E+00  0.20563977772E+03  0.18107477961E+04  0.17990330355E+04 0.  0.
        3    1    3    3  502    0  0.20497145673E+03 -0.30052325394E+03  0.93085696281E+03  0.99941093633E+03  0.10100000352E+00 0. -1.
       -3    1    3    3    0  502 -0.20497145673E+03  0.30052325394E+03 -0.72521718509E+03  0.81133685975E+03  0.10100000352E+00 0.  1.
</event>
<event>
 5   0  0.2001811E-05  0.1799870E+04  0.7818609E-02  0.8706368E-01
        1   -1    0    0  501    0  0.00000000000E+00  0.00000000000E+00  0.65498629828E+03  0.65498629830E+03  0.50400001928E-02 0. -1.
       -1   -1    0    0    0  501  0.00000000000E+00  0.00000000000E+00 -0.12364887605E+04  0.12364887605E+04  0.50400001928E-02 0.  1.
    10030    2    1    2    0    0  0.00000000000E+00  0.00000000000E+00 -0.58150246223E+03  0.18914750588E+04  0.17998702132E+04 0.  0.
        2    1    3    3  502    0 -0.79848560369E+02 -0.49136624283E+03  0.49711652294E+03  0.70352072789E+03  0.25500000920E-02 0. -1.
       -2    1    3    3    0  502  0.79848560369E+02  0.49136624283E+03 -0.10786189852E+04  0.11879543309E+04  0.25500000920E-02 0.  1.
</event>
<event>
 5   0  0.3983176E-05  0.1819185E+04  0.7818609E-02  0.8696163E-01
        2   -1    0    0  501    0  0.00000000000E+00  0.00000000000E+00  0.23337888794E+04  0.23337888794E+04  0.25500000920E-02 0.  1.
       -2   -1    0    0    0  501  0.00000000000E+00  0.00000000000E+00 -0.35451288129E+03  0.35451288130E+03  0.25500000920E-02 0. -1.
    10030    2    1    2    0    0  0.00000000000E+00  0.00000000000E+00  0.19792759981E+04  0.26883017607E+04  0.18191846745E+04 0.  0.
        3    1    3    3  502    0  0.27383579004E+03  0.24685367998E+03  0.22184262289E+04  0.22488525346E+04  0.10100000352E+00 0.  1.
       -3    1    3    3    0  502 -0.27383579004E+03 -0.24685367998E+03 -0.23915023078E+03  0.43944922609E+03  0.10100000352E+00 0. -1.
</event>
<event>
 5   0  0.3983176E-05  0.1804368E+04  0.7818609E-02  0.8703980E-01
       -2   -1    0    0    0  501  0.00000000000E+00  0.00000000000E+00  0.64301723795E+03  0.64301723795E+03  0.25500000920E-02 0. -1.
        2   -1    0    0  501    0  0.00000000000E+00  0.00000000000E+00 -0.12658072403E+04  0.12658072403E+04  0.25500000920E-02 0.  1.
    10030    2    1    2    0    0  0.00000000000E+00  0.00000000000E+00 -0.62279000232E+03  0.19088244782E+04  0.18043678953E+04 0.  0.
        3    1    3    3  502    0  0.40740230120E+03  0.48784567237E+03  0.36595749367E+03  0.73341320717E+03  0.10100000352E+00 0. -1.
       -3    1    3    3    0  502 -0.40740230120E+03 -0.48784567237E+03 -0.98874749599E+03  0.11754112710E+04  0.10100000352E+00 0.  1.
</event>
<event>
 5   0  0.3909859E-05  0.1800175E+04  0.7818609E-02  0.8706206E-01
       -2   -1    0    0    0  501  0.00000000000E+00  0.00000000000E+00  0.98918309550E+03  0.98918309550E+03  0.25500000920E-02 0.  1.
        2   -1    0    0  501    0  0.00000000000E+00  0.00000000000E+00 -0.81901696449E+03  0.81901696449E+03  0.25500000920E-02 0. -1.
    10030    2    1    2    0    0  0.00000000000E+00  0.00000000000E+00  0.17016613101E+03  0.18082000600E+04  0.18001752539E+04 0.  0.
        4    1    3    3  502    0 -0.68998265227E+03 -0.53534795824E+03 -0.13379339587E+03  0.88350199916E+03  0.12699999809E+01 0. -1.
       -4    1    3    3    0  502  0.68998265227E+03  0.53534795824E+03  0.30395952687E+03  0.92469806084E+03  0.12699999809E+01 0.  1.
</event>
<event>
 5   0  0.2038338E-05  0.1783750E+04  0.7818609E-02  0.8714989E-01
        1   -1    0    0  501    0  0.00000000000E+00  0.00000000000E+00  0.16565672054E+04  0.16565672054E+04  0.50400001928E-02 0. -1.
       -1   -1    0    0    0  501  0.00000000000E+00  0.00000000000E+00 -0.48017426577E+03  0.48017426580E+03  0.50400001928E-02 0.  1.
    10030    2    1    2    0    0  0.00000000000E+00  0.00000000000E+00  0.11763929396E+04  0.21367414712E+04  0.17837499170E+04 0.  0.
        1    1    3    3  502    0  0.44171314544E+03 -0.92825423581E+02  0.15096509616E+04  0.15756817851E+04  0.50400001928E-02 0. -1.
       -1    1    3    3    0  502 -0.44171314544E+03  0.92825423581E+02 -0.33325802196E+03  0.56105968608E+03  0.50400001928E-02 0.  1.
</event>
<event>
 5   0  0.3909859E-05  0.1797853E+04  0.7818609E-02  0.8707442E-01
       -2   -1    0    0    0  501  0.00000000000E+00  0.00000000000E+00  0.34469994641E+03  0.34469994642E+03  0.25500000920E-02 0. -1.
        2   -1    0    0  501    0  0.00000000000E+00  0.00000000000E+00 -0.23442685891E+04  0.23442685891E+04  0.25500000920E-02 0.  1.
    10030    2    1    2    0    0  0.00000000000E+00  0.00000000000E+00 -0.19995686426E+04  0.26889685355E+04  0.17978534501E+04 0.  0.
        4    1    3    3  502    0 -0.67045531545E+03 -0.41259755194E+03 -0.35073108838E+03  0.86183581913E+03  0.12699999809E+01 0. -1.
       -4    1    3    3    0  502  0.67045531545E+03  0.41259755194E+03 -0.16488375543E+04  0.18271327163E+04  0.12699999809E+01 0.  1.
</event>
<event>
 5   0  0.1960300E-05  0.1799019E+04  0.7818609E-02  0.8706822E-01
       -1   -1    0    0    0  501  0.00000000000E+00  0.00000000000E+00  0.10372973661E+04  0.10372973661E+04  0.50400001928E-02 0. -1.
        1   -1    0    0  501    0  0.00000000000E+00  0.00000000000E+00 -0.78002408469E+03  0.78002408470E+03  0.50400001928E-02 0.  1.
    10030    2    1    2    0    0  0.00000000000E+00  0.00000000000E+00  0.25727328137E+03  0.18173214508E+04  0.17990185419E+04 0.  0.
        3    1    3    3  502    0 -0.26768778477E+03 -0.85009231757E+03  0.25154295842E+03  0.92606024029E+03  0.10100000352E+00 0. -1.
       -3    1    3    3    0  502  0.26768778477E+03  0.85009231757E+03  0.57303229465E+01  0.89126121048E+03  0.10100000352E+00 0.  1.
</event>
<event>
 5   0  0.3983176E-05  0.1799608E+04  0.7818609E-02  0.8706508E-01
        2   -1    0    0  501    0  0.00000000000E+00  0.00000000000E+00  0.18546736090E+04  0.18546736090E+04  0.25500000920E-02 0. -1.
       -2   -1    0    0    0  501  0.00000000000E+00  0.00000000000E+00 -0.43654411063E+03  0.43654411064E+03  0.25500000920E-02 0.  1.
    10030    2    1    2    0    0  0.00000000000E+00  0.00000000000E+00  0.14181294983E+04  0.22912177196E+04  0.17996075585E+04 0.  0.
        3    1    3    3  502    0  0.62254956666E+02 -0.47731324701E+03 -0.25883669031E+03  0.54653458980E+03  0.10100000352E+00 0.  1.
       -3    1    3    3    0  502 -0.62254956666E+02  0.47731324701E+03  0.16769661886E+04  0.17446831298E+04  0.10100000352E+00 0. -1.
</event>
<event>
 5   0  0.3983176E-05  0.1800767E+04  0.7818609E-02  0.8705892E-01
        2   -1    0    0  501    0  0.00000000000E+00  0.00000000000E+00  0.12634886509E+04  0.12634886509E+04  0.25500000920E-02 0.  1.
       -2   -1    0    0    0  501  0.00000000000E+00  0.00000000000E+00 -0.64162875596E+03  0.64162875596E+03  0.25500000920E-02 0. -1.
    10030    2    1    2    0    0  0.00000000000E+00  0.00000000000E+00  0.62185989492E+03  0.19051174068E+04  0.18007672268E+04 0.  0.
        3    1    3    3  502    0 -0.82377361789E+03  0.33402953927E+03  0.46244908043E+03  0.10020169005E+04  0.10100000352E+00 0.  1.
       -3    1    3    3    0  502  0.82377361789E+03 -0.33402953927E+03  0.15941081449E+03  0.90310050637E+03  0.10100000352E+00 0. -1.
</event>
<event>
 5   0  0.1906857E-05  0.1805796E+04  0.7818609E-02  0.8703223E-01
       -1   -1    0    0    0  501  0.00000000000E+00  0.00000000000E+00  0.11477046994E+04  0.11477046994E+04  0.50400001928E-02 0.  1.
        1   -1    0    0  501    0  0.00000000000E+00  0.00000000000E+00 -0.71030901475E+03  0.71030901477E+03  0.50400001928E-02 0. -1.
    10030    2    1    2    0    0  0.00000000000E+00  0.00000000000E+00  0.43739568463E+03  0.18580137142E+04  0.18057962169E+04 0.  0.
        4    1    3    3  502    0 -0.61524810367E+03 -0.31354578777E+03  0.81722508911E+03  0.10699063741E+04  0.12699999809E+01 0.  1.
       -4    1    3    3    0  502  0.61524810367E+03  0.31354578777E+03 -0.37982940448E+03  0.78810734009E+03  0.12699999809E+01 0. -1.
</event>
<event>
 5   0  0.2038338E-05  0.1802637E+04  0.7818609E-02  0.8704898E-01
        1   -1    0    0  501    0  0.00000000000E+00  0.00000000000E+00  0.10856104321E+04  0.10856104321E+04  0.50400001928E-02 0.  1.
       -1   -1    0    0    0  501  0.00000000000E+00  0.00000000000E+00 -0.74831213548E+03  0.74831213550E+03  0.50400001928E-02 0. -1.
    10030    2    1    2    0    0  0.00000000000E+00  0.00000000000E+00  0.33729829658E+03  0.18339225676E+04  0.18026374685E+04 0.  0.
        1    1    3    3  502    0 -0.71175679501E+03  0.54589334381E+03  0.25837377699E+03  0.93346359689E+03  0.50400001928E-02 0. -1.
       -1    1    3    3    0  502  0.71175679501E+03 -0.54589334381E+03  0.78924519599E+02  0.90045897068E+03  0.50400001928E-02 0.  1.
</event>
<event>
 5   0  0.3984648E-05  0.1795184E+04  0.7818609E-02  0.8708865E-01
        2   -1    0    0  501    0  0.00000000000E+00  0.00000000000E+00  0.12107207513E+04  0.12107207513E+04  0.25500000920E-02 0. -1.
       -2   -1    0    0    0  501  0.00000000000E+00  0.00000000000E+00 -0.66544778196E+03  0.66544778196E+03  0.25500000920E-02 0.  1.
    10030    2    1    2    0    0  0.00000000000E+00  0.00000000000E+00  0.54527296932E+03  0.18761685332E+04  0.17951840446E+04 0.  0.
        1    1    3    3  502    0 -0.22343585630E+03  0.62597756861E+03  0.90309114626E+03  0.11213140135E+04  0.50400001928E-02 0. -1.
       -1    1    3    3    0  502  0.22343585630E+03 -0.62597756861E+03 -0.35781817693E+03  0.75485451980E+03  0.50400001928E-02 0.  1.
</event>
<event>
 5   0  0.1906857E-05  0.1764386E+04  0.7818609E-02  0.8725471E-01
       -1   -1    0    0    0  501  0.00000000000E+00  0.00000000000E+00  0.37073265310E+03  0.37073265313E+03  0.50400001928E-02 0.  1.
        1   -1    0    0  501    0  0.00000000000E+00  0.00000000000E+00 -0.20992610846E+04  0.20992610846E+04  0.50400001928E-02 0. -1.
    10030    2    1    2    0    0  0.00000000000E+00  0.00000000000E+00 -0.17285284315E+04  0.24699937377E+04  0.17643861612E+04 0.  0.
        4    1    3    3  502    0 -0.45452115513E+02 -0.62961036124E+03 -0.17269900060E+04  0.18387417425E+04  0.12699999809E+01 0. -1.
       -4    1    3    3    0  502  0.45452115513E+02  0.62961036124E+03 -0.15384254278E+01  0.63125199519E+03  0.12699999809E+01 0.  1.
</event>
<event>
 5   0  0.3993393E-05  0.1798565E+04  0.7818609E-02  0.8707063E-01
        2   -1    0    0  501    0  0.00000000000E+00  0.00000000000E+00  0.15276429150E+04  0.15276429150E+04  0.25500000920E-02 0.  1.
       -2   -1    0    0    0  501  0.00000000000E+00  0.00000000000E+00 -0.52938364791E+03  0.52938364791E+03  0.25500000920E-02 0. -1.
    10030    2    1    2    0    0  0.00000000000E+00  0.00000000000E+00  0.99825926707E+03  0.20570265629E+04  0.17985651826E+04 0.  0.
        5    1    3    3  502    0  0.38486695634E+03  0.59041697918E+03  0.11379396825E+04  0.13385229151E+04  0.46999998093E+01 0.  1.
       -5    1    3    3    0  502 -0.38486695634E+03 -0.59041697918E+03 -0.13968041541E+03  0.71850364775E+03  0.46999998093E+01 0. -1.
</event>
<event>
 5   0  0.2001811E-05  0.1771850E+04  0.7818609E-02  0.8721414E-01
        1   -1    0    0  501    0  0.00000000000E+00  0.00000000000E+00  0.25354838209E+04  0.25354838209E+04  0.50400001928E-02 0.  1.
       -1   -1    0    0    0  501  0.00000000000E+00  0.00000000000E+00 -0.30955145808E+03  0.30955145812E+03  0.50400001928E-02 0. -1.
    10030    2    1    2    0    0  0.00000000000E+00  0.00000000000E+00  0.22259323628E+04  0.28450352790E+04  0.17718495577E+04 0.  0.
        2    1    3    3  502    0 -0.44749671159E+03 -0.67422530878E+02 -0.10995543548E+03  0.46571375581E+03  0.25500000920E-02 0. -1.
       -2    1    3    3    0  502  0.44749671159E+03  0.67422530878E+02  0.23358877983E+04  0.23793215232E+04  0.25500000920E-02 0.  1.
</event>
<event>
 5   0  0.2054876E-05  0.1783086E+04  0.7818609E-02  0.8715346E-01
        1   -1    0    0  501    0  0.00000000000E+00  0.00000000000E+00  0.16929689791E+04  0.16929689791E+04  0.50400001928E-02 0. -1.
       -1   -1    0    0    0  501  0.00000000000E+00  0.00000000000E+00 -0.46950005328E+03  0.46950005331E+03  0.50400001928E-02 0.  1.
    10030    2    1    2    0    0  0.00000000000E+00  0.00000000000E+00  0.12234689258E+04  0.21624690324E+04  0.17830861178E+04 0.  0.
        5    1    3    3  502    0  0.78593815177E+02  0.83282793727E+03  0.23784080499E+03  0.86969517614E+03  0.46999998093E+01 0. -1.
       -5    1    3    3    0  502 -0.78593815177E+02 -0.83282793727E+03  0.98562812078E+03  0.12927738562E+04  0.46999998093E+01 0.  1.
</event>
<event>
 5   0  0.2038338E-05  0.1799644E+04  0.7818609E-02  0.8706489E-01
       -1   -1    0    0    0  501  0.00000000000E+00  0.00000000000E+00  0.78770269937E+03  0.78770269938E+03  0.50400001928E-02 0.  1.
        1   -1    0    0  501    0  0.00000000000E+00  0.00000000000E+00 -0.10278995725E+04  0.10278995725E+04  0.50400001928E-02 0. -1.
    10030    2    1    2    0    0  0.00000000000E+00  0.00000000000E+00 -0.24019687311E+03  0.18156022719E+04  0.17996435958E+04 0.  0.
        1    1    3    3  502    0  0.35646215587E+03 -0.47490485819E+03 -0.80217012744E+03  0.99803647543E+03  0.50400001928E-02 0. -1.
       -1    1    3    3    0  502 -0.35646215587E+03  0.47490485819E+03  0.56197325433E+03  0.81756579644E+03  0.50400001928E-02 0.  1.
</event>
<event>
 5   0  0.3993393E-05  0.1796282E+04  0.7818609E-02  0.8708279E-01
       -2   -1    0    0    0  501  0.00000000000E+00  0.00000000000E+00  0.71433211615E+03  0.71433211615E+03  0.25500000920E-02 0.  1.
        2   -1    0    0  501    0  0.00000000000E+00  0.00000000000E+00 -0.11292463378E+04  0.11292463378E+04  0.25500000920E-02 0. -1.
    10030    2    1    2    0    0  0.00000000000E+00  0.00000000000E+00 -0.41491422164E+03  0.18435784539E+04  0.17962816328E+04 0.  0.
        5    1    3    3  502    0 -0.59444973444E+03  0.14283717411E+03 -0.88270287859E+03  0.10737594735E+04  0.46999998093E+01 0. -1.
       -5    1    3    3    0  502  0.59444973444E+03 -0.14283717411E+03  0.46778865694E+03  0.76981898044E+03  0.46999998093E+01 0.  1.
</event>
<event>
 5   0  0.2001811E-05  0.1801545E+04  0.7818609E-02  0.8705478E-01
       -1   -1    0    0    0  501  0.00000000000E+00  0.00000000000E+00  0.92273665496E+03  0.92273665498E+03  0.50400001928E-02 0.  1.
        1   -1    0    0  501    0  0.00000000000E+00  0.00000000000E+00 -0.87933109980E+03  0.87933109982E+03  0.50400001928E-02 0. -1.
    10030    2    1    2    0    0  0.00000000000E+00  0.00000000000E+00  0.43405555157E+02  0.18020677548E+04  0.18015449344E+04 0.  0.
        2    1    3    3  502    0  0.29048537618E+03 -0.85227208484E+03  0.47039504130E+02  0.90164415117E+03  0.25500000920E-02 0.  1.
       -2    1    3    3    0  502 -0.29048537618E+03  0.85227208484E+03 -0.36339489723E+01  0.90042360363E+03  0.25500000920E-02 0. -1.
</event>
<event>
 5   0  0.1960300E-05  0.1752697E+04  0.7818609E-02  0.8731867E-01
        1   -1    0    0  501    0  0.00000000000E+00  0.00000000000E+00  0.93155536827E+03  0.93155536828E+03  0.50400001928E-02 0. -1.
       -1   -1    0    0    0  501  0.00000000000E+00  0.00000000000E+00 -0.82441299143E+03  0.82441299144E+03  0.50400001928E-02 0.  1.
    10030    2    1    2    0    0  0.00000000000E+00  0.00000000000E+00  0.10714237684E+03  0.17559683597E+04  0.17526966056E+04 0.  0.
        3    1    3    3  502    0  0.50379956083E+03 -0.71652633014E+03  0.81233567643E+02  0.87967203092E+03  0.10100000352E+00 0. -1.
       -3    1    3    3    0  502 -0.50379956083E+03  0.71652633014E+03  0.25908809198E+02  0.87629632880E+03  0.10100000352E+00 0.  1.
</event>
<event>
 5   0  0.3983176E-05  0.1802313E+04  0.7818609E-02  0.8705070E-01
        2   -1    0    0  501    0  0.00000000000E+00  0.00000000000E+00  0.11570624665E+04  0.11570624665E+04  0.25500000920E-02 0. -1.
       -2   -1    0    0    0  501  0.00000000000E+00  0.00000000000E+00 -0.70184929012E+03  0.70184929013E+03  0.25500000920E-02 0.  1.
    10030    2    1    2    0    0  0.00000000000E+00  0.00000000000E+00  0.45521317635E+03  0.18589117566E+04  0.18023134808E+04 0.  0.
        3    1    3    3  502    0  0.11365496830E+03 -0.90219987194E+02  0.11449330502E+04  0.11540921963E+04  0.10100000352E+00 0. -1.
       -3    1    3    3    0  502 -0.11365496830E+03  0.90219987194E+02 -0.68971987388E+03  0.70481956027E+03  0.10100000352E+00 0.  1.
</event>
<event>
 5   0  0.3993393E-05  0.1799472E+04  0.7818609E-02  0.8706580E-01
        2   -1    0    0  501    0  0.00000000000E+00  0.00000000000E+00  0.11887122157E+04  0.11887122157E+04  0.25500000920E-02 0. -1.
       -2   -1    0    0    0  501  0.00000000000E+00  0.00000000000E+00 -0.68100989692E+03  0.68100989693E+03  0.25500000920E-02 0.  1.
    10030    2    1    2    0    0  0.00000000000E+00  0.00000000000E+00  0.50770231876E+03  0.18697221126E+04  0.17994719042E+04 0.  0.
        5    1    3    3  502    0 -0.33751550621E+02 -0.87268417479E+03  0.47859577222E+03  0.99588796522E+03  0.46999998093E+01 0. -1.
       -5    1    3    3    0  502  0.33751550621E+02  0.87268417479E+03  0.29106546540E+02  0.87383414739E+03  0.46999998093E+01 0.  1.
</event>
<event>
 5   0  0.3984648E-05  0.1796903E+04  0.7818609E-02  0.8707948E-01
       -2   -1    0    0    0  501  0.00000000000E+00  0.00000000000E+00  0.54011385693E+03  0.54011385694E+03  0.25500000920E-02 0.  1.
        2   -1    0    0  501    0  0.00000000000E+00  0.00000000000E+00 -0.14945269177E+04  0.14945269177E+04  0.25500000920E-02 0. -1.
    10030    2    1    2    0    0  0.00000000000E+00  0.00000000000E+00 -0.95441306075E+03  0.20346407746E+04  0.17969025547E+04 0.  0.
        1    1    3    3  502    0 -0.26459829936E+03  0.71764743629E+03  0.56521718474E+02  0.76695815239E+03  0.50400001928E-02 0.  1.
       -1    1    3    3    0  502  0.26459829936E+03 -0.71764743629E+03 -0.10109347792E+04  0.12676826222E+04  0.50400001928E-02 0. -1.
</event>
<event>
 5   0  0.1906857E-05  0.1801715E+04  0.7818609E-02  0.8705388E-01
       -1   -1    0    0    0  501  0.00000000000E+00  0.00000000000E+00  0.42084737361E+03  0.42084737364E+03  0.50400001928E-02 0.  1.
        1   -1    0    0  501    0  0.00000000000E+00  0.00000000000E+00 -0.19283574822E+04  0.19283574822E+04  0.50400001928E-02 0. -1.
    10030    2    1    2    0    0  0.00000000000E+00  0.00000000000E+00 -0.15075101086E+04  0.23492048558E+04  0.18017149406E+04 0.  0.
        4    1    3    3  502    0 -0.34210988877E+03  0.24546756066E+03  0.28464506498E+03  0.50824986498E+03  0.12699999809E+01 0.  1.
       -4    1    3    3    0  502  0.34210988877E+03 -0.24546756066E+03 -0.17921551735E+04  0.18409549908E+04  0.12699999809E+01 0. -1.
</event>
<event>
 5   0  0.1960300E-05  0.1800839E+04  0.7818609E-02  0.8705854E-01
       -1   -1    0    0    0  501  0.00000000000E+00  0.00000000000E+00  0.73961157084E+03  0.73961157086E+03  0.50400001928E-02 0. -1.
        1   -1    0    0  501    0  0.00000000000E+00  0.00000000000E+00 -0.10961901230E+04  0.10961901231E+04  0.50400001928E-02 0.  1.
    10030    2    1    2    0    0  0.00000000000E+00  0.00000000000E+00 -0.35657855220E+03  0.18358016939E+04  0.18008385812E+04 0.  0.
        3    1    3    3  502    0 -0.20871329121E+03  0.76779869785E+03 -0.60799268464E+03  0.10013646654E+04  0.10100000352E+00 0.  1.
       -3    1    3    3    0  502  0.20871329121E+03 -0.76779869785E+03  0.25141413244E+03  0.83443702851E+03  0.10100000352E+00 0. -1.
</event>
<event>
 5   0  0.2038338E-05  0.1801066E+04  0.7818609E-02  0.8705733E-01
        1   -1    0    0  501    0  0.00000000000E+00  0.00000000000E+00  0.79870159864E+03  0.79870159866E+03  0.50400001928E-02 0. -1.
       -1   -1    0    0    0  501  0.00000000000E+00  0.00000000000E+00 -0.10153471883E+04  0.10153471884E+04  0.50400001928E-02 0.  1.
    10030    2    1    2    0    0  0.00000000000E+00  0.00000000000E+00 -0.21664558970E+03  0.18140487870E+04  0.18010657096E+04 0.  0.
        1    1    3    3  502    0  0.48634257288E+03  0.39993923435E+03  0.54011845727E+03  0.82958329134E+03  0.50400001928E-02 0. -1.
       -1    1    3    3    0  502 -0.48634257288E+03 -0.39993923435E+03 -0.75676404697E+03  0.98446549568E+03  0.50400001928E-02 0.  1.
</event>
<event>
 5   0  0.4015729E-05  0.1792703E+04  0.7818609E-02  0.8710190E-01
        2   -1    0    0  501    0  0.00000000000E+00  0.00000000000E+00  0.10473035049E+04  0.10473035049E+04  0.25500000920E-02 0. -1.
       -2   -1    0    0    0  501  0.00000000000E+00  0.00000000000E+00 -0.76715659013E+03  0.76715659013E+03  0.25500000920E-02 0.  1.
    10030    2    1    2    0    0  0.00000000000E+00  0.00000000000E+00  0.28014691472E+03  0.18144600950E+04  0.17927027479E+04 0.  0.
        2    1    3    3  502    0 -0.44257894056E+03  0.77939876447E+03  0.12959244539E+03  0.90561181231E+03  0.25500000920E-02 0. -1.
       -2    1    3    3    0  502  0.44257894056E+03 -0.77939876447E+03  0.15055446934E+03  0.90884828268E+03  0.25500000920E-02 0.  1.
</event>
<event>
 5   0  0.2038338E-05  0.1839495E+04  0.7818609E-02  0.8685574E-01
        1   -1    0    0  501    0  0.00000000000E+00  0.00000000000E+00  0.14083542800E+04  0.14083542800E+04  0.50400001928E-02 0.  1.
       -1   -1    0    0    0  501  0.00000000000E+00  0.00000000000E+00 -0.60065518526E+03  0.60065518529E+03  0.50400001928E-02 0. -1.
    10030    2    1    2    0    0  0.00000000000E+00  0.00000000000E+00  0.80769909474E+03  0.20090094653E+04  0.18394948230E+04 0.  0.
        1    1    3    3  502    0  0.90008886175E+03 -0.66190359184E+01  0.19740224080E+03  0.92150497306E+03  0.50400001928E-02 0. -1.
       -1    1    3    3    0  502 -0.90008886175E+03  0.66190359184E+01  0.61029685394E+03  0.10875044922E+04  0.50400001928E-02 0.  1.
</event>
<event>
 5   0  0.1446750E-05  0.1800854E+04  0.7818609E-02  0.8705846E-01
       -4   -1    0    0    0  501  0.00000000000E+00  0.00000000000E+00  0.74487814532E+03  0.74487922798E+03  0.12699999809E+01 0.  1.
        4   -1    0    0  501    0  0.00000000000E+00  0.00000000000E+00 -0.10884556335E+04  0.10884563744E+04  0.12699999809E+01 0. -1.
    10030    2    1    2    0    0  0.00000000000E+00  0.00000000000E+00 -0.34357748813E+03  0.18333356023E+04  0.18008536699E+04 0.  0.
        5    1    3    3  502    0 -0.57123370000E+03 -0.33353520280E+03 -0.79370245386E+03  0.10332179571E+04  0.46999998093E+01 0. -1.
       -5    1    3    3    0  502  0.57123370000E+03  0.33353520280E+03  0.45012496573E+03  0.80011764529E+03  0.46999998093E+01 0.  1.
</event>
<event>
 5   0  0.1906857E-05  0.1801594E+04  0.7818609E-02  0.8705452E-01
       -1   -1    0    0    0  501  0.00000000000E+00  0.00000000000E+00  0.74035065444E+03  0.74035065446E+03  0.50400001928E-02 0. -1.
        1   -1    0    0  501    0  0.00000000000E+00  0.00000000000E+00 -0.10960152065E+04  0.10960152065E+04  0.50400001928E-02 0.  1.
    10030    2    1    2    0    0  0.00000000000E+00  0.00000000000E+00 -0.35566455202E+03  0.18363658609E+04  0.18015943777E+04 0.  0.
        4    1    3    3  502    0 -0.53187707582E+03  0.37598056708E+03 -0.81207907906E+03  0.10410228884E+04  0.12699999809E+01 0.  1.
       -4    1    3    3    0  502  0.53187707582E+03 -0.37598056708E+03  0.45641452703E+03  0.79534297255E+03  0.12699999809E+01 0. -1.
</event>
<event>
 5   0  0.3984648E-05  0.1802962E+04  0.7818609E-02  0.8704726E-01
       -2   -1    0    0    0  501  0.00000000000E+00  0.00000000000E+00  0.42288642359E+03  0.42288642359E+03  0.25500000920E-02 0. -1.
        2   -1    0    0  501    0  0.00000000000E+00  0.00000000000E+00 -0.19217168838E+04  0.19217168838E+04  0.25500000920E-02 0.  1.
    10030    2    1    2    0    0  0.00000000000E+00  0.00000000000E+00 -0.14988304602E+04  0.23446033074E+04  0.18029619853E+04 0.  0.
        1    1    3    3  502    0 -0.25783374468E+03 -0.48903879731E+02 -0.18709438238E+04  0.18892592784E+04  0.50400001928E-02 0.  1.
       -1    1    3    3    0  502  0.25783374468E+03  0.48903879731E+02  0.37211336357E+03  0.45534402897E+03  0.50400001928E-02 0. -1.
</event>
<event>
 5   0  0.3983176E-05  0.1828140E+04  0.7818609E-02  0.8691476E-01
       -2   -1    0    0    0  501  0.00000000000E+00  0.00000000000E+00  0.76619611836E+03  0.76619611836E+03  0.25500000920E-02 0. -1.
        2   -1    0    0  501    0  0.00000000000E+00  0.00000000000E+00 -0.10904831037E+04  0.10904831037E+04  0.25500000920E-02 0.  1.
    10030    2    1    2    0    0  0.00000000000E+00  0.00000000000E+00 -0.32428698536E+03  0.18566792221E+04  0.18281399522E+04 0.  0.
        3    1    3    3  502    0  0.87240741989E+03  0.58417939576E+02  0.10850600150E+03  0.88106805895E+03  0.10100000352E+00 0. -1.
       -3    1    3    3    0  502 -0.87240741989E+03 -0.58417939576E+02 -0.43279298686E+03  0.97561116313E+03  0.10100000352E+00 0.  1.
</event>
<event>
 5   0  0.2001811E-05  0.1803641E+04  0.7818609E-02  0.8704366E-01
       -1   -1    0    0    0  501  0.00000000000E+00  0.00000000000E+00  0.13283137832E+04  0.13283137832E+04  0.50400001928E-02 0.  1.
        1   -1    0    0  501    0  0.00000000000E+00  0.00000000000E+00 -0.61226500701E+03  0.61226500703E+03  0.50400001928E-02 0. -1.
    10030    2    1    2    0    0  0.00000000000E+00  0.00000000000E+00  0.71604877616E+03  0.19405787902E+04  0.18036408155E+04 0.  0.
        2    1    3    3  502    0 -0.43665784232E+03  0.76073963826E+03  0.58341725330E+03  0.10534564822E+04  0.25500000920E-02 0.  1.
       -2    1    3    3    0  502  0.43665784232E+03 -0.76073963826E+03  0.13263152286E+03  0.88712230799E+03  0.25500000920E-02 0. -1.
</event>
<event>
 5   0  0.1446750E-05  0.1796061E+04  0.7818609E-02  0.8708397E-01
       -3   -1    0    0    0  501  0.00000000000E+00  0.00000000000E+00  0.78602280594E+03  0.78602281243E+03  0.10100000352E+00 0. -1.
        3   -1    0    0  501    0  0.00000000000E+00  0.00000000000E+00 -0.10259995348E+04  0.10259995398E+04  0.10100000352E+00 0.  1.
    10030    2    1    2    0    0  0.00000000000E+00  0.00000000000E+00 -0.23997672891E+03  0.18120223522E+04  0.17960612948E+04 0.  0.
        5    1    3    3  502    0 -0.88438468664E+03 -0.15137683802E+03 -0.82432123609E+02  0.90103738327E+03  0.46999998093E+01 0.  1.
       -5    1    3    3    0  502  0.88438468664E+03  0.15137683802E+03 -0.15754460530E+03  0.91098496898E+03  0.46999998093E+01 0. -1.
</event>
<event>
 5   0  0.2054876E-05  0.1786259E+04  0.7818609E-02  0.8713641E-01
       -1   -1    0    0    0  501  0.00000000000E+00  0.00000000000E+00  0.67796302731E+03  0.67796302733E+03  0.50400001928E-02 0. -1.
        1   -1    0    0  501    0  0.00000000000E+00  0.00000000000E+00 -0.11765834470E+04  0.11765834470E+04  0.50400001928E-02 0.  1.
    10030    2    1    2    0    0  0.00000000000E+00  0.00000000000E+00 -0.49862041969E+03  0.18545464744E+04  0.17862587446E+04 0.  0.
        5    1    3    3  502    0 -0.77361090865E+02  0.42431510848E+03 -0.10612759778E+04  0.11455814422E+04  0.46999998093E+01 0.  1.
       -5    1    3    3    0  502  0.77361090865E+02 -0.42431510848E+03  0.56265555814E+03  0.70896503212E+03  0.46999998093E+01 0. -1.
</event>
<event>
 5   0  0.3993393E-05  0.1798804E+04  0.7818609E-02  0.8706936E-01
       -2   -1    0    0    0  501  0.00000000000E+00  0.00000000000E+00  0.44011677889E+03  0.44011677890E+03  0.25500000920E-02 0. -1.
        2   -1    0    0  501    0  0.00000000000E+00  0.00000000000E+00 -0.18379757962E+04  0.18379757962E+04  0.25500000920E-02 0.  1.
    10030    2    1    2    0    0  0.00000000000E+00  0.00000000000E+00 -0.13978590173E+04  0.22780925751E+04  0.17988040328E+04 0.  0.
        5    1    3    3  502    0 -0.69734611037E+03  0.53177030890E+03 -0.95168240885E+03  0.12941378429E+04  0.46999998093E+01 0.  1.
       -5    1    3    3    0  502  0.69734611037E+03 -0.53177030890E+03 -0.44617660843E+03  0.98395473218E+03  0.46999998093E+01 0. -1.
</event>
<event>
 5   0  0.3984648E-05  0.1800529E+04  0.7818609E-02  0.8706018E-01
       -2   -1    0    0    0  501  0.00000000000E+00  0.00000000000E+00  0.67158469987E+03  0.67158469988E+03  0.25500000920E-02 0. -1.
        2   -1    0    0  501    0  0.00000000000E+00  0.00000000000E+00 -0.12068112161E+04  0.12068112162E+04  0.25500000920E-02 0.  1.
    10030    2    1    2    0    0  0.00000000000E+00  0.00000000000E+00 -0.53522651628E+03  0.18783959160E+04  0.18005287539E+04 0.  0.
        1    1    3    3  502    0 -0.68740504944E+03  0.57878144263E+03 -0.21083256140E+03  0.92301897559E+03  0.50400001928E-02 0. -1.
       -1    1    3    3    0  502  0.68740504944E+03 -0.57878144263E+03 -0.32439395488E+03  0.95537694044E+03  0.50400001928E-02 0.  1.
</event>
<event>
 5   0  0.2054876E-05  0.1798594E+04  0.7818609E-02  0.8707047E-01
       -1   -1    0    0    0  501  0.00000000000E+00  0.00000000000E+00  0.39404230756E+03  0.39404230759E+03  0.50400001928E-02 0.  1.
        1   -1    0    0  501    0  0.00000000000E+00  0.00000000000E+00 -0.20524069267E+04  0.20524069267E+04  0.50400001928E-02 0. -1.
    10030    2    1    2    0    0  0.00000000000E+00  0.00000000000E+00 -0.16583646192E+04  0.24464492343E+04  0.17985940748E+04 0.  0.
        5    1    3    3  502    0 -0.35345916400E+03 -0.64467505367E+03 -0.15335690878E+04  0.17007044254E+04  0.46999998093E+01 0. -1.
       -5    1    3    3    0  502  0.35345916400E+03  0.64467505367E+03 -0.12479553138E+03  0.74574480896E+03  0.46999998093E+01 0.  1.
</event>
<event>
 5   0  0.1906857E-05  0.1801564E+04  0.7818609E-02  0.8705468E-01
       -1   -1    0    0    0  501  0.00000000000E+00  0.00000000000E+00  0.60683495022E+03  0.60683495025E+03  0.50400001928E-02 0.  1.
        1   -1    0    0  501    0  0.00000000000E+00  0.00000000000E+00 -0.13371149006E+04  0.13371149006E+04  0.50400001928E-02 0. -1.
    10030    2    1    2    0    0  0.00000000000E+00  0.00000000000E+00 -0.73027995040E+03  0.19439498509E+04  0.18015638253E+04 0.  0.
        4    1    3    3  502    0  0.14470522555E+03 -0.88855509118E+03 -0.33211571475E+03  0.95956876420E+03  0.12699999809E+01 0.  1.
       -4    1    3    3    0  502 -0.14470522555E+03  0.88855509118E+03 -0.39816423566E+03  0.98438108668E+03  0.12699999809E+01 0. -1.
</event>
<event>
 5   0  0.3909859E-05  0.1792904E+04  0.7818609E-02  0.8710082E-01
       -2   -1    0    0    0  501  0.00000000000E+00  0.00000000000E+00  0.43790539429E+03  0.43790539429E+03  0.25500000920E-02 0. -1.
        2   -1    0    0  501    0  0.00000000000E+00  0.00000000000E+00 -0.18351589393E+04  0.18351589393E+04  0.25500000920E-02 0.  1.
    10030    2    1    2    0    0  0.00000000000E+00  0.00000000000E+00 -0.13972535450E+04  0.22730643336E+04  0.17929037887E+04 0.  0.
        4    1    3    3  502    0 -0.66393866421E+03  0.28527322134E+03 -0.26054148749E+02  0.72310150892E+03  0.12699999809E+01 0. -1.
       -4    1    3    3    0  502  0.66393866421E+03 -0.28527322134E+03 -0.13711993962E+04  0.15499628247E+04  0.12699999809E+01 0.  1.
</event>
<event>
 5   0  0.3983176E-05  0.1803273E+04  0.7818609E-02  0.8704561E-01
        2   -1    0    0  501    0  0.00000000000E+00  0.00000000000E+00  0.24122189483E+04  0.24122189483E+04  0.25500000920E-02 0.  1.
       -2   -1    0    0    0  501  0.00000000000E+00  0.00000000000E+00 -0.33701278031E+03  0.33701278032E+03  0.25500000920E-02 0. -1.
    10030    2    1    2    0    0  0.00000000000E+00  0.00000000000E+00  0.20752061680E+04  0.27492317286E+04  0.18032732622E+04 0.  0.
        3    1    3    3  502    0 -0.80315845057E+03  0.38006145303E+03  0.12710100323E+04  0.15507987352E+04  0.10100000352E+00 0. -1.
       -3    1    3    3    0  502  0.80315845057E+03 -0.38006145303E+03  0.80419613571E+03  0.11984329934E+04  0.10100000352E+00 0.  1.
</event>
<event>
 5   0  0.3993393E-05  0.1798926E+04  0.7818609E-02  0.8706871E-01
       -2   -1    0    0    0  501  0.00000000000E+00  0.00000000000E+00  0.40204079168E+03  0.40204079168E+03  0.25500000920E-02 0.  1.
        2   -1    0    0  501    0  0.00000000000E+00  0.00000000000E+00 -0.20123164155E+04  0.20123164155E+04  0.25500000920E-02 0. -1.
    10030    2    1    2    0    0  0.00000000000E+00  0.00000000000E+00 -0.16102756238E+04  0.24143572072E+04  0.17989255513E+04 0.  0.
        5    1    3    3  502    0 -0.42189252795E+03  0.91498587853E+02 -0.18641693660E+04  0.19135085084E+04  0.46999998093E+01 0. -1.
       -5    1    3    3    0  502  0.42189252795E+03 -0.91498587853E+02  0.25389374218E+03  0.50084869875E+03  0.46999998093E+01 0.  1.
</event>
<event>
 5   0  0.3993393E-05  0.1800109E+04  0.7818609E-02  0.8706242E-01
        2   -1    0    0  501    0  0.00000000000E+00  0.00000000000E+00  0.14978383177E+04  0.14978383177E+04  0.25500000920E-02 0.  1.
       -2   -1    0    0    0  501  0.00000000000E+00  0.00000000000E+00 -0.54084463396E+03  0.54084463396E+03  0.25500000920E-02 0. -1.
    10030    2    1    2    0    0  0.00000000000E+00  0.00000000000E+00  0.95699368378E+03  0.20386829517E+04  0.18001086819E+04 0.  0.
        5    1    3    3  502    0  0.27596809287E+03 -0.19400948002E+03 -0.46652575933E+03  0.57573122265E+03  0.46999998093E+01 0. -1.
       -5    1    3    3    0  502 -0.27596809287E+03  0.19400948002E+03  0.14235194431E+04  0.14629517290E+04  0.46999998093E+01 0.  1.
</event>
<event>
 5   0  0.3993393E-05  0.1795135E+04  0.7818609E-02  0.8708891E-01
        2   -1    0    0  501    0  0.00000000000E+00  0.00000000000E+00  0.15847030857E+04  0.15847030858E+04  0.25500000920E-02 0.  1.
       -2   -1    0    0    0  501  0.00000000000E+00  0.00000000000E+00 -0.50837730423E+03  0.50837730423E+03  0.25500000920E-02 0. -1.
    10030    2    1    2    0    0  0.00000000000E+00  0.00000000000E+00  0.10763257815E+04  0.20930803900E+04  0.17951346275E+04 0.  0.
        5    1    3    3  502    0 -0.36241610861E+03 -0.45654180265E+03 -0.25763394935E+03  0.63731718571E+03  0.46999998093E+01 0. -1.
       -5    1    3    3    0  502  0.36241610861E+03  0.45654180265E+03  0.13339597309E+04  0.14557632043E+04  0.46999998093E+01 0.  1.
</event>
<event>
 5   0  0.2054876E-05  0.1791788E+04  0.7818609E-02  0.8710679E-01
       -1   -1    0    0    0  501  0.00000000000E+00  0.00000000000E+00  0.10238524827E+04  0.10238524827E+04  0.50400001928E-02 0. -1.
        1   -1    0    0  501    0  0.00000000000E+00  0.00000000000E+00 -0.78392720883E+03  0.78392720885E+03  0.50400001928E-02 0.  1.
    10030    2    1    2    0    0  0.00000000000E+00  0.00000000000E+00  0.23992527390E+03  0.18077796916E+04  0.17917877319E+04 0.  0.
        5    1    3    3  502    0  0.72265686610E+03  0.36799774711E+03 -0.26415630059E+03  0.85291027028E+03  0.46999998093E+01 0.  1.
       -5    1    3    3    0  502 -0.72265686610E+03 -0.36799774711E+03  0.50408157449E+03  0.95486942130E+03  0.46999998093E+01 0. -1.
</event>
<event>
 5   0  0.3984648E-05  0.1799009E+04  0.7818609E-02  0.8706826E-01
       -2   -1    0    0    0  501  0.00000000000E+00  0.00000000000E+00  0.64906567223E+03  0.64906567223E+03  0.25500000920E-02 0. -1.
        2   -1    0    0  501    0  0.00000000000E+00  0.00000000000E+00 -0.12465744682E+04  0.12465744682E+04  0.25500000920E-02 0.  1.
    10030    2    1    2    0    0  0.00000000000E+00  0.00000000000E+00 -0.59750879600E+03  0.18956401405E+04  0.17990093888E+04 0.  0.
        1    1    3    3  502    0 -0.48088865079E+03  0.71139867995E+03 -0.16471860922E+02  0.85884416428E+03  0.50400001928E-02 0. -1.
       -1    1    3    3    0  502  0.48088865079E+03 -0.71139867995E+03 -0.58103693508E+03  0.10367959762E+04  0.50400001928E-02 0.  1.
</event>
<event>
 5   0  0.2001811E-05  0.1801964E+04  0.7818609E-02  0.8705256E-01
       -1   -1    0    0    0  501  0.00000000000E+00  0.00000000000E+00  0.16002525756E+04  0.16002525757E+04  0.50400001928E-02 0. -1.
        1   -1    0    0  501    0  0.00000000000E+00  0.00000000000E+00 -0.50727519333E+03  0.50727519336E+03  0.50400001928E-02 0.  1.
    10030    2    1    2    0    0  0.00000000000E+00  0.00000000000E+00  0.10929773823E+04  0.21075277690E+04  0.18019638562E+04 0.  0.
        2    1    3    3  502    0  0.77560801552E+03  0.13790484429E+03  0.10578781205E+04  0.13189737138E+04  0.25500000920E-02 0. -1.
       -2    1    3    3    0  502 -0.77560801552E+03 -0.13790484429E+03  0.35099261800E+02  0.78855405522E+03  0.25500000920E-02 0.  1.
</event>
<event>
 5   0  0.2001811E-05  0.1799178E+04  0.7818609E-02  0.8706737E-01
       -1   -1    0    0    0  501  0.00000000000E+00  0.00000000000E+00  0.76791220240E+03  0.76791220242E+03  0.50400001928E-02 0.  1.
        1   -1    0    0  501    0  0.00000000000E+00  0.00000000000E+00 -0.10538451038E+04  0.10538451038E+04  0.50400001928E-02 0. -1.
    10030    2    1    2    0    0  0.00000000000E+00  0.00000000000E+00 -0.28593290141E+03  0.18217573062E+04  0.17991781620E+04 0.  0.
        2    1    3    3  502    0 -0.68308360015E+03 -0.52600679958E+03 -0.40304424461E+03  0.95169901813E+03  0.25500000920E-02 0. -1.
       -2    1    3    3    0  502  0.68308360015E+03  0.52600679958E+03  0.11711134320E+03  0.87005828811E+03  0.25500000920E-02 0.  1.
</event>
<event>
 5   0  0.1960300E-05  0.1800355E+04  0.7818609E-02  0.8706111E-01
       -1   -1    0    0    0  501  0.00000000000E+00  0.00000000000E+00  0.47187719734E+03  0.47187719737E+03  0.50400001928E-02 0.  1.
        1   -1    0    0  501    0  0.00000000000E+00  0.00000000000E+00 -0.17172255643E+04  0.17172255644E+04  0.50400001928E-02 0. -1.
    10030    2    1    2    0    0  0.00000000000E+00  0.00000000000E+00 -0.12453483670E+04  0.21891027617E+04  0.18003550611E+04 0.  0.
        3    1    3    3  502    0 -0.36774539917E+03  0.25891653352E+03 -0.15708216543E+04  0.16339385330E+04  0.10100000352E+00 0. -1.
       -3    1    3    3    0  502  0.36774539917E+03 -0.25891653352E+03  0.32547328725E+03  0.55516422872E+03  0.10100000352E+00 0.  1.
</event>
<event>
 5   0  0.3984648E-05  0.1782119E+04  0.7818609E-02  0.8715867E-01
        2   -1    0    0  501    0  0.00000000000E+00  0.00000000000E+00  0.14724509194E+04  0.14724509194E+04  0.25500000920E-02 0.  1.
       -2   -1    0    0    0  501  0.00000000000E+00  0.00000000000E+00 -0.53922823926E+03  0.53922823927E+03  0.25500000920E-02 0. -1.
    10030    2    1    2    0    0  0.00000000000E+00  0.00000000000E+00  0.93322268011E+03  0.20116791586E+04  0.17821190944E+04 0.  0.
        1    1    3    3  502    0  0.77871269232E+03  0.26270995663E+03  0.85531844182E+03  0.11861617155E+04  0.50400001928E-02 0.  1.
       -1    1    3    3    0  502 -0.77871269232E+03 -0.26270995663E+03  0.77904238295E+02  0.82551744310E+03  0.50400001928E-02 0. -1.
</event>
<event>
 5   0  0.1906857E-05  0.1791776E+04  0.7818609E-02  0.8710685E-01
       -1   -1    0    0    0  501  0.00000000000E+00  0.00000000000E+00  0.62036383491E+03  0.62036383493E+03  0.50400001928E-02 0. -1.
        1   -1    0    0  501    0  0.00000000000E+00  0.00000000000E+00 -0.12937812358E+04  0.12937812358E+04  0.50400001928E-02 0.  1.
    10030    2    1    2    0    0  0.00000000000E+00  0.00000000000E+00 -0.67341740088E+03  0.19141450707E+04  0.17917757549E+04 0.  0.
        4    1    3    3  502    0 -0.61997096553E+03  0.19970331040E+03 -0.99383436776E+03  0.11882566111E+04  0.12699999809E+01 0.  1.
       -4    1    3    3    0  502  0.61997096553E+03 -0.19970331040E+03  0.32041696688E+03  0.72588845965E+03  0.12699999809E+01 0. -1.
</event>
<event>
 5   0  0.1906857E-05  0.1799434E+04  0.7818609E-02  0.8706600E-01
       -1   -1    0    0    0  501  0.00000000000E+00  0.00000000000E+00  0.44252440466E+03  0.44252440469E+03  0.50400001928E-02 0. -1.
        1   -1    0    0  501    0  0.00000000000E+00  0.00000000000E+00 -0.18292575439E+04  0.18292575439E+04  0.50400001928E-02 0.  1.
    10030    2    1    2    0    0  0.00000000000E+00  0.00000000000E+00 -0.13867331392E+04  0.22717819486E+04  0.17994344730E+04 0.  0.
        4    1    3    3  502    0 -0.62547018247E+03 -0.13729654162E+03 -0.14912673395E+04  0.16229427532E+04  0.12699999809E+01 0.  1.
       -4    1    3    3    0  502  0.62547018247E+03  0.13729654162E+03  0.10453420028E+03  0.64883919535E+03  0.12699999809E+01 0. -1.
</event>
<event>
 5   0  0.2054876E-05  0.1797117E+04  0.7818609E-02  0.8707834E-01
       -1   -1    0    0    0  501  0.00000000000E+00  0.00000000000E+00  0.10677362907E+04  0.10677362907E+04  0.50400001928E-02 0. -1.
        1   -1    0    0  501    0  0.00000000000E+00  0.00000000000E+00 -0.75618632703E+03  0.75618632705E+03  0.50400001928E-02 0.  1.
    10030    2    1    2    0    0  0.00000000000E+00  0.00000000000E+00  0.31154996368E+03  0.18239226178E+04  0.17971172293E+04 0.  0.
        5    1    3    3  502    0  0.81104871816E+03  0.20029649348E+03 -0.18001766629E+03  0.85460350965E+03  0.46999998093E+01 0. -1.
       -5    1    3    3    0  502 -0.81104871816E+03 -0.20029649348E+03  0.49156762998E+03  0.96931910812E+03  0.46999998093E+01 0.  1.
</event>
<event>
 5   0  0.4015729E-05  0.1798247E+04  0.7818609E-02  0.8707232E-01
       -2   -1    0    0    0  501  0.00000000000E+00  0.00000000000E+00  0.81752299120E+03  0.81752299120E+03  0.25500000920E-02 0. -1.
        2   -1    0    0  501    0  0.00000000000E+00  0.00000000000E+00 -0.98886944161E+03  0.98886944161E+03  0.25500000920E-02 0.  1.
    10030    2    1    2    0    0  0.00000000000E+00  0.00000000000E+00 -0.17134645041E+03  0.18063924328E+04  0.17982474844E+04 0.  0.
        2    1    3    3  502    0  0.71045949943E+03  0.37262743037E+03 -0.49349186694E+03  0.94188010115E+03  0.25500000920E-02 0.  1.
       -2    1    3    3    0  502 -0.71045949943E+03 -0.37262743037E+03  0.32214541653E+03  0.86451233166E+03  0.25500000920E-02 0. -1.
</event>
<event>
 5   0  0.3909859E-05  0.1798496E+04  0.7818609E-02  0.8707100E-01
        2   -1    0    0  501    0  0.00000000000E+00  0.00000000000E+00  0.11121742387E+04  0.11121742387E+04  0.25500000920E-02 0.  1.
       -2   -1    0    0    0  501  0.00000000000E+00  0.00000000000E+00 -0.72708639330E+03  0.72708639331E+03  0.25500000920E-02 0. -1.
    10030    2    1    2    0    0  0.00000000000E+00  0.00000000000E+00  0.38508784541E+03  0.18392606320E+04  0.17984957670E+04 0.  0.
        4    1    3    3  502    0  0.88518483384E+02 -0.89116017242E+03  0.10919087548E+03  0.90217860482E+03  0.12699999809E+01 0.  1.
       -4    1    3    3    0  502 -0.88518483384E+02  0.89116017242E+03  0.27589696993E+03  0.93708202721E+03  0.12699999809E+01 0. -1.
</event>
<event>
 5   0  0.3993393E-05  0.1803439E+04  0.7818609E-02  0.8704473E-01
        2   -1    0    0  501    0  0.00000000000E+00  0.00000000000E+00  0.14238232975E+04  0.14238232975E+04  0.25500000920E-02 0.  1.
       -2   -1    0    0    0  501  0.00000000000E+00  0.00000000000E+00 -0.57106693060E+03  0.57106693061E+03  0.25500000920E-02 0. -1.
    10030    2    1    2    0    0  0.00000000000E+00  0.00000000000E+00  0.85275636694E+03  0.19948902281E+04  0.18034393810E+04 0.  0.
        5    1    3    3  502    0 -0.25978021392E+02 -0.90012106268E+03  0.37468937082E+03  0.97534968072E+03  0.46999998093E+01 0.  1.
       -5    1    3    3    0  502  0.25978021392E+02  0.90012106268E+03  0.47806699612E+03  0.10195405474E+04  0.46999998093E+01 0. -1.
</event>
<event>
 5   0  0.3983176E-05  0.1799589E+04  0.7818609E-02  0.8706518E-01
        2   -1    0    0  501    0  0.00000000000E+00  0.00000000000E+00  0.45886006363E+03  0.45886006364E+03  0.25500000920E-02 0. -1.
       -2   -1    0    0    0  501  0.00000000000E+00  0.00000000000E+00 -0.17644383713E+04  0.17644383713E+04  0.25500000920E-02 0.  1.
    10030    2    1    2    0    0  0.00000000000E+00  0.00000000000E+00 -0.13055783077E+04  0.22232984349E+04  0.17995891791E+04 0.  0.
        3    1    3    3  502    0  0.60147456153E+03 -0.66444868275E+03 -0.75136668370E+03  0.11695364910E+04  0.10100000352E+00 0.  1.
       -3    1    3    3    0  502 -0.60147456153E+03  0.66444868275E+03 -0.55421162398E+03  0.10537619440E+04  0.10100000352E+00 0. -1.
</event>
<event>
 5   0  0.3993393E-05  0.1801596E+04  0.7818609E-02  0.8705451E-01
        2   -1    0    0  501    0  0.00000000000E+00  0.00000000000E+00  0.65454359306E+03  0.65454359306E+03  0.25500000920E-02 0. -1.
       -2   -1    0    0    0  501  0.00000000000E+00  0.00000000000E+00 -0.12396991798E+04  0.12396991798E+04  0.25500000920E-02 0.  1.
    10030    2    1    2    0    0  0.00000000000E+00  0.00000000000E+00 -0.58515558675E+03  0.18942427729E+04  0.18015961317E+04 0.  0.
        5    1    3    3  502    0 -0.54929709741E+03  0.30712898637E+03 -0.97020416347E+03  0.11564487556E+04  0.46999998093E+01 0.  1.
       -5    1    3    3    0  502  0.54929709741E+03 -0.30712898637E+03  0.38504857672E+03  0.73779401728E+03  0.46999998093E+01 0. -1.
</event>
<event>
 5   0  0.4015729E-05  0.1797867E+04  0.7818609E-02  0.8707435E-01
        2   -1    0    0  501    0  0.00000000000E+00  0.00000000000E+00  0.16771892473E+04  0.16771892473E+04  0.25500000920E-02 0. -1.
       -2   -1    0    0    0  501  0.00000000000E+00  0.00000000000E+00 -0.48180681986E+03  0.48180681986E+03  0.25500000920E-02 0.  1.
    10030    2    1    2    0    0  0.00000000000E+00  0.00000000000E+00  0.11953824274E+04  0.21589960671E+04  0.17978667554E+04 0.  0.
        2    1    3    3  502    0  0.18655883888E+03 -0.83563737146E+03  0.92653369743E+03  0.12615699384E+04  0.25500000920E-02 0.  1.
       -2    1    3    3    0  502 -0.18655883888E+03  0.83563737146E+03  0.26884872999E+03  0.89742612876E+03  0.25500000920E-02 0. -1.
</event>
<event>
 5   0  0.2038338E-05  0.1802755E+04  0.7818609E-02  0.8704836E-01
        1   -1    0    0  501    0  0.00000000000E+00  0.00000000000E+00  0.51989580944E+03  0.51989580947E+03  0.50400001928E-02 0. -1.
       -1   -1    0    0    0  501  0.00000000000E+00  0.00000000000E+00 -0.15627776855E+04  0.15627776855E+04  0.50400001928E-02 0.  1.
    10030    2    1    2    0    0  0.00000000000E+00  0.00000000000E+00 -0.10428818761E+04  0.20826734950E+04  0.18027551912E+04 0.  0.
        1    1    3    3  502    0  0.29959002252E+03  0.12031536640E+03 -0.14936915331E+04  0.15281833545E+04  0.50400001928E-02 0.  1.
       -1    1    3    3    0  502 -0.29959002252E+03 -0.12031536640E+03  0.45080965702E+03  0.55449014047E+03  0.50400001928E-02 0. -1.
</event>
<event>
 5   0  0.1906857E-05  0.1829111E+04  0.7818609E-02  0.8690970E-01
        1   -1    0    0  501    0  0.00000000000E+00  0.00000000000E+00  0.15039037838E+04  0.15039037838E+04  0.50400001928E-02 0. -1.
       -1   -1    0    0    0  501  0.00000000000E+00  0.00000000000E+00 -0.55616041871E+03  0.55616041873E+03  0.50400001928E-02 0.  1.
    10030    2    1    2    0    0  0.00000000000E+00  0.00000000000E+00  0.94774336510E+03  0.20600642026E+04  0.18291109951E+04 0.  0.
        4    1    3    3  502    0  0.39817030296E+03  0.11251311148E+03  0.13924591629E+04  0.14526331002E+04  0.12699999809E+01 0. -1.
       -4    1    3    3    0  502 -0.39817030296E+03 -0.11251311148E+03 -0.44471579782E+03  0.60743110238E+03  0.12699999809E+01 0.  1.
</event>
<event>
 5   0  0.3909859E-05  0.1798389E+04  0.7818609E-02  0.8707157E-01
        2   -1    0    0  501    0  0.00000000000E+00  0.00000000000E+00  0.24056132305E+04  0.24056132305E+04  0.25500000920E-02 0.  1.
       -2   -1    0    0    0  501  0.00000000000E+00  0.00000000000E+00 -0.33611008481E+03  0.33611008482E+03  0.25500000920E-02 0. -1.
    10030    2    1    2    0    0  0.00000000000E+00  0.00000000000E+00  0.20695031457E+04  0.27417233153E+04  0.17983891314E+04 0.  0.
        4    1    3    3  502    0 -0.84778156738E+03  0.54984818849E+02  0.58561269544E+03  0.10318433787E+04  0.12699999809E+01 0. -1.
       -4    1    3    3    0  502  0.84778156738E+03 -0.54984818849E+02  0.14838904503E+04  0.17098799366E+04  0.12699999809E+01 0.  1.
</event>
<event>
 5   0  0.3909859E-05  0.1801270E+04  0.7818609E-02  0.8705624E-01
       -2   -1    0    0    0  501  0.00000000000E+00  0.00000000000E+00  0.64128496067E+03  0.64128496067E+03  0.25500000920E-02 0.  1.
        2   -1    0    0  501    0  0.00000000000E+00  0.00000000000E+00 -0.12648724440E+04  0.12648724440E+04  0.25500000920E-02 0. -1.
    10030    2    1    2    0    0  0.00000000000E+00  0.00000000000E+00 -0.62358748334E+03  0.19061574047E+04  0.18012703023E+04 0.  0.
        4    1    3    3  502    0  0.18792901197E+03 -0.87780961344E+03 -0.23493515294E+03  0.92793489533E+03  0.12699999809E+01 0. -1.
       -4    1    3    3    0  502 -0.18792901197E+03  0.87780961344E+03 -0.38865233040E+03  0.97822250935E+03  0.12699999809E+01 0.  1.
</event>
<event>
 5   0  0.2001811E-05  0.1801696E+04  0.7818609E-02  0.8705398E-01
        1   -1    0    0  501    0  0.00000000000E+00  0.00000000000E+00  0.15793010951E+04  0.15793010951E+04  0.50400001928E-02 0.  1.
       -1   -1    0    0    0  501  0.00000000000E+00  0.00000000000E+00 -0.51385218628E+03  0.51385218630E+03  0.50400001928E-02 0. -1.
    10030    2    1    2    0    0  0.00000000000E+00  0.00000000000E+00  0.10654489088E+04  0.20931532814E+04  0.18016962236E+04 0.  0.
        2    1    3    3  502    0 -0.47016212688E+03  0.73394416324E+03  0.79714058805E+03  0.11811687337E+04  0.25500000920E-02 0. -1.
       -2    1    3    3    0  502  0.47016212688E+03 -0.73394416324E+03  0.26830832077E+03  0.91198454773E+03  0.25500000920E-02 0.  1.
</event>
<event>
 5   0  0.2001811E-05  0.1798034E+04  0.7818609E-02  0.8707346E-01
        1   -1    0    0  501    0  0.00000000000E+00  0.00000000000E+00  0.16638940416E+04  0.16638940416E+04  0.50400001928E-02 0. -1.
       -1   -1    0    0    0  501  0.00000000000E+00  0.00000000000E+00 -0.48574693343E+03  0.48574693345E+03  0.50400001928E-02 0.  1.
    10030    2    1    2    0    0  0.00000000000E+00  0.00000000000E+00  0.11781471082E+04  0.21496409751E+04  0.17980338465E+04 0.  0.
        2    1    3    3  502    0 -0.88704649330E+03  0.28952143082E+02  0.41772262004E+03  0.98090870888E+03  0.25500000920E-02 0. -1.
       -2    1    3    3    0  502  0.88704649330E+03 -0.28952143082E+02  0.76042448817E+03  0.11687322662E+04  0.25500000920E-02 0.  1.
</event>
<event>
 5   0  0.4015729E-05  0.1801180E+04  0.7818609E-02  0.8705672E-01
        2   -1    0    0  501    0  0.00000000000E+00  0.00000000000E+00  0.14395676595E+04  0.14395676595E+04  0.25500000920E-02 0.  1.
       -2   -1    0    0    0  501  0.00000000000E+00  0.00000000000E+00 -0.56340699724E+03  0.56340699725E+03  0.25500000920E-02 0. -1.
    10030    2    1    2    0    0  0.00000000000E+00  0.00000000000E+00  0.87616066224E+03  0.20029746567E+04  0.18011801602E+04 0.  0.
        2    1    3    3  502    0 -0.13601075457E+03  0.89020348144E+03  0.42688635434E+03  0.99659075013E+03  0.25500000920E-02 0.  1.
       -2    1    3    3    0  502  0.13601075457E+03 -0.89020348144E+03  0.44927430790E+03  0.10063839066E+04  0.25500000920E-02 0. -1.
</event>
<event>
 5   0  0.3983176E-05  0.1810155E+04  0.7818609E-02  0.8700918E-01
        2   -1    0    0  501    0  0.00000000000E+00  0.00000000000E+00  0.17208894243E+04  0.17208894243E+04  0.25500000920E-02 0.  1.
       -2   -1    0    0    0  501  0.00000000000E+00  0.00000000000E+00 -0.47601259478E+03  0.47601259479E+03  0.25500000920E-02 0. -1.
    10030    2    1    2    0    0  0.00000000000E+00  0.00000000000E+00  0.12448768295E+04  0.21969020191E+04  0.18101547339E+04 0.  0.
        3    1    3    3  502    0 -0.50985042266E+03  0.45650044689E+03 -0.96414774872E+02  0.69111209692E+03  0.10100000352E+00 0. -1.
       -3    1    3    3    0  502  0.50985042266E+03 -0.45650044689E+03  0.13412916044E+04  0.15057899222E+04  0.10100000352E+00 0.  1.
</event>
<event>
 5   0  0.4015729E-05  0.1813766E+04  0.7818609E-02  0.8699013E-01
       -2   -1    0    0    0  501  0.00000000000E+00  0.00000000000E+00  0.60009584814E+03  0.60009584815E+03  0.25500000920E-02 0. -1.
        2   -1    0    0  501    0  0.00000000000E+00  0.00000000000E+00 -0.13705095497E+04  0.13705095497E+04  0.25500000920E-02 0.  1.
    10030    2    1    2    0    0  0.00000000000E+00  0.00000000000E+00 -0.77041370157E+03  0.19706053979E+04  0.18137663473E+04 0.  0.
        2    1    3    3  502    0  0.21159914328E+03 -0.13953593225E+02 -0.13431939109E+04  0.13598304242E+04  0.25500000920E-02 0.  1.
       -2    1    3    3    0  502 -0.21159914328E+03  0.13953593225E+02  0.57278020937E+03  0.61077497366E+03  0.25500000920E-02 0. -1.
</event>
<event>
 5   0  0.3984648E-05  0.1796801E+04  0.7818609E-02  0.8708003E-01
        2   -1    0    0  501    0  0.00000000000E+00  0.00000000000E+00  0.10265193105E+04  0.10265193105E+04  0.25500000920E-02 0. -1.
       -2   -1    0    0    0  501  0.00000000000E+00  0.00000000000E+00 -0.78627167102E+03  0.78627167102E+03  0.25500000920E-02 0.  1.
    10030    2    1    2    0    0  0.00000000000E+00  0.00000000000E+00  0.24024763943E+03  0.18127909815E+04  0.17968005494E+04 0.  0.
        1    1    3    3  502    0 -0.51640580346E+03  0.68700860648E+03  0.38411497689E+03  0.94138201317E+03  0.50400001928E-02 0. -1.
       -1    1    3    3    0  502  0.51640580346E+03 -0.68700860648E+03 -0.14386733746E+03  0.87140896830E+03  0.50400001928E-02 0.  1.
</event>
<event>
 5   0  0.1960300E-05  0.1802324E+04  0.7818609E-02  0.8705065E-01
        1   -1    0    0  501    0  0.00000000000E+00  0.00000000000E+00  0.11597830968E+04  0.11597830968E+04  0.50400001928E-02 0.  1.
       -1   -1    0    0    0  501  0.00000000000E+00  0.00000000000E+00 -0.70021103484E+03  0.70021103486E+03  0.50400001928E-02 0. -1.
    10030    2    1    2    0    0  0.00000000000E+00  0.00000000000E+00  0.45957206192E+03  0.18599941316E+04  0.18023239691E+04 0.  0.
        3    1    3    3  502    0 -0.22571774139E+03 -0.65958740856E+02  0.11275610461E+04  0.11518215909E+04  0.10100000352E+00 0.  1.
       -3    1    3    3    0  502  0.22571774139E+03  0.65958740856E+02 -0.66798898420E+03  0.70817254076E+03  0.10100000352E+00 0. -1.
</event>
<event>
 5   0  0.3993393E-05  0.1802030E+04  0.7818609E-02  0.8705220E-01
        2   -1    0    0  501    0  0.00000000000E+00  0.00000000000E+00  0.14520606272E+04  0.14520606272E+04  0.25500000920E-02 0. -1.
       -2   -1    0    0    0  501  0.00000000000E+00  0.00000000000E+00 -0.55908711115E+03  0.55908711116E+03  0.25500000920E-02 0.  1.
    10030    2    1    2    0    0  0.00000000000E+00  0.00000000000E+00  0.89297351608E+03  0.20111477384E+04  0.18020303897E+04 0.  0.
        5    1    3    3  502    0  0.52699274562E+03 -0.69833720689E+03  0.68691641459E+03  0.11123274963E+04  0.46999998093E+01 0. -1.
       -5    1    3    3    0  502 -0.52699274562E+03  0.69833720689E+03  0.20605710149E+03  0.89882024206E+03  0.46999998093E+01 0.  1.
</event>
<event>
 5   0  0.3909859E-05  0.1801152E+04  0.7818609E-02  0.8705687E-01
        2   -1    0    0  501    0  0.00000000000E+00  0.00000000000E+00  0.28595458986E+04  0.28595458986E+04  0.25500000920E-02 0. -1.
       -2   -1    0    0    0  501  0.00000000000E+00  0.00000000000E+00 -0.28362444662E+03  0.28362444663E+03  0.25500000920E-02 0.  1.
    10030    2    1    2    0    0  0.00000000000E+00  0.00000000000E+00  0.25759214520E+04  0.31431703452E+04  0.18011519904E+04 0.  0.
        4    1    3    3  502    0  0.20283093471E+03  0.77885387603E+03  0.58280279459E+03  0.99368730422E+03  0.12699999809E+01 0.  1.
       -4    1    3    3    0  502 -0.20283093471E+03 -0.77885387603E+03  0.19931186574E+04  0.21494830410E+04  0.12699999809E+01 0. -1.
</event>
<event>
 5   0  0.4015729E-05  0.1794078E+04  0.7818609E-02  0.8709455E-01
        2   -1    0    0  501    0  0.00000000000E+00  0.00000000000E+00  0.86752729793E+03  0.86752729794E+03  0.25500000920E-02 0.  1.
       -2   -1    0    0    0  501  0.00000000000E+00  0.00000000000E+00 -0.92755452663E+03  0.92755452663E+03  0.25500000920E-02 0. -1.
    10030    2    1    2    0    0  0.00000000000E+00  0.00000000000E+00 -0.60027228695E+02  0.17950818246E+04  0.17940778937E+04 0.  0.
        2    1    3    3  502    0  0.63310498364E+03  0.58396565084E+03  0.22080787483E+03  0.88915348466E+03  0.25500000920E-02 0. -1.
       -2    1    3    3    0  502 -0.63310498364E+03 -0.58396565084E+03 -0.28083510353E+03  0.90592833991E+03  0.25500000920E-02 0.  1.
</event>
<event>
 5   0  0.1960300E-05  0.1795541E+04  0.7818609E-02  0.8708674E-01
        1   -1    0    0  501    0  0.00000000000E+00  0.00000000000E+00  0.72793110943E+03  0.72793110944E+03  0.50400001928E-02 0. -1.
       -1   -1    0    0    0  501  0.00000000000E+00  0.00000000000E+00 -0.11072361211E+04  0.11072361211E+04  0.50400001928E-02 0.  1.
    10030    2    1    2    0    0  0.00000000000E+00  0.00000000000E+00 -0.37930501165E+03  0.18351672305E+04  0.17955407186E+04 0.  0.
        3    1    3    3  502    0 -0.14998658293E+03  0.24295681147E+03 -0.10595936617E+04  0.10973890492E+04  0.10100000352E+00 0.  1.
       -3    1    3    3    0  502  0.14998658293E+03 -0.24295681147E+03  0.68028865001E+03  0.73777818132E+03  0.10100000352E+00 0. -1.
</event>
<event>
 5   0  0.2054876E-05  0.1802576E+04  0.7818609E-02  0.8704931E-01
        1   -1    0    0  501    0  0.00000000000E+00  0.00000000000E+00  0.10305460809E+04  0.10305460809E+04  0.50400001928E-02 0.  1.
       -1   -1    0    0    0  501  0.00000000000E+00  0.00000000000E+00 -0.78824210849E+03  0.78824210850E+03  0.50400001928E-02 0. -1.
    10030    2    1    2    0    0  0.00000000000E+00  0.00000000000E+00  0.24230397243E+03  0.18187881894E+04  0.18025757302E+04 0.  0.
        5    1    3    3  502    0  0.47239019074E+03 -0.70509350121E+03  0.42717572031E+03  0.95016341951E+03  0.46999998093E+01 0. -1.
       -5    1    3    3    0  502 -0.47239019074E+03  0.70509350121E+03 -0.18487174789E+03  0.86862476992E+03  0.46999998093E+01 0.  1.
</event>
<event>
 5   0  0.3984648E-05  0.1804870E+04  0.7818609E-02  0.8703714E-01
       -2   -1    0    0    0  501  0.00000000000E+00  0.00000000000E+00  0.92749418817E+03  0.92749418818E+03  0.25500000920E-02 0.  1.
        2   -1    0    0  501    0  0.00000000000E+00  0.00000000000E+00 -0.87805250448E+03  0.87805250448E+03  0.25500000920E-02 0. -1.
    10030    2    1    2    0    0  0.00000000000E+00  0.00000000000E+00  0.49441683695E+02  0.18055466927E+04  0.18048696294E+04 0.  0.
        1    1    3    3  502    0 -0.25574944610E+03  0.69550638978E+03  0.53993994394E+03  0.91688170475E+03  0.50400001928E-02 0.  1.
       -1    1    3    3    0  502  0.25574944610E+03 -0.69550638978E+03 -0.49049826025E+03  0.88866498791E+03  0.50400001928E-02 0. -1.
</event>
<event>
 5   0  0.3993393E-05  0.1798320E+04  0.7818609E-02  0.8707194E-01
        2   -1    0    0  501    0  0.00000000000E+00  0.00000000000E+00  0.17065114286E+04  0.17065114286E+04  0.25500000920E-02 0. -1.
       -2   -1    0    0    0  501  0.00000000000E+00  0.00000000000E+00 -0.47376680896E+03  0.47376680896E+03  0.25500000920E-02 0.  1.
    10030    2    1    2    0    0  0.00000000000E+00  0.00000000000E+00  0.12327446196E+04  0.21802782376E+04  0.17983197424E+04 0.  0.
        5    1    3    3  502    0  0.33872892529E+03 -0.81532254168E+03  0.82275872210E+03  0.12068314450E+04  0.46999998093E+01 0.  1.
       -5    1    3    3    0  502 -0.33872892529E+03  0.81532254168E+03  0.40998589755E+03  0.97344679258E+03  0.46999998093E+01 0. -1.
</event>
<event>
 5   0  0.3993393E-05  0.1798115E+04  0.7818609E-02  0.8707303E-01
        2   -1    0    0  501    0  0.00000000000E+00  0.00000000000E+00  0.13557625933E+04  0.13557625933E+04  0.25500000920E-02 0.  1.
       -2   -1    0    0    0  501  0.00000000000E+00  0.00000000000E+00 -0.59619874691E+03  0.59619874692E+03  0.25500000920E-02 0. -1.
    10030    2    1    2    0    0  0.00000000000E+00  0.00000000000E+00  0.75956384640E+03  0.19519613402E+04  0.17981145228E+04 0.  0.
        5    1    3    3  502    0  0.60362084914E+03  0.56829708565E+03  0.75733553900E+03  0.11228975535E+04  0.46999998093E+01 0. -1.
       -5    1    3    3    0  502 -0.60362084914E+03 -0.56829708565E+03  0.22283073985E+01  0.82906378671E+03  0.46999998093E+01 0.  1.
</event>
<event>
 5   0  0.1906857E-05  0.1801379E+04  0.7818609E-02  0.8705566E-01
        1   -1    0    0  501    0  0.00000000000E+00  0.00000000000E+00  0.15834683344E+04  0.15834683344E+04  0.50400001928E-02 0. -1.
       -1   -1    0    0    0  501  0.00000000000E+00  0.00000000000E+00 -0.51231961142E+03  0.51231961145E+03  0.50400001928E-02 0.  1.
    10030    2    1    2    0    0  0.00000000000E+00  0.00000000000E+00  0.10711487230E+04  0.20957879459E+04  0.18013793402E+04 0.  0.
        4    1    3    3  502    0  0.36635786838E+03 -0.64885364303E+03  0.11242439292E+04  0.13487606026E+04  0.12699999809E+01 0. -1.
       -4    1    3    3    0  502 -0.36635786838E+03  0.64885364303E+03 -0.53095206218E+02  0.74702734329E+03  0.12699999809E+01 0.  1.
</event>
<event>
 5   0  0.1906857E-05  0.1836232E+04  0.7818609E-02  0.8687265E-01
       -1   -1    0    0    0  501  0.00000000000E+00  0.00000000000E+00  0.70320744933E+03  0.70320744935E+03  0.50400001928E-02 0.  1.
        1   -1    0    0  501    0  0.00000000000E+00  0.00000000000E+00 -0.11987036732E+04  0.11987036732E+04  0.50400001928E-02 0. -1.
    10030    2    1    2    0    0  0.00000000000E+00  0.00000000000E+00 -0.49549622391E+03  0.19019111226E+04  0.18362323955E+04 0.  0.
        4    1    3    3  502    0 -0.56356322720E+03  0.65265288198E+03 -0.57426398592E+03  0.10360212516E+04  0.12699999809E+01 0.  1.
       -4    1    3    3    0  502  0.56356322720E+03 -0.65265288198E+03  0.78767762012E+02  0.86588987097E+03  0.12699999809E+01 0. -1.
</event>
<event>
 5   0  0.2001811E-05  0.1801177E+04  0.7818609E-02  0.8705674E-01
       -1   -1    0    0    0  501  0.00000000000E+00  0.00000000000E+00  0.44428030844E+03  0.44428030847E+03  0.50400001928E-02 0. -1.
        1   -1    0    0  501    0  0.00000000000E+00  0.00000000000E+00 -0.18255592556E+04  0.18255592556E+04  0.50400001928E-02 0.  1.
    10030    2    1    2    0    0  0.00000000000E+00  0.00000000000E+00 -0.13812789471E+04  0.22698395640E+04  0.18011774251E+04 0.  0.
        2    1    3    3  502    0  0.20279798495E+02  0.15600256009E+03 -0.18081100770E+04  0.18149408034E+04  0.25500000920E-02 0.  1.
       -2    1    3    3    0  502 -0.20279798495E+02 -0.15600256009E+03  0.42683112993E+03  0.45489876067E+03  0.25500000920E-02 0. -1.
</event>
<event>
 5   0  0.3984648E-05  0.1795295E+04  0.7818609E-02  0.8708806E-01
       -2   -1    0    0    0  501  0.00000000000E+00  0.00000000000E+00  0.47014644686E+03  0.47014644686E+03  0.25500000920E-02 0. -1.
        2   -1    0    0  501    0  0.00000000000E+00  0.00000000000E+00 -0.17138722905E+04  0.17138722905E+04  0.25500000920E-02 0.  1.
    10030    2    1    2    0    0  0.00000000000E+00  0.00000000000E+00 -0.12437258437E+04  0.21840187374E+04  0.17952949259E+04 0.  0.
        1    1    3    3  502    0 -0.60815754057E+03 -0.12042298328E+03 -0.14115860747E+04  0.15417303705E+04  0.50400001928E-02 0.  1.
       -1    1    3    3    0  502  0.60815754057E+03  0.12042298328E+03  0.16786023102E+03  0.64228836689E+03  0.50400001928E-02 0. -1.
</event>
<event>
 5   0  0.3993393E-05  0.1800803E+04  0.7818609E-02  0.8705873E-01
       -2   -1    0    0    0  501  0.00000000000E+00  0.00000000000E+00  0.36700267866E+03  0.36700267867E+03  0.25500000920E-02 0. -1.
        2   -1    0    0  501    0  0.00000000000E+00  0.00000000000E+00 -0.22090373059E+04  0.22090373059E+04  0.25500000920E-02 0.  1.
    10030    2    1    2    0    0  0.00000000000E+00  0.00000000000E+00 -0.18420346273E+04  0.25760399846E+04  0.18008027194E+04 0.  0.
        5    1    3    3  502    0  0.11487767594E+03 -0.88860711875E+02 -0.21921534644E+04  0.21969642710E+04  0.46999998093E+01 0.  1.
       -5    1    3    3    0  502 -0.11487767594E+03  0.88860711875E+02  0.35011883712E+03  0.37907571361E+03  0.46999998093E+01 0. -1.
</event>
<event>
 5   0  0.3983176E-05  0.1799268E+04  0.7818609E-02  0.8706689E-01
        2   -1    0    0  501    0  0.00000000000E+00  0.00000000000E+00  0.12079997392E+04  0.12079997392E+04  0.25500000920E-02 0. -1.
       -2   -1    0    0    0  501  0.00000000000E+00  0.00000000000E+00 -0.66998442490E+03  0.66998442491E+03  0.25500000920E-02 0.  1.
    10030    2    1    2    0    0  0.00000000000E+00  0.00000000000E+00  0.53801531428E+03  0.18779841641E+04  0.17992676405E+04 0.  0.
        3    1    3    3  502    0 -0.67360411248E+03  0.59414640423E+03  0.32211131812E+03  0.95420551323E+03  0.10100000352E+00 0. -1.
       -3    1    3    3    0  502  0.67360411248E+03 -0.59414640423E+03  0.21590399616E+03  0.92377865086E+03  0.10100000352E+00 0.  1.
</event>
<event>
 5   0  0.1906857E-05  0.1799715E+04  0.7818609E-02  0.8706451E-01
       -1   -1    0    0    0  501  0.00000000000E+00  0.00000000000E+00  0.98387140282E+03  0.98387140283E+03  0.50400001928E-02 0.  1.
        1   -1    0    0  501    0  0.00000000000E+00  0.00000000000E+00 -0.82301762081E+03  0.82301762083E+03  0.50400001928E-02 0. -1.
    10030    2    1    2    0    0  0.00000000000E+00  0.00000000000E+00  0.16085378201E+03  0.18068890237E+04  0.17997149787E+04 0.  0.
        4    1    3    3  502    0  0.25290099973E+03  0.43036109794E+03  0.83212518496E+03  0.97036257483E+03  0.12699999809E+01 0.  1.
       -4    1    3    3    0  502 -0.25290099973E+03 -0.43036109794E+03 -0.67127140295E+03  0.83652644884E+03  0.12699999809E+01 0. -1.
</event>
<event>
 5   0  0.3984648E-05  0.1798152E+04  0.7818609E-02  0.8707283E-01
        2   -1    0    0  501    0  0.00000000000E+00  0.00000000000E+00  0.10875344503E+04  0.10875344503E+04  0.25500000920E-02 0.  1.
       -2   -1    0    0    0  501  0.00000000000E+00  0.00000000000E+00 -0.74327510760E+03  0.74327510761E+03  0.25500000920E-02 0. -1.
    10030    2    1    2    0    0  0.00000000000E+00  0.00000000000E+00  0.34425934270E+03  0.18308095579E+04  0.17981515905E+04 0.  0.
        1    1    3    3  502    0 -0.84818225923E+03 -0.27381077652E+03  0.51866686015E+02  0.89279092701E+03  0.50400001928E-02 0. -1.
       -1    1    3    3    0  502  0.84818225923E+03  0.27381077652E+03  0.29239265668E+03  0.93801863090E+03  0.50400001928E-02 0.  1.
</event>
<event>
 5   0  0.1906857E-05  0.1804162E+04  0.7818609E-02  0.8704089E-01
        1   -1    0    0  501    0  0.00000000000E+00  0.00000000000E+00  0.12792040095E+04  0.12792040095E+04  0.50400001928E-02 0. -1.
       -1   -1    0    0    0  501  0.00000000000E+00  0.00000000000E+00 -0.63613785376E+03  0.63613785378E+03  0.50400001928E-02 0.  1.
    10030    2    1    2    0    0  0.00000000000E+00  0.00000000000E+00  0.64306615577E+03  0.19153418633E+04  0.18041619586E+04 0.  0.
        4    1    3    3  502    0  0.26942040771E+03 -0.20214043598E+03  0.12099420935E+04  0.12559496783E+04  0.12699999809E+01 0. -1.
       -4    1    3    3    0  502 -0.26942040771E+03  0.20214043598E+03 -0.56687593774E+03  0.65939218499E+03  0.12699999809E+01 0.  1.
</event>
<event>
 5   0  0.3983176E-05  0.1802050E+04  0.7818609E-02  0.8705210E-01
       -2   -1    0    0    0  501  0.00000000000E+00  0.00000000000E+00  0.66779921761E+03  0.66779921762E+03  0.25500000920E-02 0. -1.
        2   -1    0    0  501    0  0.00000000000E+00  0.00000000000E+00 -0.12157031503E+04  0.12157031503E+04  0.25500000920E-02 0.  1.
    10030    2    1    2    0    0  0.00000000000E+00  0.00000000000E+00 -0.54790393268E+03  0.18835023679E+04  0.18020495139E+04 0.  0.
        3    1    3    3  502    0 -0.36868623654E+03 -0.79658038835E+03 -0.48655642642E+03  0.10035970418E+04  0.10100000352E+00 0. -1.
       -3    1    3    3    0  502  0.36868623654E+03  0.79658038835E+03 -0.61347506260E+02  0.87990532607E+03  0.10100000352E+00 0.  1.
</event>
<event>
 5   0  0.3909859E-05  0.1801143E+04  0.7818609E-02  0.8705692E-01
        2   -1    0    0  501    0  0.00000000000E+00  0.00000000000E+00  0.18709000004E+04  0.18709000004E+04  0.25500000920E-02 0.  1.
       -2   -1    0    0    0  501  0.00000000000E+00  0.00000000000E+00 -0.43349663647E+03  0.43349663648E+03  0.25500000920E-02 0. -1.
    10030    2    1    2    0    0  0.00000000000E+00  0.00000000000E+00  0.14374033640E+04  0.23043966369E+04  0.18011428121E+04 0.  0.
        4    1    3    3  502    0  0.44937263974E+03 -0.59724051003E+03  0.75940455621E+02  0.75126597279E+03  0.12699999809E+01 0. -1.
       -4    1    3    3    0  502 -0.44937263974E+03  0.59724051003E+03  0.13614629084E+04  0.15531306641E+04  0.12699999809E+01 0.  1.
</event>
<event>
 5   0  0.2038338E-05  0.1792578E+04  0.7818609E-02  0.8710257E-01
       -1   -1    0    0    0  501  0.00000000000E+00  0.00000000000E+00  0.10514343162E+04  0.10514343163E+04  0.50400001928E-02 0. -1.
        1   -1    0    0  501    0  0.00000000000E+00  0.00000000000E+00 -0.76403603877E+03  0.76403603879E+03  0.50400001928E-02 0.  1.
    10030    2    1    2    0    0  0.00000000000E+00  0.00000000000E+00  0.28739827747E+03  0.18154703550E+04  0.17925777083E+04 0.  0.
        1    1    3    3  502    0  0.68985132112E+03  0.53055195078E+03  0.36080444148E+03  0.94210406152E+03  0.50400001928E-02 0. -1.
       -1    1    3    3    0  502 -0.68985132112E+03 -0.53055195078E+03 -0.73406164005E+02  0.87336629352E+03  0.50400001928E-02 0.  1.
</event>
<event>
 5   0  0.3984648E-05  0.1799653E+04  0.7818609E-02  0.8706484E-01
        2   -1    0    0  501    0  0.00000000000E+00  0.00000000000E+00  0.12935594214E+04  0.12935594214E+04  0.25500000920E-02 0. -1.
       -2   -1    0    0    0  501  0.00000000000E+00  0.00000000000E+00 -0.62593761741E+03  0.62593761742E+03  0.25500000920E-02 0.  1.
    10030    2    1    2    0    0  0.00000000000E+00  0.00000000000E+00  0.66762180398E+03  0.19194970388E+04  0.17996527467E+04 0.  0.
        1    1    3    3  502    0  0.24971380936E+03  0.75865364204E+03 -0.10824676023E+03  0.80599608950E+03  0.50400001928E-02 0. -1.
       -1    1    3    3    0  502 -0.24971380936E+03 -0.75865364204E+03  0.77586856422E+03  0.11135009493E+04  0.50400001928E-02 0.  1.
</event>
<event>
 5   0  0.2054876E-05  0.1802177E+04  0.7818609E-02  0.8705143E-01
        1   -1    0    0  501    0  0.00000000000E+00  0.00000000000E+00  0.68593725526E+03  0.68593725528E+03  0.50400001928E-02 0. -1.
       -1   -1    0    0    0  501  0.00000000000E+00  0.00000000000E+00 -0.11837241470E+04  0.11837241470E+04  0.50400001928E-02 0.  1.
    10030    2    1    2    0    0  0.00000000000E+00  0.00000000000E+00 -0.49778689176E+03  0.18696614023E+04  0.18021770084E+04 0.  0.
        5    1    3    3  502    0  0.46249887771E+03 -0.44821595775E+02  0.55204191857E+03  0.72158613982E+03  0.46999998093E+01 0. -1.
       -5    1    3    3    0  502 -0.46249887771E+03  0.44821595775E+02 -0.10498288103E+04  0.11480752625E+04  0.46999998093E+01 0.  1.
</event>
<event>
 5   0  0.2054876E-05  0.1802177E+04  0.7818609E-02  0.8705143E-01
       -1   -1    0    0    0  501  0.00000000000E+00  0.00000000000E+00  0.96275095462E+03  0.96275095463E+03  0.50400001928E-02 0. -1.
        1   -1    0    0  501    0  0.00000000000E+00  0.00000000000E+00 -0.84337536603E+03  0.84337536605E+03  0.50400001928E-02 0.  1.
    10030    2    1    2    0    0  0.00000000000E+00  0.00000000000E+00  0.11937558859E+03  0.18061263207E+04  0.18021769489E+04 0.  0.
        5    1    3    3  502    0  0.59126163537E+03 -0.45533551217E+03 -0.44641154131E+03  0.86961261739E+03  0.46999998093E+01 0.  1.
       -5    1    3    3    0  502 -0.59126163537E+03  0.45533551217E+03  0.56578712989E+03  0.93651370329E+03  0.46999998093E+01 0. -1.
</event>
<event>
 5   0  0.1906857E-05  0.1797828E+04  0.7818609E-02  0.8707455E-01
        1   -1    0    0  501    0  0.00000000000E+00  0.00000000000E+00  0.75215339095E+03  0.75215339097E+03  0.50400001928E-02 0.  1.
       -1   -1    0    0    0  501  0.00000000000E+00  0.00000000000E+00 -0.10743104368E+04  0.10743104368E+04  0.50400001928E-02 0. -1.
    10030    2    1    2    0    0  0.00000000000E+00  0.00000000000E+00 -0.32215704583E+03  0.18264638278E+04  0.17978278427E+04 0.  0.
        4    1    3    3  502    0 -0.29105505338E+03 -0.84927117365E+03 -0.20730107003E+03  0.92138478228E+03  0.12699999809E+01 0.  1.
       -4    1    3    3    0  502  0.29105505338E+03  0.84927117365E+03 -0.11485597580E+03  0.90507904548E+03  0.12699999809E+01 0. -1.
</event>
<event>
 5   0  0.1960300E-05  0.1803109E+04  0.7818609E-02  0.8704648E-01
       -1   -1    0    0    0  501  0.00000000000E+00  0.00000000000E+00  0.47373587216E+03  0.47373587218E+03  0.50400001928E-02 0. -1.
        1   -1    0    0  501    0  0.00000000000E+00  0.00000000000E+00 -0.17157243897E+04  0.17157243898E+04  0.50400001928E-02 0.  1.
    10030    2    1    2    0    0  0.00000000000E+00  0.00000000000E+00 -0.12419885176E+04  0.21894602619E+04  0.18031086381E+04 0.  0.
        3    1    3    3  502    0 -0.25155497508E+03  0.63318323103E+03 -0.13379269932E+04  0.15014158514E+04  0.10100000352E+00 0.  1.
       -3    1    3    3    0  502  0.25155497508E+03 -0.63318323103E+03  0.95938475606E+02  0.68804441052E+03  0.10100000352E+00 0. -1.
</event>
<event>
 5   0  0.1960300E-05  0.1797463E+04  0.7818609E-02  0.8707650E-01
        1   -1    0    0  501    0  0.00000000000E+00  0.00000000000E+00  0.12668353402E+04  0.12668353403E+04  0.50400001928E-02 0.  1.
       -1   -1    0    0    0  501  0.00000000000E+00  0.00000000000E+00 -0.63758765605E+03  0.63758765607E+03  0.50400001928E-02 0. -1.
    10030    2    1    2    0    0  0.00000000000E+00  0.00000000000E+00  0.62924768420E+03  0.19044229963E+04  0.17974632961E+04 0.  0.
        3    1    3    3  502    0 -0.15837967377E+02  0.59789803235E+03  0.10253506982E+04  0.11870454763E+04  0.10100000352E+00 0.  1.
       -3    1    3    3    0  502  0.15837967377E+02 -0.59789803235E+03 -0.39610301402E+03  0.71737752002E+03  0.10100000352E+00 0. -1.
</event>
<event>
 5   0  0.1906857E-05  0.1799241E+04  0.7818609E-02  0.8706703E-01
        1   -1    0    0  501    0  0.00000000000E+00  0.00000000000E+00  0.18570495309E+04  0.18570495309E+04  0.50400001928E-02 0. -1.
       -1   -1    0    0    0  501  0.00000000000E+00  0.00000000000E+00 -0.43580786811E+03  0.43580786813E+03  0.50400001928E-02 0.  1.
    10030    2    1    2    0    0  0.00000000000E+00  0.00000000000E+00  0.14212416628E+04  0.22928573990E+04  0.17992407255E+04 0.  0.
        4    1    3    3  502    0  0.47464034907E+03 -0.17848205588E+03  0.16575696097E+04  0.17334006834E+04  0.12699999809E+01 0. -1.
       -4    1    3    3    0  502 -0.47464034907E+03  0.17848205588E+03 -0.23632794696E+03  0.55945671561E+03  0.12699999809E+01 0.  1.
</event>
<event>
 5   0  0.1960300E-05  0.1800476E+04  0.7818609E-02  0.8706046E-01
        1   -1    0    0  501    0  0.00000000000E+00  0.00000000000E+00  0.22652392813E+04  0.22652392813E+04  0.50400001928E-02 0. -1.
       -1   -1    0    0    0  501  0.00000000000E+00  0.00000000000E+00 -0.35776744560E+03  0.35776744564E+03  0.50400001928E-02 0.  1.
    10030    2    1    2    0    0  0.00000000000E+00  0.00000000000E+00  0.19074718357E+04  0.26230067269E+04  0.18004764607E+04 0.  0.
        3    1    3    3  502    0  0.19916262133E+02  0.32858787304E+03  0.21744100913E+04  0.21991875552E+04  0.10100000352E+00 0. -1.
       -3    1    3    3    0  502 -0.19916262133E+02 -0.32858787304E+03 -0.26693825559E+03  0.42381917170E+03  0.10100000352E+00 0.  1.
</event>
<event>
 5   0  0.2038338E-05  0.1798584E+04  0.7818609E-02  0.8707053E-01
       -1   -1    0    0    0  501  0.00000000000E+00  0.00000000000E+00  0.49789996250E+03  0.49789996252E+03  0.50400001928E-02 0.  1.
        1   -1    0    0  501    0  0.00000000000E+00  0.00000000000E+00 -0.16242733838E+04  0.16242733838E+04  0.50400001928E-02 0. -1.
    10030    2    1    2    0    0  0.00000000000E+00  0.00000000000E+00 -0.11263734213E+04  0.21221733463E+04  0.17985835059E+04 0.  0.
        1    1    3    3  502    0  0.43837065445E+03 -0.43980500952E+03 -0.13307007473E+04  0.14684555683E+04  0.50400001928E-02 0. -1.
       -1    1    3    3    0  502 -0.43837065445E+03  0.43980500952E+03  0.20432732606E+03  0.65371777801E+03  0.50400001928E-02 0.  1.
</event>
<event>
 5   0  0.2054876E-05  0.1799627E+04  0.7818609E-02  0.8706498E-01
        1   -1    0    0  501    0  0.00000000000E+00  0.00000000000E+00  0.13929481707E+04  0.13929481707E+04  0.50400001928E-02 0. -1.
       -1   -1    0    0    0  501  0.00000000000E+00  0.00000000000E+00 -0.58125957035E+03  0.58125957037E+03  0.50400001928E-02 0.  1.
    10030    2    1    2    0    0  0.00000000000E+00  0.00000000000E+00  0.81168860039E+03  0.19742077411E+04  0.17996271339E+04 0.  0.
        5    1    3    3  502    0  0.35530887621E+02 -0.76353695400E+03 -0.11496512534E+03  0.77297489878E+03  0.46999998093E+01 0.  1.
       -5    1    3    3    0  502 -0.35530887621E+02  0.76353695400E+03  0.92665372573E+03  0.12012328423E+04  0.46999998093E+01 0. -1.
</event>
<event>
 5   0  0.3983176E-05  0.1799490E+04  0.7818609E-02  0.8706571E-01
       -2   -1    0    0    0  501  0.00000000000E+00  0.00000000000E+00  0.65659384083E+03  0.65659384084E+03  0.25500000920E-02 0. -1.
        2   -1    0    0  501    0  0.00000000000E+00  0.00000000000E+00 -0.12329408424E+04  0.12329408424E+04  0.25500000920E-02 0.  1.
    10030    2    1    2    0    0  0.00000000000E+00  0.00000000000E+00 -0.57634700161E+03  0.18895346833E+04  0.17994903315E+04 0.  0.
        3    1    3    3  502    0  0.44415913991E+03  0.32421848758E+03 -0.10359503526E+04  0.11728546852E+04  0.10100000352E+00 0.  1.
       -3    1    3    3    0  502 -0.44415913991E+03 -0.32421848758E+03  0.45960335100E+03  0.71667999812E+03  0.10100000352E+00 0. -1.
</event>
<event>
 5   0  0.4015729E-05  0.1800717E+04  0.7818609E-02  0.8705918E-01
        2   -1    0    0  501    0  0.00000000000E+00  0.00000000000E+00  0.21450097384E+04  0.21450097384E+04  0.25500000920E-02 0.  1.
       -2   -1    0    0    0  501  0.00000000000E+00  0.00000000000E+00 -0.37792148668E+03  0.37792148668E+03  0.25500000920E-02 0. -1.
    10030    2    1    2    0    0  0.00000000000E+00  0.00000000000E+00  0.17670882518E+04  0.25229312251E+04  0.18007168232E+04 0.  0.
        2    1    3    3  502    0  0.19489622554E+03  0.66151726874E+03  0.16945396404E+04  0.18294956214E+04  0.25500000920E-02 0.  1.
       -2    1    3    3    0  502 -0.19489622554E+03 -0.66151726874E+03  0.72548611351E+02  0.69343560378E+03  0.25500000920E-02 0. -1.
</event>
<event>
 5   0  0.2054876E-05  0.1802544E+04  0.7818609E-02  0.8704948E-01
        1   -1    0    0  501    0  0.00000000000E+00  0.00000000000E+00  0.11067594076E+04  0.11067594076E+04  0.50400001928E-02 0.  1.
       -1   -1    0    0    0  501  0.00000000000E+00  0.00000000000E+00 -0.73393658488E+03  0.73393658490E+03  0.50400001928E-02 0. -1.
    10030    2    1    2    0    0  0.00000000000E+00  0.00000000000E+00  0.37282282275E+03  0.18406959925E+04  0.18025440022E+04 0.  0.
        5    1    3    3  502    0 -0.28695188374E+03  0.72571888128E+03 -0.27397446701E+03  0.82709937541E+03  0.46999998093E+01 0. -1.
       -5    1    3    3    0  502  0.28695188374E+03 -0.72571888128E+03  0.64679728975E+03  0.10135966171E+04  0.46999998093E+01 0.  1.
</event>
<event>
 5   0  0.3983176E-05  0.1796343E+04  0.7818609E-02  0.8708247E-01
        2   -1    0    0  501    0  0.00000000000E+00  0.00000000000E+00  0.73141459553E+03  0.73141459553E+03  0.25500000920E-02 0.  1.
       -2   -1    0    0    0  501  0.00000000000E+00  0.00000000000E+00 -0.11029477521E+04  0.11029477521E+04  0.25500000920E-02 0. -1.
    10030    2    1    2    0    0  0.00000000000E+00  0.00000000000E+00 -0.37153315657E+03  0.18343623476E+04  0.17963430452E+04 0.  0.
        3    1    3    3  502    0  0.33400047342E+02  0.46014411863E+03  0.60116924120E+03  0.75779458947E+03  0.10100000352E+00 0.  1.
       -3    1    3    3    0  502 -0.33400047342E+02 -0.46014411863E+03 -0.97270239777E+03  0.10765677582E+04  0.10100000352E+00 0. -1.
</event>
<event>
 5   0  0.3984648E-05  0.1803956E+04  0.7818609E-02  0.8704199E-01
        2   -1    0    0  501    0  0.00000000000E+00  0.00000000000E+00  0.10818362130E+04  0.10818362130E+04  0.25500000920E-02 0.  1.
       -2   -1    0    0    0  501  0.00000000000E+00  0.00000000000E+00 -0.75202136088E+03  0.75202136089E+03  0.25500000920E-02 0. -1.
    10030    2    1    2    0    0  0.00000000000E+00  0.00000000000E+00  0.32981485215E+03  0.18338575739E+04  0.18039555883E+04 0.  0.
        1    1    3    3  502    0 -0.46742627216E+03  0.17621869503E+03 -0.59855628176E+03  0.77962168444E+03  0.50400001928E-02 0. -1.
       -1    1    3    3    0  502  0.46742627216E+03 -0.17621869503E+03  0.92837113390E+03  0.10542358895E+04  0.50400001928E-02 0.  1.
</event>
<event>
 5   0  0.3909859E-05  0.1801914E+04  0.7818609E-02  0.8705283E-01
        2   -1    0    0  501    0  0.00000000000E+00  0.00000000000E+00  0.10978381288E+04  0.10978381289E+04  0.25500000920E-02 0.  1.
       -2   -1    0    0    0  501  0.00000000000E+00  0.00000000000E+00 -0.73938324857E+03  0.73938324857E+03  0.25500000920E-02 0. -1.
    10030    2    1    2    0    0  0.00000000000E+00  0.00000000000E+00  0.35845488028E+03  0.18372213774E+04  0.18019135630E+04 0.  0.
        4    1    3    3  502    0  0.47845394738E+03 -0.67125576061E+02  0.95458707554E+03  0.10698888355E+04  0.12699999809E+01 0.  1.
       -4    1    3    3    0  502 -0.47845394738E+03  0.67125576061E+02 -0.59613219526E+03  0.76733254189E+03  0.12699999809E+01 0. -1.
</event>
<event>
 5   0  0.4015729E-05  0.1794951E+04  0.7818609E-02  0.8708989E-01
       -2   -1    0    0    0  501  0.00000000000E+00  0.00000000000E+00  0.12886301807E+04  0.12886301807E+04  0.25500000920E-02 0. -1.
        2   -1    0    0  501    0  0.00000000000E+00  0.00000000000E+00 -0.62505314617E+03  0.62505314617E+03  0.25500000920E-02 0.  1.
    10030    2    1    2    0    0  0.00000000000E+00  0.00000000000E+00  0.66357703452E+03  0.19136833269E+04  0.17949510842E+04 0.  0.
        2    1    3    3  502    0  0.56931080542E+03 -0.12251126046E+03 -0.39627306091E+03  0.70438351834E+03  0.25500000920E-02 0.  1.
       -2    1    3    3    0  502 -0.56931080542E+03  0.12251126046E+03  0.10598500954E+04  0.12092998085E+04  0.25500000920E-02 0. -1.
</event>
<event>
 5   0  0.2054876E-05  0.1798791E+04  0.7818609E-02  0.8706942E-01
       -1   -1    0    0    0  501  0.00000000000E+00  0.00000000000E+00  0.47547521058E+03  0.47547521061E+03  0.50400001928E-02 0. -1.
        1   -1    0    0  501    0  0.00000000000E+00  0.00000000000E+00 -0.17012720836E+04  0.17012720836E+04  0.50400001928E-02 0.  1.
    10030    2    1    2    0    0  0.00000000000E+00  0.00000000000E+00 -0.12257968731E+04  0.21767472943E+04  0.17987914857E+04 0.  0.
        5    1    3    3  502    0 -0.18341729633E+03 -0.75705117740E+02 -0.16744385852E+04  0.16861612719E+04  0.46999998093E+01 0.  1.
       -5    1    3    3    0  502  0.18341729633E+03  0.75705117740E+02  0.44864171212E+03  0.49058602232E+03  0.46999998093E+01 0. -1.
</event>
<event>
 5   0  0.4015729E-05  0.1798127E+04  0.7818609E-02  0.8707296E-01
       -2   -1    0    0    0  501  0.00000000000E+00  0.00000000000E+00  0.15049978659E+04  0.15049978659E+04  0.25500000920E-02 0. -1.
        2   -1    0    0  501    0  0.00000000000E+00  0.00000000000E+00 -0.53708699898E+03  0.53708699899E+03  0.25500000920E-02 0.  1.
    10030    2    1    2    0    0  0.00000000000E+00  0.00000000000E+00  0.96791086688E+03  0.20420848649E+04  0.17981265665E+04 0.  0.
        2    1    3    3  502    0 -0.19549009582E+02  0.37886466972E+03  0.14096472842E+04  0.14598034345E+04  0.25500000920E-02 0. -1.
       -2    1    3    3    0  502  0.19549009582E+02 -0.37886466972E+03 -0.44173641728E+03  0.58228143032E+03  0.25500000920E-02 0.  1.
</event>
<event>
 5   0  0.2054876E-05  0.1799567E+04  0.7818609E-02  0.8706530E-01
        1   -1    0    0  501    0  0.00000000000E+00  0.00000000000E+00  0.13091607959E+04  0.13091607959E+04  0.50400001928E-02 0. -1.
       -1   -1    0    0    0  501  0.00000000000E+00  0.00000000000E+00 -0.61841907206E+03  0.61841907208E+03  0.50400001928E-02 0.  1.
    10030    2    1    2    0    0  0.00000000000E+00  0.00000000000E+00  0.69074172382E+03  0.19275798680E+04  0.17995666196E+04 0.  0.
        5    1    3    3  502    0 -0.27705488559E+03  0.18843571430E+03  0.12398303294E+04  0.12843164578E+04  0.46999998093E+01 0. -1.
       -5    1    3    3    0  502  0.27705488559E+03 -0.18843571430E+03 -0.54908860560E+03  0.64326341016E+03  0.46999998093E+01 0.  1.
</event>
<event>
 5   0  0.1906857E-05  0.1801276E+04  0.7818609E-02  0.8705621E-01
       -1   -1    0    0    0  501  0.00000000000E+00  0.00000000000E+00  0.85514395158E+03  0.85514395160E+03  0.50400001928E-02 0. -1.
        1   -1    0    0  501    0  0.00000000000E+00  0.00000000000E+00 -0.94855229250E+03  0.94855229252E+03  0.50400001928E-02 0.  1.
    10030    2    1    2    0    0  0.00000000000E+00  0.00000000000E+00 -0.93408340919E+02  0.18036962441E+04  0.18012759430E+04 0.  0.
        4    1    3    3  502    0 -0.65788116918E+03 -0.31668625454E+03  0.48130817348E+03  0.87450385209E+03  0.12699999809E+01 0. -1.
       -4    1    3    3    0  502  0.65788116918E+03  0.31668625454E+03 -0.57471651440E+03  0.92919239202E+03  0.12699999809E+01 0.  1.
</event>
<event>
 5   0  0.2001811E-05  0.1844935E+04  0.7818609E-02  0.8682762E-01
       -1   -1    0    0    0  501  0.00000000000E+00  0.00000000000E+00  0.78568003477E+03  0.78568003478E+03  0.50400001928E-02 0. -1.
        1   -1    0    0  501    0  0.00000000000E+00  0.00000000000E+00 -0.10830693114E+04  0.10830693114E+04  0.50400001928E-02 0.  1.
    10030    2    1    2    0    0  0.00000000000E+00  0.00000000000E+00 -0.29738927659E+03  0.18687493461E+04  0.18449346159E+04 0.  0.
        2    1    3    3  502    0 -0.80943681880E+03 -0.29999716150E+03 -0.47809959153E+03  0.98679556138E+03  0.25500000920E-02 0.  1.
       -2    1    3    3    0  502  0.80943681880E+03  0.29999716150E+03  0.18071031494E+03  0.88195378477E+03  0.25500000920E-02 0. -1.
</event>
<event>
 5   0  0.1906857E-05  0.1800314E+04  0.7818609E-02  0.8706133E-01
       -1   -1    0    0    0  501  0.00000000000E+00  0.00000000000E+00  0.55546676771E+03  0.55546676773E+03  0.50400001928E-02 0. -1.
        1   -1    0    0  501    0  0.00000000000E+00  0.00000000000E+00 -0.14587417575E+04  0.14587417575E+04  0.50400001928E-02 0.  1.
    10030    2    1    2    0    0  0.00000000000E+00  0.00000000000E+00 -0.90327498976E+03  0.20142085252E+04  0.18003139381E+04 0.  0.
        4    1    3    3  502    0  0.47111739988E+02 -0.89129766878E+03 -0.32092382416E+03  0.94848551082E+03  0.12699999809E+01 0. -1.
       -4    1    3    3    0  502 -0.47111739988E+02  0.89129766878E+03 -0.58235116560E+03  0.10657230144E+04  0.12699999809E+01 0.  1.
</event>
<event>
 5   0  0.3984648E-05  0.1834149E+04  0.7818609E-02  0.8688347E-01
        2   -1    0    0  501    0  0.00000000000E+00  0.00000000000E+00  0.89106115161E+03  0.89106115162E+03  0.25500000920E-02 0. -1.
       -2   -1    0    0    0  501  0.00000000000E+00  0.00000000000E+00 -0.94384703269E+03  0.94384703269E+03  0.25500000920E-02 0.  1.
    10030    2    1    2    0    0  0.00000000000E+00  0.00000000000E+00 -0.52785881074E+02  0.18349081843E+04  0.18341487659E+04 0.  0.
        1    1    3    3  502    0  0.88471421692E+03  0.23610870761E+03 -0.76999025534E+02  0.91890990711E+03  0.50400001928E-02 0.  1.
       -1    1    3    3    0  502 -0.88471421692E+03 -0.23610870761E+03  0.24213144460E+02  0.91599827719E+03  0.50400001928E-02 0. -1.
</event>
<event>
 5   0  0.3909859E-05  0.1807935E+04  0.7818609E-02  0.8702091E-01
        2   -1    0    0  501    0  0.00000000000E+00  0.00000000000E+00  0.95186911898E+03  0.95186911898E+03  0.25500000920E-02 0. -1.
       -2   -1    0    0    0  501  0.00000000000E+00  0.00000000000E+00 -0.85847650775E+03  0.85847650775E+03  0.25500000920E-02 0.  1.
    10030    2    1    2    0    0  0.00000000000E+00  0.00000000000E+00  0.93392611230E+02  0.18103456267E+04  0.18079350399E+04 0.  0.
        4    1    3    3  502    0  0.56811009783E+03 -0.56563678245E+03 -0.37154663063E+03  0.88359638102E+03  0.12699999809E+01 0.  1.
       -4    1    3    3    0  502 -0.56811009783E+03  0.56563678245E+03  0.46493924186E+03  0.92674924572E+03  0.12699999809E+01 0. -1.
</event>
<event>
 5   0  0.1960300E-05  0.1793009E+04  0.7818609E-02  0.8710026E-01
       -1   -1    0    0    0  501  0.00000000000E+00  0.00000000000E+00  0.81254122998E+03  0.81254122999E+03  0.50400001928E-02 0. -1.
        1   -1    0    0  501    0  0.00000000000E+00  0.00000000000E+00 -0.98914409439E+03  0.98914409440E+03  0.50400001928E-02 0.  1.
    10030    2    1    2    0    0  0.00000000000E+00  0.00000000000E+00 -0.17660286441E+03  0.18016853244E+04  0.17930090453E+04 0.  0.
        3    1    3    3  502    0  0.43963220253E+03  0.24374958615E+03  0.65760454673E+03  0.82772826721E+03  0.10100000352E+00 0. -1.
       -3    1    3    3    0  502 -0.43963220253E+03 -0.24374958615E+03 -0.83420741114E+03  0.97395705719E+03  0.10100000352E+00 0.  1.
</event>
<event>
 5   0  0.3983176E-05  0.1799813E+04  0.7818609E-02  0.8706399E-01
       -2   -1    0    0    0  501  0.00000000000E+00  0.00000000000E+00  0.75383348534E+03  0.75383348534E+03  0.25500000920E-02 0. -1.
        2   -1    0    0  501    0  0.00000000000E+00  0.00000000000E+00 -0.10742840379E+04  0.10742840379E+04  0.25500000920E-02 0.  1.
    10030    2    1    2    0    0  0.00000000000E+00  0.00000000000E+00 -0.32045055254E+03  0.18281175232E+04  0.17998125242E+04 0.  0.
        3    1    3    3  502    0  0.81185091418E+01 -0.36676688600E+03  0.67443223490E+03  0.76775172323E+03  0.10100000352E+00 0. -1.
       -3    1    3    3    0  502 -0.81185091418E+01  0.36676688600E+03 -0.99488278743E+03  0.10603658000E+04  0.10100000352E+00 0.  1.
</event>
<event>
 5   0  0.1960300E-05  0.1798255E+04  0.7818609E-02  0.8707228E-01
        1   -1    0    0  501    0  0.00000000000E+00  0.00000000000E+00  0.13974631722E+04  0.13974631722E+04  0.50400001928E-02 0. -1.
       -1   -1    0    0    0  501  0.00000000000E+00  0.00000000000E+00 -0.57849811711E+03  0.57849811714E+03  0.50400001928E-02 0.  1.
    10030    2    1    2    0    0  0.00000000000E+00  0.00000000000E+00  0.81896505512E+03  0.19759612894E+04  0.17982545025E+04 0.  0.
        3    1    3    3  502    0  0.71660217997E+01 -0.77752571288E+03  0.90557620323E+03  0.11935936730E+04  0.10100000352E+00 0. -1.
       -3    1    3    3    0  502 -0.71660217997E+01  0.77752571288E+03 -0.86611148107E+02  0.78236761643E+03  0.10100000352E+00 0.  1.
</event>
<event>
 5   0  0.2001811E-05  0.1780955E+04  0.7818609E-02  0.8716494E-01
        1   -1    0    0  501    0  0.00000000000E+00  0.00000000000E+00  0.10140089941E+04  0.10140089941E+04  0.50400001928E-02 0. -1.
       -1   -1    0    0    0  501  0.00000000000E+00  0.00000000000E+00 -0.78199489128E+03  0.78199489130E+03  0.50400001928E-02 0.  1.
    10030    2    1    2    0    0  0.00000000000E+00  0.00000000000E+00  0.23201410285E+03  0.17960038854E+04  0.17809546352E+04 0.  0.
        2    1    3    3  502    0 -0.88718015692E+03 -0.32085197365E+02  0.18610530539E+03  0.90705748187E+03  0.25500000920E-02 0. -1.
       -2    1    3    3    0  502  0.88718015692E+03  0.32085197365E+02  0.45908797462E+02  0.88894640357E+03  0.25500000920E-02 0.  1.
</event>
<event>
 5   0  0.4015729E-05  0.1799992E+04  0.7818609E-02  0.8706303E-01
        2   -1    0    0  501    0  0.00000000000E+00  0.00000000000E+00  0.90626541655E+03  0.90626541655E+03  0.25500000920E-02 0. -1.
       -2   -1    0    0    0  501  0.00000000000E+00  0.00000000000E+00 -0.89377040771E+03  0.89377040772E+03  0.25500000920E-02 0.  1.
    10030    2    1    2    0    0  0.00000000000E+00  0.00000000000E+00  0.12495008837E+02  0.18000358243E+04  0.17999924565E+04 0.  0.
        2    1    3    3  502    0 -0.57820356505E+03  0.71400925099E+02 -0.67975426805E+03  0.89525600790E+03  0.25500000920E-02 0.  1.
       -2    1    3    3    0  502  0.57820356505E+03 -0.71400925099E+02  0.69224927689E+03  0.90477981637E+03  0.25500000920E-02 0. -1.
</event>
<event>
 5   0  0.2054876E-05  0.1808725E+04  0.7818609E-02  0.8701673E-01
       -1   -1    0    0    0  501  0.00000000000E+00  0.00000000000E+00  0.85966401081E+03  0.85966401083E+03  0.50400001928E-02 0. -1.
        1   -1    0    0  501    0  0.00000000000E+00  0.00000000000E+00 -0.95138556056E+03  0.95138556057E+03  0.50400001928E-02 0.  1.
    10030    2    1    2    0    0  0.00000000000E+00  0.00000000000E+00 -0.91721549747E+02  0.18110495714E+04  0.18087254373E+04 0.  0.
        5    1    3    3  502    0  0.10632921443E+03  0.39186798459E+03 -0.85497300864E+03  0.94650269661E+03  0.46999998093E+01 0.  1.
       -5    1    3    3    0  502 -0.10632921443E+03 -0.39186798459E+03  0.76325145890E+03  0.86454687478E+03  0.46999998093E+01 0. -1.
</event>
<event>
 5   0  0.2038338E-05  0.1799775E+04  0.7818609E-02  0.8706419E-01
        1   -1    0    0  501    0  0.00000000000E+00  0.00000000000E+00  0.73865233698E+03  0.73865233700E+03  0.50400001928E-02 0. -1.
       -1   -1    0    0    0  501  0.00000000000E+00  0.00000000000E+00 -0.10963175328E+04  0.10963175328E+04  0.50400001928E-02 0.  1.
    10030    2    1    2    0    0  0.00000000000E+00  0.00000000000E+00 -0.35766519585E+03  0.18349698698E+04  0.17997749945E+04 0.  0.
        1    1    3    3  502    0  0.20425691500E+03 -0.31372243343E+03  0.65549428052E+03  0.75486118219E+03  0.50400001928E-02 0. -1.
       -1    1    3    3    0  502 -0.20425691500E+03  0.31372243343E+03 -0.10131594764E+04  0.10801086876E+04  0.50400001928E-02 0.  1.
</event>
<event>
 5   0  0.3909859E-05  0.1803180E+04  0.7818609E-02  0.8704610E-01
       -2   -1    0    0    0  501  0.00000000000E+00  0.00000000000E+00  0.53755231470E+03  0.53755231470E+03  0.25500000920E-02 0. -1.
        2   -1    0    0  501    0  0.00000000000E+00  0.00000000000E+00 -0.15121595484E+04  0.15121595484E+04  0.25500000920E-02 0.  1.
    10030    2    1    2    0    0  0.00000000000E+00  0.00000000000E+00 -0.97460723373E+03  0.20497118631E+04  0.18031803742E+04 0.  0.
        4    1    3    3  502    0 -0.71661628103E+03 -0.17388054564E+03 -0.10769645467E+04  0.13052308555E+04  0.12699999809E+01 0.  1.
       -4    1    3    3    0  502  0.71661628103E+03  0.17388054564E+03  0.10235731292E+03  0.74448100768E+03  0.12699999809E+01 0. -1.
</event>
<event>
 5   0  0.2038338E-05  0.1799209E+04  0.7818609E-02  0.8706720E-01
        1   -1    0    0  501    0  0.00000000000E+00  0.00000000000E+00  0.19620705340E+04  0.19620705340E+04  0.50400001928E-02 0. -1.
       -1   -1    0    0    0  501  0.00000000000E+00  0.00000000000E+00 -0.41246632586E+03  0.41246632589E+03  0.50400001928E-02 0.  1.
    10030    2    1    2    0    0  0.00000000000E+00  0.00000000000E+00  0.15496042081E+04  0.23745368599E+04  0.17992087419E+04 0.  0.
        1    1    3    3  502    0 -0.25108093724E+03  0.86378384193E+03  0.78949020811E+03  0.11968537719E+04  0.50400001928E-02 0.  1.
       -1    1    3    3    0  502  0.25108093724E+03 -0.86378384193E+03  0.76011400003E+03  0.11776830880E+04  0.50400001928E-02 0. -1.
</event>
<event>
 5   0  0.3909859E-05  0.1801746E+04  0.7818609E-02  0.8705372E-01
        2   -1    0    0  501    0  0.00000000000E+00  0.00000000000E+00  0.23651423896E+04  0.23651423896E+04  0.25500000920E-02 0. -1.
       -2   -1    0    0    0  501  0.00000000000E+00  0.00000000000E+00 -0.34313868553E+03  0.34313868554E+03  0.25500000920E-02 0.  1.
    10030    2    1    2    0    0  0.00000000000E+00  0.00000000000E+00  0.20220037041E+04  0.27082810751E+04  0.18017456543E+04 0.  0.
        4    1    3    3  502    0 -0.41941245979E+03  0.75739304332E+03  0.13853393616E+04  0.16336210678E+04  0.12699999809E+01 0. -1.
       -4    1    3    3    0  502  0.41941245979E+03 -0.75739304332E+03  0.63666434248E+03  0.10746600073E+04  0.12699999809E+01 0.  1.
</event>
<event>
 5   0  0.3993393E-05  0.1808187E+04  0.7818609E-02  0.8701958E-01
        2   -1    0    0  501    0  0.00000000000E+00  0.00000000000E+00  0.28647528099E+04  0.28647528100E+04  0.25500000920E-02 0.  1.
       -2   -1    0    0    0  501  0.00000000000E+00  0.00000000000E+00 -0.28532485172E+03  0.28532485174E+03  0.25500000920E-02 0. -1.
    10030    2    1    2    0    0  0.00000000000E+00  0.00000000000E+00  0.25794279582E+04  0.31500776617E+04  0.18081871261E+04 0.  0.
        5    1    3    3  502    0  0.30308355404E+03 -0.84773865139E+03  0.14338223027E+04  0.16930413307E+04  0.46999998093E+01 0.  1.
       -5    1    3    3    0  502 -0.30308355404E+03  0.84773865139E+03  0.11456056556E+04  0.14570363310E+04  0.46999998093E+01 0. -1.
</event>
<event>
 5   0  0.1906857E-05  0.1800343E+04  0.7818609E-02  0.8706117E-01
        1   -1    0    0  501    0  0.00000000000E+00  0.00000000000E+00  0.96531105977E+03  0.96531105979E+03  0.50400001928E-02 0.  1.
       -1   -1    0    0    0  501  0.00000000000E+00  0.00000000000E+00 -0.83942717833E+03  0.83942717834E+03  0.50400001928E-02 0. -1.
    10030    2    1    2    0    0  0.00000000000E+00  0.00000000000E+00  0.12588388144E+03  0.18047382381E+04  0.18003425664E+04 0.  0.
        4    1    3    3  502    0  0.10760060369E+03  0.27051918198E+03 -0.79092894804E+03  0.84281002099E+03  0.12699999809E+01 0. -1.
       -4    1    3    3    0  502 -0.10760060369E+03 -0.27051918198E+03  0.91681282948E+03  0.96192821714E+03  0.12699999809E+01 0.  1.
</event>
<event>
 5   0  0.3993393E-05  0.1812273E+04  0.7818609E-02  0.8699800E-01
       -2   -1    0    0    0  501  0.00000000000E+00  0.00000000000E+00  0.71302213156E+03  0.71302213156E+03  0.25500000920E-02 0.  1.
        2   -1    0    0  501    0  0.00000000000E+00  0.00000000000E+00 -0.11515532186E+04  0.11515532186E+04  0.25500000920E-02 0. -1.
    10030    2    1    2    0    0  0.00000000000E+00  0.00000000000E+00 -0.43853108707E+03  0.18645753502E+04  0.18122725298E+04 0.  0.
        5    1    3    3  502    0  0.52959385077E+03  0.50800155559E+03  0.32760602359E+03  0.80366847888E+03  0.46999998093E+01 0.  1.
       -5    1    3    3    0  502 -0.52959385077E+03 -0.50800155559E+03 -0.76613711066E+03  0.10609068713E+04  0.46999998093E+01 0. -1.
</event>
<event>
 5   0  0.2001811E-05  0.1793861E+04  0.7818609E-02  0.8709571E-01
       -1   -1    0    0    0  501  0.00000000000E+00  0.00000000000E+00  0.71280757182E+03  0.71280757184E+03  0.50400001928E-02 0. -1.
        1   -1    0    0  501    0  0.00000000000E+00  0.00000000000E+00 -0.11286130379E+04  0.11286130379E+04  0.50400001928E-02 0.  1.
    10030    2    1    2    0    0  0.00000000000E+00  0.00000000000E+00 -0.41580546607E+03  0.18414206097E+04  0.17938605510E+04 0.  0.
        2    1    3    3  502    0  0.39957967604E+03 -0.41884010657E+03 -0.91118976462E+03  0.10795173642E+04  0.25500000920E-02 0.  1.
       -2    1    3    3    0  502 -0.39957967604E+03  0.41884010657E+03  0.49538429855E+03  0.76190324558E+03  0.25500000920E-02 0. -1.
</event>
<event>
 5   0  0.4015729E-05  0.1806164E+04  0.7818609E-02  0.8703028E-01
        2   -1    0    0  501    0  0.00000000000E+00  0.00000000000E+00  0.13884965622E+04  0.13884965622E+04  0.25500000920E-02 0.  1.
       -2   -1    0    0    0  501  0.00000000000E+00  0.00000000000E+00 -0.58736714584E+03  0.58736714585E+03  0.25500000920E-02 0. -1.
    10030    2    1    2    0    0  0.00000000000E+00  0.00000000000E+00  0.80112941639E+03  0.19758637081E+04  0.18061641817E+04 0.  0.
        2    1    3    3  502    0  0.71449134560E+03  0.54605137294E+03  0.30977772947E+03  0.95112156243E+03  0.25500000920E-02 0. -1.
       -2    1    3    3    0  502 -0.71449134560E+03 -0.54605137294E+03  0.49135168692E+03  0.10247421456E+04  0.25500000920E-02 0.  1.
</event>
<event>
 5   0  0.2054876E-05  0.1789177E+04  0.7818609E-02  0.8712076E-01
        1   -1    0    0  501    0  0.00000000000E+00  0.00000000000E+00  0.15625837239E+04  0.15625837239E+04  0.50400001928E-02 0.  1.
       -1   -1    0    0    0  501  0.00000000000E+00  0.00000000000E+00 -0.51215738552E+03  0.51215738555E+03  0.50400001928E-02 0. -1.
    10030    2    1    2    0    0  0.00000000000E+00  0.00000000000E+00  0.10504263384E+04  0.20747411095E+04  0.17891772352E+04 0.  0.
        5    1    3    3  502    0  0.71874331621E+03 -0.33304539064E+03  0.10071903893E+04  0.12813921168E+04  0.46999998093E+01 0.  1.
       -5    1    3    3    0  502 -0.71874331621E+03  0.33304539064E+03  0.43235949113E+02  0.79334899264E+03  0.46999998093E+01 0. -1.
</event>
</LesHouchesEvents>
