<LesHouchesEvents version="3.0">
<header>
<!--
#*********************************************************************
#                                                                    *
#                        MadGraph5_aMC@NLO                           *
#                                                                    *
#                           Going Beyond                             *
#                                                                    *
#                   http://madgraph.hep.uiuc.edu                     *
#                   http://madgraph.phys.ucl.ac.be                   *
#                   http://amcatnlo.cern.ch                          *
#                                                                    *
#                     The MadGraph5_aMC@NLO team                     *
#                                                                    *
#....................................................................*
#                                                                    *
# This file contains all the information necessary to reproduce      *
# the events generated:                                              *
#                                                                    *
# 1. software version                                                *
# 2. proc_card          : code generation info including model       *
# 3. param_card         : model primary parameters in the LH format  *
# 4. run_card           : running parameters (collider and cuts)     *
# 5. pythia_card        : present only if pythia has been run        *
# 6. pgs_card           : present only if pgs has been run           *
# 7. delphes_cards      : present only if delphes has been run       *
#                                                                    *
#                                                                    *
#*********************************************************************
-->
<MGVersion>
#5.2.2.3
</MGVersion>
<MG5ProcCard>
#************************************************************
#*                     MadGraph5_aMC@NLO                    *
#*                                                          *
#*                *                       *                 *
#*                  *        * *        *                   *
#*                    * * * * 5 * * * *                     *
#*                  *        * *        *                   *
#*                *                       *                 *
#*                                                          *
#*                                                          *
#*         VERSION 2.2.3                 2015-02-10         *
#*                                                          *
#*    The MadGraph5_aMC@NLO Development Team - Find us at   *
#*    https://server06.fynu.ucl.ac.be/projects/madgraph     *
#*                                                          *
#************************************************************
#*                                                          *
#*               Command File for MadGraph5_aMC@NLO         *
#*                                                          *
#*     run as ./bin/mg5_aMC  filename                       *
#*                                                          *
#************************************************************
set group_subprocesses Auto
set ignore_six_quark_processes False
set loop_optimized_output True
set gauge unitary
set complex_mass_scheme False
import model sm
define p = g u c d s u~ c~ d~ s~
define j = g u c d s u~ c~ d~ s~
define l+ = e+ mu+
define l- = e- mu-
define vl = ve vm vt
define vl~ = ve~ vm~ vt~
import model Zprime_UFO
generate p p > zph, zph > j j
add process p p > zph, zph > b b~
output Dijet_signal
</MG5ProcCard>
<MGProcCard>
#*********************************************************************
#                        MadGraph/MadEvent                           *
#                   http://madgraph.hep.uiuc.edu                     *
#                                                                    *
#                          proc_card.dat                             *
#*********************************************************************
#                                                                    *
#            This Files is generated by MADGRAPH 5                   *
#                                                                    *
# WARNING: This Files is generated for MADEVENT (compatibility issue)*
#          This files is NOT a valid MG4 proc_card.dat               *
#          Running this in MG4 will NEVER reproduce the result of MG5*
#                                                                    *
#*********************************************************************
#*********************************************************************
# Process(es) requested : mg2 input                                  *
#*********************************************************************
# Begin PROCESS # This is TAG. Do not modify this line
p p > zph , zph > j j           #Process
# Be carefull the coupling are here in MG5 convention
          
end_coup           # End the couplings input

done               # this tells MG there are no more procs
# End PROCESS  # This is TAG. Do not modify this line
#*********************************************************************
# Model information                                                  *
#*********************************************************************
# Begin MODEL  # This is TAG. Do not modify this line
Zprime_UFO
# End   MODEL  # This is TAG. Do not modify this line
#*********************************************************************
# Start multiparticle definitions                                    *
#*********************************************************************
# Begin MULTIPARTICLES # This is TAG. Do not modify this line

# End  MULTIPARTICLES # This is TAG. Do not modify this line
</MGProcCard>
<MGRunCard>
#*********************************************************************
#                       MadGraph5_aMC@NLO                            *
#                                                                    *
#                     run_card.dat MadEvent                          *
#                                                                    *
#  This file is used to set the parameters of the run.               *
#                                                                    *
#  Some notation/conventions:                                        *
#                                                                    *
#   Lines starting with a '# ' are info or comments                  *
#                                                                    *
#   mind the format:   value    = variable     ! comment             *
#*********************************************************************
#
#*******************                                                 
# Running parameters
#*******************                                                 
#                                                                    
#*********************************************************************
# Tag name for the run (one word)                                    *
#*********************************************************************
  tag_1     = run_tag ! name of the run 
#*********************************************************************
# Run to generate the grid pack                                      *
#*********************************************************************
  .false.     = gridpack  !True = setting up the grid pack
#*********************************************************************
# Number of events and rnd seed                                      *
# Warning: Do not generate more than 1M events in a single run       *
# If you want to run Pythia, avoid more than 50k events in a run.    *
#*********************************************************************
  2000 = nevents ! Number of unweighted events requested 
 2928 = iseed   ! rnd seed (0=assigned automatically=default))
#*********************************************************************
# Collider type and energy                                           *
# lpp: 0=No PDF, 1=proton, -1=antiproton, 2=photon from proton,      *
#                                         3=photon from electron     *
#*********************************************************************
        1     = lpp1    ! beam 1 type 
        1     = lpp2    ! beam 2 type
     4000     = ebeam1  ! beam 1 total energy in GeV
     4000     = ebeam2  ! beam 2 total energy in GeV
#*********************************************************************
# Beam polarization from -100 (left-handed) to 100 (right-handed)    *
#*********************************************************************
        0     = polbeam1 ! beam polarization for beam 1
        0     = polbeam2 ! beam polarization for beam 2
#*********************************************************************
# PDF CHOICE: this automatically fixes also alpha_s and its evol.    *
#*********************************************************************
 'nn23lo1'    = pdlabel     ! PDF set                                     
 230000    = lhaid     ! if pdlabel=lhapdf, this is the lhapdf number
#*********************************************************************
# Renormalization and factorization scales                           *
#*********************************************************************
 F        = fixed_ren_scale  ! if .true. use fixed ren scale
 F        = fixed_fac_scale  ! if .true. use fixed fac scale
 91.1880  = scale            ! fixed ren scale
 91.1880  = dsqrt_q2fact1    ! fixed fact scale for pdf1
 91.1880  = dsqrt_q2fact2    ! fixed fact scale for pdf2
 1        = scalefact        ! scale factor for event-by-event scales
#*********************************************************************
# Matching - Warning! ickkw > 1 is still beta
#*********************************************************************
 0        = ickkw            ! 0 no matching, 1 MLM, 2 CKKW matching
 1        = highestmult      ! for ickkw=2, highest mult group
 1        = ktscheme         ! for ickkw=1, 1 Durham kT, 2 Pythia pTE
 1        = alpsfact         ! scale factor for QCD emission vx
 F        = chcluster        ! cluster only according to channel diag
 T        = pdfwgt           ! for ickkw=1, perform pdf reweighting
 5        = asrwgtflavor     ! highest quark flavor for a_s reweight
 T        = clusinfo         ! include clustering tag in output
 3.0      = lhe_version       ! Change the way clustering information pass to shower.        
#*********************************************************************
#**********************************************************
#
#**********************************************************
# Automatic ptj and mjj cuts if xqcut > 0
# (turn off for VBF and single top processes)
#**********************************************************
   T  = auto_ptj_mjj  ! Automatic setting of ptj and mjj
#**********************************************************
#                                                                    
#**********************************
# BW cutoff (M+/-bwcutoff*Gamma)
#**********************************
  15  = bwcutoff      ! (M+/-bwcutoff*Gamma)
#**********************************************************
# Apply pt/E/eta/dr/mij cuts on decay products or not
# (note that etmiss/ptll/ptheavy/ht/sorted cuts always apply)
#**********************************************************
   T  = cut_decays    ! Cut decay products 
#*************************************************************
# Number of helicities to sum per event (0 = all helicities)
# 0 gives more stable result, but longer run time (needed for
# long decay chains e.g.).
# Use >=2 if most helicities contribute, e.g. pure QCD.
#*************************************************************
   0  = nhel          ! Number of helicities used per event
#*******************                                                 
# Standard Cuts
#*******************                                                 
#                                                                    
#*********************************************************************
# Minimum and maximum pt's (for max, -1 means no cut)                *
#*********************************************************************
 20  = ptj       ! minimum pt for the jets 
  0  = ptb       ! minimum pt for the b 
 10  = pta       ! minimum pt for the photons 
 10  = ptl       ! minimum pt for the charged leptons 
  0  = misset    ! minimum missing Et (sum of neutrino's momenta)
  0  = ptheavy   ! minimum pt for one heavy final state
 1.0 = ptonium   ! minimum pt for the quarkonium states
 -1  = ptjmax    ! maximum pt for the jets
 -1  = ptbmax    ! maximum pt for the b
 -1  = ptamax    ! maximum pt for the photons
 -1  = ptlmax    ! maximum pt for the charged leptons
 -1  = missetmax ! maximum missing Et (sum of neutrino's momenta)
#*********************************************************************
# Minimum and maximum E's (in the center of mass frame)              *
#*********************************************************************
  0  = ej     ! minimum E for the jets 
  0  = eb     ! minimum E for the b 
  0  = ea     ! minimum E for the photons 
  0  = el     ! minimum E for the charged leptons 
 -1   = ejmax ! maximum E for the jets
 -1   = ebmax ! maximum E for the b
 -1   = eamax ! maximum E for the photons
 -1   = elmax ! maximum E for the charged leptons
#*********************************************************************
# Maximum and minimum absolute rapidity (for max, -1 means no cut)   *
#*********************************************************************
   5  = etaj    ! max rap for the jets 
  -1  = etab    ! max rap for the b
 2.5  = etaa    ! max rap for the photons 
 2.5  = etal    ! max rap for the charged leptons 
 0.6  = etaonium ! max rap for the quarkonium states
   0  = etajmin ! min rap for the jets
   0  = etabmin ! min rap for the b
   0  = etaamin ! min rap for the photons
   0  = etalmin ! main rap for the charged leptons
#*********************************************************************
# Minimum and maximum DeltaR distance                                *
#*********************************************************************
 0.4 = drjj    ! min distance between jets 
 0   = drbb    ! min distance between b's 
 0.4 = drll    ! min distance between leptons 
 0.4 = draa    ! min distance between gammas 
 0   = drbj    ! min distance between b and jet 
 0.4 = draj    ! min distance between gamma and jet 
 0.4 = drjl    ! min distance between jet and lepton 
 0   = drab    ! min distance between gamma and b 
 0   = drbl    ! min distance between b and lepton 
 0.4 = dral    ! min distance between gamma and lepton 
 -1  = drjjmax ! max distance between jets
 -1  = drbbmax ! max distance between b's
 -1  = drllmax ! max distance between leptons
 -1  = draamax ! max distance between gammas
 -1  = drbjmax ! max distance between b and jet
 -1  = drajmax ! max distance between gamma and jet
 -1  = drjlmax ! max distance between jet and lepton
 -1  = drabmax ! max distance between gamma and b
 -1  = drblmax ! max distance between b and lepton
 -1  = dralmax ! maxdistance between gamma and lepton
#*********************************************************************
# Minimum and maximum invariant mass for pairs                       *
# WARNING: for four lepton final state mmll cut require to have      *
#          different lepton masses for each flavor!                  *           
#*********************************************************************
 0   = mmjj    ! min invariant mass of a jet pair 
 0   = mmbb    ! min invariant mass of a b pair 
 0   = mmaa    ! min invariant mass of gamma gamma pair
 0   = mmll    ! min invariant mass of l+l- (same flavour) lepton pair
 -1  = mmjjmax ! max invariant mass of a jet pair
 -1  = mmbbmax ! max invariant mass of a b pair
 -1  = mmaamax ! max invariant mass of gamma gamma pair
 -1  = mmllmax ! max invariant mass of l+l- (same flavour) lepton pair
#*********************************************************************
# Minimum and maximum invariant mass for all letpons                 *
#*********************************************************************
 0   = mmnl    ! min invariant mass for all letpons (l+- and vl) 
 -1  = mmnlmax ! max invariant mass for all letpons (l+- and vl) 
#*********************************************************************
# Minimum and maximum pt for 4-momenta sum of leptons                *
#*********************************************************************
 0   = ptllmin  ! Minimum pt for 4-momenta sum of leptons(l and vl)
 -1  = ptllmax  ! Maximum pt for 4-momenta sum of leptons(l and vl)
#*********************************************************************
# Inclusive cuts                                                     *
#*********************************************************************
 0  = xptj ! minimum pt for at least one jet  
 0  = xptb ! minimum pt for at least one b 
 0  = xpta ! minimum pt for at least one photon 
 0  = xptl ! minimum pt for at least one charged lepton 
#*********************************************************************
# Control the pt's of the jets sorted by pt                          *
#*********************************************************************
 0   = ptj1min ! minimum pt for the leading jet in pt
 0   = ptj2min ! minimum pt for the second jet in pt
 0   = ptj3min ! minimum pt for the third jet in pt
 0   = ptj4min ! minimum pt for the fourth jet in pt
 -1  = ptj1max ! maximum pt for the leading jet in pt 
 -1  = ptj2max ! maximum pt for the second jet in pt
 -1  = ptj3max ! maximum pt for the third jet in pt
 -1  = ptj4max ! maximum pt for the fourth jet in pt
 0   = cutuse  ! reject event if fails any (0) / all (1) jet pt cuts
#*********************************************************************
# Control the pt's of leptons sorted by pt                           *
#*********************************************************************
 0   = ptl1min ! minimum pt for the leading lepton in pt
 0   = ptl2min ! minimum pt for the second lepton in pt
 0   = ptl3min ! minimum pt for the third lepton in pt
 0   = ptl4min ! minimum pt for the fourth lepton in pt
 -1  = ptl1max ! maximum pt for the leading lepton in pt 
 -1  = ptl2max ! maximum pt for the second lepton in pt
 -1  = ptl3max ! maximum pt for the third lepton in pt
 -1  = ptl4max ! maximum pt for the fourth lepton in pt
#*********************************************************************
# Control the Ht(k)=Sum of k leading jets                            *
#*********************************************************************
 0   = htjmin ! minimum jet HT=Sum(jet pt)
 -1  = htjmax ! maximum jet HT=Sum(jet pt)
 0   = ihtmin  !inclusive Ht for all partons (including b)
 -1  = ihtmax  !inclusive Ht for all partons (including b)
 0   = ht2min ! minimum Ht for the two leading jets
 0   = ht3min ! minimum Ht for the three leading jets
 0   = ht4min ! minimum Ht for the four leading jets
 -1  = ht2max ! maximum Ht for the two leading jets
 -1  = ht3max ! maximum Ht for the three leading jets
 -1  = ht4max ! maximum Ht for the four leading jets
#***********************************************************************
# Photon-isolation cuts, according to hep-ph/9801442                   *
# When ptgmin=0, all the other parameters are ignored                  *
# When ptgmin>0, pta and draj are not going to be used                 *
#***********************************************************************
   0 = ptgmin ! Min photon transverse momentum
 0.4 = R0gamma ! Radius of isolation code
 1.0 = xn ! n parameter of eq.(3.4) in hep-ph/9801442
 1.0 = epsgamma ! epsilon_gamma parameter of eq.(3.4) in hep-ph/9801442
 .true. = isoEM ! isolate photons from EM energy (photons and leptons)
#*********************************************************************
# WBF cuts                                                           *
#*********************************************************************
 0   = xetamin ! minimum rapidity for two jets in the WBF case  
 0   = deltaeta ! minimum rapidity for two jets in the WBF case 
#*********************************************************************
# KT DURHAM CUT                                                      *
#*********************************************************************
 -1    =  ktdurham        
 0.4  =  dparameter 
#*********************************************************************
# maximal pdg code for quark to be considered as a light jet         *
# (otherwise b cuts are applied)                                     *
#*********************************************************************
 4 = maxjetflavor    ! Maximum jet pdg code
#*********************************************************************
# Jet measure cuts                                                   *
#*********************************************************************
 0   = xqcut   ! minimum kt jet measure between partons
#*********************************************************************
#
#*********************************************************************
# Store info for systematics studies                                 *
# WARNING: If use_syst is T, matched Pythia output is                *
#          meaningful ONLY if plotted taking matchscale              *
#          reweighting into account!                                 *
#*********************************************************************
   F  = use_syst      ! Enable systematics studies
#
#**************************************
# Parameter of the systematics study
#  will be used by SysCalc (if installed)
#**************************************                                  
#
0.5 1 2 = sys_scalefact  # factorization/renormalization scale factor
0.5 1 2 = sys_alpsfact  # \alpha_s emission scale factors
30 50 = sys_matchscale # variation of merging scale
# PDF sets and number of members (0 or none for all members).
CT10nlo.LHgrid = sys_pdf # matching scales
# MSTW2008nlo68cl.LHgrid 1  = sys_pdf
</MGRunCard>
<slha>
######################################################################
## PARAM_CARD AUTOMATICALY GENERATED BY MG5 FOLLOWING UFO MODEL   ####
######################################################################
##                                                                  ##
##  Width set on Auto will be computed following the information    ##
##        present in the decay.py files of the model.               ##
##        See  arXiv:1402.1178 for more details.                    ##
##                                                                  ##
######################################################################

###################################
## INFORMATION FOR CKMBLOCK
###################################
Block ckmblock 
    1 2.277360e-01 # cabi 

###################################
## INFORMATION FOR FRBLOCK
###################################
Block frblock 
    1 1.600000e+00 # gz 

###################################
## INFORMATION FOR MASS
###################################
Block mass 
    1 5.040000e-03 # MD 
    2 2.550000e-03 # MU 
    3 1.010000e-01 # MS 
    4 1.270000e+00 # MC 
    5 4.700000e+00 # MB 
    6 1.720000e+02 # MT 
   11 5.110000e-04 # Me 
   13 1.056600e-01 # MM 
   15 1.777000e+00 # MTA 
   23 9.118760e+01 # MZ 
   25 1.200000e+02 # MH 
  10030 2.300000e+03 # MZph 
  10031 3.000000e+02 # MZpl 
## Dependent parameters, given by model restrictions.
## Those values should be edited following the 
## analytical expression. MG5 ignores those values 
## but they are important for interfacing the output of MG5
## to external program such as Pythia.
  12 0.000000 # ve : 0.0 
  14 0.000000 # vm : 0.0 
  16 0.000000 # vt : 0.0 
  21 0.000000 # g : 0.0 
  22 0.000000 # a : 0.0 
  24 79.824360 # w+ : cmath.sqrt(MZ__exp__2/2. + cmath.sqrt(MZ__exp__4/4. - (aEW*cmath.pi*MZ__exp__2)/(Gf*sqrt__2))) 

###################################
## INFORMATION FOR SMINPUTS
###################################
Block sminputs 
    1 1.279000e+02 # aEWM1 
    2 1.166370e-05 # Gf 
    3 1.184000e-01 # aS 

###################################
## INFORMATION FOR YUKAWA
###################################
Block yukawa 
    1 5.040000e-03 # ymdo 
    2 2.550000e-03 # ymup 
    3 1.010000e-01 # yms 
    4 1.270000e+00 # ymc 
    5 4.700000e+00 # ymb 
    6 1.720000e+02 # ymt 
   11 5.110000e-04 # yme 
   13 1.056600e-01 # ymm 
   15 1.777000e+00 # ymtau 

###################################
## INFORMATION FOR DECAY
###################################
DECAY   6 1.508336e+00 # WT 
DECAY  23 2.495200e+00 # WZ 
DECAY  24 2.085000e+00 # WW 
DECAY  25 5.753088e-03 # WH 
## Dependent parameters, given by model restrictions.
## Those values should be edited following the 
## analytical expression. MG5 ignores those values 
## but they are important for interfacing the output of MG5
## to external program such as Pythia.
DECAY  1 0.000000 # d : 0.0 
DECAY  2 0.000000 # u : 0.0 
DECAY  3 0.000000 # s : 0.0 
DECAY  4 0.000000 # c : 0.0 
DECAY  5 0.000000 # b : 0.0 
DECAY  11 0.000000 # e- : 0.0 
DECAY  12 0.000000 # ve : 0.0 
DECAY  13 0.000000 # mu- : 0.0 
DECAY  14 0.000000 # vm : 0.0 
DECAY  15 0.000000 # ta- : 0.0 
DECAY  16 0.000000 # vt : 0.0 
DECAY  21 0.000000 # g : 0.0 
DECAY  22 0.000000 # a : 0.0 
DECAY  10030 0.308725 # zph : (gz__exp__2*MZph*(5 + cmath.sqrt(1 - (4*MT__exp__2)/MZph__exp__2)))/(144.*cmath.pi) 
DECAY  10031 0.132629 # zpl : (5*gz__exp__2*MZpl)/(144.*cmath.pi) 
#===========================================================
# QUANTUM NUMBERS OF NEW STATE(S) (NON SM PDG CODE)
#===========================================================

Block QNUMBERS 10030  # zph 
        1 0  # 3 times electric charge
        2 3  # number of spin states (2S+1)
        3 1  # colour rep (1: singlet, 3: triplet, 8: octet)
        4 0  # Particle/Antiparticle distinction (0=own anti)
Block QNUMBERS 10031  # zpl 
        1 0  # 3 times electric charge
        2 3  # number of spin states (2S+1)
        3 1  # colour rep (1: singlet, 3: triplet, 8: octet)
        4 0  # Particle/Antiparticle distinction (0=own anti)
</slha>
## END BANNER##
<MGGenerationInfo>
#  Number of Events        :         3983
#  Integrated weight (pb)  :  0.35916E-01
#  Max wgt                 :  0.12814E-04
#  Average wgt             :  0.90173E-05
</MGGenerationInfo>
</header>
<init>
     2212     2212  0.40000000000E+04  0.40000000000E+04 0 0  247000  247000 2   1
  0.35932092500E-01  0.92151270748E-04  0.12814320000E-04   0
</init>
<event>
 5   0  0.1237296E-04  0.2314698E+04  0.7818609E-02  0.8472149E-01
        2   -1    0    0  501    0  0.00000000000E+00  0.00000000000E+00  0.21952999040E+04  0.21952999040E+04  0.25500000920E-02 0.  1.
       -2   -1    0    0    0  501  0.00000000000E+00  0.00000000000E+00 -0.61014724086E+03  0.61014724087E+03  0.25500000920E-02 0. -1.
    10030    2    1    2    0    0  0.00000000000E+00  0.00000000000E+00  0.15851526631E+04  0.28054471449E+04  0.23146975434E+04 0.  0.
        1    1    3    3  502    0  0.37564416877E+02 -0.55313854430E+02 -0.60780434639E+03  0.61147103890E+03  0.50400001928E-02 0. -1.
       -1    1    3    3    0  502 -0.37564416877E+02  0.55313854430E+02  0.21929570095E+04  0.21939761060E+04  0.50400001928E-02 0.  1.
</event>
<event>
 5   0  0.1237296E-04  0.2004452E+04  0.7818609E-02  0.8604542E-01
        2   -1    0    0  501    0  0.00000000000E+00  0.00000000000E+00  0.11529762834E+04  0.11529762834E+04  0.25500000920E-02 0. -1.
       -2   -1    0    0    0  501  0.00000000000E+00  0.00000000000E+00 -0.87118634844E+03  0.87118634844E+03  0.25500000920E-02 0.  1.
    10030    2    1    2    0    0  0.00000000000E+00  0.00000000000E+00  0.28178993500E+03  0.20241626319E+04  0.20044522426E+04 0.  0.
        1    1    3    3  502    0 -0.68920521774E+03 -0.41325542215E+03 -0.46388754845E+03  0.92788767302E+03  0.50400001928E-02 0.  1.
       -1    1    3    3    0  502  0.68920521774E+03  0.41325542215E+03  0.74567748345E+03  0.10962749589E+04  0.50400001928E-02 0. -1.
</event>
<event>
 5   0  0.1257524E-04  0.2330147E+04  0.7818609E-02  0.8466128E-01
       -2   -1    0    0    0  501  0.00000000000E+00  0.00000000000E+00  0.63090638115E+03  0.63090638115E+03  0.25500000920E-02 0.  1.
        2   -1    0    0  501    0  0.00000000000E+00  0.00000000000E+00 -0.21515026554E+04  0.21515026554E+04  0.25500000920E-02 0. -1.
    10030    2    1    2    0    0  0.00000000000E+00  0.00000000000E+00 -0.15205962743E+04  0.27824090366E+04  0.23301474240E+04 0.  0.
        3    1    3    3  502    0 -0.69980722545E+03  0.65208248966E+03 -0.15545754150E+04  0.18252798299E+04  0.10100000352E+00 0. -1.
       -3    1    3    3    0  502  0.69980722545E+03 -0.65208248966E+03  0.33979140751E+02  0.95712920671E+03  0.10100000352E+00 0.  1.
</event>
<event>
 5   0  0.1237296E-04  0.2304002E+04  0.7818609E-02  0.8476345E-01
        2   -1    0    0  501    0  0.00000000000E+00  0.00000000000E+00  0.21881702297E+04  0.21881702297E+04  0.25500000920E-02 0. -1.
       -2   -1    0    0    0  501  0.00000000000E+00  0.00000000000E+00 -0.60649141309E+03  0.60649141310E+03  0.25500000920E-02 0.  1.
    10030    2    1    2    0    0  0.00000000000E+00  0.00000000000E+00  0.15816788166E+04  0.27946616428E+04  0.23040021308E+04 0.  0.
        1    1    3    3  502    0  0.57704102472E+03 -0.30989430512E+03  0.19403358982E+04  0.20479048372E+04  0.50400001928E-02 0. -1.
       -1    1    3    3    0  502 -0.57704102472E+03  0.30989430512E+03 -0.35865708154E+03  0.74675680560E+03  0.50400001928E-02 0.  1.
</event>
<event>
 5   0  0.1257524E-04  0.1599302E+04  0.7818609E-02  0.8820977E-01
       -2   -1    0    0    0  501  0.00000000000E+00  0.00000000000E+00  0.63045772149E+03  0.63045772150E+03  0.25500000920E-02 0. -1.
        2   -1    0    0  501    0  0.00000000000E+00  0.00000000000E+00 -0.10142497399E+04  0.10142497399E+04  0.25500000920E-02 0.  1.
    10030    2    1    2    0    0  0.00000000000E+00  0.00000000000E+00 -0.38379201843E+03  0.16447074614E+04  0.15993018227E+04 0.  0.
        3    1    3    3  502    0 -0.15736935762E+02  0.38091676161E+03 -0.91477241291E+03  0.99103673395E+03  0.10100000352E+00 0.  1.
       -3    1    3    3    0  502  0.15736935762E+02 -0.38091676161E+03  0.53098039448E+03  0.65367072747E+03  0.10100000352E+00 0. -1.
</event>
<event>
 5   0  0.5642466E-05  0.2248010E+04  0.7818609E-02  0.8498707E-01
        1   -1    0    0  501    0  0.00000000000E+00  0.00000000000E+00  0.14772561544E+04  0.14772561544E+04  0.50400001928E-02 0.  1.
       -1   -1    0    0    0  501  0.00000000000E+00  0.00000000000E+00 -0.85522557249E+03  0.85522557251E+03  0.50400001928E-02 0. -1.
    10030    2    1    2    0    0  0.00000000000E+00  0.00000000000E+00  0.62203058190E+03  0.23324817269E+04  0.22480100003E+04 0.  0.
        1    1    3    3  502    0  0.40649609836E+03  0.73447744910E+03 -0.46452767657E+03  0.95941761686E+03  0.50400001928E-02 0. -1.
       -1    1    3    3    0  502 -0.40649609836E+03 -0.73447744910E+03  0.10865582585E+04  0.13730641100E+04  0.50400001928E-02 0.  1.
</event>
<event>
 5   0  0.5663790E-05  0.2076467E+04  0.7818609E-02  0.8571681E-01
        1   -1    0    0  501    0  0.00000000000E+00  0.00000000000E+00  0.10719934247E+04  0.10719934247E+04  0.50400001928E-02 0.  1.
       -1   -1    0    0    0  501  0.00000000000E+00  0.00000000000E+00 -0.10055367407E+04  0.10055367408E+04  0.50400001928E-02 0. -1.
    10030    2    1    2    0    0  0.00000000000E+00  0.00000000000E+00  0.66456683984E+02  0.20775301655E+04  0.20764669749E+04 0.  0.
        3    1    3    3  502    0  0.81612012477E+03 -0.61034377454E+02  0.67242281993E+03  0.10592118354E+04  0.10100000352E+00 0.  1.
       -3    1    3    3    0  502 -0.81612012477E+03  0.61034377454E+02 -0.60596613595E+03  0.10183183301E+04  0.10100000352E+00 0. -1.
</event>
<event>
 5   0  0.1237296E-04  0.2318260E+04  0.7818609E-02  0.8470756E-01
       -2   -1    0    0    0  501  0.00000000000E+00  0.00000000000E+00  0.92108717741E+03  0.92108717742E+03  0.25500000920E-02 0. -1.
        2   -1    0    0  501    0  0.00000000000E+00  0.00000000000E+00 -0.14586917515E+04  0.14586917515E+04  0.25500000920E-02 0.  1.
    10030    2    1    2    0    0  0.00000000000E+00  0.00000000000E+00 -0.53760457411E+03  0.23797789289E+04  0.23182599234E+04 0.  0.
        1    1    3    3  502    0  0.93528365950E+02  0.34595555369E+02 -0.14542801415E+04  0.14576951456E+04  0.50400001928E-02 0.  1.
       -1    1    3    3    0  502 -0.93528365950E+02 -0.34595555369E+02  0.91667556734E+03  0.92208378333E+03  0.50400001928E-02 0. -1.
</event>
<event>
 5   0  0.5843670E-05  0.2320720E+04  0.7818609E-02  0.8469796E-01
       -1   -1    0    0    0  501  0.00000000000E+00  0.00000000000E+00  0.14134938488E+04  0.14134938489E+04  0.50400001928E-02 0.  1.
        1   -1    0    0  501    0  0.00000000000E+00  0.00000000000E+00 -0.95255840755E+03  0.95255840756E+03  0.50400001928E-02 0. -1.
    10030    2    1    2    0    0  0.00000000000E+00  0.00000000000E+00  0.46093544130E+03  0.23660522564E+04  0.23207201036E+04 0.  0.
        2    1    3    3  502    0 -0.53491664208E+03 -0.33151602801E+03 -0.76345825572E+03  0.98939739187E+03  0.25500000920E-02 0. -1.
       -2    1    3    3    0  502  0.53491664208E+03  0.33151602801E+03  0.12243936970E+04  0.13766548646E+04  0.25500000920E-02 0.  1.
</event>
<event>
 5   0  0.1237296E-04  0.2229398E+04  0.7818609E-02  0.8506291E-01
       -2   -1    0    0    0  501  0.00000000000E+00  0.00000000000E+00  0.10920220817E+04  0.10920220818E+04  0.25500000920E-02 0. -1.
        2   -1    0    0  501    0  0.00000000000E+00  0.00000000000E+00 -0.11378466615E+04  0.11378466615E+04  0.25500000920E-02 0.  1.
    10030    2    1    2    0    0  0.00000000000E+00  0.00000000000E+00 -0.45824579791E+02  0.22298687433E+04  0.22293978380E+04 0.  0.
        1    1    3    3  502    0 -0.32987218183E+03 -0.43029193138E+03 -0.99707226183E+03  0.11349536986E+04  0.50400001928E-02 0.  1.
       -1    1    3    3    0  502  0.32987218183E+03  0.43029193138E+03  0.95124768204E+03  0.10949150447E+04  0.50400001928E-02 0. -1.
</event>
<event>
 5   0  0.1234988E-04  0.2404485E+04  0.7818609E-02  0.8437826E-01
        2   -1    0    0  501    0  0.00000000000E+00  0.00000000000E+00  0.17830196177E+04  0.17830196177E+04  0.25500000920E-02 0.  1.
       -2   -1    0    0    0  501  0.00000000000E+00  0.00000000000E+00 -0.81063982732E+03  0.81063982732E+03  0.25500000920E-02 0. -1.
    10030    2    1    2    0    0  0.00000000000E+00  0.00000000000E+00  0.97237979040E+03  0.25936594450E+04  0.24044847390E+04 0.  0.
        5    1    3    3  502    0 -0.44285666012E+03 -0.55538400885E+03  0.15324449062E+04  0.16890775291E+04  0.46999998093E+01 0.  1.
       -5    1    3    3    0  502  0.44285666012E+03  0.55538400885E+03 -0.56006511582E+03  0.90458191594E+03  0.46999998093E+01 0. -1.
</event>
<event>
 5   0  0.1234988E-04  0.2364882E+04  0.7818609E-02  0.8452769E-01
       -2   -1    0    0    0  501  0.00000000000E+00  0.00000000000E+00  0.10007627423E+04  0.10007627423E+04  0.25500000920E-02 0.  1.
        2   -1    0    0  501    0  0.00000000000E+00  0.00000000000E+00 -0.13971011877E+04  0.13971011877E+04  0.25500000920E-02 0. -1.
    10030    2    1    2    0    0  0.00000000000E+00  0.00000000000E+00 -0.39633844536E+03  0.23978639300E+04  0.23648820824E+04 0.  0.
        5    1    3    3  502    0 -0.10655120908E+03 -0.10134050485E+04  0.41003116667E+03  0.10984036599E+04  0.46999998093E+01 0.  1.
       -5    1    3    3    0  502  0.10655120908E+03  0.10134050485E+04 -0.80636961202E+03  0.12994602701E+04  0.46999998093E+01 0. -1.
</event>
<event>
 5   0  0.5924654E-05  0.2313225E+04  0.7818609E-02  0.8472725E-01
        1   -1    0    0  501    0  0.00000000000E+00  0.00000000000E+00  0.73220272575E+03  0.73220272577E+03  0.50400001928E-02 0.  1.
       -1   -1    0    0    0  501  0.00000000000E+00  0.00000000000E+00 -0.18270250084E+04  0.18270250084E+04  0.50400001928E-02 0. -1.
    10030    2    1    2    0    0  0.00000000000E+00  0.00000000000E+00 -0.10948222827E+04  0.25592277342E+04  0.23132251868E+04 0.  0.
        5    1    3    3  502    0 -0.89526514261E+02  0.91101865984E+03  0.23470640823E+03  0.94502866803E+03  0.46999998093E+01 0. -1.
       -5    1    3    3    0  502  0.89526514261E+02 -0.91101865984E+03 -0.13295286909E+04  0.16141990662E+04  0.46999998093E+01 0.  1.
</event>
<event>
 5   0  0.4489500E-05  0.2174506E+04  0.7818609E-02  0.8529115E-01
        3   -1    0    0  501    0  0.00000000000E+00  0.00000000000E+00  0.10368213323E+04  0.10368213372E+04  0.10100000352E+00 0. -1.
       -3   -1    0    0    0  501  0.00000000000E+00  0.00000000000E+00 -0.11401375574E+04  0.11401375619E+04  0.10100000352E+00 0.  1.
    10030    2    1    2    0    0  0.00000000000E+00  0.00000000000E+00 -0.10331622506E+03  0.21769588991E+04  0.21745058763E+04 0.  0.
        5    1    3    3  502    0  0.13900165871E+03  0.80057616031E+03  0.67155089138E+03  0.10541566958E+04  0.46999998093E+01 0.  1.
       -5    1    3    3    0  502 -0.13900165871E+03 -0.80057616031E+03 -0.77486711644E+03  0.11228022033E+04  0.46999998093E+01 0. -1.
</event>
<event>
 5   0  0.5642466E-05  0.2013719E+04  0.7818609E-02  0.8600234E-01
        1   -1    0    0  501    0  0.00000000000E+00  0.00000000000E+00  0.12721398204E+04  0.12721398204E+04  0.50400001928E-02 0. -1.
       -1   -1    0    0    0  501  0.00000000000E+00  0.00000000000E+00 -0.79689798315E+03  0.79689798317E+03  0.50400001928E-02 0.  1.
    10030    2    1    2    0    0  0.00000000000E+00  0.00000000000E+00  0.47524183726E+03  0.20690378036E+04  0.20137186072E+04 0.  0.
        1    1    3    3  502    0 -0.43156531742E+03  0.90442318087E+03  0.13728719461E+03  0.10114730284E+04  0.50400001928E-02 0. -1.
       -1    1    3    3    0  502  0.43156531742E+03 -0.90442318087E+03  0.33795464265E+03  0.10575647752E+04  0.50400001928E-02 0.  1.
</event>
<event>
 5   0  0.5663790E-05  0.2032272E+04  0.7818609E-02  0.8591679E-01
        1   -1    0    0  501    0  0.00000000000E+00  0.00000000000E+00  0.14979146761E+04  0.14979146761E+04  0.50400001928E-02 0.  1.
       -1   -1    0    0    0  501  0.00000000000E+00  0.00000000000E+00 -0.68931352521E+03  0.68931352523E+03  0.50400001928E-02 0. -1.
    10030    2    1    2    0    0  0.00000000000E+00  0.00000000000E+00  0.80860115084E+03  0.21872282013E+04  0.20322724678E+04 0.  0.
        3    1    3    3  502    0 -0.28495160518E+03  0.93291178209E+03  0.97974316231E+02  0.98036767964E+03  0.10100000352E+00 0. -1.
       -3    1    3    3    0  502  0.28495160518E+03 -0.93291178209E+03  0.71062683461E+03  0.12068605216E+04  0.10100000352E+00 0.  1.
</event>
<event>
 5   0  0.5663790E-05  0.2101141E+04  0.7818609E-02  0.8560741E-01
       -1   -1    0    0    0  501  0.00000000000E+00  0.00000000000E+00  0.90515421796E+03  0.90515421797E+03  0.50400001928E-02 0. -1.
        1   -1    0    0  501    0  0.00000000000E+00  0.00000000000E+00 -0.12193484362E+04  0.12193484362E+04  0.50400001928E-02 0.  1.
    10030    2    1    2    0    0  0.00000000000E+00  0.00000000000E+00 -0.31419421825E+03  0.21245026542E+04  0.21011410045E+04 0.  0.
        3    1    3    3  502    0  0.25091966505E+03  0.93589550215E+03  0.25341864351E+03  0.10015398586E+04  0.10100000352E+00 0. -1.
       -3    1    3    3    0  502 -0.25091966505E+03 -0.93589550215E+03 -0.56761286176E+03  0.11229627956E+04  0.10100000352E+00 0.  1.
</event>
<event>
 5   0  0.1237296E-04  0.2271960E+04  0.7818609E-02  0.8489060E-01
        2   -1    0    0  501    0  0.00000000000E+00  0.00000000000E+00  0.61908535150E+03  0.61908535151E+03  0.25500000920E-02 0. -1.
       -2   -1    0    0    0  501  0.00000000000E+00  0.00000000000E+00 -0.20844466009E+04  0.20844466009E+04  0.25500000920E-02 0.  1.
    10030    2    1    2    0    0  0.00000000000E+00  0.00000000000E+00 -0.14653612494E+04  0.27035319525E+04  0.22719598206E+04 0.  0.
        1    1    3    3  502    0  0.97328847704E+03  0.27859734671E+03 -0.13458756581E+04  0.16841283289E+04  0.50400001928E-02 0.  1.
       -1    1    3    3    0  502 -0.97328847704E+03 -0.27859734671E+03 -0.11948559133E+03  0.10194036235E+04  0.50400001928E-02 0. -1.
</event>
<event>
 5   0  0.5632156E-05  0.2356808E+04  0.7818609E-02  0.8455853E-01
        1   -1    0    0  501    0  0.00000000000E+00  0.00000000000E+00  0.99778204442E+03  0.99778204443E+03  0.50400001928E-02 0.  1.
       -1   -1    0    0    0  501  0.00000000000E+00  0.00000000000E+00 -0.13917228115E+04  0.13917228115E+04  0.50400001928E-02 0. -1.
    10030    2    1    2    0    0  0.00000000000E+00  0.00000000000E+00 -0.39394076712E+03  0.23895048560E+04  0.23568080382E+04 0.  0.
        4    1    3    3  502    0  0.53960550548E+03  0.10194179077E+03  0.86011994708E+03  0.10204774209E+04  0.12699999809E+01 0.  1.
       -4    1    3    3    0  502 -0.53960550548E+03 -0.10194179077E+03 -0.12540607142E+04  0.13690274351E+04  0.12699999809E+01 0. -1.
</event>
<event>
 5   0  0.5642466E-05  0.2063161E+04  0.7818609E-02  0.8577647E-01
       -1   -1    0    0    0  501  0.00000000000E+00  0.00000000000E+00  0.10120156253E+04  0.10120156253E+04  0.50400001928E-02 0. -1.
        1   -1    0    0  501    0  0.00000000000E+00  0.00000000000E+00 -0.10515241174E+04  0.10515241174E+04  0.50400001928E-02 0.  1.
    10030    2    1    2    0    0  0.00000000000E+00  0.00000000000E+00 -0.39508492089E+02  0.20635397427E+04  0.20631614936E+04 0.  0.
        1    1    3    3  502    0 -0.84176111582E+03 -0.56111614650E+03 -0.22164697198E+03  0.10356353056E+04  0.50400001928E-02 0.  1.
       -1    1    3    3    0  502  0.84176111582E+03  0.56111614650E+03  0.18213847989E+03  0.10279044371E+04  0.50400001928E-02 0. -1.
</event>
<event>
 5   0  0.1270613E-04  0.2345368E+04  0.7818609E-02  0.8460245E-01
        2   -1    0    0  501    0  0.00000000000E+00  0.00000000000E+00  0.11390763055E+04  0.11390763055E+04  0.25500000920E-02 0. -1.
       -2   -1    0    0    0  501  0.00000000000E+00  0.00000000000E+00 -0.12072835652E+04  0.12072835652E+04  0.25500000920E-02 0.  1.
    10030    2    1    2    0    0  0.00000000000E+00  0.00000000000E+00 -0.68207259720E+02  0.23463598707E+04  0.23453682894E+04 0.  0.
        2    1    3    3  502    0 -0.10687966084E+04 -0.37799555224E+03 -0.33419924235E+03  0.11819035330E+04  0.25500000920E-02 0.  1.
       -2    1    3    3    0  502  0.10687966084E+04  0.37799555224E+03  0.26599198263E+03  0.11644563377E+04  0.25500000920E-02 0. -1.
</event>
<event>
 5   0  0.5663790E-05  0.2281057E+04  0.7818609E-02  0.8485428E-01
        1   -1    0    0  501    0  0.00000000000E+00  0.00000000000E+00  0.12878810624E+04  0.12878810624E+04  0.50400001928E-02 0.  1.
       -1   -1    0    0    0  501  0.00000000000E+00  0.00000000000E+00 -0.10100350887E+04  0.10100350887E+04  0.50400001928E-02 0. -1.
    10030    2    1    2    0    0  0.00000000000E+00  0.00000000000E+00  0.27784597373E+03  0.22979161511E+04  0.22810568280E+04 0.  0.
        3    1    3    3  502    0  0.47337055817E+03  0.79805554279E+03  0.80702355161E+03  0.12297395488E+04  0.10100000352E+00 0.  1.
       -3    1    3    3    0  502 -0.47337055817E+03 -0.79805554279E+03 -0.52917757789E+03  0.10681766024E+04  0.10100000352E+00 0. -1.
</event>
<event>
 5   0  0.1257524E-04  0.2186345E+04  0.7818609E-02  0.8524133E-01
       -2   -1    0    0    0  501  0.00000000000E+00  0.00000000000E+00  0.19859839128E+04  0.19859839128E+04  0.25500000920E-02 0.  1.
        2   -1    0    0  501    0  0.00000000000E+00  0.00000000000E+00 -0.60173005576E+03  0.60173005576E+03  0.25500000920E-02 0. -1.
    10030    2    1    2    0    0  0.00000000000E+00  0.00000000000E+00  0.13842538571E+04  0.25877139686E+04  0.21863450877E+04 0.  0.
        3    1    3    3  502    0  0.40274595176E+03 -0.82819639346E+03 -0.49931900240E+01  0.92094435768E+03  0.10100000352E+00 0. -1.
       -3    1    3    3    0  502 -0.40274595176E+03  0.82819639346E+03  0.13892470471E+04  0.16667696109E+04  0.10100000352E+00 0.  1.
</event>
<event>
 5   0  0.5642466E-05  0.2303766E+04  0.7818609E-02  0.8476438E-01
       -1   -1    0    0    0  501  0.00000000000E+00  0.00000000000E+00  0.88249756752E+03  0.88249756753E+03  0.50400001928E-02 0.  1.
        1   -1    0    0  501    0  0.00000000000E+00  0.00000000000E+00 -0.15034994460E+04  0.15034994460E+04  0.50400001928E-02 0. -1.
    10030    2    1    2    0    0  0.00000000000E+00  0.00000000000E+00 -0.62100187852E+03  0.23859970136E+04  0.23037661374E+04 0.  0.
        1    1    3    3  502    0  0.73790603489E+03 -0.57084158902E+03 -0.10102417915E+04  0.13751195997E+04  0.50400001928E-02 0. -1.
       -1    1    3    3    0  502 -0.73790603489E+03  0.57084158902E+03  0.38923991297E+03  0.10108774139E+04  0.50400001928E-02 0.  1.
</event>
<event>
 5   0  0.1270613E-04  0.2271659E+04  0.7818609E-02  0.8489180E-01
        2   -1    0    0  501    0  0.00000000000E+00  0.00000000000E+00  0.11348239842E+04  0.11348239842E+04  0.25500000920E-02 0. -1.
       -2   -1    0    0    0  501  0.00000000000E+00  0.00000000000E+00 -0.11368355834E+04  0.11368355834E+04  0.25500000920E-02 0.  1.
    10030    2    1    2    0    0  0.00000000000E+00  0.00000000000E+00 -0.20115991443E+01  0.22716595676E+04  0.22716586770E+04 0.  0.
        2    1    3    3  502    0 -0.10540024226E+04 -0.17703661643E+03  0.38350080849E+03  0.11354892957E+04  0.25500000920E-02 0. -1.
       -2    1    3    3    0  502  0.10540024226E+04  0.17703661643E+03 -0.38551240764E+03  0.11361702720E+04  0.25500000920E-02 0.  1.
</event>
<event>
 5   0  0.5843670E-05  0.2384711E+04  0.7818609E-02  0.8445250E-01
        1   -1    0    0  501    0  0.00000000000E+00  0.00000000000E+00  0.85358237206E+03  0.85358237208E+03  0.50400001928E-02 0. -1.
       -1   -1    0    0    0  501  0.00000000000E+00  0.00000000000E+00 -0.16655820510E+04  0.16655820510E+04  0.50400001928E-02 0.  1.
    10030    2    1    2    0    0  0.00000000000E+00  0.00000000000E+00 -0.81199967893E+03  0.25191644231E+04  0.23847108655E+04 0.  0.
        2    1    3    3  502    0 -0.33592802687E+03  0.70231145375E+03 -0.13600371783E+04  0.15670960863E+04  0.25500000920E-02 0.  1.
       -2    1    3    3    0  502  0.33592802687E+03 -0.70231145375E+03  0.54803749932E+03  0.95206833682E+03  0.25500000920E-02 0. -1.
</event>
<event>
 5   0  0.1257524E-04  0.2337493E+04  0.7818609E-02  0.8463283E-01
        2   -1    0    0  501    0  0.00000000000E+00  0.00000000000E+00  0.20704311869E+04  0.20704311869E+04  0.25500000920E-02 0. -1.
       -2   -1    0    0    0  501  0.00000000000E+00  0.00000000000E+00 -0.65975066615E+03  0.65975066616E+03  0.25500000920E-02 0.  1.
    10030    2    1    2    0    0  0.00000000000E+00  0.00000000000E+00  0.14106805207E+04  0.27301818530E+04  0.23374929773E+04 0.  0.
        3    1    3    3  502    0  0.11681836720E+04  0.23607716745E+02  0.73749577603E+03  0.13817056291E+04  0.10100000352E+00 0.  1.
       -3    1    3    3    0  502 -0.11681836720E+04 -0.23607716745E+02  0.67318474470E+03  0.13484762239E+04  0.10100000352E+00 0. -1.
</event>
<event>
 5   0  0.1234988E-04  0.2107126E+04  0.7818609E-02  0.8558111E-01
        2   -1    0    0  501    0  0.00000000000E+00  0.00000000000E+00  0.13902596911E+04  0.13902596911E+04  0.25500000920E-02 0. -1.
       -2   -1    0    0    0  501  0.00000000000E+00  0.00000000000E+00 -0.79840839356E+03  0.79840839356E+03  0.25500000920E-02 0.  1.
    10030    2    1    2    0    0  0.00000000000E+00  0.00000000000E+00  0.59185129750E+03  0.21886680846E+04  0.21071260110E+04 0.  0.
        5    1    3    3  502    0  0.55502612542E+03  0.35831612310E+03 -0.55652133162E+03  0.86381857269E+03  0.46999998093E+01 0.  1.
       -5    1    3    3    0  502 -0.55502612542E+03 -0.35831612310E+03  0.11483726291E+04  0.13248495119E+04  0.46999998093E+01 0. -1.
</event>
<event>
 5   0  0.5843670E-05  0.2263359E+04  0.7818609E-02  0.8492510E-01
        1   -1    0    0  501    0  0.00000000000E+00  0.00000000000E+00  0.10761483740E+04  0.10761483740E+04  0.50400001928E-02 0. -1.
       -1   -1    0    0    0  501  0.00000000000E+00  0.00000000000E+00 -0.11900762043E+04  0.11900762044E+04  0.50400001928E-02 0.  1.
    10030    2    1    2    0    0  0.00000000000E+00  0.00000000000E+00 -0.11392783033E+03  0.22662245784E+04  0.22633590721E+04 0.  0.
        2    1    3    3  502    0  0.43207417698E+03  0.42175644011E+03 -0.10153235416E+04  0.11812910240E+04  0.25500000920E-02 0.  1.
       -2    1    3    3    0  502 -0.43207417698E+03 -0.42175644011E+03  0.90139571126E+03  0.10849335544E+04  0.25500000920E-02 0. -1.
</event>
<event>
 5   0  0.1257524E-04  0.2262400E+04  0.7818609E-02  0.8492895E-01
       -2   -1    0    0    0  501  0.00000000000E+00  0.00000000000E+00  0.14152921721E+04  0.14152921721E+04  0.25500000920E-02 0.  1.
        2   -1    0    0  501    0  0.00000000000E+00  0.00000000000E+00 -0.90413415132E+03  0.90413415133E+03  0.25500000920E-02 0. -1.
    10030    2    1    2    0    0  0.00000000000E+00  0.00000000000E+00  0.51115802075E+03  0.23194263234E+04  0.22624004834E+04 0.  0.
        3    1    3    3  502    0  0.28871804599E+03  0.48150583599E+03 -0.75121702838E+03  0.93783421462E+03  0.10100000352E+00 0. -1.
       -3    1    3    3    0  502 -0.28871804599E+03 -0.48150583599E+03  0.12623750491E+04  0.13815921088E+04  0.10100000352E+00 0.  1.
</event>
<event>
 5   0  0.1237296E-04  0.2311561E+04  0.7818609E-02  0.8473377E-01
       -2   -1    0    0    0  501  0.00000000000E+00  0.00000000000E+00  0.58999835706E+03  0.58999835707E+03  0.25500000920E-02 0. -1.
        2   -1    0    0  501    0  0.00000000000E+00  0.00000000000E+00 -0.22641223923E+04  0.22641223923E+04  0.25500000920E-02 0.  1.
    10030    2    1    2    0    0  0.00000000000E+00  0.00000000000E+00 -0.16741240352E+04  0.28541207493E+04  0.23115609372E+04 0.  0.
        1    1    3    3  502    0 -0.42383658187E+03 -0.92718242766E+02 -0.21597615523E+04  0.22029080969E+04  0.50400001928E-02 0.  1.
       -1    1    3    3    0  502  0.42383658187E+03  0.92718242766E+02  0.48563751708E+03  0.65121265243E+03  0.50400001928E-02 0. -1.
</event>
<event>
 5   0  0.5663790E-05  0.2295952E+04  0.7818609E-02  0.8479519E-01
       -1   -1    0    0    0  501  0.00000000000E+00  0.00000000000E+00  0.54523265981E+03  0.54523265983E+03  0.50400001928E-02 0. -1.
        1   -1    0    0  501    0  0.00000000000E+00  0.00000000000E+00 -0.24170400147E+04  0.24170400147E+04  0.50400001928E-02 0.  1.
    10030    2    1    2    0    0  0.00000000000E+00  0.00000000000E+00 -0.18718073549E+04  0.29622726745E+04  0.22959522261E+04 0.  0.
        3    1    3    3  502    0  0.96477305476E+03 -0.51262050271E+03 -0.13907522743E+04  0.17685470663E+04  0.10100000352E+00 0.  1.
       -3    1    3    3    0  502 -0.96477305476E+03  0.51262050271E+03 -0.48105508056E+03  0.11937256082E+04  0.10100000352E+00 0. -1.
</event>
<event>
 5   0  0.1257524E-04  0.2236027E+04  0.7818609E-02  0.8503581E-01
       -2   -1    0    0    0  501  0.00000000000E+00  0.00000000000E+00  0.62990106363E+03  0.62990106364E+03  0.25500000920E-02 0. -1.
        2   -1    0    0  501    0  0.00000000000E+00  0.00000000000E+00 -0.19843660282E+04  0.19843660282E+04  0.25500000920E-02 0.  1.
    10030    2    1    2    0    0  0.00000000000E+00  0.00000000000E+00 -0.13544649645E+04  0.26142670918E+04  0.22360270766E+04 0.  0.
        3    1    3    3  502    0 -0.67168621885E+03 -0.63057548566E+03  0.63284795802E+02  0.92346780956E+03  0.10100000352E+00 0. -1.
       -3    1    3    3    0  502  0.67168621885E+03  0.63057548566E+03 -0.14177497603E+04  0.16907992822E+04  0.10100000352E+00 0.  1.
</event>
<event>
 5   0  0.5632156E-05  0.2143882E+04  0.7818609E-02  0.8542155E-01
        1   -1    0    0  501    0  0.00000000000E+00  0.00000000000E+00  0.12112398090E+04  0.12112398091E+04  0.50400001928E-02 0. -1.
       -1   -1    0    0    0  501  0.00000000000E+00  0.00000000000E+00 -0.94866261028E+03  0.94866261029E+03  0.50400001928E-02 0.  1.
    10030    2    1    2    0    0  0.00000000000E+00  0.00000000000E+00  0.26257719877E+03  0.21599024193E+04  0.21438823838E+04 0.  0.
        4    1    3    3  502    0 -0.37500201730E+03 -0.98290215444E+03  0.33857626319E+03  0.11051509657E+04  0.12699999809E+01 0. -1.
       -4    1    3    3    0  502  0.37500201730E+03  0.98290215444E+03 -0.75999064421E+02  0.10547514536E+04  0.12699999809E+01 0.  1.
</event>
<event>
 5   0  0.5642466E-05  0.2224059E+04  0.7818609E-02  0.8508481E-01
       -1   -1    0    0    0  501  0.00000000000E+00  0.00000000000E+00  0.24131455586E+04  0.24131455586E+04  0.50400001928E-02 0.  1.
        1   -1    0    0  501    0  0.00000000000E+00  0.00000000000E+00 -0.51244704120E+03  0.51244704122E+03  0.50400001928E-02 0. -1.
    10030    2    1    2    0    0  0.00000000000E+00  0.00000000000E+00  0.19006985174E+04  0.29255925999E+04  0.22240587236E+04 0.  0.
        1    1    3    3  502    0 -0.47552285536E+03 -0.67468917917E+03  0.19305709954E+04  0.20996265961E+04  0.50400001928E-02 0.  1.
       -1    1    3    3    0  502  0.47552285536E+03  0.67468917917E+03 -0.29872478005E+02  0.82596600379E+03  0.50400001928E-02 0. -1.
</event>
<event>
 5   0  0.5663790E-05  0.2180164E+04  0.7818609E-02  0.8526730E-01
       -1   -1    0    0    0  501  0.00000000000E+00  0.00000000000E+00  0.49595997216E+03  0.49595997219E+03  0.50400001928E-02 0.  1.
        1   -1    0    0  501    0  0.00000000000E+00  0.00000000000E+00 -0.23959165025E+04  0.23959165025E+04  0.50400001928E-02 0. -1.
    10030    2    1    2    0    0  0.00000000000E+00  0.00000000000E+00 -0.18999565303E+04  0.28918764747E+04  0.21801639222E+04 0.  0.
        3    1    3    3  502    0  0.28612790440E+03  0.52700778542E+03 -0.21574639691E+04  0.22392537086E+04  0.10100000352E+00 0. -1.
       -3    1    3    3    0  502 -0.28612790440E+03 -0.52700778542E+03  0.25750743874E+03  0.65262276606E+03  0.10100000352E+00 0.  1.
</event>
<event>
 5   0  0.1281432E-04  0.2282827E+04  0.7818609E-02  0.8484723E-01
        2   -1    0    0  501    0  0.00000000000E+00  0.00000000000E+00  0.12646237504E+04  0.12646237504E+04  0.25500000920E-02 0. -1.
       -2   -1    0    0    0  501  0.00000000000E+00  0.00000000000E+00 -0.10302071381E+04  0.10302071381E+04  0.25500000920E-02 0.  1.
    10030    2    1    2    0    0  0.00000000000E+00  0.00000000000E+00  0.23441661234E+03  0.22948308885E+04  0.22828266817E+04 0.  0.
        4    1    3    3  502    0 -0.11269999862E+04 -0.17738319612E+03  0.15245024523E+03  0.11510154027E+04  0.12699999809E+01 0.  1.
       -4    1    3    3    0  502  0.11269999862E+04  0.17738319612E+03  0.81966367116E+02  0.11438154857E+04  0.12699999809E+01 0. -1.
</event>
<event>
 5   0  0.1281432E-04  0.1686915E+04  0.7818609E-02  0.8768862E-01
       -2   -1    0    0    0  501  0.00000000000E+00  0.00000000000E+00  0.33668605956E+03  0.33668605957E+03  0.25500000920E-02 0. -1.
        2   -1    0    0  501    0  0.00000000000E+00  0.00000000000E+00 -0.21130097612E+04  0.21130097612E+04  0.25500000920E-02 0.  1.
    10030    2    1    2    0    0  0.00000000000E+00  0.00000000000E+00 -0.17763237016E+04  0.24496958207E+04  0.16869154458E+04 0.  0.
        4    1    3    3  502    0 -0.10499983931E+03  0.72119163086E+03 -0.27158248473E+03  0.77775381297E+03  0.12699999809E+01 0. -1.
       -4    1    3    3    0  502  0.10499983931E+03 -0.72119163086E+03 -0.15047412169E+04  0.16719420078E+04  0.12699999809E+01 0.  1.
</event>
<event>
 5   0  0.4489500E-05  0.2339954E+04  0.7818609E-02  0.8462332E-01
       -4   -1    0    0    0  501  0.00000000000E+00  0.00000000000E+00  0.15140885352E+04  0.15140890678E+04  0.12699999809E+01 0.  1.
        4   -1    0    0  501    0  0.00000000000E+00  0.00000000000E+00 -0.90407144184E+03  0.90407233386E+03  0.12699999809E+01 0. -1.
    10030    2    1    2    0    0  0.00000000000E+00  0.00000000000E+00  0.61001709335E+03  0.24181614017E+04  0.23399537838E+04 0.  0.
        4    1    3    3  502    0 -0.62582754413E+03  0.81852592022E+03  0.87778910660E+03  0.13535730958E+04  0.12699999809E+01 0.  1.
       -4    1    3    3    0  502  0.62582754413E+03 -0.81852592022E+03 -0.26777201325E+03  0.10645883059E+04  0.12699999809E+01 0. -1.
</event>
<event>
 5   0  0.5663790E-05  0.2409351E+04  0.7818609E-02  0.8436011E-01
       -1   -1    0    0    0  501  0.00000000000E+00  0.00000000000E+00  0.98020995088E+03  0.98020995089E+03  0.50400001928E-02 0. -1.
        1   -1    0    0  501    0  0.00000000000E+00  0.00000000000E+00 -0.14805425886E+04  0.14805425886E+04  0.50400001928E-02 0.  1.
    10030    2    1    2    0    0  0.00000000000E+00  0.00000000000E+00 -0.50033263775E+03  0.24607525395E+04  0.24093505997E+04 0.  0.
        3    1    3    3  502    0  0.26954539503E+03  0.10624997279E+04 -0.76050878835E+03  0.13341416788E+04  0.10100000352E+00 0.  1.
       -3    1    3    3    0  502 -0.26954539503E+03 -0.10624997279E+04  0.26017615060E+03  0.11266108607E+04  0.10100000352E+00 0. -1.
</event>
<event>
 5   0  0.5924654E-05  0.2096521E+04  0.7818609E-02  0.8562777E-01
        1   -1    0    0  501    0  0.00000000000E+00  0.00000000000E+00  0.17421576061E+04  0.17421576061E+04  0.50400001928E-02 0.  1.
       -1   -1    0    0    0  501  0.00000000000E+00  0.00000000000E+00 -0.63074104267E+03  0.63074104269E+03  0.50400001928E-02 0. -1.
    10030    2    1    2    0    0  0.00000000000E+00  0.00000000000E+00  0.11114165634E+04  0.23728986488E+04  0.20965212186E+04 0.  0.
        5    1    3    3  502    0  0.64105692394E+03 -0.40635996113E+03  0.13740321340E+04  0.15697352621E+04  0.46999998093E+01 0.  1.
       -5    1    3    3    0  502 -0.64105692394E+03  0.40635996113E+03 -0.26261557064E+03  0.80316338666E+03  0.46999998093E+01 0. -1.
</event>
<event>
 5   0  0.1270613E-04  0.2295356E+04  0.7818609E-02  0.8479754E-01
        2   -1    0    0  501    0  0.00000000000E+00  0.00000000000E+00  0.23897088703E+04  0.23897088703E+04  0.25500000920E-02 0.  1.
       -2   -1    0    0    0  501  0.00000000000E+00  0.00000000000E+00 -0.55118219297E+03  0.55118219298E+03  0.25500000920E-02 0. -1.
    10030    2    1    2    0    0  0.00000000000E+00  0.00000000000E+00  0.18385266774E+04  0.29408910633E+04  0.22953561604E+04 0.  0.
        2    1    3    3  502    0 -0.30093313363E+03  0.14031938790E+03 -0.48829739322E+03  0.59049523772E+03  0.25500000920E-02 0. -1.
       -2    1    3    3    0  502  0.30093313363E+03 -0.14031938790E+03  0.23268240706E+04  0.23503958256E+04  0.25500000920E-02 0.  1.
</event>
<event>
 5   0  0.1257524E-04  0.2343991E+04  0.7818609E-02  0.8460775E-01
       -2   -1    0    0    0  501  0.00000000000E+00  0.00000000000E+00  0.81274047769E+03  0.81274047769E+03  0.25500000920E-02 0. -1.
        2   -1    0    0  501    0  0.00000000000E+00  0.00000000000E+00 -0.16900522928E+04  0.16900522928E+04  0.25500000920E-02 0.  1.
    10030    2    1    2    0    0  0.00000000000E+00  0.00000000000E+00 -0.87731181509E+03  0.25027927705E+04  0.23439913889E+04 0.  0.
        3    1    3    3  502    0 -0.92650137991E+03 -0.45761545747E+03  0.15175886416E+03  0.10444364399E+04  0.10100000352E+00 0. -1.
       -3    1    3    3    0  502  0.92650137991E+03  0.45761545747E+03 -0.10290706792E+04  0.14583563306E+04  0.10100000352E+00 0.  1.
</event>
<event>
 5   0  0.1237296E-04  0.2304479E+04  0.7818609E-02  0.8476157E-01
        2   -1    0    0  501    0  0.00000000000E+00  0.00000000000E+00  0.12715041304E+04  0.12715041304E+04  0.25500000920E-02 0. -1.
       -2   -1    0    0    0  501  0.00000000000E+00  0.00000000000E+00 -0.10441620296E+04  0.10441620296E+04  0.25500000920E-02 0.  1.
    10030    2    1    2    0    0  0.00000000000E+00  0.00000000000E+00  0.22734210081E+03  0.23156661601E+04  0.23044794063E+04 0.  0.
        1    1    3    3  502    0  0.47288788464E+03  0.35027074824E+03 -0.88176578136E+03  0.10601053918E+04  0.50400001928E-02 0.  1.
       -1    1    3    3    0  502 -0.47288788464E+03 -0.35027074824E+03  0.11091078822E+04  0.12555607683E+04  0.50400001928E-02 0. -1.
</event>
<event>
 5   0  0.1270613E-04  0.1272099E+04  0.7818609E-02  0.9051988E-01
        2   -1    0    0  501    0  0.00000000000E+00  0.00000000000E+00  0.39147327928E+03  0.39147327929E+03  0.25500000920E-02 0.  1.
       -2   -1    0    0    0  501  0.00000000000E+00  0.00000000000E+00 -0.10334272662E+04  0.10334272662E+04  0.25500000920E-02 0. -1.
    10030    2    1    2    0    0  0.00000000000E+00  0.00000000000E+00 -0.64195398694E+03  0.14249005455E+04  0.12720993056E+04 0.  0.
        2    1    3    3  502    0 -0.15218501366E+03  0.58680601064E+03 -0.53660348338E+03  0.80959549831E+03  0.25500000920E-02 0.  1.
       -2    1    3    3    0  502  0.15218501366E+03 -0.58680601064E+03 -0.10535050356E+03  0.61530504720E+03  0.25500000920E-02 0. -1.
</event>
<event>
 5   0  0.1257524E-04  0.2297956E+04  0.7818609E-02  0.8478727E-01
       -2   -1    0    0    0  501  0.00000000000E+00  0.00000000000E+00  0.44060301719E+03  0.44060301720E+03  0.25500000920E-02 0.  1.
        2   -1    0    0  501    0  0.00000000000E+00  0.00000000000E+00 -0.29962357026E+04  0.29962357026E+04  0.25500000920E-02 0. -1.
    10030    2    1    2    0    0  0.00000000000E+00  0.00000000000E+00 -0.25556326854E+04  0.34368387198E+04  0.22979560403E+04 0.  0.
        3    1    3    3  502    0  0.12858460107E+03  0.76300841997E+03 -0.74881711727E+01  0.77380354838E+03  0.10100000352E+00 0.  1.
       -3    1    3    3    0  502 -0.12858460107E+03 -0.76300841997E+03 -0.25481445142E+04  0.26630351714E+04  0.10100000352E+00 0. -1.
</event>
<event>
 5   0  0.5663790E-05  0.1946123E+04  0.7818609E-02  0.8632233E-01
        1   -1    0    0  501    0  0.00000000000E+00  0.00000000000E+00  0.10827843784E+04  0.10827843784E+04  0.50400001928E-02 0. -1.
       -1   -1    0    0    0  501  0.00000000000E+00  0.00000000000E+00 -0.87445719371E+03  0.87445719373E+03  0.50400001928E-02 0.  1.
    10030    2    1    2    0    0  0.00000000000E+00  0.00000000000E+00  0.20832718468E+03  0.19572415721E+04  0.19461229036E+04 0.  0.
        3    1    3    3  502    0 -0.47588820193E+02  0.47735544179E+03  0.95559098075E+03  0.10692460177E+04  0.10100000352E+00 0. -1.
       -3    1    3    3    0  502  0.47588820193E+02 -0.47735544179E+03 -0.74726379607E+03  0.88799555446E+03  0.10100000352E+00 0.  1.
</event>
<event>
 5   0  0.1234988E-04  0.2287951E+04  0.7818609E-02  0.8482687E-01
        2   -1    0    0  501    0  0.00000000000E+00  0.00000000000E+00  0.15626705362E+04  0.15626705362E+04  0.25500000920E-02 0.  1.
       -2   -1    0    0    0  501  0.00000000000E+00  0.00000000000E+00 -0.83746373986E+03  0.83746373987E+03  0.25500000920E-02 0. -1.
    10030    2    1    2    0    0  0.00000000000E+00  0.00000000000E+00  0.72520679630E+03  0.24001342760E+04  0.22879509710E+04 0.  0.
        5    1    3    3  502    0  0.93848265107E+03  0.40544276523E+03  0.90112007729E+03  0.13627813493E+04  0.46999998093E+01 0. -1.
       -5    1    3    3    0  502 -0.93848265107E+03 -0.40544276523E+03 -0.17591328099E+03  0.10373529268E+04  0.46999998093E+01 0.  1.
</event>
<event>
 5   0  0.5924654E-05  0.2303374E+04  0.7818609E-02  0.8476592E-01
        1   -1    0    0  501    0  0.00000000000E+00  0.00000000000E+00  0.15244993792E+04  0.15244993792E+04  0.50400001928E-02 0. -1.
       -1   -1    0    0    0  501  0.00000000000E+00  0.00000000000E+00 -0.87004484475E+03  0.87004484477E+03  0.50400001928E-02 0.  1.
    10030    2    1    2    0    0  0.00000000000E+00  0.00000000000E+00  0.65445453440E+03  0.23945442239E+04  0.23033738956E+04 0.  0.
        5    1    3    3  502    0 -0.96416578547E+03  0.33447927506E+03  0.88208389700E+03  0.13489203604E+04  0.46999998093E+01 0. -1.
       -5    1    3    3    0  502  0.96416578547E+03 -0.33447927506E+03 -0.22762936260E+03  0.10456238635E+04  0.46999998093E+01 0.  1.
</event>
<event>
 5   0  0.5663790E-05  0.2379441E+04  0.7818609E-02  0.8447241E-01
        1   -1    0    0  501    0  0.00000000000E+00  0.00000000000E+00  0.18910368185E+04  0.18910368185E+04  0.50400001928E-02 0.  1.
       -1   -1    0    0    0  501  0.00000000000E+00  0.00000000000E+00 -0.74849651464E+03  0.74849651466E+03  0.50400001928E-02 0. -1.
    10030    2    1    2    0    0  0.00000000000E+00  0.00000000000E+00  0.11425403038E+04  0.26395333331E+04  0.23794406635E+04 0.  0.
        3    1    3    3  502    0  0.27528189847E+03 -0.53414263773E+03 -0.56778261712E+03  0.82671977814E+03  0.10100000352E+00 0. -1.
       -3    1    3    3    0  502 -0.27528189847E+03  0.53414263773E+03  0.17103229210E+04  0.18128135550E+04  0.10100000352E+00 0.  1.
</event>
<event>
 5   0  0.1257524E-04  0.2312856E+04  0.7818609E-02  0.8472870E-01
        2   -1    0    0  501    0  0.00000000000E+00  0.00000000000E+00  0.12975242271E+04  0.12975242271E+04  0.25500000920E-02 0.  1.
       -2   -1    0    0    0  501  0.00000000000E+00  0.00000000000E+00 -0.10306746566E+04  0.10306746566E+04  0.25500000920E-02 0. -1.
    10030    2    1    2    0    0  0.00000000000E+00  0.00000000000E+00  0.26684957050E+03  0.23281988837E+04  0.23128556697E+04 0.  0.
        3    1    3    3  502    0  0.77238352003E+03  0.66611719953E+03  0.68205124263E+03  0.12269809833E+04  0.10100000352E+00 0.  1.
       -3    1    3    3    0  502 -0.77238352003E+03 -0.66611719953E+03 -0.41520167213E+03  0.11012179004E+04  0.10100000352E+00 0. -1.
</event>
<event>
 5   0  0.5642466E-05  0.2292368E+04  0.7818609E-02  0.8480936E-01
        1   -1    0    0  501    0  0.00000000000E+00  0.00000000000E+00  0.15443055765E+04  0.15443055765E+04  0.50400001928E-02 0. -1.
       -1   -1    0    0    0  501  0.00000000000E+00  0.00000000000E+00 -0.85069783823E+03  0.85069783824E+03  0.50400001928E-02 0.  1.
    10030    2    1    2    0    0  0.00000000000E+00  0.00000000000E+00  0.69360773828E+03  0.23950034148E+04  0.22923676978E+04 0.  0.
        1    1    3    3  502    0 -0.75120061983E+03  0.80767875451E+03  0.67234755207E+03  0.12917811628E+04  0.50400001928E-02 0. -1.
       -1    1    3    3    0  502  0.75120061983E+03 -0.80767875451E+03  0.21260186218E+02  0.11032222520E+04  0.50400001928E-02 0.  1.
</event>
<event>
 5   0  0.5663790E-05  0.2247630E+04  0.7818609E-02  0.8498861E-01
       -1   -1    0    0    0  501  0.00000000000E+00  0.00000000000E+00  0.17147766743E+04  0.17147766743E+04  0.50400001928E-02 0. -1.
        1   -1    0    0  501    0  0.00000000000E+00  0.00000000000E+00 -0.73651575312E+03  0.73651575313E+03  0.50400001928E-02 0.  1.
    10030    2    1    2    0    0  0.00000000000E+00  0.00000000000E+00  0.97826092117E+03  0.24512924274E+04  0.22476298928E+04 0.  0.
        3    1    3    3  502    0  0.42398959002E+03 -0.14302618403E+03  0.16134327482E+04  0.16743323758E+04  0.10100000352E+00 0. -1.
       -3    1    3    3    0  502 -0.42398959002E+03  0.14302618403E+03 -0.63517182699E+03  0.77696005159E+03  0.10100000352E+00 0.  1.
</event>
<event>
 5   0  0.5843670E-05  0.2267019E+04  0.7818609E-02  0.8491040E-01
       -1   -1    0    0    0  501  0.00000000000E+00  0.00000000000E+00  0.30461666601E+04  0.30461666601E+04  0.50400001928E-02 0.  1.
        1   -1    0    0  501    0  0.00000000000E+00  0.00000000000E+00 -0.42179055706E+03  0.42179055709E+03  0.50400001928E-02 0. -1.
    10030    2    1    2    0    0  0.00000000000E+00  0.00000000000E+00  0.26243761030E+04  0.34679572172E+04  0.22670194816E+04 0.  0.
        2    1    3    3  502    0  0.92421182516E+03 -0.65623720199E+03  0.13038696431E+04  0.17276836543E+04  0.25500000920E-02 0. -1.
       -2    1    3    3    0  502 -0.92421182516E+03  0.65623720199E+03  0.13205064599E+04  0.17402735629E+04  0.25500000920E-02 0.  1.
</event>
<event>
 5   0  0.5924654E-05  0.2250753E+04  0.7818609E-02  0.8497596E-01
       -1   -1    0    0    0  501  0.00000000000E+00  0.00000000000E+00  0.17187803440E+04  0.17187803440E+04  0.50400001928E-02 0.  1.
        1   -1    0    0  501    0  0.00000000000E+00  0.00000000000E+00 -0.73684350051E+03  0.73684350053E+03  0.50400001928E-02 0. -1.
    10030    2    1    2    0    0  0.00000000000E+00  0.00000000000E+00  0.98193684346E+03  0.24556238445E+04  0.22507528743E+04 0.  0.
        5    1    3    3  502    0 -0.10244259831E+04 -0.43381956096E+03  0.67612773835E+03  0.13018520711E+04  0.46999998093E+01 0. -1.
       -5    1    3    3    0  502  0.10244259831E+04  0.43381956096E+03  0.30580910510E+03  0.11537717734E+04  0.46999998093E+01 0.  1.
</event>
<event>
 5   0  0.1281432E-04  0.2156433E+04  0.7818609E-02  0.8536784E-01
       -2   -1    0    0    0  501  0.00000000000E+00  0.00000000000E+00  0.12333878225E+04  0.12333878225E+04  0.25500000920E-02 0. -1.
        2   -1    0    0  501    0  0.00000000000E+00  0.00000000000E+00 -0.94256714846E+03  0.94256714847E+03  0.25500000920E-02 0.  1.
    10030    2    1    2    0    0  0.00000000000E+00  0.00000000000E+00  0.29082067404E+03  0.21759549710E+04  0.21564330203E+04 0.  0.
        4    1    3    3  502    0 -0.72407861091E+03 -0.12043044027E+03  0.94234233600E+03  0.11944890191E+04  0.12699999809E+01 0. -1.
       -4    1    3    3    0  502  0.72407861091E+03  0.12043044027E+03 -0.65152166196E+03  0.98146595184E+03  0.12699999809E+01 0.  1.
</event>
<event>
 5   0  0.1237296E-04  0.2340522E+04  0.7818609E-02  0.8462113E-01
        2   -1    0    0  501    0  0.00000000000E+00  0.00000000000E+00  0.14454928307E+04  0.14454928307E+04  0.25500000920E-02 0.  1.
       -2   -1    0    0    0  501  0.00000000000E+00  0.00000000000E+00 -0.94743505959E+03  0.94743505960E+03  0.25500000920E-02 0. -1.
    10030    2    1    2    0    0  0.00000000000E+00  0.00000000000E+00  0.49805777113E+03  0.23929278903E+04  0.23405218104E+04 0.  0.
        1    1    3    3  502    0 -0.39197756939E+03  0.10844559427E+04  0.45304511145E+03  0.12389273504E+04  0.50400001928E-02 0.  1.
       -1    1    3    3    0  502  0.39197756939E+03 -0.10844559427E+04  0.45012659683E+02  0.11540005399E+04  0.50400001928E-02 0. -1.
</event>
<event>
 5   0  0.5632156E-05  0.1652256E+04  0.7818609E-02  0.8789073E-01
       -1   -1    0    0    0  501  0.00000000000E+00  0.00000000000E+00  0.36297214794E+03  0.36297214797E+03  0.50400001928E-02 0.  1.
        1   -1    0    0  501    0  0.00000000000E+00  0.00000000000E+00 -0.18802741715E+04  0.18802741715E+04  0.50400001928E-02 0. -1.
    10030    2    1    2    0    0  0.00000000000E+00  0.00000000000E+00 -0.15173020235E+04  0.22432463195E+04  0.16522556155E+04 0.  0.
        4    1    3    3  502    0  0.17363766174E+03 -0.63538997430E+03 -0.14356117247E+04  0.15795103969E+04  0.12699999809E+01 0.  1.
       -4    1    3    3    0  502 -0.17363766174E+03  0.63538997430E+03 -0.81690298835E+02  0.66373592252E+03  0.12699999809E+01 0. -1.
</event>
<event>
 5   0  0.1270613E-04  0.2277592E+04  0.7818609E-02  0.8486809E-01
       -2   -1    0    0    0  501  0.00000000000E+00  0.00000000000E+00  0.72673292461E+03  0.72673292462E+03  0.25500000920E-02 0. -1.
        2   -1    0    0  501    0  0.00000000000E+00  0.00000000000E+00 -0.17845023623E+04  0.17845023623E+04  0.25500000920E-02 0.  1.
    10030    2    1    2    0    0  0.00000000000E+00  0.00000000000E+00 -0.10577694377E+04  0.25112352869E+04  0.22775922557E+04 0.  0.
        2    1    3    3  502    0 -0.72522894321E+03  0.46081456853E+03 -0.13529132990E+04  0.16027106667E+04  0.25500000920E-02 0.  1.
       -2    1    3    3    0  502  0.72522894321E+03 -0.46081456853E+03  0.29514386130E+03  0.90852462020E+03  0.25500000920E-02 0. -1.
</event>
<event>
 5   0  0.5924654E-05  0.2252797E+04  0.7818609E-02  0.8496768E-01
        1   -1    0    0  501    0  0.00000000000E+00  0.00000000000E+00  0.17870002867E+04  0.17870002867E+04  0.50400001928E-02 0.  1.
       -1   -1    0    0    0  501  0.00000000000E+00  0.00000000000E+00 -0.71000210094E+03  0.71000210096E+03  0.50400001928E-02 0. -1.
    10030    2    1    2    0    0  0.00000000000E+00  0.00000000000E+00  0.10769981857E+04  0.24970023876E+04  0.22527973348E+04 0.  0.
        5    1    3    3  502    0  0.65758594140E+03 -0.77577420481E+03  0.10752523909E+04  0.14800117166E+04  0.46999998093E+01 0.  1.
       -5    1    3    3    0  502 -0.65758594140E+03  0.77577420481E+03  0.17457948422E+01  0.10169906710E+04  0.46999998093E+01 0. -1.
</event>
<event>
 5   0  0.1270613E-04  0.1769662E+04  0.7818609E-02  0.8722601E-01
       -2   -1    0    0    0  501  0.00000000000E+00  0.00000000000E+00  0.71857880882E+03  0.71857880882E+03  0.25500000920E-02 0. -1.
        2   -1    0    0  501    0  0.00000000000E+00  0.00000000000E+00 -0.10895480702E+04  0.10895480702E+04  0.25500000920E-02 0.  1.
    10030    2    1    2    0    0  0.00000000000E+00  0.00000000000E+00 -0.37096926141E+03  0.18081268790E+04  0.17696622892E+04 0.  0.
        2    1    3    3  502    0  0.42047015805E+03  0.37412690287E+03  0.51211467072E+03  0.76093858440E+03  0.25500000920E-02 0. -1.
       -2    1    3    3    0  502 -0.42047015805E+03 -0.37412690287E+03 -0.88308393212E+03  0.10471882946E+04  0.25500000920E-02 0.  1.
</event>
<event>
 5   0  0.5632156E-05  0.1987690E+04  0.7818609E-02  0.8612398E-01
        1   -1    0    0  501    0  0.00000000000E+00  0.00000000000E+00  0.12935079290E+04  0.12935079290E+04  0.50400001928E-02 0.  1.
       -1   -1    0    0    0  501  0.00000000000E+00  0.00000000000E+00 -0.76360430342E+03  0.76360430344E+03  0.50400001928E-02 0. -1.
    10030    2    1    2    0    0  0.00000000000E+00  0.00000000000E+00  0.52990362560E+03  0.20571122325E+04  0.19876903392E+04 0.  0.
        4    1    3    3  502    0  0.97191275457E+02 -0.78479328717E+03  0.88795654649E+03  0.11890395658E+04  0.12699999809E+01 0.  1.
       -4    1    3    3    0  502 -0.97191275457E+02  0.78479328717E+03 -0.35805292089E+03  0.86807266670E+03  0.12699999809E+01 0. -1.
</event>
<event>
 5   0  0.5843670E-05  0.2307048E+04  0.7818609E-02  0.8475147E-01
        1   -1    0    0  501    0  0.00000000000E+00  0.00000000000E+00  0.16470443863E+04  0.16470443863E+04  0.50400001928E-02 0. -1.
       -1   -1    0    0    0  501  0.00000000000E+00  0.00000000000E+00 -0.80788214694E+03  0.80788214695E+03  0.50400001928E-02 0.  1.
    10030    2    1    2    0    0  0.00000000000E+00  0.00000000000E+00  0.83916223932E+03  0.24549265332E+04  0.23070481182E+04 0.  0.
        2    1    3    3  502    0 -0.11407193710E+03 -0.28216684687E+03  0.16035490189E+04  0.16321764587E+04  0.25500000920E-02 0. -1.
       -2    1    3    3    0  502  0.11407193710E+03  0.28216684687E+03 -0.76438677958E+03  0.82275007451E+03  0.25500000920E-02 0.  1.
</event>
<event>
 5   0  0.5843670E-05  0.2586384E+04  0.7818609E-02  0.8372841E-01
       -1   -1    0    0    0  501  0.00000000000E+00  0.00000000000E+00  0.66614874102E+03  0.66614874103E+03  0.50400001928E-02 0. -1.
        1   -1    0    0  501    0  0.00000000000E+00  0.00000000000E+00 -0.25104683736E+04  0.25104683736E+04  0.50400001928E-02 0.  1.
    10030    2    1    2    0    0  0.00000000000E+00  0.00000000000E+00 -0.18443196325E+04  0.31766171146E+04  0.25863838435E+04 0.  0.
        2    1    3    3  502    0 -0.81754518575E+03 -0.92253815835E+03 -0.44191864361E+03  0.13094842007E+04  0.25500000920E-02 0. -1.
       -2    1    3    3    0  502  0.81754518575E+03  0.92253815835E+03 -0.14024009889E+04  0.18671329139E+04  0.25500000920E-02 0.  1.
</event>
<event>
 5   0  0.1270613E-04  0.2318171E+04  0.7818609E-02  0.8470791E-01
       -2   -1    0    0    0  501  0.00000000000E+00  0.00000000000E+00  0.98923026230E+03  0.98923026231E+03  0.25500000920E-02 0. -1.
        2   -1    0    0  501    0  0.00000000000E+00  0.00000000000E+00 -0.13581061480E+04  0.13581061480E+04  0.25500000920E-02 0.  1.
    10030    2    1    2    0    0  0.00000000000E+00  0.00000000000E+00 -0.36887588567E+03  0.23473364103E+04  0.23181714354E+04 0.  0.
        2    1    3    3  502    0  0.10507382181E+04  0.41701007968E+02  0.30923027792E+03  0.10960899333E+04  0.25500000920E-02 0. -1.
       -2    1    3    3    0  502 -0.10507382181E+04 -0.41701007968E+02 -0.67810616359E+03  0.12512464770E+04  0.25500000920E-02 0.  1.
</event>
<event>
 5   0  0.5924654E-05  0.1479447E+04  0.7818609E-02  0.8898237E-01
        1   -1    0    0  501    0  0.00000000000E+00  0.00000000000E+00  0.11198204505E+04  0.11198204505E+04  0.50400001928E-02 0. -1.
       -1   -1    0    0    0  501  0.00000000000E+00  0.00000000000E+00 -0.48864169694E+03  0.48864169697E+03  0.50400001928E-02 0.  1.
    10030    2    1    2    0    0  0.00000000000E+00  0.00000000000E+00  0.63117875357E+03  0.16084621475E+04  0.14794471471E+04 0.  0.
        5    1    3    3  502    0 -0.58899102958E+03 -0.41874733733E+02 -0.16880273220E+03  0.61415012713E+03  0.46999998093E+01 0.  1.
       -5    1    3    3    0  502  0.58899102958E+03  0.41874733733E+02  0.79998148578E+03  0.99431202036E+03  0.46999998093E+01 0. -1.
</event>
<event>
 5   0  0.1234988E-04  0.2372953E+04  0.7818609E-02  0.8449700E-01
        2   -1    0    0  501    0  0.00000000000E+00  0.00000000000E+00  0.17456886047E+04  0.17456886047E+04  0.25500000920E-02 0. -1.
       -2   -1    0    0    0  501  0.00000000000E+00  0.00000000000E+00 -0.80640163758E+03  0.80640163759E+03  0.25500000920E-02 0.  1.
    10030    2    1    2    0    0  0.00000000000E+00  0.00000000000E+00  0.93928696716E+03  0.25520902423E+04  0.23729527173E+04 0.  0.
        5    1    3    3  502    0  0.98900702740E+03  0.29371131941E+03 -0.16050896469E+03  0.10441199439E+04  0.46999998093E+01 0.  1.
       -5    1    3    3    0  502 -0.98900702740E+03 -0.29371131941E+03  0.10997959318E+04  0.15079702985E+04  0.46999998093E+01 0. -1.
</event>
<event>
 5   0  0.1234988E-04  0.2193749E+04  0.7818609E-02  0.8521034E-01
        2   -1    0    0  501    0  0.00000000000E+00  0.00000000000E+00  0.22872965380E+04  0.22872965380E+04  0.25500000920E-02 0. -1.
       -2   -1    0    0    0  501  0.00000000000E+00  0.00000000000E+00 -0.52600701322E+03  0.52600701323E+03  0.25500000920E-02 0.  1.
    10030    2    1    2    0    0  0.00000000000E+00  0.00000000000E+00  0.17612895247E+04  0.28133035512E+04  0.21937493205E+04 0.  0.
        5    1    3    3  502    0 -0.41725952166E+03  0.51362999699E+03 -0.24115261903E+03  0.70434221646E+03  0.46999998093E+01 0.  1.
       -5    1    3    3    0  502  0.41725952166E+03 -0.51362999699E+03  0.20024421438E+04  0.21089613347E+04  0.46999998093E+01 0. -1.
</event>
<event>
 5   0  0.1281432E-04  0.2147189E+04  0.7818609E-02  0.8540737E-01
       -2   -1    0    0    0  501  0.00000000000E+00  0.00000000000E+00  0.90902095767E+03  0.90902095768E+03  0.25500000920E-02 0.  1.
        2   -1    0    0  501    0  0.00000000000E+00  0.00000000000E+00 -0.12679630289E+04  0.12679630289E+04  0.25500000920E-02 0. -1.
    10030    2    1    2    0    0  0.00000000000E+00  0.00000000000E+00 -0.35894207120E+03  0.21769839866E+04  0.21471888290E+04 0.  0.
        4    1    3    3  502    0 -0.83097812735E+03  0.30188167326E+03 -0.79697597513E+03  0.11903064776E+04  0.12699999809E+01 0. -1.
       -4    1    3    3    0  502  0.83097812735E+03 -0.30188167326E+03  0.43803390392E+03  0.98667750896E+03  0.12699999809E+01 0.  1.
</event>
<event>
 5   0  0.5632156E-05  0.1508809E+04  0.7818609E-02  0.8878616E-01
        1   -1    0    0  501    0  0.00000000000E+00  0.00000000000E+00  0.82160630503E+03  0.82160630505E+03  0.50400001928E-02 0.  1.
       -1   -1    0    0    0  501  0.00000000000E+00  0.00000000000E+00 -0.69269893586E+03  0.69269893588E+03  0.50400001928E-02 0. -1.
    10030    2    1    2    0    0  0.00000000000E+00  0.00000000000E+00  0.12890736918E+03  0.15143052409E+04  0.15088085541E+04 0.  0.
        4    1    3    3  502    0 -0.61186012466E+03 -0.22220867993E+03  0.44712304431E+03  0.78972788937E+03  0.12699999809E+01 0.  1.
       -4    1    3    3    0  502  0.61186012466E+03  0.22220867993E+03 -0.31821567513E+03  0.72457735156E+03  0.12699999809E+01 0. -1.
</event>
<event>
 5   0  0.5843670E-05  0.2303393E+04  0.7818609E-02  0.8476585E-01
        1   -1    0    0  501    0  0.00000000000E+00  0.00000000000E+00  0.12739918761E+04  0.12739918762E+04  0.50400001928E-02 0. -1.
       -1   -1    0    0    0  501  0.00000000000E+00  0.00000000000E+00 -0.10411406816E+04  0.10411406816E+04  0.50400001928E-02 0.  1.
    10030    2    1    2    0    0  0.00000000000E+00  0.00000000000E+00  0.23285119455E+03  0.23151325578E+04  0.23033929498E+04 0.  0.
        2    1    3    3  502    0  0.27514753314E+03 -0.52210565290E+03 -0.87760650855E+03  0.10575886070E+04  0.25500000920E-02 0.  1.
       -2    1    3    3    0  502 -0.27514753314E+03  0.52210565290E+03  0.11104577031E+04  0.12575439508E+04  0.25500000920E-02 0. -1.
</event>
<event>
 5   0  0.1270613E-04  0.2118277E+04  0.7818609E-02  0.8553235E-01
        2   -1    0    0  501    0  0.00000000000E+00  0.00000000000E+00  0.18757833398E+04  0.18757833398E+04  0.25500000920E-02 0. -1.
       -2   -1    0    0    0  501  0.00000000000E+00  0.00000000000E+00 -0.59802971217E+03  0.59802971217E+03  0.25500000920E-02 0.  1.
    10030    2    1    2    0    0  0.00000000000E+00  0.00000000000E+00  0.12777536277E+04  0.24738130520E+04  0.21182768193E+04 0.  0.
        2    1    3    3  502    0 -0.14956186503E+03  0.10360804987E+04  0.82697780136E+03  0.13340629053E+04  0.25500000920E-02 0. -1.
       -2    1    3    3    0  502  0.14956186503E+03 -0.10360804987E+04  0.45077582629E+03  0.11397501467E+04  0.25500000920E-02 0.  1.
</event>
<event>
 5   0  0.5843670E-05  0.2092185E+04  0.7818609E-02  0.8564694E-01
       -1   -1    0    0    0  501  0.00000000000E+00  0.00000000000E+00  0.53724546806E+03  0.53724546809E+03  0.50400001928E-02 0.  1.
        1   -1    0    0  501    0  0.00000000000E+00  0.00000000000E+00 -0.20368892627E+04  0.20368892627E+04  0.50400001928E-02 0. -1.
    10030    2    1    2    0    0  0.00000000000E+00  0.00000000000E+00 -0.14996437946E+04  0.25741347308E+04  0.20921850065E+04 0.  0.
        2    1    3    3  502    0 -0.74663887391E+03 -0.70267608671E+03 -0.10052098810E+04  0.14358517318E+04  0.25500000920E-02 0.  1.
       -2    1    3    3    0  502  0.74663887391E+03  0.70267608671E+03 -0.49443391366E+03  0.11382829990E+04  0.25500000920E-02 0. -1.
</event>
<event>
 5   0  0.1257524E-04  0.2269329E+04  0.7818609E-02  0.8490113E-01
        2   -1    0    0  501    0  0.00000000000E+00  0.00000000000E+00  0.21283738327E+04  0.21283738327E+04  0.25500000920E-02 0. -1.
       -2   -1    0    0    0  501  0.00000000000E+00  0.00000000000E+00 -0.60490500676E+03  0.60490500676E+03  0.25500000920E-02 0.  1.
    10030    2    1    2    0    0  0.00000000000E+00  0.00000000000E+00  0.15234688259E+04  0.27332788395E+04  0.22693294055E+04 0.  0.
        3    1    3    3  502    0 -0.85725559431E+03 -0.44615093734E+03  0.14778731719E+04  0.17657992341E+04  0.10100000352E+00 0. -1.
       -3    1    3    3    0  502  0.85725559431E+03  0.44615093734E+03  0.45595654054E+02  0.96747960533E+03  0.10100000352E+00 0.  1.
</event>
<event>
 5   0  0.1234988E-04  0.2218756E+04  0.7818609E-02  0.8510662E-01
       -2   -1    0    0    0  501  0.00000000000E+00  0.00000000000E+00  0.82744045651E+03  0.82744045652E+03  0.25500000920E-02 0. -1.
        2   -1    0    0  501    0  0.00000000000E+00  0.00000000000E+00 -0.14873814322E+04  0.14873814322E+04  0.25500000920E-02 0.  1.
    10030    2    1    2    0    0  0.00000000000E+00  0.00000000000E+00 -0.65994097573E+03  0.23148218888E+04  0.22187560220E+04 0.  0.
        5    1    3    3  502    0  0.63530858038E+03 -0.80466767739E+03  0.11215913302E+03  0.10313626057E+04  0.46999998093E+01 0.  1.
       -5    1    3    3    0  502 -0.63530858038E+03  0.80466767739E+03 -0.77210010875E+03  0.12834592831E+04  0.46999998093E+01 0. -1.
</event>
<event>
 5   0  0.5924654E-05  0.2293680E+04  0.7818609E-02  0.8480417E-01
        1   -1    0    0  501    0  0.00000000000E+00  0.00000000000E+00  0.18262700672E+04  0.18262700673E+04  0.50400001928E-02 0. -1.
       -1   -1    0    0    0  501  0.00000000000E+00  0.00000000000E+00 -0.72017961207E+03  0.72017961209E+03  0.50400001928E-02 0.  1.
    10030    2    1    2    0    0  0.00000000000E+00  0.00000000000E+00  0.11060904552E+04  0.25464496793E+04  0.22936804212E+04 0.  0.
        5    1    3    3  502    0 -0.54869412826E+03 -0.56828888394E+03 -0.36996169751E+03  0.87230226964E+03  0.46999998093E+01 0.  1.
       -5    1    3    3    0  502  0.54869412826E+03  0.56828888394E+03  0.14760521527E+04  0.16741474097E+04  0.46999998093E+01 0. -1.
</event>
<event>
 5   0  0.5663790E-05  0.1587388E+04  0.7818609E-02  0.8828334E-01
        1   -1    0    0  501    0  0.00000000000E+00  0.00000000000E+00  0.35824653004E+03  0.35824653008E+03  0.50400001928E-02 0.  1.
       -1   -1    0    0    0  501  0.00000000000E+00  0.00000000000E+00 -0.17584266455E+04  0.17584266455E+04  0.50400001928E-02 0. -1.
    10030    2    1    2    0    0  0.00000000000E+00  0.00000000000E+00 -0.14001801154E+04  0.21166731756E+04  0.15873880989E+04 0.  0.
        3    1    3    3  502    0 -0.36180658713E+03  0.73613847741E+02 -0.16369404435E+04  0.16780634764E+04  0.10100000352E+00 0. -1.
       -3    1    3    3    0  502  0.36180658713E+03 -0.73613847741E+02  0.23676032806E+03  0.43860969917E+03  0.10100000352E+00 0.  1.
</event>
<event>
 5   0  0.1257524E-04  0.2256934E+04  0.7818609E-02  0.8495098E-01
        2   -1    0    0  501    0  0.00000000000E+00  0.00000000000E+00  0.13500722276E+04  0.13500722276E+04  0.25500000920E-02 0. -1.
       -2   -1    0    0    0  501  0.00000000000E+00  0.00000000000E+00 -0.94323646602E+03  0.94323646602E+03  0.25500000920E-02 0.  1.
    10030    2    1    2    0    0  0.00000000000E+00  0.00000000000E+00  0.40683576159E+03  0.22933086936E+04  0.22569336338E+04 0.  0.
        3    1    3    3  502    0 -0.69234881317E+03 -0.84676666405E+03  0.48551928011E+03  0.11966994794E+04  0.10100000352E+00 0.  1.
       -3    1    3    3    0  502  0.69234881317E+03  0.84676666405E+03 -0.78683518523E+02  0.10966092142E+04  0.10100000352E+00 0. -1.
</event>
<event>
 5   0  0.1237296E-04  0.1322949E+04  0.7818609E-02  0.9011562E-01
        2   -1    0    0  501    0  0.00000000000E+00  0.00000000000E+00  0.46280789417E+03  0.46280789417E+03  0.25500000920E-02 0. -1.
       -2   -1    0    0    0  501  0.00000000000E+00  0.00000000000E+00 -0.94542093202E+03  0.94542093202E+03  0.25500000920E-02 0.  1.
    10030    2    1    2    0    0  0.00000000000E+00  0.00000000000E+00 -0.48261303785E+03  0.14082288262E+04  0.13229486319E+04 0.  0.
        1    1    3    3  502    0 -0.35176991618E+03 -0.23149740371E+03 -0.78430240157E+03  0.89020412209E+03  0.50400001928E-02 0.  1.
       -1    1    3    3    0  502  0.35176991618E+03  0.23149740371E+03  0.30168936372E+03  0.51802470410E+03  0.50400001928E-02 0. -1.
</event>
<event>
 5   0  0.1237296E-04  0.2286228E+04  0.7818609E-02  0.8483371E-01
        2   -1    0    0  501    0  0.00000000000E+00  0.00000000000E+00  0.11035342923E+04  0.11035342923E+04  0.25500000920E-02 0. -1.
       -2   -1    0    0    0  501  0.00000000000E+00  0.00000000000E+00 -0.11841128950E+04  0.11841128950E+04  0.25500000920E-02 0.  1.
    10030    2    1    2    0    0  0.00000000000E+00  0.00000000000E+00 -0.80578602750E+02  0.22876471873E+04  0.22862276226E+04 0.  0.
        1    1    3    3  502    0  0.94801102360E+03 -0.12481971199E+03  0.58652149857E+03  0.11217452160E+04  0.50400001928E-02 0. -1.
       -1    1    3    3    0  502 -0.94801102360E+03  0.12481971199E+03 -0.66710010132E+03  0.11659019713E+04  0.50400001928E-02 0.  1.
</event>
<event>
 5   0  0.1270613E-04  0.2296815E+04  0.7818609E-02  0.8479178E-01
        2   -1    0    0  501    0  0.00000000000E+00  0.00000000000E+00  0.13355864706E+04  0.13355864706E+04  0.25500000920E-02 0.  1.
       -2   -1    0    0    0  501  0.00000000000E+00  0.00000000000E+00 -0.98746075630E+03  0.98746075631E+03  0.25500000920E-02 0. -1.
    10030    2    1    2    0    0  0.00000000000E+00  0.00000000000E+00  0.34812571429E+03  0.23230472269E+04  0.22968145126E+04 0.  0.
        2    1    3    3  502    0  0.76160034959E+02 -0.53495477053E+03  0.11989787169E+04  0.13151147939E+04  0.25500000920E-02 0.  1.
       -2    1    3    3    0  502 -0.76160034959E+02  0.53495477053E+03 -0.85085300263E+03  0.10079324330E+04  0.25500000920E-02 0. -1.
</event>
<event>
 5   0  0.5642466E-05  0.2287401E+04  0.7818609E-02  0.8482905E-01
       -1   -1    0    0    0  501  0.00000000000E+00  0.00000000000E+00  0.10943934671E+04  0.10943934672E+04  0.50400001928E-02 0.  1.
        1   -1    0    0  501    0  0.00000000000E+00  0.00000000000E+00 -0.11952287340E+04  0.11952287341E+04  0.50400001928E-02 0. -1.
    10030    2    1    2    0    0  0.00000000000E+00  0.00000000000E+00 -0.10083526690E+03  0.22896222012E+04  0.22874007242E+04 0.  0.
        1    1    3    3  502    0 -0.69800895221E+03  0.90166958682E+03 -0.13896810135E+03  0.11487108750E+04  0.50400001928E-02 0. -1.
       -1    1    3    3    0  502  0.69800895221E+03 -0.90166958682E+03  0.38132834453E+02  0.11409113262E+04  0.50400001928E-02 0.  1.
</event>
<event>
 5   0  0.1237296E-04  0.2329219E+04  0.7818609E-02  0.8466489E-01
        2   -1    0    0  501    0  0.00000000000E+00  0.00000000000E+00  0.10446567301E+04  0.10446567301E+04  0.25500000920E-02 0.  1.
       -2   -1    0    0    0  501  0.00000000000E+00  0.00000000000E+00 -0.12983357246E+04  0.12983357246E+04  0.25500000920E-02 0. -1.
    10030    2    1    2    0    0  0.00000000000E+00  0.00000000000E+00 -0.25367899447E+03  0.23429924547E+04  0.23292188842E+04 0.  0.
        1    1    3    3  502    0 -0.11224878399E+04 -0.27591131088E+03 -0.26983902896E+03  0.11869789820E+04  0.50400001928E-02 0.  1.
       -1    1    3    3    0  502  0.11224878399E+04  0.27591131088E+03  0.16160034491E+02  0.11560134726E+04  0.50400001928E-02 0. -1.
</event>
<event>
 5   0  0.1281432E-04  0.1923475E+04  0.7818609E-02  0.8643259E-01
        2   -1    0    0  501    0  0.00000000000E+00  0.00000000000E+00  0.20359614342E+04  0.20359614342E+04  0.25500000920E-02 0.  1.
       -2   -1    0    0    0  501  0.00000000000E+00  0.00000000000E+00 -0.45430082792E+03  0.45430082793E+03  0.25500000920E-02 0. -1.
    10030    2    1    2    0    0  0.00000000000E+00  0.00000000000E+00  0.15816606062E+04  0.24902622621E+04  0.19234749441E+04 0.  0.
        4    1    3    3  502    0  0.44318656372E+03  0.81219379249E+03  0.11305772116E+04  0.14609173594E+04  0.12699999809E+01 0.  1.
       -4    1    3    3    0  502 -0.44318656372E+03 -0.81219379249E+03  0.45108339468E+03  0.10293449027E+04  0.12699999809E+01 0. -1.
</event>
<event>
 5   0  0.1257524E-04  0.2374141E+04  0.7818609E-02  0.8449249E-01
        2   -1    0    0  501    0  0.00000000000E+00  0.00000000000E+00  0.23814689429E+04  0.23814689429E+04  0.25500000920E-02 0.  1.
       -2   -1    0    0    0  501  0.00000000000E+00  0.00000000000E+00 -0.59170876646E+03  0.59170876647E+03  0.25500000920E-02 0. -1.
    10030    2    1    2    0    0  0.00000000000E+00  0.00000000000E+00  0.17897601765E+04  0.29731777094E+04  0.23741407293E+04 0.  0.
        3    1    3    3  502    0 -0.10380013558E+03  0.11602257310E+04  0.60865548982E+03  0.13142905807E+04  0.10100000352E+00 0. -1.
       -3    1    3    3    0  502  0.10380013558E+03 -0.11602257310E+04  0.11811046867E+04  0.16588871288E+04  0.10100000352E+00 0.  1.
</event>
<event>
 5   0  0.5663790E-05  0.2297644E+04  0.7818609E-02  0.8478851E-01
        1   -1    0    0  501    0  0.00000000000E+00  0.00000000000E+00  0.10451226167E+04  0.10451226167E+04  0.50400001928E-02 0.  1.
       -1   -1    0    0    0  501  0.00000000000E+00  0.00000000000E+00 -0.12628105378E+04  0.12628105378E+04  0.50400001928E-02 0. -1.
    10030    2    1    2    0    0  0.00000000000E+00  0.00000000000E+00 -0.21768792113E+03  0.23079331546E+04  0.22976438834E+04 0.  0.
        3    1    3    3  502    0 -0.72971156765E+03 -0.68776163475E+03  0.45428840920E+03  0.11008510377E+04  0.10100000352E+00 0.  1.
       -3    1    3    3    0  502  0.72971156765E+03  0.68776163475E+03 -0.67197633034E+03  0.12070821169E+04  0.10100000352E+00 0. -1.
</event>
<event>
 5   0  0.4489500E-05  0.2253425E+04  0.7818609E-02  0.8496515E-01
       -4   -1    0    0    0  501  0.00000000000E+00  0.00000000000E+00  0.89406728817E+03  0.89406819017E+03  0.12699999809E+01 0. -1.
        4   -1    0    0  501    0  0.00000000000E+00  0.00000000000E+00 -0.14198923287E+04  0.14198928967E+04  0.12699999809E+01 0.  1.
    10030    2    1    2    0    0  0.00000000000E+00  0.00000000000E+00 -0.52582504056E+03  0.23139610869E+04  0.22534249351E+04 0.  0.
        3    1    3    3  502    0  0.67504098191E+03 -0.77954411796E+03  0.20327880602E+03  0.10510431210E+04  0.10100000352E+00 0. -1.
       -3    1    3    3    0  502 -0.67504098191E+03  0.77954411796E+03 -0.72910384659E+03  0.12629179658E+04  0.10100000352E+00 0.  1.
</event>
<event>
 5   0  0.1237296E-04  0.2324172E+04  0.7818609E-02  0.8468451E-01
        2   -1    0    0  501    0  0.00000000000E+00  0.00000000000E+00  0.12192483695E+04  0.12192483696E+04  0.25500000920E-02 0. -1.
       -2   -1    0    0    0  501  0.00000000000E+00  0.00000000000E+00 -0.11076032247E+04  0.11076032247E+04  0.25500000920E-02 0.  1.
    10030    2    1    2    0    0  0.00000000000E+00  0.00000000000E+00  0.11164514482E+03  0.23268515943E+04  0.23241716166E+04 0.  0.
        1    1    3    3  502    0 -0.12461802215E+03 -0.42950040953E+03  0.11296465011E+04  0.12149491639E+04  0.50400001928E-02 0. -1.
       -1    1    3    3    0  502  0.12461802215E+03  0.42950040953E+03 -0.10180013563E+04  0.11119024304E+04  0.50400001928E-02 0.  1.
</event>
<event>
 5   0  0.1281432E-04  0.2203324E+04  0.7818609E-02  0.8517046E-01
        2   -1    0    0  501    0  0.00000000000E+00  0.00000000000E+00  0.15459909886E+04  0.15459909886E+04  0.25500000920E-02 0.  1.
       -2   -1    0    0    0  501  0.00000000000E+00  0.00000000000E+00 -0.78503626816E+03  0.78503626817E+03  0.25500000920E-02 0. -1.
    10030    2    1    2    0    0  0.00000000000E+00  0.00000000000E+00  0.76095472040E+03  0.23310272567E+04  0.22033238493E+04 0.  0.
        4    1    3    3  502    0  0.19692732387E+03 -0.10394026326E+04  0.55218610382E+02  0.10593341831E+04  0.12699999809E+01 0. -1.
       -4    1    3    3    0  502 -0.19692732387E+03  0.10394026326E+04  0.70573611001E+03  0.12716930736E+04  0.12699999809E+01 0.  1.
</event>
<event>
 5   0  0.1257524E-04  0.2301691E+04  0.7818609E-02  0.8477255E-01
       -2   -1    0    0    0  501  0.00000000000E+00  0.00000000000E+00  0.17355837515E+04  0.17355837515E+04  0.25500000920E-02 0.  1.
        2   -1    0    0  501    0  0.00000000000E+00  0.00000000000E+00 -0.76311243512E+03  0.76311243512E+03  0.25500000920E-02 0. -1.
    10030    2    1    2    0    0  0.00000000000E+00  0.00000000000E+00  0.97247131639E+03  0.24986961866E+04  0.23016911548E+04 0.  0.
        3    1    3    3  502    0  0.80140197179E+03 -0.33090292016E+03 -0.33530940126E+03  0.92960973948E+03  0.10100000352E+00 0. -1.
       -3    1    3    3    0  502 -0.80140197179E+03  0.33090292016E+03  0.13077807176E+04  0.15690864471E+04  0.10100000352E+00 0.  1.
</event>
<event>
 5   0  0.5642466E-05  0.2323413E+04  0.7818609E-02  0.8468746E-01
       -1   -1    0    0    0  501  0.00000000000E+00  0.00000000000E+00  0.84399835969E+03  0.84399835970E+03  0.50400001928E-02 0.  1.
        1   -1    0    0  501    0  0.00000000000E+00  0.00000000000E+00 -0.15990107408E+04  0.15990107408E+04  0.50400001928E-02 0. -1.
    10030    2    1    2    0    0  0.00000000000E+00  0.00000000000E+00 -0.75501238108E+03  0.24430091005E+04  0.23234133875E+04 0.  0.
        1    1    3    3  502    0 -0.85807304836E+02 -0.11550452853E+04 -0.28304929056E+03  0.11923126291E+04  0.50400001928E-02 0.  1.
       -1    1    3    3    0  502  0.85807304836E+02  0.11550452853E+04 -0.47196309051E+03  0.12506964714E+04  0.50400001928E-02 0. -1.
</event>
<event>
 5   0  0.1270613E-04  0.2294298E+04  0.7818609E-02  0.8480173E-01
        2   -1    0    0  501    0  0.00000000000E+00  0.00000000000E+00  0.10590143894E+04  0.10590143894E+04  0.25500000920E-02 0. -1.
       -2   -1    0    0    0  501  0.00000000000E+00  0.00000000000E+00 -0.12426180416E+04  0.12426180416E+04  0.25500000920E-02 0.  1.
    10030    2    1    2    0    0  0.00000000000E+00  0.00000000000E+00 -0.18360365223E+03  0.23016324310E+04  0.22942976150E+04 0.  0.
        2    1    3    3  502    0  0.65020202136E+03  0.93127593393E+03  0.69687502559E+02  0.11379340410E+04  0.25500000920E-02 0. -1.
       -2    1    3    3    0  502 -0.65020202136E+03 -0.93127593393E+03 -0.25329115479E+03  0.11636983900E+04  0.25500000920E-02 0.  1.
</event>
<event>
 5   0  0.5642466E-05  0.1662431E+04  0.7818609E-02  0.8783086E-01
       -1   -1    0    0    0  501  0.00000000000E+00  0.00000000000E+00  0.33249773878E+04  0.33249773878E+04  0.50400001928E-02 0.  1.
        1   -1    0    0  501    0  0.00000000000E+00  0.00000000000E+00 -0.20779670140E+03  0.20779670146E+03  0.50400001928E-02 0. -1.
    10030    2    1    2    0    0  0.00000000000E+00  0.00000000000E+00  0.31171806864E+04  0.35327740893E+04  0.16624311517E+04 0.  0.
        1    1    3    3  502    0  0.68052662724E+03  0.43353076692E+03  0.19828265250E+04  0.21407163391E+04  0.50400001928E-02 0.  1.
       -1    1    3    3    0  502 -0.68052662724E+03 -0.43353076692E+03  0.11343541614E+04  0.13920577501E+04  0.50400001928E-02 0. -1.
</event>
<event>
 5   0  0.5843670E-05  0.1694504E+04  0.7818609E-02  0.8764505E-01
       -1   -1    0    0    0  501  0.00000000000E+00  0.00000000000E+00  0.14885118247E+04  0.14885118247E+04  0.50400001928E-02 0.  1.
        1   -1    0    0  501    0  0.00000000000E+00  0.00000000000E+00 -0.48225103032E+03  0.48225103034E+03  0.50400001928E-02 0. -1.
    10030    2    1    2    0    0  0.00000000000E+00  0.00000000000E+00  0.10062607944E+04  0.19707628550E+04  0.16945044835E+04 0.  0.
        2    1    3    3  502    0 -0.26009236241E+03  0.70379644528E+03  0.96080805650E+03  0.12190691510E+04  0.25500000920E-02 0.  1.
       -2    1    3    3    0  502  0.26009236241E+03 -0.70379644528E+03  0.45452737868E+02  0.75169370408E+03  0.25500000920E-02 0. -1.
</event>
<event>
 5   0  0.1234988E-04  0.2147550E+04  0.7818609E-02  0.8540582E-01
       -2   -1    0    0    0  501  0.00000000000E+00  0.00000000000E+00  0.90096595262E+03  0.90096595262E+03  0.25500000920E-02 0. -1.
        2   -1    0    0  501    0  0.00000000000E+00  0.00000000000E+00 -0.12797298376E+04  0.12797298376E+04  0.25500000920E-02 0.  1.
    10030    2    1    2    0    0  0.00000000000E+00  0.00000000000E+00 -0.37876388497E+03  0.21806957902E+04  0.21475502436E+04 0.  0.
        5    1    3    3  502    0 -0.14836128294E+03  0.74862141283E+03  0.57760753971E+03  0.95712990234E+03  0.46999998093E+01 0. -1.
       -5    1    3    3    0  502  0.14836128294E+03 -0.74862141283E+03 -0.95637142468E+03  0.12235658879E+04  0.46999998093E+01 0.  1.
</event>
<event>
 5   0  0.5642466E-05  0.2268790E+04  0.7818609E-02  0.8490329E-01
        1   -1    0    0  501    0  0.00000000000E+00  0.00000000000E+00  0.14787084660E+04  0.14787084660E+04  0.50400001928E-02 0.  1.
       -1   -1    0    0    0  501  0.00000000000E+00  0.00000000000E+00 -0.87025436978E+03  0.87025436980E+03  0.50400001928E-02 0. -1.
    10030    2    1    2    0    0  0.00000000000E+00  0.00000000000E+00  0.60845409622E+03  0.23489628358E+04  0.22687904303E+04 0.  0.
        1    1    3    3  502    0 -0.68523928596E+03 -0.89517442774E+03  0.43503388327E+03  0.12083644379E+04  0.50400001928E-02 0.  1.
       -1    1    3    3    0  502  0.68523928596E+03  0.89517442774E+03  0.17342021295E+03  0.11405983979E+04  0.50400001928E-02 0. -1.
</event>
<event>
 5   0  0.1281432E-04  0.2321209E+04  0.7818609E-02  0.8469605E-01
        2   -1    0    0  501    0  0.00000000000E+00  0.00000000000E+00  0.84130650118E+03  0.84130650118E+03  0.25500000920E-02 0. -1.
       -2   -1    0    0    0  501  0.00000000000E+00  0.00000000000E+00 -0.16010841360E+04  0.16010841360E+04  0.25500000920E-02 0.  1.
    10030    2    1    2    0    0  0.00000000000E+00  0.00000000000E+00 -0.75977763484E+03  0.24423906372E+04  0.23212087304E+04 0.  0.
        4    1    3    3  502    0  0.36486367971E+03  0.37732736636E+03 -0.14690619105E+04  0.15600147294E+04  0.12699999809E+01 0.  1.
       -4    1    3    3    0  502 -0.36486367971E+03 -0.37732736636E+03  0.70928427563E+03  0.88237590784E+03  0.12699999809E+01 0. -1.
</event>
<event>
 5   0  0.5924654E-05  0.2374331E+04  0.7818609E-02  0.8449176E-01
        1   -1    0    0  501    0  0.00000000000E+00  0.00000000000E+00  0.16540298060E+04  0.16540298060E+04  0.50400001928E-02 0.  1.
       -1   -1    0    0    0  501  0.00000000000E+00  0.00000000000E+00 -0.85207803070E+03  0.85207803071E+03  0.50400001928E-02 0. -1.
    10030    2    1    2    0    0  0.00000000000E+00  0.00000000000E+00  0.80195177532E+03  0.25061078367E+04  0.23743314510E+04 0.  0.
        5    1    3    3  502    0  0.63469766177E+03 -0.68589697996E+02  0.14574230341E+04  0.15911158534E+04  0.46999998093E+01 0.  1.
       -5    1    3    3    0  502 -0.63469766177E+03  0.68589697996E+02 -0.65547125878E+03  0.91499198336E+03  0.46999998093E+01 0. -1.
</event>
<event>
 5   0  0.1257524E-04  0.2258378E+04  0.7818609E-02  0.8494515E-01
       -2   -1    0    0    0  501  0.00000000000E+00  0.00000000000E+00  0.64160671262E+03  0.64160671262E+03  0.25500000920E-02 0.  1.
        2   -1    0    0  501    0  0.00000000000E+00  0.00000000000E+00 -0.19873049481E+04  0.19873049481E+04  0.25500000920E-02 0. -1.
    10030    2    1    2    0    0  0.00000000000E+00  0.00000000000E+00 -0.13456982355E+04  0.26289116607E+04  0.22583783516E+04 0.  0.
        3    1    3    3  502    0 -0.20721114141E+03 -0.13431474404E+03 -0.19554896509E+04  0.19710192014E+04  0.10100000352E+00 0. -1.
       -3    1    3    3    0  502  0.20721114141E+03  0.13431474404E+03  0.60979141535E+03  0.65789245932E+03  0.10100000352E+00 0.  1.
</event>
<event>
 5   0  0.1257524E-04  0.2256856E+04  0.7818609E-02  0.8495129E-01
       -2   -1    0    0    0  501  0.00000000000E+00  0.00000000000E+00  0.13698019421E+04  0.13698019421E+04  0.25500000920E-02 0.  1.
        2   -1    0    0  501    0  0.00000000000E+00  0.00000000000E+00 -0.92958672057E+03  0.92958672058E+03  0.25500000920E-02 0. -1.
    10030    2    1    2    0    0  0.00000000000E+00  0.00000000000E+00  0.44021522149E+03  0.22993886626E+04  0.22568559504E+04 0.  0.
        3    1    3    3  502    0  0.19247212248E+03 -0.61413027074E+03 -0.72426325907E+03  0.96889565280E+03  0.10100000352E+00 0. -1.
       -3    1    3    3    0  502 -0.19247212248E+03  0.61413027074E+03  0.11644784806E+04  0.13304930098E+04  0.10100000352E+00 0.  1.
</event>
<event>
 5   0  0.5663790E-05  0.2319929E+04  0.7818609E-02  0.8470104E-01
        1   -1    0    0  501    0  0.00000000000E+00  0.00000000000E+00  0.16091254361E+04  0.16091254361E+04  0.50400001928E-02 0. -1.
       -1   -1    0    0    0  501  0.00000000000E+00  0.00000000000E+00 -0.83617973896E+03  0.83617973897E+03  0.50400001928E-02 0.  1.
    10030    2    1    2    0    0  0.00000000000E+00  0.00000000000E+00  0.77294569713E+03  0.24453051751E+04  0.23199293844E+04 0.  0.
        3    1    3    3  502    0 -0.61532899687E+03 -0.98329486235E+03  0.39112931247E+03  0.12241244667E+04  0.10100000352E+00 0.  1.
       -3    1    3    3    0  502  0.61532899687E+03  0.98329486235E+03  0.38181638466E+03  0.12211807084E+04  0.10100000352E+00 0. -1.
</event>
<event>
 5   0  0.1270613E-04  0.2288626E+04  0.7818609E-02  0.8482419E-01
       -2   -1    0    0    0  501  0.00000000000E+00  0.00000000000E+00  0.11235092437E+04  0.11235092437E+04  0.25500000920E-02 0. -1.
        2   -1    0    0  501    0  0.00000000000E+00  0.00000000000E+00 -0.11655023967E+04  0.11655023967E+04  0.25500000920E-02 0.  1.
    10030    2    1    2    0    0  0.00000000000E+00  0.00000000000E+00 -0.41993153008E+02  0.22890116403E+04  0.22886264144E+04 0.  0.
        2    1    3    3  502    0 -0.17503444065E+03 -0.10655029312E+04  0.35790642317E+03  0.11375546403E+04  0.25500000920E-02 0. -1.
       -2    1    3    3    0  502  0.17503444065E+03  0.10655029312E+04 -0.39989957617E+03  0.11514570000E+04  0.25500000920E-02 0.  1.
</event>
<event>
 5   0  0.1281432E-04  0.2244534E+04  0.7818609E-02  0.8500118E-01
        2   -1    0    0  501    0  0.00000000000E+00  0.00000000000E+00  0.92103941191E+03  0.92103941192E+03  0.25500000920E-02 0. -1.
       -2   -1    0    0    0  501  0.00000000000E+00  0.00000000000E+00 -0.13674580053E+04  0.13674580053E+04  0.25500000920E-02 0.  1.
    10030    2    1    2    0    0  0.00000000000E+00  0.00000000000E+00 -0.44641859334E+03  0.22884974172E+04  0.22445335524E+04 0.  0.
        4    1    3    3  502    0  0.18894546682E+03  0.53713435945E+03  0.76282545598E+03  0.95190230524E+03  0.12699999809E+01 0. -1.
       -4    1    3    3    0  502 -0.18894546682E+03 -0.53713435945E+03 -0.12092440493E+04  0.13365951119E+04  0.12699999809E+01 0.  1.
</event>
<event>
 5   0  0.1281432E-04  0.2288120E+04  0.7818609E-02  0.8482620E-01
       -2   -1    0    0    0  501  0.00000000000E+00  0.00000000000E+00  0.65483159453E+03  0.65483159454E+03  0.25500000920E-02 0.  1.
        2   -1    0    0  501    0  0.00000000000E+00  0.00000000000E+00 -0.19987942128E+04  0.19987942128E+04  0.25500000920E-02 0. -1.
    10030    2    1    2    0    0  0.00000000000E+00  0.00000000000E+00 -0.13439626183E+04  0.26536258074E+04  0.22881202779E+04 0.  0.
        4    1    3    3  502    0 -0.87260602549E+03  0.55294069924E+03 -0.12421294910E+04  0.16155717186E+04  0.12699999809E+01 0.  1.
       -4    1    3    3    0  502  0.87260602549E+03 -0.55294069924E+03 -0.10183312734E+03  0.10380540888E+04  0.12699999809E+01 0. -1.
</event>
<event>
 5   0  0.5632156E-05  0.2601805E+04  0.7818609E-02  0.8367588E-01
       -1   -1    0    0    0  501  0.00000000000E+00  0.00000000000E+00  0.10466605765E+04  0.10466605765E+04  0.50400001928E-02 0. -1.
        1   -1    0    0  501    0  0.00000000000E+00  0.00000000000E+00 -0.16169014282E+04  0.16169014282E+04  0.50400001928E-02 0.  1.
    10030    2    1    2    0    0  0.00000000000E+00  0.00000000000E+00 -0.57024085169E+03  0.26635620048E+04  0.26018047437E+04 0.  0.
        4    1    3    3  502    0  0.47309692077E+03  0.17941703804E+02 -0.15255757545E+04  0.15973495538E+04  0.12699999809E+01 0.  1.
       -4    1    3    3    0  502 -0.47309692077E+03 -0.17941703804E+02  0.95533490284E+03  0.10662124510E+04  0.12699999809E+01 0. -1.
</event>
<event>
 5   0  0.5663790E-05  0.1508059E+04  0.7818609E-02  0.8879111E-01
        1   -1    0    0  501    0  0.00000000000E+00  0.00000000000E+00  0.13977665657E+04  0.13977665657E+04  0.50400001928E-02 0. -1.
       -1   -1    0    0    0  501  0.00000000000E+00  0.00000000000E+00 -0.40676356239E+03  0.40676356242E+03  0.50400001928E-02 0.  1.
    10030    2    1    2    0    0  0.00000000000E+00  0.00000000000E+00  0.99100300329E+03  0.18045301281E+04  0.15080590276E+04 0.  0.
        3    1    3    3  502    0 -0.63134635570E+02  0.67207590974E+03  0.89754275890E+03  0.11230561094E+04  0.10100000352E+00 0. -1.
       -3    1    3    3    0  502  0.63134635570E+02 -0.67207590974E+03  0.93460244386E+02  0.68147401869E+03  0.10100000352E+00 0.  1.
</event>
<event>
 5   0  0.5642466E-05  0.2290931E+04  0.7818609E-02  0.8481505E-01
        1   -1    0    0  501    0  0.00000000000E+00  0.00000000000E+00  0.58331000094E+03  0.58331000096E+03  0.50400001928E-02 0. -1.
       -1   -1    0    0    0  501  0.00000000000E+00  0.00000000000E+00 -0.22493897917E+04  0.22493897917E+04  0.50400001928E-02 0.  1.
    10030    2    1    2    0    0  0.00000000000E+00  0.00000000000E+00 -0.16660797908E+04  0.28326997927E+04  0.22909313054E+04 0.  0.
        1    1    3    3  502    0 -0.20669310767E+03 -0.27514053445E+01 -0.22261364622E+04  0.22357131210E+04  0.50400001928E-02 0.  1.
       -1    1    3    3    0  502  0.20669310767E+03  0.27514053445E+01  0.56005667141E+03  0.59698667171E+03  0.50400001928E-02 0. -1.
</event>
<event>
 5   0  0.5632156E-05  0.2349880E+04  0.7818609E-02  0.8458510E-01
        1   -1    0    0  501    0  0.00000000000E+00  0.00000000000E+00  0.13677252570E+04  0.13677252570E+04  0.50400001928E-02 0.  1.
       -1   -1    0    0    0  501  0.00000000000E+00  0.00000000000E+00 -0.10093281945E+04  0.10093281945E+04  0.50400001928E-02 0. -1.
    10030    2    1    2    0    0  0.00000000000E+00  0.00000000000E+00  0.35839706255E+03  0.23770534515E+04  0.23498797112E+04 0.  0.
        4    1    3    3  502    0 -0.11633360458E+03 -0.68491585525E+03 -0.77930232316E+03  0.10440100383E+04  0.12699999809E+01 0. -1.
       -4    1    3    3    0  502  0.11633360458E+03  0.68491585525E+03  0.11376993857E+04  0.13330434132E+04  0.12699999809E+01 0.  1.
</event>
<event>
 5   0  0.5642466E-05  0.2220096E+04  0.7818609E-02  0.8510110E-01
       -1   -1    0    0    0  501  0.00000000000E+00  0.00000000000E+00  0.79091551062E+03  0.79091551064E+03  0.50400001928E-02 0. -1.
        1   -1    0    0  501    0  0.00000000000E+00  0.00000000000E+00 -0.15579495705E+04  0.15579495706E+04  0.50400001928E-02 0.  1.
    10030    2    1    2    0    0  0.00000000000E+00  0.00000000000E+00 -0.76703405993E+03  0.23488650812E+04  0.22200959260E+04 0.  0.
        1    1    3    3  502    0  0.48335994992E+03 -0.53279972038E+03 -0.12779471779E+04  0.14665133388E+04  0.50400001928E-02 0.  1.
       -1    1    3    3    0  502 -0.48335994992E+03  0.53279972038E+03  0.51091311797E+03  0.88235174243E+03  0.50400001928E-02 0. -1.
</event>
<event>
 5   0  0.1270613E-04  0.2345862E+04  0.7818609E-02  0.8460055E-01
        2   -1    0    0  501    0  0.00000000000E+00  0.00000000000E+00  0.17633890362E+04  0.17633890362E+04  0.25500000920E-02 0. -1.
       -2   -1    0    0    0  501  0.00000000000E+00  0.00000000000E+00 -0.78018379250E+03  0.78018379251E+03  0.25500000920E-02 0.  1.
    10030    2    1    2    0    0  0.00000000000E+00  0.00000000000E+00  0.98320524365E+03  0.25435728287E+04  0.23458623539E+04 0.  0.
        2    1    3    3  502    0 -0.36654257886E+03 -0.59082745546E+03 -0.53264768362E+03  0.87586762648E+03  0.25500000920E-02 0.  1.
       -2    1    3    3    0  502  0.36654257886E+03  0.59082745546E+03  0.15158529273E+04  0.16677052022E+04  0.25500000920E-02 0. -1.
</event>
<event>
 5   0  0.5632156E-05  0.2308614E+04  0.7818609E-02  0.8474533E-01
        1   -1    0    0  501    0  0.00000000000E+00  0.00000000000E+00  0.10729994670E+04  0.10729994670E+04  0.50400001928E-02 0. -1.
       -1   -1    0    0    0  501  0.00000000000E+00  0.00000000000E+00 -0.12417755889E+04  0.12417755889E+04  0.50400001928E-02 0.  1.
    10030    2    1    2    0    0  0.00000000000E+00  0.00000000000E+00 -0.16877612190E+03  0.23147750559E+04  0.23086139089E+04 0.  0.
        4    1    3    3  502    0  0.77649306123E+03 -0.74316309441E+03 -0.50645096185E+03  0.11881612048E+04  0.12699999809E+01 0.  1.
       -4    1    3    3    0  502 -0.77649306123E+03  0.74316309441E+03  0.33767483995E+03  0.11266138511E+04  0.12699999809E+01 0. -1.
</event>
<event>
 5   0  0.1270613E-04  0.2270722E+04  0.7818609E-02  0.8489555E-01
       -2   -1    0    0    0  501  0.00000000000E+00  0.00000000000E+00  0.82104008947E+03  0.82104008948E+03  0.25500000920E-02 0.  1.
        2   -1    0    0  501    0  0.00000000000E+00  0.00000000000E+00 -0.15700144665E+04  0.15700144666E+04  0.25500000920E-02 0. -1.
    10030    2    1    2    0    0  0.00000000000E+00  0.00000000000E+00 -0.74897437707E+03  0.23910545560E+04  0.22707221918E+04 0.  0.
        2    1    3    3  502    0  0.87277161614E+02  0.32149981184E+03  0.76841793320E+03  0.83752346357E+03  0.25500000920E-02 0.  1.
       -2    1    3    3    0  502 -0.87277161614E+02 -0.32149981184E+03 -0.15173923103E+04  0.15535310925E+04  0.25500000920E-02 0. -1.
</event>
<event>
 5   0  0.5642466E-05  0.2116570E+04  0.7818609E-02  0.8553979E-01
        1   -1    0    0  501    0  0.00000000000E+00  0.00000000000E+00  0.22001830877E+04  0.22001830877E+04  0.50400001928E-02 0.  1.
       -1   -1    0    0    0  501  0.00000000000E+00  0.00000000000E+00 -0.50903347248E+03  0.50903347250E+03  0.50400001928E-02 0. -1.
    10030    2    1    2    0    0  0.00000000000E+00  0.00000000000E+00  0.16911496152E+04  0.27092165602E+04  0.21165697128E+04 0.  0.
        1    1    3    3  502    0 -0.42283005256E+03  0.35642333349E+03 -0.30937139506E+03  0.63366671533E+03  0.50400001928E-02 0. -1.
       -1    1    3    3    0  502  0.42283005256E+03 -0.35642333349E+03  0.20005210103E+04  0.20755498449E+04  0.50400001928E-02 0.  1.
</event>
<event>
 5   0  0.5663790E-05  0.2320223E+04  0.7818609E-02  0.8469990E-01
        1   -1    0    0  501    0  0.00000000000E+00  0.00000000000E+00  0.15350255463E+04  0.15350255463E+04  0.50400001928E-02 0.  1.
       -1   -1    0    0    0  501  0.00000000000E+00  0.00000000000E+00 -0.87676638652E+03  0.87676638653E+03  0.50400001928E-02 0. -1.
    10030    2    1    2    0    0  0.00000000000E+00  0.00000000000E+00  0.65825915982E+03  0.24117919329E+04  0.23202230940E+04 0.  0.
        3    1    3    3  502    0 -0.81800845772E+03 -0.79214003297E+03  0.55977647079E+03  0.12688472627E+04  0.10100000352E+00 0. -1.
       -3    1    3    3    0  502  0.81800845772E+03  0.79214003297E+03  0.98482689035E+02  0.11429446701E+04  0.10100000352E+00 0.  1.
</event>
<event>
 5   0  0.1270613E-04  0.2287142E+04  0.7818609E-02  0.8483008E-01
       -2   -1    0    0    0  501  0.00000000000E+00  0.00000000000E+00  0.30894219491E+04  0.30894219491E+04  0.25500000920E-02 0.  1.
        2   -1    0    0  501    0  0.00000000000E+00  0.00000000000E+00 -0.42330063389E+03  0.42330063389E+03  0.25500000920E-02 0. -1.
    10030    2    1    2    0    0  0.00000000000E+00  0.00000000000E+00  0.26661213153E+04  0.35127225830E+04  0.22871416829E+04 0.  0.
        2    1    3    3  502    0 -0.84381083961E+03  0.71055429659E+03  0.17959887705E+04  0.21077191002E+04  0.25500000920E-02 0. -1.
       -2    1    3    3    0  502  0.84381083961E+03 -0.71055429659E+03  0.87013254477E+03  0.14050034829E+04  0.25500000920E-02 0.  1.
</event>
<event>
 5   0  0.1237296E-04  0.2290001E+04  0.7818609E-02  0.8481874E-01
       -2   -1    0    0    0  501  0.00000000000E+00  0.00000000000E+00  0.60200949567E+03  0.60200949567E+03  0.25500000920E-02 0. -1.
        2   -1    0    0  501    0  0.00000000000E+00  0.00000000000E+00 -0.21777496826E+04  0.21777496826E+04  0.25500000920E-02 0.  1.
    10030    2    1    2    0    0  0.00000000000E+00  0.00000000000E+00 -0.15757401870E+04  0.27797591783E+04  0.22900008630E+04 0.  0.
        1    1    3    3  502    0 -0.33331289349E+03 -0.80645364082E+03  0.11199932045E+03  0.87977770349E+03  0.50400001928E-02 0. -1.
       -1    1    3    3    0  502  0.33331289349E+03  0.80645364082E+03 -0.16877395074E+04  0.18999814748E+04  0.50400001928E-02 0.  1.
</event>
<event>
 5   0  0.1234988E-04  0.1502702E+04  0.7818609E-02  0.8882658E-01
        2   -1    0    0  501    0  0.00000000000E+00  0.00000000000E+00  0.16150340194E+04  0.16150340194E+04  0.25500000920E-02 0.  1.
       -2   -1    0    0    0  501  0.00000000000E+00  0.00000000000E+00 -0.34954569683E+03  0.34954569684E+03  0.25500000920E-02 0. -1.
    10030    2    1    2    0    0  0.00000000000E+00  0.00000000000E+00  0.12654883226E+04  0.19645797163E+04  0.15027018224E+04 0.  0.
        5    1    3    3  502    0 -0.71733477579E+03 -0.21495789700E+03  0.55289825810E+03  0.93085694489E+03  0.46999998093E+01 0. -1.
       -5    1    3    3    0  502  0.71733477579E+03  0.21495789700E+03  0.71259006449E+03  0.10337227714E+04  0.46999998093E+01 0.  1.
</event>
<event>
 5   0  0.5632156E-05  0.2349326E+04  0.7818609E-02  0.8458723E-01
        1   -1    0    0  501    0  0.00000000000E+00  0.00000000000E+00  0.11781603773E+04  0.11781603773E+04  0.50400001928E-02 0. -1.
       -1   -1    0    0    0  501  0.00000000000E+00  0.00000000000E+00 -0.11711756575E+04  0.11711756575E+04  0.50400001928E-02 0.  1.
    10030    2    1    2    0    0  0.00000000000E+00  0.00000000000E+00  0.69847198476E+01  0.23493360348E+04  0.23493256518E+04 0.  0.
        4    1    3    3  502    0  0.56317282001E+03 -0.90229231849E+03  0.50202850232E+03  0.11761501959E+04  0.12699999809E+01 0.  1.
       -4    1    3    3    0  502 -0.56317282001E+03  0.90229231849E+03 -0.49504378248E+03  0.11731858389E+04  0.12699999809E+01 0. -1.
</event>
<event>
 5   0  0.5642466E-05  0.2440940E+04  0.7818609E-02  0.8424333E-01
        1   -1    0    0  501    0  0.00000000000E+00  0.00000000000E+00  0.12396938665E+04  0.12396938665E+04  0.50400001928E-02 0. -1.
       -1   -1    0    0    0  501  0.00000000000E+00  0.00000000000E+00 -0.12015441770E+04  0.12015441770E+04  0.50400001928E-02 0.  1.
    10030    2    1    2    0    0  0.00000000000E+00  0.00000000000E+00  0.38149689491E+02  0.24412380435E+04  0.24409399391E+04 0.  0.
        1    1    3    3  502    0  0.67213206136E+03 -0.13512309142E+03 -0.99076485905E+03  0.12048380653E+04  0.50400001928E-02 0.  1.
       -1    1    3    3    0  502 -0.67213206136E+03  0.13512309142E+03  0.10289145485E+04  0.12363999781E+04  0.50400001928E-02 0. -1.
</event>
<event>
 5   0  0.5663790E-05  0.2289450E+04  0.7818609E-02  0.8482092E-01
       -1   -1    0    0    0  501  0.00000000000E+00  0.00000000000E+00  0.50305358207E+03  0.50305358210E+03  0.50400001928E-02 0.  1.
        1   -1    0    0  501    0  0.00000000000E+00  0.00000000000E+00 -0.26048826867E+04  0.26048826867E+04  0.50400001928E-02 0. -1.
    10030    2    1    2    0    0  0.00000000000E+00  0.00000000000E+00 -0.21018291047E+04  0.31079362688E+04  0.22894502104E+04 0.  0.
        3    1    3    3  502    0  0.93319126638E+03 -0.15783828997E+03 -0.17678708656E+03  0.96281490931E+03  0.10100000352E+00 0.  1.
       -3    1    3    3    0  502 -0.93319126638E+03  0.15783828997E+03 -0.19250420181E+04  0.21451213595E+04  0.10100000352E+00 0. -1.
</event>
<event>
 5   0  0.1257524E-04  0.2284053E+04  0.7818609E-02  0.8484236E-01
       -2   -1    0    0    0  501  0.00000000000E+00  0.00000000000E+00  0.10633174501E+04  0.10633174501E+04  0.25500000920E-02 0.  1.
        2   -1    0    0  501    0  0.00000000000E+00  0.00000000000E+00 -0.12265612560E+04  0.12265612560E+04  0.25500000920E-02 0. -1.
    10030    2    1    2    0    0  0.00000000000E+00  0.00000000000E+00 -0.16324380594E+03  0.22898787061E+04  0.22840525276E+04 0.  0.
        3    1    3    3  502    0  0.11195761374E+04 -0.15172711519E+03 -0.24863655322E+03  0.11568457074E+04  0.10100000352E+00 0.  1.
       -3    1    3    3    0  502 -0.11195761374E+04  0.15172711519E+03  0.85392747279E+02  0.11330329988E+04  0.10100000352E+00 0. -1.
</event>
<event>
 5   0  0.1270613E-04  0.2302570E+04  0.7818609E-02  0.8476909E-01
       -2   -1    0    0    0  501  0.00000000000E+00  0.00000000000E+00  0.15952656781E+04  0.15952656781E+04  0.25500000920E-02 0.  1.
        2   -1    0    0  501    0  0.00000000000E+00  0.00000000000E+00 -0.83086900939E+03  0.83086900939E+03  0.25500000920E-02 0. -1.
    10030    2    1    2    0    0  0.00000000000E+00  0.00000000000E+00  0.76439666867E+03  0.24261346874E+04  0.23025697068E+04 0.  0.
        2    1    3    3  502    0  0.48124136607E+03  0.94236444428E+03  0.86020981481E+03  0.13636733200E+04  0.25500000920E-02 0.  1.
       -2    1    3    3    0  502 -0.48124136607E+03 -0.94236444428E+03 -0.95813146144E+02  0.10624613674E+04  0.25500000920E-02 0. -1.
</event>
<event>
 5   0  0.4489500E-05  0.2352860E+04  0.7818609E-02  0.8457366E-01
       -4   -1    0    0    0  501  0.00000000000E+00  0.00000000000E+00  0.96448652340E+03  0.96448735954E+03  0.12699999809E+01 0.  1.
        4   -1    0    0  501    0  0.00000000000E+00  0.00000000000E+00 -0.14349459579E+04  0.14349465199E+04  0.12699999809E+01 0. -1.
    10030    2    1    2    0    0  0.00000000000E+00  0.00000000000E+00 -0.47045943450E+03  0.23994338794E+04  0.23528601451E+04 0.  0.
        3    1    3    3  502    0  0.83679459556E+03 -0.72342528459E+03  0.17322105363E+03  0.11196315828E+04  0.10100000352E+00 0.  1.
       -3    1    3    3    0  502 -0.83679459556E+03  0.72342528459E+03 -0.64368048813E+03  0.12798022967E+04  0.10100000352E+00 0. -1.
</event>
<event>
 5   0  0.5843670E-05  0.2278504E+04  0.7818609E-02  0.8486445E-01
        1   -1    0    0  501    0  0.00000000000E+00  0.00000000000E+00  0.18768769244E+04  0.18768769244E+04  0.50400001928E-02 0.  1.
       -1   -1    0    0    0  501  0.00000000000E+00  0.00000000000E+00 -0.69151875408E+03  0.69151875410E+03  0.50400001928E-02 0. -1.
    10030    2    1    2    0    0  0.00000000000E+00  0.00000000000E+00  0.11853581703E+04  0.25683956785E+04  0.22785044151E+04 0.  0.
        2    1    3    3  502    0 -0.89345905761E+03  0.35723998623E+03 -0.94843683027E+02  0.96689442009E+03  0.25500000920E-02 0. -1.
       -2    1    3    3    0  502  0.89345905761E+03 -0.35723998623E+03  0.12802018534E+04  0.16015012584E+04  0.25500000920E-02 0.  1.
</event>
<event>
 5   0  0.1281432E-04  0.2109699E+04  0.7818609E-02  0.8556983E-01
       -2   -1    0    0    0  501  0.00000000000E+00  0.00000000000E+00  0.10851781280E+04  0.10851781280E+04  0.25500000920E-02 0. -1.
        2   -1    0    0  501    0  0.00000000000E+00  0.00000000000E+00 -0.10253689808E+04  0.10253689808E+04  0.25500000920E-02 0.  1.
    10030    2    1    2    0    0  0.00000000000E+00  0.00000000000E+00  0.59809147205E+02  0.21105471088E+04  0.21096994962E+04 0.  0.
        4    1    3    3  502    0  0.10229168289E+03 -0.61682394571E+03  0.87981697921E+03  0.10793585587E+04  0.12699999809E+01 0. -1.
       -4    1    3    3    0  502 -0.10229168289E+03  0.61682394571E+03 -0.82000783201E+03  0.10311885501E+04  0.12699999809E+01 0.  1.
</event>
<event>
 5   0  0.5663790E-05  0.2260929E+04  0.7818609E-02  0.8493487E-01
       -1   -1    0    0    0  501  0.00000000000E+00  0.00000000000E+00  0.20016947104E+04  0.20016947104E+04  0.50400001928E-02 0.  1.
        1   -1    0    0  501    0  0.00000000000E+00  0.00000000000E+00 -0.63843418176E+03  0.63843418178E+03  0.50400001928E-02 0. -1.
    10030    2    1    2    0    0  0.00000000000E+00  0.00000000000E+00  0.13632605286E+04  0.26401288922E+04  0.22609292997E+04 0.  0.
        3    1    3    3  502    0 -0.30057219191E+03 -0.29650001830E+03 -0.54291306480E+03  0.68775759504E+03  0.10100000352E+00 0. -1.
       -3    1    3    3    0  502  0.30057219191E+03  0.29650001830E+03  0.19061735934E+04  0.19523712971E+04  0.10100000352E+00 0.  1.
</event>
<event>
 5   0  0.1237296E-04  0.1853009E+04  0.7818609E-02  0.8678607E-01
       -2   -1    0    0    0  501  0.00000000000E+00  0.00000000000E+00  0.44879603014E+03  0.44879603015E+03  0.25500000920E-02 0. -1.
        2   -1    0    0  501    0  0.00000000000E+00  0.00000000000E+00 -0.19126970042E+04  0.19126970042E+04  0.25500000920E-02 0.  1.
    10030    2    1    2    0    0  0.00000000000E+00  0.00000000000E+00 -0.14639009741E+04  0.23614930344E+04  0.18530092524E+04 0.  0.
        1    1    3    3  502    0  0.43756799320E+03 -0.18726725646E+03  0.28108585991E+03  0.55276037728E+03  0.50400001928E-02 0. -1.
       -1    1    3    3    0  502 -0.43756799320E+03  0.18726725646E+03 -0.17449868340E+04  0.18087326571E+04  0.50400001928E-02 0.  1.
</event>
<event>
 5   0  0.4489500E-05  0.2356275E+04  0.7818609E-02  0.8456057E-01
       -4   -1    0    0    0  501  0.00000000000E+00  0.00000000000E+00  0.52959177425E+03  0.52959329702E+03  0.12699999809E+01 0.  1.
        4   -1    0    0  501    0  0.00000000000E+00  0.00000000000E+00 -0.26208968448E+04  0.26208971525E+04  0.12699999809E+01 0. -1.
    10030    2    1    2    0    0  0.00000000000E+00  0.00000000000E+00 -0.20913050706E+04  0.31504904495E+04  0.23562752756E+04 0.  0.
        5    1    3    3  502    0  0.60673095677E+03 -0.71072762923E+03 -0.20049247738E+04  0.22120130324E+04  0.46999998093E+01 0. -1.
       -5    1    3    3    0  502 -0.60673095677E+03  0.71072762923E+03 -0.86380296787E+02  0.93847741716E+03  0.46999998093E+01 0.  1.
</event>
<event>
 5   0  0.5632156E-05  0.2152916E+04  0.7818609E-02  0.8538285E-01
        1   -1    0    0  501    0  0.00000000000E+00  0.00000000000E+00  0.18335869156E+04  0.18335869156E+04  0.50400001928E-02 0.  1.
       -1   -1    0    0    0  501  0.00000000000E+00  0.00000000000E+00 -0.63196424944E+03  0.63196424946E+03  0.50400001928E-02 0. -1.
    10030    2    1    2    0    0  0.00000000000E+00  0.00000000000E+00  0.12016226662E+04  0.24655511651E+04  0.21529155849E+04 0.  0.
        4    1    3    3  502    0 -0.99536881724E+03  0.35442833713E+03  0.36504931798E+03  0.11178734928E+04  0.12699999809E+01 0. -1.
       -4    1    3    3    0  502  0.99536881724E+03 -0.35442833713E+03  0.83657334821E+03  0.13476776723E+04  0.12699999809E+01 0.  1.
</event>
<event>
 5   0  0.1281432E-04  0.2291018E+04  0.7818609E-02  0.8481471E-01
       -2   -1    0    0    0  501  0.00000000000E+00  0.00000000000E+00  0.71819589699E+03  0.71819589699E+03  0.25500000920E-02 0.  1.
        2   -1    0    0  501    0  0.00000000000E+00  0.00000000000E+00 -0.18270655082E+04  0.18270655082E+04  0.25500000920E-02 0. -1.
    10030    2    1    2    0    0  0.00000000000E+00  0.00000000000E+00 -0.11088696112E+04  0.25452614052E+04  0.22910180720E+04 0.  0.
        4    1    3    3  502    0  0.15473235205E+03 -0.10961572880E+04 -0.22733562536E+03  0.11301265417E+04  0.12699999809E+01 0.  1.
       -4    1    3    3    0  502 -0.15473235205E+03  0.10961572880E+04 -0.88153398586E+03  0.14151348635E+04  0.12699999809E+01 0. -1.
</event>
<event>
 5   0  0.1270613E-04  0.2291366E+04  0.7818609E-02  0.8481333E-01
       -2   -1    0    0    0  501  0.00000000000E+00  0.00000000000E+00  0.77472066311E+03  0.77472066311E+03  0.25500000920E-02 0. -1.
        2   -1    0    0  501    0  0.00000000000E+00  0.00000000000E+00 -0.16942742301E+04  0.16942742301E+04  0.25500000920E-02 0.  1.
    10030    2    1    2    0    0  0.00000000000E+00  0.00000000000E+00 -0.91955356696E+03  0.24689948932E+04  0.22913657543E+04 0.  0.
        2    1    3    3  502    0 -0.30589979893E+03 -0.34399892615E+03 -0.15902393200E+04  0.16555274214E+04  0.25500000920E-02 0.  1.
       -2    1    3    3    0  502  0.30589979893E+03  0.34399892615E+03  0.67068575308E+03  0.81346747173E+03  0.25500000920E-02 0. -1.
</event>
<event>
 5   0  0.5924654E-05  0.2346968E+04  0.7818609E-02  0.8459629E-01
        1   -1    0    0  501    0  0.00000000000E+00  0.00000000000E+00  0.12265207242E+04  0.12265207242E+04  0.50400001928E-02 0.  1.
       -1   -1    0    0    0  501  0.00000000000E+00  0.00000000000E+00 -0.11227411179E+04  0.11227411179E+04  0.50400001928E-02 0. -1.
    10030    2    1    2    0    0  0.00000000000E+00  0.00000000000E+00  0.10377960626E+03  0.23492618421E+04  0.23469684694E+04 0.  0.
        5    1    3    3  502    0 -0.36487262341E+03 -0.39132873889E+03 -0.99353150677E+03  0.11284490056E+04  0.46999998093E+01 0. -1.
       -5    1    3    3    0  502  0.36487262341E+03  0.39132873889E+03  0.10973111130E+04  0.12208128366E+04  0.46999998093E+01 0.  1.
</event>
<event>
 5   0  0.1234988E-04  0.2177818E+04  0.7818609E-02  0.8527718E-01
        2   -1    0    0  501    0  0.00000000000E+00  0.00000000000E+00  0.70978047644E+03  0.70978047645E+03  0.25500000920E-02 0.  1.
       -2   -1    0    0    0  501  0.00000000000E+00  0.00000000000E+00 -0.16705479178E+04  0.16705479178E+04  0.25500000920E-02 0. -1.
    10030    2    1    2    0    0  0.00000000000E+00  0.00000000000E+00 -0.96076744131E+03  0.23803283942E+04  0.21778175286E+04 0.  0.
        5    1    3    3  502    0 -0.38997388558E+03 -0.59858284010E+03 -0.13785772535E+04  0.15527003515E+04  0.46999998093E+01 0. -1.
       -5    1    3    3    0  502  0.38997388558E+03  0.59858284010E+03  0.41780981214E+03  0.82762804267E+03  0.46999998093E+01 0.  1.
</event>
<event>
 5   0  0.1270613E-04  0.2087808E+04  0.7818609E-02  0.8566633E-01
       -2   -1    0    0    0  501  0.00000000000E+00  0.00000000000E+00  0.11545031140E+04  0.11545031140E+04  0.25500000920E-02 0.  1.
        2   -1    0    0  501    0  0.00000000000E+00  0.00000000000E+00 -0.94390042082E+03  0.94390042082E+03  0.25500000920E-02 0. -1.
    10030    2    1    2    0    0  0.00000000000E+00  0.00000000000E+00  0.21060269321E+03  0.20984035348E+04  0.20878083965E+04 0.  0.
        2    1    3    3  502    0 -0.12129097876E+03  0.41620146244E+03 -0.84914975019E+03  0.95340991034E+03  0.25500000920E-02 0. -1.
       -2    1    3    3    0  502  0.12129097876E+03 -0.41620146244E+03  0.10597524434E+04  0.11449936245E+04  0.25500000920E-02 0.  1.
</event>
<event>
 5   0  0.1234988E-04  0.2337158E+04  0.7818609E-02  0.8463413E-01
       -2   -1    0    0    0  501  0.00000000000E+00  0.00000000000E+00  0.71166296719E+03  0.71166296720E+03  0.25500000920E-02 0.  1.
        2   -1    0    0  501    0  0.00000000000E+00  0.00000000000E+00 -0.19188532584E+04  0.19188532584E+04  0.25500000920E-02 0. -1.
    10030    2    1    2    0    0  0.00000000000E+00  0.00000000000E+00 -0.12071902912E+04  0.26305162256E+04  0.23371579352E+04 0.  0.
        5    1    3    3  502    0 -0.26597748869E+03 -0.92819666822E+03  0.13725102522E+03  0.97527073846E+03  0.46999998093E+01 0.  1.
       -5    1    3    3    0  502  0.26597748869E+03  0.92819666822E+03 -0.13444413164E+04  0.16552454871E+04  0.46999998093E+01 0. -1.
</event>
<event>
 5   0  0.5663790E-05  0.1634523E+04  0.7818609E-02  0.8799616E-01
        1   -1    0    0  501    0  0.00000000000E+00  0.00000000000E+00  0.61153580908E+03  0.61153580910E+03  0.50400001928E-02 0. -1.
       -1   -1    0    0    0  501  0.00000000000E+00  0.00000000000E+00 -0.10921948358E+04  0.10921948358E+04  0.50400001928E-02 0.  1.
    10030    2    1    2    0    0  0.00000000000E+00  0.00000000000E+00 -0.48065902669E+03  0.17037306449E+04  0.16345228693E+04 0.  0.
        3    1    3    3  502    0  0.13456181801E+03  0.22602218723E+03  0.56620512630E+03  0.62432456883E+03  0.10100000352E+00 0. -1.
       -3    1    3    3    0  502 -0.13456181801E+03 -0.22602218723E+03 -0.10468641530E+04  0.10794060761E+04  0.10100000352E+00 0.  1.
</event>
<event>
 5   0  0.1237296E-04  0.2335551E+04  0.7818609E-02  0.8464034E-01
        2   -1    0    0  501    0  0.00000000000E+00  0.00000000000E+00  0.14930974029E+04  0.14930974029E+04  0.25500000920E-02 0. -1.
       -2   -1    0    0    0  501  0.00000000000E+00  0.00000000000E+00 -0.91333570713E+03  0.91333570713E+03  0.25500000920E-02 0.  1.
    10030    2    1    2    0    0  0.00000000000E+00  0.00000000000E+00  0.57976169577E+03  0.24064331100E+04  0.23355506180E+04 0.  0.
        1    1    3    3  502    0  0.15217511293E+03  0.92535267402E+03 -0.42713004477E+03  0.10304731493E+04  0.50400001928E-02 0.  1.
       -1    1    3    3    0  502 -0.15217511293E+03 -0.92535267402E+03  0.10068917405E+04  0.13759599607E+04  0.50400001928E-02 0. -1.
</event>
<event>
 5   0  0.5663790E-05  0.2282402E+04  0.7818609E-02  0.8484892E-01
       -1   -1    0    0    0  501  0.00000000000E+00  0.00000000000E+00  0.13775528935E+04  0.13775528935E+04  0.50400001928E-02 0. -1.
        1   -1    0    0  501    0  0.00000000000E+00  0.00000000000E+00 -0.94540102733E+03  0.94540102734E+03  0.50400001928E-02 0.  1.
    10030    2    1    2    0    0  0.00000000000E+00  0.00000000000E+00  0.43215186619E+03  0.23229539209E+04  0.22824021738E+04 0.  0.
        3    1    3    3  502    0 -0.18057222091E+02 -0.40781425078E+02 -0.94451366659E+03  0.94556610793E+03  0.10100000352E+00 0.  1.
       -3    1    3    3    0  502  0.18057222091E+02  0.40781425078E+02  0.13766655328E+04  0.13773878129E+04  0.10100000352E+00 0. -1.
</event>
<event>
 5   0  0.1270613E-04  0.2277242E+04  0.7818609E-02  0.8486949E-01
       -2   -1    0    0    0  501  0.00000000000E+00  0.00000000000E+00  0.12557189208E+04  0.12557189208E+04  0.25500000920E-02 0. -1.
        2   -1    0    0  501    0  0.00000000000E+00  0.00000000000E+00 -0.10324423874E+04  0.10324423874E+04  0.25500000920E-02 0.  1.
    10030    2    1    2    0    0  0.00000000000E+00  0.00000000000E+00  0.22327653337E+03  0.22881613082E+04  0.22772417004E+04 0.  0.
        2    1    3    3  502    0  0.92973451118E+03  0.57407388311E+03 -0.21003799312E+03  0.11126918006E+04  0.25500000920E-02 0.  1.
       -2    1    3    3    0  502 -0.92973451118E+03 -0.57407388311E+03  0.43331452648E+03  0.11754695076E+04  0.25500000920E-02 0. -1.
</event>
<event>
 5   0  0.1257524E-04  0.2213454E+04  0.7818609E-02  0.8512849E-01
       -2   -1    0    0    0  501  0.00000000000E+00  0.00000000000E+00  0.64906696903E+03  0.64906696904E+03  0.25500000920E-02 0. -1.
        2   -1    0    0  501    0  0.00000000000E+00  0.00000000000E+00 -0.18870848251E+04  0.18870848251E+04  0.25500000920E-02 0.  1.
    10030    2    1    2    0    0  0.00000000000E+00  0.00000000000E+00 -0.12380178561E+04  0.25361517941E+04  0.22134537969E+04 0.  0.
        3    1    3    3  502    0  0.15581667811E+03  0.35064650086E+02  0.63579314217E+03  0.65554656333E+03  0.10100000352E+00 0. -1.
       -3    1    3    3    0  502 -0.15581667811E+03 -0.35064650086E+02 -0.18738109982E+04  0.18806052308E+04  0.10100000352E+00 0.  1.
</event>
<event>
 5   0  0.1237296E-04  0.2389330E+04  0.7818609E-02  0.8443509E-01
       -2   -1    0    0    0  501  0.00000000000E+00  0.00000000000E+00  0.59570098641E+03  0.59570098642E+03  0.25500000920E-02 0.  1.
        2   -1    0    0  501    0  0.00000000000E+00  0.00000000000E+00 -0.23958730225E+04  0.23958730225E+04  0.25500000920E-02 0. -1.
    10030    2    1    2    0    0  0.00000000000E+00  0.00000000000E+00 -0.18001720361E+04  0.29915740089E+04  0.23893295485E+04 0.  0.
        1    1    3    3  502    0  0.50189440386E+03  0.97344182026E+03 -0.14975895131E+04  0.18553332099E+04  0.50400001928E-02 0. -1.
       -1    1    3    3    0  502 -0.50189440386E+03 -0.97344182026E+03 -0.30258252299E+03  0.11362407990E+04  0.50400001928E-02 0.  1.
</event>
<event>
 5   0  0.1234988E-04  0.2237629E+04  0.7818609E-02  0.8502927E-01
        2   -1    0    0  501    0  0.00000000000E+00  0.00000000000E+00  0.13298164556E+04  0.13298164556E+04  0.25500000920E-02 0.  1.
       -2   -1    0    0    0  501  0.00000000000E+00  0.00000000000E+00 -0.94129193150E+03  0.94129193150E+03  0.25500000920E-02 0. -1.
    10030    2    1    2    0    0  0.00000000000E+00  0.00000000000E+00  0.38852452411E+03  0.22711083871E+04  0.22376286556E+04 0.  0.
        5    1    3    3  502    0 -0.86639990814E+03  0.30488863595E+03  0.84266146191E+03  0.12464775612E+04  0.46999998093E+01 0.  1.
       -5    1    3    3    0  502  0.86639990814E+03 -0.30488863595E+03 -0.45413693780E+03  0.10246308259E+04  0.46999998093E+01 0. -1.
</event>
<event>
 5   0  0.5632156E-05  0.2335651E+04  0.7818609E-02  0.8463996E-01
       -1   -1    0    0    0  501  0.00000000000E+00  0.00000000000E+00  0.19675764561E+04  0.19675764561E+04  0.50400001928E-02 0. -1.
        1   -1    0    0  501    0  0.00000000000E+00  0.00000000000E+00 -0.69314502758E+03  0.69314502759E+03  0.50400001928E-02 0.  1.
    10030    2    1    2    0    0  0.00000000000E+00  0.00000000000E+00  0.12744314285E+04  0.26607214837E+04  0.23356505192E+04 0.  0.
        4    1    3    3  502    0 -0.10344054644E+04 -0.18155498374E+03  0.55389757048E+02  0.10516779521E+04  0.12699999809E+01 0.  1.
       -4    1    3    3    0  502  0.10344054644E+04  0.18155498374E+03  0.12190416714E+04  0.16090435316E+04  0.12699999809E+01 0. -1.
</event>
<event>
 5   0  0.5924654E-05  0.2303393E+04  0.7818609E-02  0.8476585E-01
        1   -1    0    0  501    0  0.00000000000E+00  0.00000000000E+00  0.19613575420E+04  0.19613575421E+04  0.50400001928E-02 0. -1.
       -1   -1    0    0    0  501  0.00000000000E+00  0.00000000000E+00 -0.67626854150E+03  0.67626854152E+03  0.50400001928E-02 0.  1.
    10030    2    1    2    0    0  0.00000000000E+00  0.00000000000E+00  0.12850890005E+04  0.26376260836E+04  0.23033926321E+04 0.  0.
        5    1    3    3  502    0  0.94296588800E+03 -0.47660715781E+03  0.11673515212E+04  0.15745064982E+04  0.46999998093E+01 0. -1.
       -5    1    3    3    0  502 -0.94296588800E+03  0.47660715781E+03  0.11773747937E+03  0.10631195854E+04  0.46999998093E+01 0.  1.
</event>
<event>
 5   0  0.1281432E-04  0.2294573E+04  0.7818609E-02  0.8480064E-01
        2   -1    0    0  501    0  0.00000000000E+00  0.00000000000E+00  0.23170856678E+04  0.23170856678E+04  0.25500000920E-02 0.  1.
       -2   -1    0    0    0  501  0.00000000000E+00  0.00000000000E+00 -0.56806970144E+03  0.56806970145E+03  0.25500000920E-02 0. -1.
    10030    2    1    2    0    0  0.00000000000E+00  0.00000000000E+00  0.17490159664E+04  0.28851553693E+04  0.22945728697E+04 0.  0.
        4    1    3    3  502    0 -0.10639538374E+04 -0.42611174989E+03  0.80922623453E+03  0.14030031016E+04  0.12699999809E+01 0.  1.
       -4    1    3    3    0  502  0.10639538374E+04  0.42611174989E+03  0.93978973187E+03  0.14821522677E+04  0.12699999809E+01 0. -1.
</event>
<event>
 5   0  0.5632156E-05  0.1156351E+04  0.7818609E-02  0.9151944E-01
       -1   -1    0    0    0  501  0.00000000000E+00  0.00000000000E+00  0.65986187045E+03  0.65986187047E+03  0.50400001928E-02 0. -1.
        1   -1    0    0  501    0  0.00000000000E+00  0.00000000000E+00 -0.50660177956E+03  0.50660177958E+03  0.50400001928E-02 0.  1.
    10030    2    1    2    0    0  0.00000000000E+00  0.00000000000E+00  0.15326009089E+03  0.11664636501E+04  0.11563514999E+04 0.  0.
        4    1    3    3  502    0 -0.21795686037E+01  0.44137590680E+03 -0.30009010534E+03  0.53373507084E+03  0.12699999809E+01 0.  1.
       -4    1    3    3    0  502  0.21795686037E+01 -0.44137590680E+03  0.45335019623E+03  0.63272857921E+03  0.12699999809E+01 0. -1.
</event>
<event>
 5   0  0.5642466E-05  0.1773569E+04  0.7818609E-02  0.8720483E-01
       -1   -1    0    0    0  501  0.00000000000E+00  0.00000000000E+00  0.43629324341E+03  0.43629324344E+03  0.50400001928E-02 0. -1.
        1   -1    0    0  501    0  0.00000000000E+00  0.00000000000E+00 -0.18024268885E+04  0.18024268886E+04  0.50400001928E-02 0.  1.
    10030    2    1    2    0    0  0.00000000000E+00  0.00000000000E+00 -0.13661336451E+04  0.22387201320E+04  0.17735689141E+04 0.  0.
        1    1    3    3  502    0 -0.95631800470E+02  0.87798321671E+03 -0.58219030025E+03  0.10578022102E+04  0.50400001928E-02 0.  1.
       -1    1    3    3    0  502  0.95631800470E+02 -0.87798321671E+03 -0.78394334488E+03  0.11809179218E+04  0.50400001928E-02 0. -1.
</event>
<event>
 5   0  0.1237296E-04  0.2386875E+04  0.7818609E-02  0.8444434E-01
       -2   -1    0    0    0  501  0.00000000000E+00  0.00000000000E+00  0.18252713900E+04  0.18252713900E+04  0.25500000920E-02 0.  1.
        2   -1    0    0  501    0  0.00000000000E+00  0.00000000000E+00 -0.78031846724E+03  0.78031846724E+03  0.25500000920E-02 0. -1.
    10030    2    1    2    0    0  0.00000000000E+00  0.00000000000E+00  0.10449529228E+04  0.26055898572E+04  0.23868749220E+04 0.  0.
        1    1    3    3  502    0  0.74446093097E+03  0.95834838683E+02  0.15353363260E+04  0.17089950345E+04  0.50400001928E-02 0.  1.
       -1    1    3    3    0  502 -0.74446093097E+03 -0.95834838683E+02 -0.49038340319E+03  0.89659482276E+03  0.50400001928E-02 0. -1.
</event>
<event>
 5   0  0.5924654E-05  0.2246266E+04  0.7818609E-02  0.8499414E-01
       -1   -1    0    0    0  501  0.00000000000E+00  0.00000000000E+00  0.13202017545E+04  0.13202017545E+04  0.50400001928E-02 0. -1.
        1   -1    0    0  501    0  0.00000000000E+00  0.00000000000E+00 -0.95548114518E+03  0.95548114519E+03  0.50400001928E-02 0.  1.
    10030    2    1    2    0    0  0.00000000000E+00  0.00000000000E+00  0.36472060932E+03  0.22756828997E+04  0.22462661323E+04 0.  0.
        5    1    3    3  502    0 -0.11295265802E+03  0.80190910499E+03  0.97074761581E+03  0.12641952140E+04  0.46999998093E+01 0. -1.
       -5    1    3    3    0  502  0.11295265802E+03 -0.80190910499E+03 -0.60602700649E+03  0.10114876856E+04  0.46999998093E+01 0.  1.
</event>
<event>
 5   0  0.1281432E-04  0.2303885E+04  0.7818609E-02  0.8476391E-01
       -2   -1    0    0    0  501  0.00000000000E+00  0.00000000000E+00  0.80312295988E+03  0.80312295988E+03  0.25500000920E-02 0. -1.
        2   -1    0    0  501    0  0.00000000000E+00  0.00000000000E+00 -0.16522646961E+04  0.16522646961E+04  0.25500000920E-02 0.  1.
    10030    2    1    2    0    0  0.00000000000E+00  0.00000000000E+00 -0.84914173621E+03  0.24553876560E+04  0.23038851649E+04 0.  0.
        4    1    3    3  502    0  0.63209179251E+03  0.53350462835E+03  0.42990174200E+03  0.93219329718E+03  0.12699999809E+01 0.  1.
       -4    1    3    3    0  502 -0.63209179251E+03 -0.53350462835E+03 -0.12790434782E+04  0.15231943588E+04  0.12699999809E+01 0. -1.
</event>
<event>
 5   0  0.1237296E-04  0.2283643E+04  0.7818609E-02  0.8484399E-01
        2   -1    0    0  501    0  0.00000000000E+00  0.00000000000E+00  0.14654765606E+04  0.14654765606E+04  0.25500000920E-02 0. -1.
       -2   -1    0    0    0  501  0.00000000000E+00  0.00000000000E+00 -0.88964657289E+03  0.88964657289E+03  0.25500000920E-02 0.  1.
    10030    2    1    2    0    0  0.00000000000E+00  0.00000000000E+00  0.57582998768E+03  0.23551231335E+04  0.22836428791E+04 0.  0.
        1    1    3    3  502    0  0.57251795816E+03 -0.78436617188E+03 -0.33150904408E+03  0.10261117631E+04  0.50400001928E-02 0.  1.
       -1    1    3    3    0  502 -0.57251795816E+03  0.78436617188E+03  0.90733903176E+03  0.13290113704E+04  0.50400001928E-02 0. -1.
</event>
<event>
 5   0  0.1257524E-04  0.2239974E+04  0.7818609E-02  0.8501972E-01
       -2   -1    0    0    0  501  0.00000000000E+00  0.00000000000E+00  0.17514958137E+04  0.17514958137E+04  0.25500000920E-02 0.  1.
        2   -1    0    0  501    0  0.00000000000E+00  0.00000000000E+00 -0.71617090546E+03  0.71617090546E+03  0.25500000920E-02 0. -1.
    10030    2    1    2    0    0  0.00000000000E+00  0.00000000000E+00  0.10353249083E+04  0.24676667192E+04  0.22399735202E+04 0.  0.
        3    1    3    3  502    0  0.10955385502E+04 -0.18597059672E+03  0.67181692194E+03  0.12985098246E+04  0.10100000352E+00 0.  1.
       -3    1    3    3    0  502 -0.10955385502E+04  0.18597059672E+03  0.36350798631E+03  0.11691568946E+04  0.10100000352E+00 0. -1.
</event>
<event>
 5   0  0.1270613E-04  0.2306431E+04  0.7818609E-02  0.8475390E-01
        2   -1    0    0  501    0  0.00000000000E+00  0.00000000000E+00  0.18835290268E+04  0.18835290268E+04  0.25500000920E-02 0.  1.
       -2   -1    0    0    0  501  0.00000000000E+00  0.00000000000E+00 -0.70607126427E+03  0.70607126428E+03  0.25500000920E-02 0. -1.
    10030    2    1    2    0    0  0.00000000000E+00  0.00000000000E+00  0.11774577625E+04  0.25896002910E+04  0.23064307674E+04 0.  0.
        2    1    3    3  502    0 -0.74868153829E+03 -0.30809192404E+03 -0.33335567219E+03  0.87554022387E+03  0.25500000920E-02 0. -1.
       -2    1    3    3    0  502  0.74868153829E+03  0.30809192404E+03  0.15108134347E+04  0.17140600672E+04  0.25500000920E-02 0.  1.
</event>
<event>
 5   0  0.1237296E-04  0.2312092E+04  0.7818609E-02  0.8473169E-01
        2   -1    0    0  501    0  0.00000000000E+00  0.00000000000E+00  0.61977699909E+03  0.61977699910E+03  0.25500000920E-02 0.  1.
       -2   -1    0    0    0  501  0.00000000000E+00  0.00000000000E+00 -0.21563282163E+04  0.21563282163E+04  0.25500000920E-02 0. -1.
    10030    2    1    2    0    0  0.00000000000E+00  0.00000000000E+00 -0.15365512172E+04  0.27761052154E+04  0.23120922395E+04 0.  0.
        1    1    3    3  502    0 -0.55995102174E+02  0.10698359756E+03 -0.21487354396E+04  0.21521256774E+04  0.50400001928E-02 0. -1.
       -1    1    3    3    0  502  0.55995102174E+02 -0.10698359756E+03  0.61218422245E+03  0.62397953801E+03  0.50400001928E-02 0.  1.
</event>
<event>
 5   0  0.1257524E-04  0.2322947E+04  0.7818609E-02  0.8468928E-01
        2   -1    0    0  501    0  0.00000000000E+00  0.00000000000E+00  0.12037182138E+04  0.12037182138E+04  0.25500000920E-02 0.  1.
       -2   -1    0    0    0  501  0.00000000000E+00  0.00000000000E+00 -0.11207113170E+04  0.11207113170E+04  0.25500000920E-02 0. -1.
    10030    2    1    2    0    0  0.00000000000E+00  0.00000000000E+00  0.83006896833E+02  0.23244295308E+04  0.23229469427E+04 0.  0.
        3    1    3    3  502    0 -0.88704795753E+02 -0.11236034184E+04 -0.23915271264E+03  0.11521923506E+04  0.10100000352E+00 0. -1.
       -3    1    3    3    0  502  0.88704795753E+02  0.11236034184E+04  0.32215960948E+03  0.11722371802E+04  0.10100000352E+00 0.  1.
</event>
<event>
 5   0  0.1270613E-04  0.2288098E+04  0.7818609E-02  0.8482629E-01
       -2   -1    0    0    0  501  0.00000000000E+00  0.00000000000E+00  0.10958672996E+04  0.10958672996E+04  0.25500000920E-02 0.  1.
        2   -1    0    0  501    0  0.00000000000E+00  0.00000000000E+00 -0.11943493856E+04  0.11943493856E+04  0.25500000920E-02 0. -1.
    10030    2    1    2    0    0  0.00000000000E+00  0.00000000000E+00 -0.98482086018E+02  0.22902166852E+04  0.22880982811E+04 0.  0.
        2    1    3    3  502    0  0.19524964661E+03 -0.14565855336E+03  0.10696085227E+04  0.10969964588E+04  0.25500000920E-02 0.  1.
       -2    1    3    3    0  502 -0.19524964661E+03  0.14565855336E+03 -0.11680906087E+04  0.11932202265E+04  0.25500000920E-02 0. -1.
</event>
<event>
 5   0  0.5663790E-05  0.2278341E+04  0.7818609E-02  0.8486510E-01
       -1   -1    0    0    0  501  0.00000000000E+00  0.00000000000E+00  0.80962927089E+03  0.80962927090E+03  0.50400001928E-02 0.  1.
        1   -1    0    0  501    0  0.00000000000E+00  0.00000000000E+00 -0.16028439130E+04  0.16028439130E+04  0.50400001928E-02 0. -1.
    10030    2    1    2    0    0  0.00000000000E+00  0.00000000000E+00 -0.79321464215E+03  0.24124731839E+04  0.22783409303E+04 0.  0.
        3    1    3    3  502    0  0.93190877000E+03  0.30169297842E+03 -0.10124278545E+04  0.14087167137E+04  0.10100000352E+00 0. -1.
       -3    1    3    3    0  502 -0.93190877000E+03 -0.30169297842E+03  0.21921321232E+03  0.10037564702E+04  0.10100000352E+00 0.  1.
</event>
<event>
 5   0  0.5642466E-05  0.2317846E+04  0.7818609E-02  0.8470918E-01
       -1   -1    0    0    0  501  0.00000000000E+00  0.00000000000E+00  0.80938085745E+03  0.80938085746E+03  0.50400001928E-02 0.  1.
        1   -1    0    0  501    0  0.00000000000E+00  0.00000000000E+00 -0.16594198033E+04  0.16594198033E+04  0.50400001928E-02 0. -1.
    10030    2    1    2    0    0  0.00000000000E+00  0.00000000000E+00 -0.85003894585E+03  0.24688006608E+04  0.23178460892E+04 0.  0.
        1    1    3    3  502    0 -0.96353646902E+03 -0.40954175320E+03  0.10431295176E+03  0.10521445560E+04  0.50400001928E-02 0.  1.
       -1    1    3    3    0  502  0.96353646902E+03  0.40954175320E+03 -0.95435189761E+03  0.14166561048E+04  0.50400001928E-02 0. -1.
</event>
<event>
 5   0  0.1270613E-04  0.2426178E+04  0.7818609E-02  0.8429768E-01
        2   -1    0    0  501    0  0.00000000000E+00  0.00000000000E+00  0.94563653624E+03  0.94563653624E+03  0.25500000920E-02 0.  1.
       -2   -1    0    0    0  501  0.00000000000E+00  0.00000000000E+00 -0.15561839764E+04  0.15561839764E+04  0.25500000920E-02 0. -1.
    10030    2    1    2    0    0  0.00000000000E+00  0.00000000000E+00 -0.61054744013E+03  0.25018205126E+04  0.24261775905E+04 0.  0.
        2    1    3    3  502    0 -0.58245908892E+03  0.57853441414E+03 -0.12262164100E+04  0.14756582744E+04  0.25500000920E-02 0. -1.
       -2    1    3    3    0  502  0.58245908892E+03 -0.57853441414E+03  0.61566896989E+03  0.10261622382E+04  0.25500000920E-02 0.  1.
</event>
<event>
 5   0  0.1234988E-04  0.2298437E+04  0.7818609E-02  0.8478538E-01
        2   -1    0    0  501    0  0.00000000000E+00  0.00000000000E+00  0.25490904776E+04  0.25490904777E+04  0.25500000920E-02 0. -1.
       -2   -1    0    0    0  501  0.00000000000E+00  0.00000000000E+00 -0.51810771679E+03  0.51810771679E+03  0.25500000920E-02 0.  1.
    10030    2    1    2    0    0  0.00000000000E+00  0.00000000000E+00  0.20309827609E+04  0.30671981944E+04  0.22984372493E+04 0.  0.
        5    1    3    3  502    0 -0.99293880212E+03 -0.36894090255E+03  0.42073553533E+03  0.11397742474E+04  0.46999998093E+01 0.  1.
       -5    1    3    3    0  502  0.99293880212E+03  0.36894090255E+03  0.16102472255E+04  0.19274239470E+04  0.46999998093E+01 0. -1.
</event>
<event>
 5   0  0.1234988E-04  0.2249450E+04  0.7818609E-02  0.8498123E-01
        2   -1    0    0  501    0  0.00000000000E+00  0.00000000000E+00  0.13183126513E+04  0.13183126513E+04  0.25500000920E-02 0. -1.
       -2   -1    0    0    0  501  0.00000000000E+00  0.00000000000E+00 -0.95956471857E+03  0.95956471858E+03  0.25500000920E-02 0.  1.
    10030    2    1    2    0    0  0.00000000000E+00  0.00000000000E+00  0.35874793275E+03  0.22778773699E+04  0.22494499846E+04 0.  0.
        5    1    3    3  502    0 -0.14157629645E+03 -0.62977163005E+03  0.11120609504E+04  0.12858296159E+04  0.46999998093E+01 0. -1.
       -5    1    3    3    0  502  0.14157629645E+03  0.62977163005E+03 -0.75331301762E+03  0.99204775402E+03  0.46999998093E+01 0.  1.
</event>
<event>
 5   0  0.5632156E-05  0.2312697E+04  0.7818609E-02  0.8472932E-01
        1   -1    0    0  501    0  0.00000000000E+00  0.00000000000E+00  0.21108391386E+04  0.21108391386E+04  0.50400001928E-02 0.  1.
       -1   -1    0    0    0  501  0.00000000000E+00  0.00000000000E+00 -0.63346462454E+03  0.63346462456E+03  0.50400001928E-02 0. -1.
    10030    2    1    2    0    0  0.00000000000E+00  0.00000000000E+00  0.14773745141E+04  0.27443037632E+04  0.23126970597E+04 0.  0.
        4    1    3    3  502    0 -0.47239244401E+03  0.82074095913E+03 -0.48761458529E+02  0.94823501090E+03  0.12699999809E+01 0. -1.
       -4    1    3    3    0  502  0.47239244401E+03 -0.82074095913E+03  0.15261359726E+04  0.17960687523E+04  0.12699999809E+01 0.  1.
</event>
<event>
 5   0  0.5924654E-05  0.2217039E+04  0.7818609E-02  0.8511369E-01
        1   -1    0    0  501    0  0.00000000000E+00  0.00000000000E+00  0.13343232988E+04  0.13343232988E+04  0.50400001928E-02 0. -1.
       -1   -1    0    0    0  501  0.00000000000E+00  0.00000000000E+00 -0.92092814126E+03  0.92092814127E+03  0.50400001928E-02 0.  1.
    10030    2    1    2    0    0  0.00000000000E+00  0.00000000000E+00  0.41339515756E+03  0.22552514401E+04  0.22170393550E+04 0.  0.
        5    1    3    3  502    0 -0.96386568323E+02  0.40889064269E+03  0.12502008104E+04  0.13189033644E+04  0.46999998093E+01 0. -1.
       -5    1    3    3    0  502  0.96386568323E+02 -0.40889064269E+03 -0.83680565286E+03  0.93634807571E+03  0.46999998093E+01 0.  1.
</event>
<event>
 5   0  0.1237296E-04  0.2285182E+04  0.7818609E-02  0.8483787E-01
       -2   -1    0    0    0  501  0.00000000000E+00  0.00000000000E+00  0.27744676541E+04  0.27744676541E+04  0.25500000920E-02 0. -1.
        2   -1    0    0  501    0  0.00000000000E+00  0.00000000000E+00 -0.47054596504E+03  0.47054596504E+03  0.25500000920E-02 0.  1.
    10030    2    1    2    0    0  0.00000000000E+00  0.00000000000E+00  0.23039216891E+04  0.32450136192E+04  0.22851823208E+04 0.  0.
        1    1    3    3  502    0  0.30721181856E+02 -0.38979370288E+03  0.26765082613E+04  0.27049176318E+04  0.50400001928E-02 0. -1.
       -1    1    3    3    0  502 -0.30721181856E+02  0.38979370288E+03 -0.37258657220E+03  0.54009598742E+03  0.50400001928E-02 0.  1.
</event>
<event>
 5   0  0.1281432E-04  0.2354066E+04  0.7818609E-02  0.8456904E-01
        2   -1    0    0  501    0  0.00000000000E+00  0.00000000000E+00  0.14082050602E+04  0.14082050602E+04  0.25500000920E-02 0. -1.
       -2   -1    0    0    0  501  0.00000000000E+00  0.00000000000E+00 -0.98380998885E+03  0.98380998885E+03  0.25500000920E-02 0.  1.
    10030    2    1    2    0    0  0.00000000000E+00  0.00000000000E+00  0.42439507131E+03  0.23920150490E+04  0.23540655934E+04 0.  0.
        4    1    3    3  502    0  0.69770633649E+03 -0.92645121708E+03  0.41617882761E+03  0.12321982061E+04  0.12699999809E+01 0.  1.
       -4    1    3    3    0  502 -0.69770633649E+03  0.92645121708E+03  0.82162437034E+01  0.11598168429E+04  0.12699999809E+01 0. -1.
</event>
<event>
 5   0  0.1270613E-04  0.2299927E+04  0.7818609E-02  0.8477950E-01
       -2   -1    0    0    0  501  0.00000000000E+00  0.00000000000E+00  0.95839782605E+03  0.95839782605E+03  0.25500000920E-02 0. -1.
        2   -1    0    0  501    0  0.00000000000E+00  0.00000000000E+00 -0.13798192554E+04  0.13798192554E+04  0.25500000920E-02 0.  1.
    10030    2    1    2    0    0  0.00000000000E+00  0.00000000000E+00 -0.42142142932E+03  0.23382170814E+04  0.22999267594E+04 0.  0.
        2    1    3    3  502    0  0.51716425305E+03 -0.94289273946E+03  0.20339131151E+03  0.10944741241E+04  0.25500000920E-02 0. -1.
       -2    1    3    3    0  502 -0.51716425305E+03  0.94289273946E+03 -0.62481274083E+03  0.12437429573E+04  0.25500000920E-02 0.  1.
</event>
<event>
 5   0  0.1270613E-04  0.2413543E+04  0.7818609E-02  0.8434451E-01
       -2   -1    0    0    0  501  0.00000000000E+00  0.00000000000E+00  0.15143745293E+04  0.15143745293E+04  0.25500000920E-02 0.  1.
        2   -1    0    0  501    0  0.00000000000E+00  0.00000000000E+00 -0.96164960690E+03  0.96164960690E+03  0.25500000920E-02 0. -1.
    10030    2    1    2    0    0  0.00000000000E+00  0.00000000000E+00  0.55272492236E+03  0.24760241362E+04  0.24135431803E+04 0.  0.
        2    1    3    3  502    0 -0.85978350456E+03 -0.57054612711E+03  0.91829858236E+03  0.13813120011E+04  0.25500000920E-02 0.  1.
       -2    1    3    3    0  502  0.85978350456E+03  0.57054612711E+03 -0.36557366000E+03  0.10947121351E+04  0.25500000920E-02 0. -1.
</event>
<event>
 5   0  0.4489500E-05  0.2097646E+04  0.7818609E-02  0.8562281E-01
       -4   -1    0    0    0  501  0.00000000000E+00  0.00000000000E+00  0.12129852534E+04  0.12129859182E+04  0.12699999809E+01 0. -1.
        4   -1    0    0  501    0  0.00000000000E+00  0.00000000000E+00 -0.90687668041E+03  0.90687756967E+03  0.12699999809E+01 0.  1.
    10030    2    1    2    0    0  0.00000000000E+00  0.00000000000E+00  0.30610857297E+03  0.21198634879E+04  0.20976460018E+04 0.  0.
        4    1    3    3  502    0 -0.80972669161E+03 -0.60486208252E+03 -0.13011453425E+03  0.10190421281E+04  0.12699999809E+01 0. -1.
       -4    1    3    3    0  502  0.80972669161E+03  0.60486208252E+03  0.43622310722E+03  0.11008213598E+04  0.12699999809E+01 0.  1.
</event>
<event>
 5   0  0.5642466E-05  0.2266741E+04  0.7818609E-02  0.8491151E-01
       -1   -1    0    0    0  501  0.00000000000E+00  0.00000000000E+00  0.10023336871E+04  0.10023336871E+04  0.50400001928E-02 0. -1.
        1   -1    0    0  501    0  0.00000000000E+00  0.00000000000E+00 -0.12815383254E+04  0.12815383254E+04  0.50400001928E-02 0.  1.
    10030    2    1    2    0    0  0.00000000000E+00  0.00000000000E+00 -0.27920463833E+03  0.22838720124E+04  0.22667413040E+04 0.  0.
        1    1    3    3  502    0 -0.28046920563E+03  0.61948260757E+03  0.77395136199E+03  0.10302535548E+04  0.50400001928E-02 0. -1.
       -1    1    3    3    0  502  0.28046920563E+03 -0.61948260757E+03 -0.10531560003E+04  0.12536184577E+04  0.50400001928E-02 0.  1.
</event>
<event>
 5   0  0.1234988E-04  0.2484574E+04  0.7818609E-02  0.8408502E-01
        2   -1    0    0  501    0  0.00000000000E+00  0.00000000000E+00  0.15955159419E+04  0.15955159419E+04  0.25500000920E-02 0. -1.
       -2   -1    0    0    0  501  0.00000000000E+00  0.00000000000E+00 -0.96725859396E+03  0.96725859396E+03  0.25500000920E-02 0.  1.
    10030    2    1    2    0    0  0.00000000000E+00  0.00000000000E+00  0.62825734794E+03  0.25627745359E+04  0.24845736106E+04 0.  0.
        5    1    3    3  502    0  0.43306493475E+03 -0.77949758073E+03 -0.57801795859E+03  0.10626798984E+04  0.46999998093E+01 0.  1.
       -5    1    3    3    0  502 -0.43306493475E+03  0.77949758073E+03  0.12062753065E+04  0.15000946374E+04  0.46999998093E+01 0. -1.
</event>
<event>
 5   0  0.1237296E-04  0.1750632E+04  0.7818609E-02  0.8733002E-01
       -2   -1    0    0    0  501  0.00000000000E+00  0.00000000000E+00  0.54613464306E+03  0.54613464307E+03  0.25500000920E-02 0. -1.
        2   -1    0    0  501    0  0.00000000000E+00  0.00000000000E+00 -0.14029112501E+04  0.14029112501E+04  0.25500000920E-02 0.  1.
    10030    2    1    2    0    0  0.00000000000E+00  0.00000000000E+00 -0.85677660701E+03  0.19490458931E+04  0.17506323827E+04 0.  0.
        1    1    3    3  502    0  0.18556766691E+03  0.54307868332E+03  0.30743359325E+03  0.65106468923E+03  0.50400001928E-02 0. -1.
       -1    1    3    3    0  502 -0.18556766691E+03 -0.54307868332E+03 -0.11642102003E+04  0.12979812039E+04  0.50400001928E-02 0.  1.
</event>
<event>
 5   0  0.5632156E-05  0.2334257E+04  0.7818609E-02  0.8464535E-01
        1   -1    0    0  501    0  0.00000000000E+00  0.00000000000E+00  0.21788133280E+04  0.21788133280E+04  0.50400001928E-02 0. -1.
       -1   -1    0    0    0  501  0.00000000000E+00  0.00000000000E+00 -0.62519763683E+03  0.62519763685E+03  0.50400001928E-02 0.  1.
    10030    2    1    2    0    0  0.00000000000E+00  0.00000000000E+00  0.15536156912E+04  0.28040109649E+04  0.23342570071E+04 0.  0.
        4    1    3    3  502    0  0.10998082153E+04 -0.29993401532E+03  0.10774760049E+04  0.15685964038E+04  0.12699999809E+01 0. -1.
       -4    1    3    3    0  502 -0.10998082153E+04  0.29993401532E+03  0.47613968630E+03  0.12354145611E+04  0.12699999809E+01 0.  1.
</event>
<event>
 5   0  0.5663790E-05  0.2212840E+04  0.7818609E-02  0.8513103E-01
       -1   -1    0    0    0  501  0.00000000000E+00  0.00000000000E+00  0.78578084435E+03  0.78578084436E+03  0.50400001928E-02 0.  1.
        1   -1    0    0  501    0  0.00000000000E+00  0.00000000000E+00 -0.15578963113E+04  0.15578963113E+04  0.50400001928E-02 0. -1.
    10030    2    1    2    0    0  0.00000000000E+00  0.00000000000E+00 -0.77211546691E+03  0.23436771556E+04  0.22128398757E+04 0.  0.
        3    1    3    3  502    0 -0.30731986745E+03  0.40985955981E+03 -0.14247226033E+04  0.15140227430E+04  0.10100000352E+00 0. -1.
       -3    1    3    3    0  502  0.30731986745E+03 -0.40985955981E+03  0.65260713641E+03  0.82965441263E+03  0.10100000352E+00 0.  1.
</event>
<event>
 5   0  0.1234988E-04  0.2284076E+04  0.7818609E-02  0.8484226E-01
       -2   -1    0    0    0  501  0.00000000000E+00  0.00000000000E+00  0.13454961802E+04  0.13454961802E+04  0.25500000920E-02 0. -1.
        2   -1    0    0  501    0  0.00000000000E+00  0.00000000000E+00 -0.96934558439E+03  0.96934558440E+03  0.25500000920E-02 0.  1.
    10030    2    1    2    0    0  0.00000000000E+00  0.00000000000E+00  0.37615059584E+03  0.23148417646E+04  0.22840759892E+04 0.  0.
        5    1    3    3  502    0  0.82072029543E+03 -0.76234301956E+03  0.41351252976E+03  0.11940533426E+04  0.46999998093E+01 0.  1.
       -5    1    3    3    0  502 -0.82072029543E+03  0.76234301956E+03 -0.37361933918E+02  0.11207884220E+04  0.46999998093E+01 0. -1.
</event>
<event>
 5   0  0.1234988E-04  0.2256110E+04  0.7818609E-02  0.8495430E-01
       -2   -1    0    0    0  501  0.00000000000E+00  0.00000000000E+00  0.71914000468E+03  0.71914000468E+03  0.25500000920E-02 0. -1.
        2   -1    0    0  501    0  0.00000000000E+00  0.00000000000E+00 -0.17694859527E+04  0.17694859527E+04  0.25500000920E-02 0.  1.
    10030    2    1    2    0    0  0.00000000000E+00  0.00000000000E+00 -0.10503459480E+04  0.24886259574E+04  0.22561100472E+04 0.  0.
        5    1    3    3  502    0 -0.75244516944E+03 -0.56183212264E+03  0.16426808030E+03  0.95332846346E+03  0.46999998093E+01 0. -1.
       -5    1    3    3    0  502  0.75244516944E+03  0.56183212264E+03 -0.12146140283E+04  0.15352974939E+04  0.46999998093E+01 0.  1.
</event>
<event>
 5   0  0.1270613E-04  0.2358005E+04  0.7818609E-02  0.8455395E-01
        2   -1    0    0  501    0  0.00000000000E+00  0.00000000000E+00  0.11572007491E+04  0.11572007491E+04  0.25500000920E-02 0. -1.
       -2   -1    0    0    0  501  0.00000000000E+00  0.00000000000E+00 -0.12012152439E+04  0.12012152439E+04  0.25500000920E-02 0.  1.
    10030    2    1    2    0    0  0.00000000000E+00  0.00000000000E+00 -0.44014494846E+02  0.23584159930E+04  0.23580052418E+04 0.  0.
        2    1    3    3  502    0  0.59768561467E+03  0.85460708003E+03  0.52805748491E+03  0.11689422837E+04  0.25500000920E-02 0. -1.
       -2    1    3    3    0  502 -0.59768561467E+03 -0.85460708003E+03 -0.57207197975E+03  0.11894737094E+04  0.25500000920E-02 0.  1.
</event>
<event>
 5   0  0.1281432E-04  0.2153778E+04  0.7818609E-02  0.8537917E-01
        2   -1    0    0  501    0  0.00000000000E+00  0.00000000000E+00  0.63898376193E+03  0.63898376194E+03  0.25500000920E-02 0.  1.
       -2   -1    0    0    0  501  0.00000000000E+00  0.00000000000E+00 -0.18148976614E+04  0.18148976614E+04  0.25500000920E-02 0. -1.
    10030    2    1    2    0    0  0.00000000000E+00  0.00000000000E+00 -0.11759138995E+04  0.24538814234E+04  0.21537782014E+04 0.  0.
        4    1    3    3  502    0  0.66446470894E+03 -0.71887432092E+03 -0.76655749288E+02  0.98192227569E+03  0.12699999809E+01 0.  1.
       -4    1    3    3    0  502 -0.66446470894E+03  0.71887432092E+03 -0.10992581502E+04  0.14719591477E+04  0.12699999809E+01 0. -1.
</event>
<event>
 5   0  0.5642466E-05  0.2288455E+04  0.7818609E-02  0.8482487E-01
        1   -1    0    0  501    0  0.00000000000E+00  0.00000000000E+00  0.13482025179E+04  0.13482025179E+04  0.50400001928E-02 0.  1.
       -1   -1    0    0    0  501  0.00000000000E+00  0.00000000000E+00 -0.97111291711E+03  0.97111291712E+03  0.50400001928E-02 0. -1.
    10030    2    1    2    0    0  0.00000000000E+00  0.00000000000E+00  0.37708960075E+03  0.23193154350E+04  0.22884552694E+04 0.  0.
        1    1    3    3  502    0 -0.13985182463E+03  0.10446656962E+04 -0.26285098516E+03  0.10862668134E+04  0.50400001928E-02 0. -1.
       -1    1    3    3    0  502  0.13985182463E+03 -0.10446656962E+04  0.63994058591E+03  0.12330486215E+04  0.50400001928E-02 0.  1.
</event>
<event>
 5   0  0.5642466E-05  0.1693113E+04  0.7818609E-02  0.8765302E-01
       -1   -1    0    0    0  501  0.00000000000E+00  0.00000000000E+00  0.17654864169E+04  0.17654864169E+04  0.50400001928E-02 0.  1.
        1   -1    0    0  501    0  0.00000000000E+00  0.00000000000E+00 -0.40592651188E+03  0.40592651191E+03  0.50400001928E-02 0. -1.
    10030    2    1    2    0    0  0.00000000000E+00  0.00000000000E+00  0.13595599050E+04  0.21714129288E+04  0.16931128055E+04 0.  0.
        1    1    3    3  502    0 -0.38084825037E+03 -0.29474429614E+03  0.15726949692E+04  0.16447762936E+04  0.50400001928E-02 0.  1.
       -1    1    3    3    0  502  0.38084825037E+03  0.29474429614E+03 -0.21313506418E+03  0.52663663519E+03  0.50400001928E-02 0. -1.
</event>
<event>
 5   0  0.5663790E-05  0.2037821E+04  0.7818609E-02  0.8589139E-01
       -1   -1    0    0    0  501  0.00000000000E+00  0.00000000000E+00  0.76622591747E+03  0.76622591749E+03  0.50400001928E-02 0.  1.
        1   -1    0    0  501    0  0.00000000000E+00  0.00000000000E+00 -0.13549250587E+04  0.13549250587E+04  0.50400001928E-02 0. -1.
    10030    2    1    2    0    0  0.00000000000E+00  0.00000000000E+00 -0.58869914126E+03  0.21211509762E+04  0.20378210876E+04 0.  0.
        3    1    3    3  502    0  0.65005199585E+03 -0.18220339080E+03 -0.10887163329E+04  0.12810421291E+04  0.10100000352E+00 0. -1.
       -3    1    3    3    0  502 -0.65005199585E+03  0.18220339080E+03  0.50001719159E+03  0.84010884712E+03  0.10100000352E+00 0.  1.
</event>
<event>
 5   0  0.1237296E-04  0.2344888E+04  0.7818609E-02  0.8460430E-01
        2   -1    0    0  501    0  0.00000000000E+00  0.00000000000E+00  0.13703145527E+04  0.13703145527E+04  0.25500000920E-02 0. -1.
       -2   -1    0    0    0  501  0.00000000000E+00  0.00000000000E+00 -0.10031457670E+04  0.10031457670E+04  0.25500000920E-02 0.  1.
    10030    2    1    2    0    0  0.00000000000E+00  0.00000000000E+00  0.36716878573E+03  0.23734603196E+04  0.23448882642E+04 0.  0.
        1    1    3    3  502    0  0.77052723512E+03  0.82884064631E+03  0.49380906178E+03  0.12347211939E+04  0.50400001928E-02 0. -1.
       -1    1    3    3    0  502 -0.77052723512E+03 -0.82884064631E+03 -0.12664027605E+03  0.11387391258E+04  0.50400001928E-02 0.  1.
</event>
<event>
 5   0  0.4489500E-05  0.2303589E+04  0.7818609E-02  0.8476507E-01
        3   -1    0    0  501    0  0.00000000000E+00  0.00000000000E+00  0.11107819134E+04  0.11107819180E+04  0.10100000352E+00 0. -1.
       -3   -1    0    0    0  501  0.00000000000E+00  0.00000000000E+00 -0.11943212934E+04  0.11943212977E+04  0.10100000352E+00 0.  1.
    10030    2    1    2    0    0  0.00000000000E+00  0.00000000000E+00 -0.83539379980E+02  0.23051032157E+04  0.23035889405E+04 0.  0.
        1    1    3    3  502    0  0.20038998611E+03  0.32590593344E+03 -0.11288814075E+04  0.11919496870E+04  0.50400001928E-02 0.  1.
       -1    1    3    3    0  502 -0.20038998611E+03 -0.32590593344E+03  0.10453420275E+04  0.11131535287E+04  0.50400001928E-02 0. -1.
</event>
<event>
 5   0  0.1281432E-04  0.2336006E+04  0.7818609E-02  0.8463858E-01
       -2   -1    0    0    0  501  0.00000000000E+00  0.00000000000E+00  0.94840218751E+03  0.94840218752E+03  0.25500000920E-02 0.  1.
        2   -1    0    0  501    0  0.00000000000E+00  0.00000000000E+00 -0.14384525167E+04  0.14384525167E+04  0.25500000920E-02 0. -1.
    10030    2    1    2    0    0  0.00000000000E+00  0.00000000000E+00 -0.49005032919E+03  0.23868547042E+04  0.23360064328E+04 0.  0.
        4    1    3    3  502    0 -0.10127540675E+04  0.53913640186E+03 -0.21421415928E+02  0.11475187803E+04  0.12699999809E+01 0. -1.
       -4    1    3    3    0  502  0.10127540675E+04 -0.53913640186E+03 -0.46862891326E+03  0.12393359239E+04  0.12699999809E+01 0.  1.
</event>
<event>
 5   0  0.5632156E-05  0.2237782E+04  0.7818609E-02  0.8502865E-01
       -1   -1    0    0    0  501  0.00000000000E+00  0.00000000000E+00  0.21547907079E+04  0.21547907079E+04  0.50400001928E-02 0.  1.
        1   -1    0    0  501    0  0.00000000000E+00  0.00000000000E+00 -0.58099264765E+03  0.58099264768E+03  0.50400001928E-02 0. -1.
    10030    2    1    2    0    0  0.00000000000E+00  0.00000000000E+00  0.15737980602E+04  0.27357833556E+04  0.22377824367E+04 0.  0.
        4    1    3    3  502    0  0.57263105283E+03  0.84710733291E+03  0.23145736333E+03  0.10483660048E+04  0.12699999809E+01 0. -1.
       -4    1    3    3    0  502 -0.57263105283E+03 -0.84710733291E+03  0.13423406969E+04  0.16874173507E+04  0.12699999809E+01 0.  1.
</event>
<event>
 5   0  0.5924654E-05  0.1601547E+04  0.7818609E-02  0.8819598E-01
        1   -1    0    0  501    0  0.00000000000E+00  0.00000000000E+00  0.79821083834E+03  0.79821083835E+03  0.50400001928E-02 0. -1.
       -1   -1    0    0    0  501  0.00000000000E+00  0.00000000000E+00 -0.80334423659E+03  0.80334423661E+03  0.50400001928E-02 0.  1.
    10030    2    1    2    0    0  0.00000000000E+00  0.00000000000E+00 -0.51333982557E+01  0.16015550750E+04  0.16015468480E+04 0.  0.
        5    1    3    3  502    0  0.67222401401E+02  0.23121608494E+03  0.76113628597E+03  0.79832967188E+03  0.46999998093E+01 0. -1.
       -5    1    3    3    0  502 -0.67222401401E+02 -0.23121608494E+03 -0.76626968423E+03  0.80322540308E+03  0.46999998093E+01 0.  1.
</event>
<event>
 5   0  0.1237296E-04  0.2345977E+04  0.7818609E-02  0.8460010E-01
       -2   -1    0    0    0  501  0.00000000000E+00  0.00000000000E+00  0.69876955037E+03  0.69876955037E+03  0.25500000920E-02 0. -1.
        2   -1    0    0  501    0  0.00000000000E+00  0.00000000000E+00 -0.19690362338E+04  0.19690362338E+04  0.25500000920E-02 0.  1.
    10030    2    1    2    0    0  0.00000000000E+00  0.00000000000E+00 -0.12702666834E+04  0.26678057842E+04  0.23459774626E+04 0.  0.
        1    1    3    3  502    0  0.11213093486E+04 -0.23717682678E+03 -0.91900817192E+03  0.14690689305E+04  0.50400001928E-02 0.  1.
       -1    1    3    3    0  502 -0.11213093486E+04  0.23717682678E+03 -0.35125851150E+03  0.11987368537E+04  0.50400001928E-02 0. -1.
</event>
<event>
 5   0  0.5663790E-05  0.2161176E+04  0.7818609E-02  0.8534764E-01
        1   -1    0    0  501    0  0.00000000000E+00  0.00000000000E+00  0.11415009800E+04  0.11415009800E+04  0.50400001928E-02 0.  1.
       -1   -1    0    0    0  501  0.00000000000E+00  0.00000000000E+00 -0.10229252609E+04  0.10229252610E+04  0.50400001928E-02 0. -1.
    10030    2    1    2    0    0  0.00000000000E+00  0.00000000000E+00  0.11857571907E+03  0.21644262410E+04  0.21611757799E+04 0.  0.
        3    1    3    3  502    0 -0.72326050758E+03 -0.80077831879E+03  0.11698092436E+03  0.10853737718E+04  0.10100000352E+00 0.  1.
       -3    1    3    3    0  502  0.72326050758E+03  0.80077831879E+03  0.15947947157E+01  0.10790524692E+04  0.10100000352E+00 0. -1.
</event>
<event>
 5   0  0.1270613E-04  0.2332909E+04  0.7818609E-02  0.8465057E-01
       -2   -1    0    0    0  501  0.00000000000E+00  0.00000000000E+00  0.77305073309E+03  0.77305073310E+03  0.25500000920E-02 0. -1.
        2   -1    0    0  501    0  0.00000000000E+00  0.00000000000E+00 -0.17600609631E+04  0.17600609631E+04  0.25500000920E-02 0.  1.
    10030    2    1    2    0    0  0.00000000000E+00  0.00000000000E+00 -0.98701023001E+03  0.25331116962E+04  0.23329092720E+04 0.  0.
        2    1    3    3  502    0  0.54713235399E+02  0.96817991545E+03 -0.11974045659E+04  0.15408256168E+04  0.25500000920E-02 0.  1.
       -2    1    3    3    0  502 -0.54713235399E+02 -0.96817991545E+03  0.21039433593E+03  0.99228607942E+03  0.25500000920E-02 0. -1.
</event>
<event>
 5   0  0.1270613E-04  0.2311848E+04  0.7818609E-02  0.8473264E-01
        2   -1    0    0  501    0  0.00000000000E+00  0.00000000000E+00  0.10202377431E+04  0.10202377431E+04  0.25500000920E-02 0.  1.
       -2   -1    0    0    0  501  0.00000000000E+00  0.00000000000E+00 -0.13096563494E+04  0.13096563494E+04  0.25500000920E-02 0. -1.
    10030    2    1    2    0    0  0.00000000000E+00  0.00000000000E+00 -0.28941860636E+03  0.23298940925E+04  0.23118484709E+04 0.  0.
        2    1    3    3  502    0  0.63247477607E+03 -0.75682486435E+03  0.46278325685E+03  0.10894845389E+04  0.25500000920E-02 0.  1.
       -2    1    3    3    0  502 -0.63247477607E+03  0.75682486435E+03 -0.75220186321E+03  0.12404095536E+04  0.25500000920E-02 0. -1.
</event>
<event>
 5   0  0.1281432E-04  0.2183802E+04  0.7818609E-02  0.8525200E-01
       -2   -1    0    0    0  501  0.00000000000E+00  0.00000000000E+00  0.65097707283E+03  0.65097707283E+03  0.25500000920E-02 0.  1.
        2   -1    0    0  501    0  0.00000000000E+00  0.00000000000E+00 -0.18314751600E+04  0.18314751600E+04  0.25500000920E-02 0. -1.
    10030    2    1    2    0    0  0.00000000000E+00  0.00000000000E+00 -0.11804980871E+04  0.24824522328E+04  0.21838024989E+04 0.  0.
        4    1    3    3  502    0  0.65091612155E+03 -0.68460278222E+03  0.32247463124E+02  0.94520594502E+03  0.12699999809E+01 0.  1.
       -4    1    3    3    0  502 -0.65091612155E+03  0.68460278222E+03 -0.12127455503E+04  0.15372462878E+04  0.12699999809E+01 0. -1.
</event>
<event>
 5   0  0.1257524E-04  0.2348425E+04  0.7818609E-02  0.8459069E-01
       -2   -1    0    0    0  501  0.00000000000E+00  0.00000000000E+00  0.11564373784E+04  0.11564373784E+04  0.25500000920E-02 0. -1.
        2   -1    0    0  501    0  0.00000000000E+00  0.00000000000E+00 -0.11922604390E+04  0.11922604390E+04  0.25500000920E-02 0.  1.
    10030    2    1    2    0    0  0.00000000000E+00  0.00000000000E+00 -0.35823060598E+02  0.23486978175E+04  0.23484246094E+04 0.  0.
        3    1    3    3  502    0  0.33969747456E+03 -0.11190742076E+03 -0.11364587754E+04  0.11914093349E+04  0.10100000352E+00 0.  1.
       -3    1    3    3    0  502 -0.33969747456E+03  0.11190742076E+03  0.11006357148E+04  0.11572884826E+04  0.10100000352E+00 0. -1.
</event>
<event>
 5   0  0.1237296E-04  0.2180713E+04  0.7818609E-02  0.8526499E-01
        2   -1    0    0  501    0  0.00000000000E+00  0.00000000000E+00  0.11785685367E+04  0.11785685367E+04  0.25500000920E-02 0. -1.
       -2   -1    0    0    0  501  0.00000000000E+00  0.00000000000E+00 -0.10087469044E+04  0.10087469044E+04  0.25500000920E-02 0.  1.
    10030    2    1    2    0    0  0.00000000000E+00  0.00000000000E+00  0.16982163232E+03  0.21873154411E+04  0.21807130605E+04 0.  0.
        1    1    3    3  502    0  0.52140452533E+03 -0.42055422795E+03 -0.77801293226E+03  0.10266609277E+04  0.50400001928E-02 0.  1.
       -1    1    3    3    0  502 -0.52140452533E+03  0.42055422795E+03  0.94783456458E+03  0.11606545134E+04  0.50400001928E-02 0. -1.
</event>
<event>
 5   0  0.1234988E-04  0.2298278E+04  0.7818609E-02  0.8478600E-01
       -2   -1    0    0    0  501  0.00000000000E+00  0.00000000000E+00  0.65181865969E+03  0.65181865970E+03  0.25500000920E-02 0.  1.
        2   -1    0    0  501    0  0.00000000000E+00  0.00000000000E+00 -0.20259015295E+04  0.20259015295E+04  0.25500000920E-02 0. -1.
    10030    2    1    2    0    0  0.00000000000E+00  0.00000000000E+00 -0.13740828699E+04  0.26777201892E+04  0.22982779812E+04 0.  0.
        5    1    3    3  502    0  0.80654184865E+03 -0.14216205785E+03  0.25213094914E+03  0.85692001367E+03  0.46999998093E+01 0.  1.
       -5    1    3    3    0  502 -0.80654184865E+03  0.14216205785E+03 -0.16262138190E+04  0.18208001756E+04  0.46999998093E+01 0. -1.
</event>
<event>
 5   0  0.5632156E-05  0.2304015E+04  0.7818609E-02  0.8476340E-01
        1   -1    0    0  501    0  0.00000000000E+00  0.00000000000E+00  0.12607290439E+04  0.12607290439E+04  0.50400001928E-02 0. -1.
       -1   -1    0    0    0  501  0.00000000000E+00  0.00000000000E+00 -0.10526615904E+04  0.10526615904E+04  0.50400001928E-02 0.  1.
    10030    2    1    2    0    0  0.00000000000E+00  0.00000000000E+00  0.20806745351E+03  0.23133906343E+04  0.23040147920E+04 0.  0.
        4    1    3    3  502    0 -0.72829024512E+03 -0.34847354188E+03  0.92913130395E+03  0.12309049855E+04  0.12699999809E+01 0. -1.
       -4    1    3    3    0  502  0.72829024512E+03  0.34847354188E+03 -0.72106385045E+03  0.10824856488E+04  0.12699999809E+01 0.  1.
</event>
<event>
 5   0  0.5924654E-05  0.2283250E+04  0.7818609E-02  0.8484555E-01
       -1   -1    0    0    0  501  0.00000000000E+00  0.00000000000E+00  0.68881400616E+03  0.68881400617E+03  0.50400001928E-02 0.  1.
        1   -1    0    0  501    0  0.00000000000E+00  0.00000000000E+00 -0.18921042692E+04  0.18921042692E+04  0.50400001928E-02 0. -1.
    10030    2    1    2    0    0  0.00000000000E+00  0.00000000000E+00 -0.12032902630E+04  0.25809182754E+04  0.22832502463E+04 0.  0.
        5    1    3    3  502    0  0.71768503892E+03 -0.48305273331E+03  0.24036623877E+03  0.89789185150E+03  0.46999998093E+01 0.  1.
       -5    1    3    3    0  502 -0.71768503892E+03  0.48305273331E+03 -0.14436565018E+04  0.16830264239E+04  0.46999998093E+01 0. -1.
</event>
<event>
 5   0  0.1281432E-04  0.2116213E+04  0.7818609E-02  0.8554135E-01
       -2   -1    0    0    0  501  0.00000000000E+00  0.00000000000E+00  0.69942114982E+03  0.69942114983E+03  0.25500000920E-02 0.  1.
        2   -1    0    0  501    0  0.00000000000E+00  0.00000000000E+00 -0.16007372555E+04  0.16007372555E+04  0.25500000920E-02 0. -1.
    10030    2    1    2    0    0  0.00000000000E+00  0.00000000000E+00 -0.90131610570E+03  0.23001584054E+04  0.21162131195E+04 0.  0.
        4    1    3    3  502    0  0.86981860723E+03 -0.58608309348E+03 -0.29883845574E+03  0.10905887573E+04  0.12699999809E+01 0. -1.
       -4    1    3    3    0  502 -0.86981860723E+03  0.58608309348E+03 -0.60247764996E+03  0.12095696481E+04  0.12699999809E+01 0.  1.
</event>
<event>
 5   0  0.1270613E-04  0.2071187E+04  0.7818609E-02  0.8574043E-01
       -2   -1    0    0    0  501  0.00000000000E+00  0.00000000000E+00  0.86639955691E+03  0.86639955692E+03  0.25500000920E-02 0.  1.
        2   -1    0    0  501    0  0.00000000000E+00  0.00000000000E+00 -0.12378278516E+04  0.12378278516E+04  0.25500000920E-02 0. -1.
    10030    2    1    2    0    0  0.00000000000E+00  0.00000000000E+00 -0.37142829465E+03  0.21042274085E+04  0.20711866185E+04 0.  0.
        2    1    3    3  502    0 -0.11888731353E+03 -0.62350614620E+03 -0.10170337007E+04  0.11988543097E+04  0.25500000920E-02 0. -1.
       -2    1    3    3    0  502  0.11888731353E+03  0.62350614620E+03  0.64560540602E+03  0.90537309875E+03  0.25500000920E-02 0.  1.
</event>
<event>
 5   0  0.5924654E-05  0.2125207E+04  0.7818609E-02  0.8550220E-01
       -1   -1    0    0    0  501  0.00000000000E+00  0.00000000000E+00  0.60813786904E+03  0.60813786907E+03  0.50400001928E-02 0.  1.
        1   -1    0    0  501    0  0.00000000000E+00  0.00000000000E+00 -0.18566939578E+04  0.18566939578E+04  0.50400001928E-02 0. -1.
    10030    2    1    2    0    0  0.00000000000E+00  0.00000000000E+00 -0.12485560887E+04  0.24648318268E+04  0.21252067259E+04 0.  0.
        5    1    3    3  502    0 -0.50590243007E+03 -0.70128321847E+03  0.91961774017E+02  0.86960593325E+03  0.46999998093E+01 0.  1.
       -5    1    3    3    0  502  0.50590243007E+03  0.70128321847E+03 -0.13405178627E+04  0.15952258936E+04  0.46999998093E+01 0. -1.
</event>
<event>
 5   0  0.5843670E-05  0.2175630E+04  0.7818609E-02  0.8528641E-01
        1   -1    0    0  501    0  0.00000000000E+00  0.00000000000E+00  0.12587979897E+04  0.12587979898E+04  0.50400001928E-02 0. -1.
       -1   -1    0    0    0  501  0.00000000000E+00  0.00000000000E+00 -0.94005628277E+03  0.94005628279E+03  0.50400001928E-02 0.  1.
    10030    2    1    2    0    0  0.00000000000E+00  0.00000000000E+00  0.31874170697E+03  0.21988542725E+04  0.21756295264E+04 0.  0.
        2    1    3    3  502    0 -0.75647397920E+02  0.49258830866E+03 -0.81789234970E+03  0.95776493272E+03  0.25500000920E-02 0.  1.
       -2    1    3    3    0  502  0.75647397920E+02 -0.49258830866E+03  0.11366340567E+04  0.12410893398E+04  0.25500000920E-02 0. -1.
</event>
<event>
 5   0  0.1234988E-04  0.2289206E+04  0.7818609E-02  0.8482189E-01
        2   -1    0    0  501    0  0.00000000000E+00  0.00000000000E+00  0.88188969717E+03  0.88188969718E+03  0.25500000920E-02 0. -1.
       -2   -1    0    0    0  501  0.00000000000E+00  0.00000000000E+00 -0.14855777533E+04  0.14855777533E+04  0.25500000920E-02 0.  1.
    10030    2    1    2    0    0  0.00000000000E+00  0.00000000000E+00 -0.60368805611E+03  0.23674674505E+04  0.22892057269E+04 0.  0.
        5    1    3    3  502    0  0.44723059263E+03  0.87395848569E+03 -0.91041292724E+03  0.13389146447E+04  0.46999998093E+01 0.  1.
       -5    1    3    3    0  502 -0.44723059263E+03 -0.87395848569E+03  0.30672487113E+03  0.10285528058E+04  0.46999998093E+01 0. -1.
</event>
<event>
 5   0  0.5843670E-05  0.2324654E+04  0.7818609E-02  0.8468263E-01
        1   -1    0    0  501    0  0.00000000000E+00  0.00000000000E+00  0.14230551151E+04  0.14230551151E+04  0.50400001928E-02 0. -1.
       -1   -1    0    0    0  501  0.00000000000E+00  0.00000000000E+00 -0.94936853002E+03  0.94936853003E+03  0.50400001928E-02 0.  1.
    10030    2    1    2    0    0  0.00000000000E+00  0.00000000000E+00  0.47368658512E+03  0.23724236452E+04  0.23246537315E+04 0.  0.
        2    1    3    3  502    0  0.32987046186E+03 -0.77259945263E+03 -0.58295657010E+03  0.10225276517E+04  0.25500000920E-02 0.  1.
       -2    1    3    3    0  502 -0.32987046186E+03  0.77259945263E+03  0.10566431552E+04  0.13498959935E+04  0.25500000920E-02 0. -1.
</event>
<event>
 5   0  0.5663790E-05  0.1412680E+04  0.7818609E-02  0.8944691E-01
       -1   -1    0    0    0  501  0.00000000000E+00  0.00000000000E+00  0.33377070981E+03  0.33377070985E+03  0.50400001928E-02 0.  1.
        1   -1    0    0  501    0  0.00000000000E+00  0.00000000000E+00 -0.14947862338E+04  0.14947862338E+04  0.50400001928E-02 0. -1.
    10030    2    1    2    0    0  0.00000000000E+00  0.00000000000E+00 -0.11610155239E+04  0.18285569436E+04  0.14126795281E+04 0.  0.
        3    1    3    3  502    0  0.74995110477E+02 -0.54170297949E+03 -0.11591582656E+04  0.12816841575E+04  0.10100000352E+00 0. -1.
       -3    1    3    3    0  502 -0.74995110477E+02  0.54170297949E+03 -0.18572583121E+01  0.54687278612E+03  0.10100000352E+00 0.  1.
</event>
<event>
 5   0  0.5642466E-05  0.2293060E+04  0.7818609E-02  0.8480662E-01
        1   -1    0    0  501    0  0.00000000000E+00  0.00000000000E+00  0.84970740709E+03  0.84970740711E+03  0.50400001928E-02 0. -1.
       -1   -1    0    0    0  501  0.00000000000E+00  0.00000000000E+00 -0.15470401030E+04  0.15470401030E+04  0.50400001928E-02 0.  1.
    10030    2    1    2    0    0  0.00000000000E+00  0.00000000000E+00 -0.69733269594E+03  0.23967475101E+04  0.22930603434E+04 0.  0.
        1    1    3    3  502    0 -0.25245344969E+03 -0.60721405274E+03 -0.13303311004E+04  0.14839887084E+04  0.50400001928E-02 0.  1.
       -1    1    3    3    0  502  0.25245344969E+03  0.60721405274E+03  0.63299840442E+03  0.91275880173E+03  0.50400001928E-02 0. -1.
</event>
<event>
 5   0  0.1237296E-04  0.2230837E+04  0.7818609E-02  0.8505702E-01
        2   -1    0    0  501    0  0.00000000000E+00  0.00000000000E+00  0.27201076206E+04  0.27201076206E+04  0.25500000920E-02 0. -1.
       -2   -1    0    0    0  501  0.00000000000E+00  0.00000000000E+00 -0.45739319752E+03  0.45739319753E+03  0.25500000920E-02 0.  1.
    10030    2    1    2    0    0  0.00000000000E+00  0.00000000000E+00  0.22627144231E+04  0.31775008181E+04  0.22308372618E+04 0.  0.
        1    1    3    3  502    0 -0.53236729986E+01  0.10800145146E+04  0.73432515183E+03  0.13060218688E+04  0.50400001928E-02 0.  1.
       -1    1    3    3    0  502  0.53236729986E+01 -0.10800145146E+04  0.15283892712E+04  0.18714789493E+04  0.50400001928E-02 0. -1.
</event>
<event>
 5   0  0.4489500E-05  0.2288949E+04  0.7818609E-02  0.8482291E-01
       -3   -1    0    0    0  501  0.00000000000E+00  0.00000000000E+00  0.10517417836E+04  0.10517417885E+04  0.10100000352E+00 0.  1.
        3   -1    0    0  501    0  0.00000000000E+00  0.00000000000E+00 -0.12453835745E+04  0.12453835786E+04  0.10100000352E+00 0. -1.
    10030    2    1    2    0    0  0.00000000000E+00  0.00000000000E+00 -0.19364179088E+03  0.22971253671E+04  0.22889490621E+04 0.  0.
        3    1    3    3  502    0 -0.86894618509E+03  0.38050931591E+03 -0.73939480581E+03  0.12027300201E+04  0.10100000352E+00 0. -1.
       -3    1    3    3    0  502  0.86894618509E+03 -0.38050931591E+03  0.54575301493E+03  0.10943953470E+04  0.10100000352E+00 0.  1.
</event>
<event>
 5   0  0.1257524E-04  0.2330369E+04  0.7818609E-02  0.8466042E-01
        2   -1    0    0  501    0  0.00000000000E+00  0.00000000000E+00  0.27428642941E+04  0.27428642941E+04  0.25500000920E-02 0. -1.
       -2   -1    0    0    0  501  0.00000000000E+00  0.00000000000E+00 -0.49497702164E+03  0.49497702165E+03  0.25500000920E-02 0.  1.
    10030    2    1    2    0    0  0.00000000000E+00  0.00000000000E+00  0.22478872725E+04  0.32378413158E+04  0.23303688971E+04 0.  0.
        3    1    3    3  502    0 -0.50274076512E+03 -0.26181522306E+03 -0.29050134802E+03  0.63693526464E+03  0.10100000352E+00 0.  1.
       -3    1    3    3    0  502  0.50274076512E+03  0.26181522306E+03  0.25383886205E+04  0.26009060512E+04  0.10100000352E+00 0. -1.
</event>
<event>
 5   0  0.1234988E-04  0.2421909E+04  0.7818609E-02  0.8431346E-01
       -2   -1    0    0    0  501  0.00000000000E+00  0.00000000000E+00  0.14511486432E+04  0.14511486432E+04  0.25500000920E-02 0. -1.
        2   -1    0    0  501    0  0.00000000000E+00  0.00000000000E+00 -0.10105176294E+04  0.10105176294E+04  0.25500000920E-02 0.  1.
    10030    2    1    2    0    0  0.00000000000E+00  0.00000000000E+00  0.44063101385E+03  0.24616662726E+04  0.24219094011E+04 0.  0.
        5    1    3    3  502    0 -0.83283845008E+03 -0.20662171205E+03 -0.64815595228E+03  0.10753793025E+04  0.46999998093E+01 0.  1.
       -5    1    3    3    0  502  0.83283845008E+03  0.20662171205E+03  0.10887869661E+04  0.13862869701E+04  0.46999998093E+01 0. -1.
</event>
<event>
 5   0  0.1281432E-04  0.2301366E+04  0.7818609E-02  0.8477383E-01
       -2   -1    0    0    0  501  0.00000000000E+00  0.00000000000E+00  0.69770239757E+03  0.69770239758E+03  0.25500000920E-02 0. -1.
        2   -1    0    0  501    0  0.00000000000E+00  0.00000000000E+00 -0.18977591795E+04  0.18977591795E+04  0.25500000920E-02 0.  1.
    10030    2    1    2    0    0  0.00000000000E+00  0.00000000000E+00 -0.12000567820E+04  0.25954615771E+04  0.23013657941E+04 0.  0.
        4    1    3    3  502    0 -0.91868930846E+03  0.50445814642E+03 -0.64355222599E+02  0.10500529865E+04  0.12699999809E+01 0. -1.
       -4    1    3    3    0  502  0.91868930846E+03 -0.50445814642E+03 -0.11357015594E+04  0.15454085906E+04  0.12699999809E+01 0.  1.
</event>
<event>
 5   0  0.1237296E-04  0.2278337E+04  0.7818609E-02  0.8486512E-01
        2   -1    0    0  501    0  0.00000000000E+00  0.00000000000E+00  0.16585675548E+04  0.16585675548E+04  0.25500000920E-02 0. -1.
       -2   -1    0    0    0  501  0.00000000000E+00  0.00000000000E+00 -0.78242513346E+03  0.78242513346E+03  0.25500000920E-02 0.  1.
    10030    2    1    2    0    0  0.00000000000E+00  0.00000000000E+00  0.87614242130E+03  0.24409926882E+04  0.22783370606E+04 0.  0.
        1    1    3    3  502    0 -0.16180750009E+03 -0.37388716830E+03 -0.70170670098E+03  0.81139729845E+03  0.50400001928E-02 0.  1.
       -1    1    3    3    0  502  0.16180750009E+03  0.37388716830E+03  0.15778491223E+04  0.16295953898E+04  0.50400001928E-02 0. -1.
</event>
<event>
 5   0  0.5843670E-05  0.2295362E+04  0.7818609E-02  0.8479752E-01
        1   -1    0    0  501    0  0.00000000000E+00  0.00000000000E+00  0.82546055382E+03  0.82546055383E+03  0.50400001928E-02 0.  1.
       -1   -1    0    0    0  501  0.00000000000E+00  0.00000000000E+00 -0.15956814668E+04  0.15956814668E+04  0.50400001928E-02 0. -1.
    10030    2    1    2    0    0  0.00000000000E+00  0.00000000000E+00 -0.77022091300E+03  0.24211420207E+04  0.22953623743E+04 0.  0.
        2    1    3    3  502    0 -0.43257376378E+03 -0.63365430891E+03 -0.12854244443E+04  0.14969815785E+04  0.25500000920E-02 0. -1.
       -2    1    3    3    0  502  0.43257376378E+03  0.63365430891E+03  0.51520353126E+03  0.92416044221E+03  0.25500000920E-02 0.  1.
</event>
<event>
 5   0  0.5663790E-05  0.1223882E+04  0.7818609E-02  0.9092205E-01
        1   -1    0    0  501    0  0.00000000000E+00  0.00000000000E+00  0.14643727527E+04  0.14643727527E+04  0.50400001928E-02 0.  1.
       -1   -1    0    0    0  501  0.00000000000E+00  0.00000000000E+00 -0.25572175982E+03  0.25572175987E+03  0.50400001928E-02 0. -1.
    10030    2    1    2    0    0  0.00000000000E+00  0.00000000000E+00  0.12086509929E+04  0.17200945126E+04  0.12238823104E+04 0.  0.
        3    1    3    3  502    0 -0.45857277017E+03 -0.18308591616E+03  0.11123541204E+04  0.12170214204E+04  0.10100000352E+00 0.  1.
       -3    1    3    3    0  502  0.45857277017E+03  0.18308591616E+03  0.96296872434E+02  0.50307309218E+03  0.10100000352E+00 0. -1.
</event>
<event>
 5   0  0.1257524E-04  0.2040520E+04  0.7818609E-02  0.8587907E-01
        2   -1    0    0  501    0  0.00000000000E+00  0.00000000000E+00  0.75702019827E+03  0.75702019828E+03  0.25500000920E-02 0. -1.
       -2   -1    0    0    0  501  0.00000000000E+00  0.00000000000E+00 -0.13750360368E+04  0.13750360368E+04  0.25500000920E-02 0.  1.
    10030    2    1    2    0    0  0.00000000000E+00  0.00000000000E+00 -0.61801583852E+03  0.21320562351E+04  0.20405195938E+04 0.  0.
        3    1    3    3  502    0 -0.12319991790E+03 -0.31417187221E+03 -0.13150333600E+04  0.13576431538E+04  0.10100000352E+00 0.  1.
       -3    1    3    3    0  502  0.12319991790E+03  0.31417187221E+03  0.69701752144E+03  0.77441308127E+03  0.10100000352E+00 0. -1.
</event>
<event>
 5   0  0.1257524E-04  0.2233122E+04  0.7818609E-02  0.8504767E-01
        2   -1    0    0  501    0  0.00000000000E+00  0.00000000000E+00  0.11385232386E+04  0.11385232386E+04  0.25500000920E-02 0. -1.
       -2   -1    0    0    0  501  0.00000000000E+00  0.00000000000E+00 -0.10950225597E+04  0.10950225597E+04  0.25500000920E-02 0.  1.
    10030    2    1    2    0    0  0.00000000000E+00  0.00000000000E+00  0.43500678873E+02  0.22335457983E+04  0.22331221471E+04 0.  0.
        3    1    3    3  502    0 -0.13438422918E+02 -0.11091897647E+04  0.14915619736E+03  0.11192542637E+04  0.10100000352E+00 0.  1.
       -3    1    3    3    0  502  0.13438422918E+02  0.11091897647E+04 -0.10565551849E+03  0.11142915346E+04  0.10100000352E+00 0. -1.
</event>
<event>
 5   0  0.5843670E-05  0.2235219E+04  0.7818609E-02  0.8503911E-01
        1   -1    0    0  501    0  0.00000000000E+00  0.00000000000E+00  0.12568658998E+04  0.12568658998E+04  0.50400001928E-02 0.  1.
       -1   -1    0    0    0  501  0.00000000000E+00  0.00000000000E+00 -0.99378196864E+03  0.99378196865E+03  0.50400001928E-02 0. -1.
    10030    2    1    2    0    0  0.00000000000E+00  0.00000000000E+00  0.26308393117E+03  0.22506478685E+04  0.22352187081E+04 0.  0.
        2    1    3    3  502    0 -0.21512338407E+02  0.26817685634E+02  0.12563333302E+04  0.12568036464E+04  0.25500000920E-02 0.  1.
       -2    1    3    3    0  502  0.21512338407E+02 -0.26817685634E+02 -0.99324939907E+03  0.99384422206E+03  0.25500000920E-02 0. -1.
</event>
<event>
 5   0  0.5642466E-05  0.2355493E+04  0.7818609E-02  0.8456357E-01
       -1   -1    0    0    0  501  0.00000000000E+00  0.00000000000E+00  0.79796833811E+03  0.79796833813E+03  0.50400001928E-02 0. -1.
        1   -1    0    0  501    0  0.00000000000E+00  0.00000000000E+00 -0.17382732217E+04  0.17382732217E+04  0.50400001928E-02 0.  1.
    10030    2    1    2    0    0  0.00000000000E+00  0.00000000000E+00 -0.94030488356E+03  0.25362415598E+04  0.23554931491E+04 0.  0.
        1    1    3    3  502    0 -0.65180857003E+03  0.26970997898E+03  0.54534559194E+03  0.89162755643E+03  0.50400001928E-02 0. -1.
       -1    1    3    3    0  502  0.65180857003E+03 -0.26970997898E+03 -0.14856504755E+04  0.16446140034E+04  0.50400001928E-02 0.  1.
</event>
<event>
 5   0  0.1234988E-04  0.2260615E+04  0.7818609E-02  0.8493614E-01
        2   -1    0    0  501    0  0.00000000000E+00  0.00000000000E+00  0.12823582423E+04  0.12823582423E+04  0.25500000920E-02 0.  1.
       -2   -1    0    0    0  501  0.00000000000E+00  0.00000000000E+00 -0.99628524583E+03  0.99628524583E+03  0.25500000920E-02 0. -1.
    10030    2    1    2    0    0  0.00000000000E+00  0.00000000000E+00  0.28607299647E+03  0.22786434881E+04  0.22606146038E+04 0.  0.
        5    1    3    3  502    0 -0.53076634039E+03 -0.90116968822E+03 -0.28904614962E+03  0.10850757954E+04  0.46999998093E+01 0. -1.
       -5    1    3    3    0  502  0.53076634039E+03  0.90116968822E+03  0.57511914609E+03  0.11935676928E+04  0.46999998093E+01 0.  1.
</event>
<event>
 5   0  0.5632156E-05  0.2280982E+04  0.7818609E-02  0.8485458E-01
        1   -1    0    0  501    0  0.00000000000E+00  0.00000000000E+00  0.11157981593E+04  0.11157981593E+04  0.50400001928E-02 0. -1.
       -1   -1    0    0    0  501  0.00000000000E+00  0.00000000000E+00 -0.11657297985E+04  0.11657297985E+04  0.50400001928E-02 0.  1.
    10030    2    1    2    0    0  0.00000000000E+00  0.00000000000E+00 -0.49931639202E+02  0.22815279579E+04  0.22809815111E+04 0.  0.
        4    1    3    3  502    0  0.60010215036E+03  0.67564352086E+02 -0.99268404029E+03  0.11619426618E+04  0.12699999809E+01 0.  1.
       -4    1    3    3    0  502 -0.60010215036E+03 -0.67564352086E+02  0.94275240108E+03  0.11195852961E+04  0.12699999809E+01 0. -1.
</event>
<event>
 5   0  0.5642466E-05  0.1132899E+04  0.7818609E-02  0.9173706E-01
       -1   -1    0    0    0  501  0.00000000000E+00  0.00000000000E+00  0.10501124467E+04  0.10501124467E+04  0.50400001928E-02 0.  1.
        1   -1    0    0  501    0  0.00000000000E+00  0.00000000000E+00 -0.30555307244E+03  0.30555307248E+03  0.50400001928E-02 0. -1.
    10030    2    1    2    0    0  0.00000000000E+00  0.00000000000E+00  0.74455937425E+03  0.13556655192E+04  0.11328990856E+04 0.  0.
        1    1    3    3  502    0  0.33081370488E+02 -0.10454175200E+03  0.10372914262E+04  0.10430708787E+04  0.50400001928E-02 0.  1.
       -1    1    3    3    0  502 -0.33081370488E+02  0.10454175200E+03 -0.29273205198E+03  0.31259464050E+03  0.50400001928E-02 0. -1.
</event>
<event>
 5   0  0.1281432E-04  0.2319404E+04  0.7818609E-02  0.8470310E-01
       -2   -1    0    0    0  501  0.00000000000E+00  0.00000000000E+00  0.86938448706E+03  0.86938448706E+03  0.25500000920E-02 0. -1.
        2   -1    0    0  501    0  0.00000000000E+00  0.00000000000E+00 -0.15469663904E+04  0.15469663904E+04  0.25500000920E-02 0.  1.
    10030    2    1    2    0    0  0.00000000000E+00  0.00000000000E+00 -0.67758190330E+03  0.24163508774E+04  0.23194038732E+04 0.  0.
        4    1    3    3  502    0  0.14808381566E+03  0.89014027124E+02 -0.15334817583E+04  0.15431850924E+04  0.12699999809E+01 0.  1.
       -4    1    3    3    0  502 -0.14808381566E+03 -0.89014027124E+02  0.85589985498E+03  0.87316578503E+03  0.12699999809E+01 0. -1.
</event>
<event>
 5   0  0.5642466E-05  0.2407766E+04  0.7818609E-02  0.8436602E-01
       -1   -1    0    0    0  501  0.00000000000E+00  0.00000000000E+00  0.19883187680E+04  0.19883187680E+04  0.50400001928E-02 0. -1.
        1   -1    0    0  501    0  0.00000000000E+00  0.00000000000E+00 -0.72892449883E+03  0.72892449885E+03  0.50400001928E-02 0.  1.
    10030    2    1    2    0    0  0.00000000000E+00  0.00000000000E+00  0.12593942692E+04  0.27172432669E+04  0.24077659866E+04 0.  0.
        1    1    3    3  502    0  0.75548429525E+03 -0.74677466582E+03 -0.95999412192E+01  0.10623187284E+04  0.50400001928E-02 0.  1.
       -1    1    3    3    0  502 -0.75548429525E+03  0.74677466582E+03  0.12689942104E+04  0.16549245385E+04  0.50400001928E-02 0. -1.
</event>
<event>
 5   0  0.5642466E-05  0.2417892E+04  0.7818609E-02  0.8432835E-01
       -1   -1    0    0    0  501  0.00000000000E+00  0.00000000000E+00  0.10401071338E+04  0.10401071338E+04  0.50400001928E-02 0. -1.
        1   -1    0    0  501    0  0.00000000000E+00  0.00000000000E+00 -0.14051920974E+04  0.14051920974E+04  0.50400001928E-02 0.  1.
    10030    2    1    2    0    0  0.00000000000E+00  0.00000000000E+00 -0.36508496360E+03  0.24452992313E+04  0.24178919124E+04 0.  0.
        1    1    3    3  502    0  0.64172189385E+03  0.52998403431E+03 -0.10693284971E+04  0.13550474163E+04  0.50400001928E-02 0.  1.
       -1    1    3    3    0  502 -0.64172189385E+03 -0.52998403431E+03  0.70424353347E+03  0.10902518150E+04  0.50400001928E-02 0. -1.
</event>
<event>
 5   0  0.5642466E-05  0.2419043E+04  0.7818609E-02  0.8432409E-01
        1   -1    0    0  501    0  0.00000000000E+00  0.00000000000E+00  0.12274051254E+04  0.12274051254E+04  0.50400001928E-02 0. -1.
       -1   -1    0    0    0  501  0.00000000000E+00  0.00000000000E+00 -0.11918980047E+04  0.11918980047E+04  0.50400001928E-02 0.  1.
    10030    2    1    2    0    0  0.00000000000E+00  0.00000000000E+00  0.35507120711E+02  0.24193031301E+04  0.24190425543E+04 0.  0.
        1    1    3    3  502    0  0.15236230759E+03 -0.10398858322E+04  0.61645391313E+03  0.12184384448E+04  0.50400001928E-02 0. -1.
       -1    1    3    3    0  502 -0.15236230759E+03  0.10398858322E+04 -0.58094679242E+03  0.12008646853E+04  0.50400001928E-02 0.  1.
</event>
<event>
 5   0  0.5924654E-05  0.2312604E+04  0.7818609E-02  0.8472968E-01
       -1   -1    0    0    0  501  0.00000000000E+00  0.00000000000E+00  0.13967935034E+04  0.13967935034E+04  0.50400001928E-02 0. -1.
        1   -1    0    0  501    0  0.00000000000E+00  0.00000000000E+00 -0.95721701849E+03  0.95721701850E+03  0.50400001928E-02 0.  1.
    10030    2    1    2    0    0  0.00000000000E+00  0.00000000000E+00  0.43957648490E+03  0.23540105219E+04  0.23126041709E+04 0.  0.
        5    1    3    3  502    0 -0.40230005929E+03  0.13638152654E+03  0.13144817044E+04  0.13814229981E+04  0.46999998093E+01 0. -1.
       -5    1    3    3    0  502  0.40230005929E+03 -0.13638152654E+03 -0.87490521946E+03  0.97258752384E+03  0.46999998093E+01 0.  1.
</event>
<event>
 5   0  0.5924654E-05  0.2295895E+04  0.7818609E-02  0.8479541E-01
       -1   -1    0    0    0  501  0.00000000000E+00  0.00000000000E+00  0.64972913838E+03  0.64972913840E+03  0.50400001928E-02 0.  1.
        1   -1    0    0  501    0  0.00000000000E+00  0.00000000000E+00 -0.20282050336E+04  0.20282050336E+04  0.50400001928E-02 0. -1.
    10030    2    1    2    0    0  0.00000000000E+00  0.00000000000E+00 -0.13784758952E+04  0.26779341720E+04  0.22958953887E+04 0.  0.
        5    1    3    3  502    0 -0.80286411709E+03  0.19890259771E+03  0.23921178710E+03  0.86104436759E+03  0.46999998093E+01 0.  1.
       -5    1    3    3    0  502  0.80286411709E+03 -0.19890259771E+03 -0.16176876823E+04  0.18168898044E+04  0.46999998093E+01 0. -1.
</event>
<event>
 5   0  0.5843670E-05  0.1662000E+04  0.7818609E-02  0.8783339E-01
       -1   -1    0    0    0  501  0.00000000000E+00  0.00000000000E+00  0.42180043610E+03  0.42180043613E+03  0.50400001928E-02 0. -1.
        1   -1    0    0  501    0  0.00000000000E+00  0.00000000000E+00 -0.16371747147E+04  0.16371747148E+04  0.50400001928E-02 0.  1.
    10030    2    1    2    0    0  0.00000000000E+00  0.00000000000E+00 -0.12153742787E+04  0.20589751509E+04  0.16620000105E+04 0.  0.
        2    1    3    3  502    0 -0.43837853711E+02 -0.31102467388E+03  0.34542789098E+03  0.46688171206E+03  0.25500000920E-02 0. -1.
       -2    1    3    3    0  502  0.43837853711E+02  0.31102467388E+03 -0.15608021696E+04  0.15920934388E+04  0.25500000920E-02 0.  1.
</event>
<event>
 5   0  0.5843670E-05  0.2307618E+04  0.7818609E-02  0.8474923E-01
       -1   -1    0    0    0  501  0.00000000000E+00  0.00000000000E+00  0.60760353065E+03  0.60760353067E+03  0.50400001928E-02 0. -1.
        1   -1    0    0  501    0  0.00000000000E+00  0.00000000000E+00 -0.21910269891E+04  0.21910269891E+04  0.50400001928E-02 0.  1.
    10030    2    1    2    0    0  0.00000000000E+00  0.00000000000E+00 -0.15834234584E+04  0.27986305198E+04  0.23076184558E+04 0.  0.
        2    1    3    3  502    0  0.44300919957E+03  0.20000048822E+03  0.47737782157E+03  0.68128329697E+03  0.25500000920E-02 0. -1.
       -2    1    3    3    0  502 -0.44300919957E+03 -0.20000048822E+03 -0.20608012800E+04  0.21173472228E+04  0.25500000920E-02 0.  1.
</event>
<event>
 5   0  0.5843670E-05  0.2283403E+04  0.7818609E-02  0.8484494E-01
        1   -1    0    0  501    0  0.00000000000E+00  0.00000000000E+00  0.16187969106E+04  0.16187969106E+04  0.50400001928E-02 0. -1.
       -1   -1    0    0    0  501  0.00000000000E+00  0.00000000000E+00 -0.80521679726E+03  0.80521679728E+03  0.50400001928E-02 0.  1.
    10030    2    1    2    0    0  0.00000000000E+00  0.00000000000E+00  0.81358011333E+03  0.24240137079E+04  0.22834031302E+04 0.  0.
        2    1    3    3  502    0  0.10568846226E+04 -0.16327884949E+03  0.83117940660E+03  0.13544461208E+04  0.25500000920E-02 0. -1.
       -2    1    3    3    0  502 -0.10568846226E+04  0.16327884949E+03 -0.17599293274E+02  0.10695675871E+04  0.25500000920E-02 0.  1.
</event>
<event>
 5   0  0.1234988E-04  0.2186575E+04  0.7818609E-02  0.8524037E-01
        2   -1    0    0  501    0  0.00000000000E+00  0.00000000000E+00  0.49199890753E+03  0.49199890754E+03  0.25500000920E-02 0. -1.
       -2   -1    0    0    0  501  0.00000000000E+00  0.00000000000E+00 -0.24294313643E+04  0.24294313643E+04  0.25500000920E-02 0.  1.
    10030    2    1    2    0    0  0.00000000000E+00  0.00000000000E+00 -0.19374324568E+04  0.29214302719E+04  0.21865750179E+04 0.  0.
        5    1    3    3  502    0  0.15561474756E+03  0.24175703100E+03 -0.23780028188E+04  0.23953250109E+04  0.46999998093E+01 0.  1.
       -5    1    3    3    0  502 -0.15561474756E+03 -0.24175703100E+03  0.44057036202E+03  0.52610526094E+03  0.46999998093E+01 0. -1.
</event>
<event>
 5   0  0.5642466E-05  0.2307760E+04  0.7818609E-02  0.8474868E-01
        1   -1    0    0  501    0  0.00000000000E+00  0.00000000000E+00  0.13410671121E+04  0.13410671121E+04  0.50400001928E-02 0.  1.
       -1   -1    0    0    0  501  0.00000000000E+00  0.00000000000E+00 -0.99282039813E+03  0.99282039814E+03  0.50400001928E-02 0. -1.
    10030    2    1    2    0    0  0.00000000000E+00  0.00000000000E+00  0.34824671400E+03  0.23338875103E+04  0.23077597658E+04 0.  0.
        1    1    3    3  502    0  0.39569073031E+02 -0.98825514927E+03 -0.42693264244E+03  0.10772582944E+04  0.50400001928E-02 0. -1.
       -1    1    3    3    0  502 -0.39569073031E+02  0.98825514927E+03  0.77517935644E+03  0.12566292159E+04  0.50400001928E-02 0.  1.
</event>
<event>
 5   0  0.4489500E-05  0.2356827E+04  0.7818609E-02  0.8455846E-01
       -3   -1    0    0    0  501  0.00000000000E+00  0.00000000000E+00  0.78005686341E+03  0.78005686995E+03  0.10100000352E+00 0.  1.
        3   -1    0    0  501    0  0.00000000000E+00  0.00000000000E+00 -0.17802011656E+04  0.17802011685E+04  0.10100000352E+00 0. -1.
    10030    2    1    2    0    0  0.00000000000E+00  0.00000000000E+00 -0.10001443022E+04  0.25602580385E+04  0.23568268070E+04 0.  0.
        2    1    3    3  502    0 -0.77749245832E+03  0.23412826307E+03 -0.14278058736E+04  0.16425407694E+04  0.25500000920E-02 0. -1.
       -2    1    3    3    0  502  0.77749245832E+03 -0.23412826307E+03  0.42766157139E+03  0.91771726908E+03  0.25500000920E-02 0.  1.
</event>
<event>
 5   0  0.1257524E-04  0.2061264E+04  0.7818609E-02  0.8578501E-01
        2   -1    0    0  501    0  0.00000000000E+00  0.00000000000E+00  0.26980064893E+04  0.26980064893E+04  0.25500000920E-02 0.  1.
       -2   -1    0    0    0  501  0.00000000000E+00  0.00000000000E+00 -0.39369913750E+03  0.39369913751E+03  0.25500000920E-02 0. -1.
    10030    2    1    2    0    0  0.00000000000E+00  0.00000000000E+00  0.23043073518E+04  0.30917056268E+04  0.20612644933E+04 0.  0.
        3    1    3    3  502    0  0.10913503123E+03  0.45943605523E+03 -0.22188818925E+03  0.52175312420E+03  0.10100000352E+00 0. -1.
       -3    1    3    3    0  502 -0.10913503123E+03 -0.45943605523E+03  0.25261955410E+04  0.25699525026E+04  0.10100000352E+00 0.  1.
</event>
<event>
 5   0  0.5632156E-05  0.2296310E+04  0.7818609E-02  0.8479377E-01
        1   -1    0    0  501    0  0.00000000000E+00  0.00000000000E+00  0.16059985474E+04  0.16059985474E+04  0.50400001928E-02 0. -1.
       -1   -1    0    0    0  501  0.00000000000E+00  0.00000000000E+00 -0.82083522790E+03  0.82083522791E+03  0.50400001928E-02 0.  1.
    10030    2    1    2    0    0  0.00000000000E+00  0.00000000000E+00  0.78516331946E+03  0.24268337753E+04  0.22963102435E+04 0.  0.
        4    1    3    3  502    0  0.10380682344E+04  0.19712377058E+03 -0.82191685835E+02  0.10598115522E+04  0.12699999809E+01 0.  1.
       -4    1    3    3    0  502 -0.10380682344E+04 -0.19712377058E+03  0.86735500530E+03  0.13670222230E+04  0.12699999809E+01 0. -1.
</event>
<event>
 5   0  0.1281432E-04  0.2160349E+04  0.7818609E-02  0.8535115E-01
        2   -1    0    0  501    0  0.00000000000E+00  0.00000000000E+00  0.12475151533E+04  0.12475151533E+04  0.25500000920E-02 0. -1.
       -2   -1    0    0    0  501  0.00000000000E+00  0.00000000000E+00 -0.93528054201E+03  0.93528054201E+03  0.25500000920E-02 0.  1.
    10030    2    1    2    0    0  0.00000000000E+00  0.00000000000E+00  0.31223461130E+03  0.21827956953E+04  0.21603487207E+04 0.  0.
        4    1    3    3  502    0 -0.13255932442E+03 -0.13816109057E+03  0.12302315264E+04  0.12450428438E+04  0.12699999809E+01 0. -1.
       -4    1    3    3    0  502  0.13255932442E+03  0.13816109057E+03 -0.91799691512E+03  0.93775285151E+03  0.12699999809E+01 0.  1.
</event>
<event>
 5   0  0.1237296E-04  0.2300707E+04  0.7818609E-02  0.8477642E-01
        2   -1    0    0  501    0  0.00000000000E+00  0.00000000000E+00  0.16997433451E+04  0.16997433451E+04  0.25500000920E-02 0.  1.
       -2   -1    0    0    0  501  0.00000000000E+00  0.00000000000E+00 -0.77853738192E+03  0.77853738193E+03  0.25500000920E-02 0. -1.
    10030    2    1    2    0    0  0.00000000000E+00  0.00000000000E+00  0.92120596319E+03  0.24782807270E+04  0.23007074858E+04 0.  0.
        1    1    3    3  502    0  0.79278575952E+03  0.42043926825E+03  0.12359011698E+04  0.15273277777E+04  0.50400001928E-02 0.  1.
       -1    1    3    3    0  502 -0.79278575952E+03 -0.42043926825E+03 -0.31469520666E+03  0.95095294937E+03  0.50400001928E-02 0. -1.
</event>
<event>
 5   0  0.5663790E-05  0.2197274E+04  0.7818609E-02  0.8519563E-01
        1   -1    0    0  501    0  0.00000000000E+00  0.00000000000E+00  0.24904674133E+04  0.24904674133E+04  0.50400001928E-02 0. -1.
       -1   -1    0    0    0  501  0.00000000000E+00  0.00000000000E+00 -0.48464949612E+03  0.48464949615E+03  0.50400001928E-02 0.  1.
    10030    2    1    2    0    0  0.00000000000E+00  0.00000000000E+00  0.20058179172E+04  0.29751169094E+04  0.21972744726E+04 0.  0.
        3    1    3    3  502    0  0.46081068166E+03  0.67502762494E+03  0.88501237382E+01  0.81736596066E+03  0.10100000352E+00 0.  1.
       -3    1    3    3    0  502 -0.46081068166E+03 -0.67502762494E+03  0.19969677934E+04  0.21577509488E+04  0.10100000352E+00 0. -1.
</event>
<event>
 5   0  0.1257524E-04  0.1510309E+04  0.7818609E-02  0.8877626E-01
       -2   -1    0    0    0  501  0.00000000000E+00  0.00000000000E+00  0.84657422385E+03  0.84657422385E+03  0.25500000920E-02 0.  1.
        2   -1    0    0  501    0  0.00000000000E+00  0.00000000000E+00 -0.67360693533E+03  0.67360693534E+03  0.25500000920E-02 0. -1.
    10030    2    1    2    0    0  0.00000000000E+00  0.00000000000E+00  0.17296728851E+03  0.15201811592E+04  0.15103089332E+04 0.  0.
        3    1    3    3  502    0 -0.12147624324E+03 -0.26148872106E+03 -0.61602222220E+03  0.68015896476E+03  0.10100000352E+00 0. -1.
       -3    1    3    3    0  502  0.12147624324E+03  0.26148872106E+03  0.78898951071E+03  0.84002219442E+03  0.10100000352E+00 0.  1.
</event>
<event>
 5   0  0.5632156E-05  0.2085793E+04  0.7818609E-02  0.8567528E-01
        1   -1    0    0  501    0  0.00000000000E+00  0.00000000000E+00  0.15044113975E+04  0.15044113975E+04  0.50400001928E-02 0.  1.
       -1   -1    0    0    0  501  0.00000000000E+00  0.00000000000E+00 -0.72296222460E+03  0.72296222461E+03  0.50400001928E-02 0. -1.
    10030    2    1    2    0    0  0.00000000000E+00  0.00000000000E+00  0.78144917295E+03  0.22273736222E+04  0.20857925215E+04 0.  0.
        4    1    3    3  502    0  0.27787799164E+03 -0.57853105271E+03  0.12685421647E+04  0.14216593100E+04  0.12699999809E+01 0.  1.
       -4    1    3    3    0  502 -0.27787799164E+03  0.57853105271E+03 -0.48709299180E+03  0.80571431212E+03  0.12699999809E+01 0. -1.
</event>
<event>
 5   0  0.1270613E-04  0.2267492E+04  0.7818609E-02  0.8490850E-01
        2   -1    0    0  501    0  0.00000000000E+00  0.00000000000E+00  0.10195038497E+04  0.10195038497E+04  0.25500000920E-02 0. -1.
       -2   -1    0    0    0  501  0.00000000000E+00  0.00000000000E+00 -0.12607894990E+04  0.12607894991E+04  0.25500000920E-02 0.  1.
    10030    2    1    2    0    0  0.00000000000E+00  0.00000000000E+00 -0.24128564935E+03  0.22802933487E+04  0.22674917843E+04 0.  0.
        2    1    3    3  502    0 -0.91553375667E+03  0.32856482046E+03  0.46507379292E+03  0.10781699930E+04  0.25500000920E-02 0. -1.
       -2    1    3    3    0  502  0.91553375667E+03 -0.32856482046E+03 -0.70635944227E+03  0.12021233558E+04  0.25500000920E-02 0.  1.
</event>
<event>
 5   0  0.5632156E-05  0.2273687E+04  0.7818609E-02  0.8488369E-01
        1   -1    0    0  501    0  0.00000000000E+00  0.00000000000E+00  0.14279549283E+04  0.14279549283E+04  0.50400001928E-02 0. -1.
       -1   -1    0    0    0  501  0.00000000000E+00  0.00000000000E+00 -0.90507987099E+03  0.90507987100E+03  0.50400001928E-02 0.  1.
    10030    2    1    2    0    0  0.00000000000E+00  0.00000000000E+00  0.52287505732E+03  0.23330347993E+04  0.22736871045E+04 0.  0.
        4    1    3    3  502    0  0.38938600957E+03 -0.68056105960E+03  0.11061050872E+04  0.13558225906E+04  0.12699999809E+01 0. -1.
       -4    1    3    3    0  502 -0.38938600957E+03  0.68056105960E+03 -0.58323002987E+03  0.97721220875E+03  0.12699999809E+01 0.  1.
</event>
<event>
 5   0  0.5632156E-05  0.2336602E+04  0.7818609E-02  0.8463628E-01
       -1   -1    0    0    0  501  0.00000000000E+00  0.00000000000E+00  0.12714174811E+04  0.12714174811E+04  0.50400001928E-02 0.  1.
        1   -1    0    0  501    0  0.00000000000E+00  0.00000000000E+00 -0.10735475921E+04  0.10735475921E+04  0.50400001928E-02 0. -1.
    10030    2    1    2    0    0  0.00000000000E+00  0.00000000000E+00  0.19786988898E+03  0.23449650731E+04  0.23366019561E+04 0.  0.
        4    1    3    3  502    0 -0.91250341382E+03  0.65348577148E+03 -0.22660149735E+03  0.11450135306E+04  0.12699999809E+01 0. -1.
       -4    1    3    3    0  502  0.91250341382E+03 -0.65348577148E+03  0.42447138633E+03  0.11999515425E+04  0.12699999809E+01 0.  1.
</event>
<event>
 5   0  0.5843670E-05  0.1547793E+04  0.7818609E-02  0.8853278E-01
       -1   -1    0    0    0  501  0.00000000000E+00  0.00000000000E+00  0.40966102518E+03  0.40966102521E+03  0.50400001928E-02 0.  1.
        1   -1    0    0  501    0  0.00000000000E+00  0.00000000000E+00 -0.14619797997E+04  0.14619797997E+04  0.50400001928E-02 0. -1.
    10030    2    1    2    0    0  0.00000000000E+00  0.00000000000E+00 -0.10523187746E+04  0.18716408249E+04  0.15477934534E+04 0.  0.
        2    1    3    3  502    0 -0.24092455702E+03 -0.75909289443E+02 -0.14107264130E+04  0.14331628919E+04  0.25500000920E-02 0. -1.
       -2    1    3    3    0  502  0.24092455702E+03  0.75909289443E+02  0.35840763849E+03  0.43847793301E+03  0.25500000920E-02 0.  1.
</event>
<event>
 5   0  0.1270613E-04  0.2266915E+04  0.7818609E-02  0.8491081E-01
       -2   -1    0    0    0  501  0.00000000000E+00  0.00000000000E+00  0.83390248849E+03  0.83390248850E+03  0.25500000920E-02 0. -1.
        2   -1    0    0  501    0  0.00000000000E+00  0.00000000000E+00 -0.15406193141E+04  0.15406193141E+04  0.25500000920E-02 0.  1.
    10030    2    1    2    0    0  0.00000000000E+00  0.00000000000E+00 -0.70671682562E+03  0.23745218026E+04  0.22669153313E+04 0.  0.
        2    1    3    3  502    0 -0.93122782343E+03  0.33070826906E+03  0.22812616169E+03  0.10141966101E+04  0.25500000920E-02 0. -1.
       -2    1    3    3    0  502  0.93122782343E+03 -0.33070826906E+03 -0.93484298731E+03  0.13603251925E+04  0.25500000920E-02 0.  1.
</event>
<event>
 5   0  0.1237296E-04  0.2431215E+04  0.7818609E-02  0.8427909E-01
        2   -1    0    0  501    0  0.00000000000E+00  0.00000000000E+00  0.20821049353E+04  0.20821049353E+04  0.25500000920E-02 0.  1.
       -2   -1    0    0    0  501  0.00000000000E+00  0.00000000000E+00 -0.70971511803E+03  0.70971511803E+03  0.25500000920E-02 0. -1.
    10030    2    1    2    0    0  0.00000000000E+00  0.00000000000E+00  0.13723898173E+04  0.27918200534E+04  0.24312147992E+04 0.  0.
        1    1    3    3  502    0  0.72803739621E+03  0.95932936303E+03  0.87610294161E+03  0.14892641275E+04  0.50400001928E-02 0.  1.
       -1    1    3    3    0  502 -0.72803739621E+03 -0.95932936303E+03  0.49628687568E+03  0.13025559259E+04  0.50400001928E-02 0. -1.
</event>
<event>
 5   0  0.1234988E-04  0.2309314E+04  0.7818609E-02  0.8474258E-01
       -2   -1    0    0    0  501  0.00000000000E+00  0.00000000000E+00  0.94042232997E+03  0.94042232997E+03  0.25500000920E-02 0.  1.
        2   -1    0    0  501    0  0.00000000000E+00  0.00000000000E+00 -0.14176955113E+04  0.14176955113E+04  0.25500000920E-02 0. -1.
    10030    2    1    2    0    0  0.00000000000E+00  0.00000000000E+00 -0.47727318128E+03  0.23581178412E+04  0.23093137646E+04 0.  0.
        5    1    3    3  502    0  0.63368105550E+03 -0.63276945370E+03 -0.98291729213E+03  0.13296982194E+04  0.46999998093E+01 0. -1.
       -5    1    3    3    0  502 -0.63368105550E+03  0.63276945370E+03  0.50564411085E+03  0.10284196218E+04  0.46999998093E+01 0.  1.
</event>
<event>
 5   0  0.1237296E-04  0.2336382E+04  0.7818609E-02  0.8463713E-01
        2   -1    0    0  501    0  0.00000000000E+00  0.00000000000E+00  0.10380419616E+04  0.10380419617E+04  0.25500000920E-02 0.  1.
       -2   -1    0    0    0  501  0.00000000000E+00  0.00000000000E+00 -0.13146581374E+04  0.13146581374E+04  0.25500000920E-02 0. -1.
    10030    2    1    2    0    0  0.00000000000E+00  0.00000000000E+00 -0.27661617573E+03  0.23527000990E+04  0.23363820850E+04 0.  0.
        1    1    3    3  502    0  0.49384386959E+03  0.10381465435E+04 -0.34721862239E+03  0.12009124802E+04  0.50400001928E-02 0.  1.
       -1    1    3    3    0  502 -0.49384386959E+03 -0.10381465435E+04  0.70602446663E+02  0.11517876188E+04  0.50400001928E-02 0. -1.
</event>
<event>
 5   0  0.5642466E-05  0.2284608E+04  0.7818609E-02  0.8484015E-01
        1   -1    0    0  501    0  0.00000000000E+00  0.00000000000E+00  0.17254979081E+04  0.17254979081E+04  0.50400001928E-02 0. -1.
       -1   -1    0    0    0  501  0.00000000000E+00  0.00000000000E+00 -0.75622121797E+03  0.75622121799E+03  0.50400001928E-02 0.  1.
    10030    2    1    2    0    0  0.00000000000E+00  0.00000000000E+00  0.96927669017E+03  0.24817191261E+04  0.22846077385E+04 0.  0.
        1    1    3    3  502    0  0.62968096240E+03 -0.26425114210E+03 -0.51008116486E+03  0.85235531047E+03  0.50400001928E-02 0.  1.
       -1    1    3    3    0  502 -0.62968096240E+03  0.26425114210E+03  0.14793578550E+04  0.16293638157E+04  0.50400001928E-02 0. -1.
</event>
<event>
 5   0  0.1234988E-04  0.2341243E+04  0.7818609E-02  0.8461835E-01
        2   -1    0    0  501    0  0.00000000000E+00  0.00000000000E+00  0.14069043376E+04  0.14069043376E+04  0.25500000920E-02 0.  1.
       -2   -1    0    0    0  501  0.00000000000E+00  0.00000000000E+00 -0.97402145280E+03  0.97402145280E+03  0.25500000920E-02 0. -1.
    10030    2    1    2    0    0  0.00000000000E+00  0.00000000000E+00  0.43288288483E+03  0.23809257904E+04  0.23412432654E+04 0.  0.
        5    1    3    3  502    0 -0.22892547643E+03 -0.85710055937E+03 -0.56024736467E+03  0.10492508958E+04  0.46999998093E+01 0. -1.
       -5    1    3    3    0  502  0.22892547643E+03  0.85710055937E+03  0.99313024950E+03  0.13316748947E+04  0.46999998093E+01 0.  1.
</event>
<event>
 5   0  0.4489500E-05  0.2243707E+04  0.7818609E-02  0.8500453E-01
       -3   -1    0    0    0  501  0.00000000000E+00  0.00000000000E+00  0.17504806188E+04  0.17504806217E+04  0.10100000352E+00 0. -1.
        3   -1    0    0  501    0  0.00000000000E+00  0.00000000000E+00 -0.71897686862E+03  0.71897687572E+03  0.10100000352E+00 0.  1.
    10030    2    1    2    0    0  0.00000000000E+00  0.00000000000E+00  0.10315037502E+04  0.24694574974E+04  0.22437068313E+04 0.  0.
        4    1    3    3  502    0 -0.64612516020E+03  0.37439038979E+03 -0.40568550424E+03  0.84984011900E+03  0.12699999809E+01 0.  1.
       -4    1    3    3    0  502  0.64612516020E+03 -0.37439038979E+03  0.14371892544E+04  0.16196173784E+04  0.12699999809E+01 0. -1.
</event>
<event>
 5   0  0.1281432E-04  0.2264598E+04  0.7818609E-02  0.8492012E-01
       -2   -1    0    0    0  501  0.00000000000E+00  0.00000000000E+00  0.14518035161E+04  0.14518035161E+04  0.25500000920E-02 0. -1.
        2   -1    0    0  501    0  0.00000000000E+00  0.00000000000E+00 -0.88310957233E+03  0.88310957233E+03  0.25500000920E-02 0.  1.
    10030    2    1    2    0    0  0.00000000000E+00  0.00000000000E+00  0.56869394379E+03  0.23349130885E+04  0.22645984918E+04 0.  0.
        4    1    3    3  502    0 -0.60961325221E+03 -0.89177348808E+03 -0.65620592134E+02  0.10822180678E+04  0.12699999809E+01 0.  1.
       -4    1    3    3    0  502  0.60961325221E+03  0.89177348808E+03  0.63431453593E+03  0.12526950206E+04  0.12699999809E+01 0. -1.
</event>
<event>
 5   0  0.1281432E-04  0.2519431E+04  0.7818609E-02  0.8396096E-01
       -2   -1    0    0    0  501  0.00000000000E+00  0.00000000000E+00  0.83309230471E+03  0.83309230471E+03  0.25500000920E-02 0.  1.
        2   -1    0    0  501    0  0.00000000000E+00  0.00000000000E+00 -0.19048101663E+04  0.19048101663E+04  0.25500000920E-02 0. -1.
    10030    2    1    2    0    0  0.00000000000E+00  0.00000000000E+00 -0.10717178616E+04  0.27379024710E+04  0.25194306432E+04 0.  0.
        4    1    3    3  502    0 -0.11891215167E+04  0.35051772889E+03 -0.29284166639E+03  0.12738251506E+04  0.12699999809E+01 0.  1.
       -4    1    3    3    0  502  0.11891215167E+04 -0.35051772889E+03 -0.77887619519E+03  0.14640773204E+04  0.12699999809E+01 0. -1.
</event>
<event>
 5   0  0.5843670E-05  0.2292813E+04  0.7818609E-02  0.8480760E-01
       -1   -1    0    0    0  501  0.00000000000E+00  0.00000000000E+00  0.63409461783E+03  0.63409461785E+03  0.50400001928E-02 0. -1.
        1   -1    0    0  501    0  0.00000000000E+00  0.00000000000E+00 -0.20726366887E+04  0.20726366887E+04  0.50400001928E-02 0.  1.
    10030    2    1    2    0    0  0.00000000000E+00  0.00000000000E+00 -0.14385420708E+04  0.27067313065E+04  0.22928129178E+04 0.  0.
        2    1    3    3  502    0  0.46711511065E+03 -0.93287956355E+03 -0.15831870503E+03  0.10552372335E+04  0.25500000920E-02 0. -1.
       -2    1    3    3    0  502 -0.46711511065E+03  0.93287956355E+03 -0.12802233658E+04  0.16514940730E+04  0.25500000920E-02 0.  1.
</event>
<event>
 5   0  0.5642466E-05  0.2248222E+04  0.7818609E-02  0.8498621E-01
       -1   -1    0    0    0  501  0.00000000000E+00  0.00000000000E+00  0.62359709113E+03  0.62359709115E+03  0.50400001928E-02 0.  1.
        1   -1    0    0  501    0  0.00000000000E+00  0.00000000000E+00 -0.20263487559E+04  0.20263487559E+04  0.50400001928E-02 0. -1.
    10030    2    1    2    0    0  0.00000000000E+00  0.00000000000E+00 -0.14027516648E+04  0.26499458470E+04  0.22482216882E+04 0.  0.
        1    1    3    3  502    0 -0.10699007411E+04 -0.29631483350E+03 -0.49339510499E+03  0.12148781033E+04  0.50400001928E-02 0.  1.
       -1    1    3    3    0  502  0.10699007411E+04  0.29631483350E+03 -0.90935655976E+03  0.14350677437E+04  0.50400001928E-02 0. -1.
</event>
<event>
 5   0  0.5924654E-05  0.2193427E+04  0.7818609E-02  0.8521169E-01
        1   -1    0    0  501    0  0.00000000000E+00  0.00000000000E+00  0.99964088402E+03  0.99964088403E+03  0.50400001928E-02 0.  1.
       -1   -1    0    0    0  501  0.00000000000E+00  0.00000000000E+00 -0.12032123820E+04  0.12032123820E+04  0.50400001928E-02 0. -1.
    10030    2    1    2    0    0  0.00000000000E+00  0.00000000000E+00 -0.20357149798E+03  0.22028532660E+04  0.21934268068E+04 0.  0.
        5    1    3    3  502    0 -0.52301312581E+03 -0.84438997579E+03 -0.56877985220E+03  0.11445827935E+04  0.46999998093E+01 0.  1.
       -5    1    3    3    0  502  0.52301312581E+03  0.84438997579E+03  0.36520835422E+03  0.10582704725E+04  0.46999998093E+01 0. -1.
</event>
<event>
 5   0  0.1281432E-04  0.2285543E+04  0.7818609E-02  0.8483643E-01
       -2   -1    0    0    0  501  0.00000000000E+00  0.00000000000E+00  0.67478518818E+03  0.67478518818E+03  0.25500000920E-02 0. -1.
        2   -1    0    0  501    0  0.00000000000E+00  0.00000000000E+00 -0.19353225989E+04  0.19353225989E+04  0.25500000920E-02 0.  1.
    10030    2    1    2    0    0  0.00000000000E+00  0.00000000000E+00 -0.12605374107E+04  0.26101077871E+04  0.22855432825E+04 0.  0.
        4    1    3    3  502    0  0.22297028598E+03 -0.61367753864E+03  0.44079168333E+03  0.78779108326E+03  0.12699999809E+01 0. -1.
       -4    1    3    3    0  502 -0.22297028598E+03  0.61367753864E+03 -0.17013290940E+04  0.18223167038E+04  0.12699999809E+01 0.  1.
</event>
<event>
 5   0  0.1234988E-04  0.2346611E+04  0.7818609E-02  0.8459766E-01
        2   -1    0    0  501    0  0.00000000000E+00  0.00000000000E+00  0.12016284503E+04  0.12016284503E+04  0.25500000920E-02 0. -1.
       -2   -1    0    0    0  501  0.00000000000E+00  0.00000000000E+00 -0.11456502726E+04  0.11456502726E+04  0.25500000920E-02 0.  1.
    10030    2    1    2    0    0  0.00000000000E+00  0.00000000000E+00  0.55978177746E+02  0.23472787229E+04  0.23466111409E+04 0.  0.
        5    1    3    3  502    0 -0.10299848381E+04  0.33255537537E+02 -0.53310647096E+03  0.11602582889E+04  0.46999998093E+01 0.  1.
       -5    1    3    3    0  502  0.10299848381E+04 -0.33255537537E+02  0.58908464870E+03  0.11870204340E+04  0.46999998093E+01 0. -1.
</event>
<event>
 5   0  0.1237296E-04  0.1345924E+04  0.7818609E-02  0.8993919E-01
       -2   -1    0    0    0  501  0.00000000000E+00  0.00000000000E+00  0.58321605995E+03  0.58321605995E+03  0.25500000920E-02 0. -1.
        2   -1    0    0  501    0  0.00000000000E+00  0.00000000000E+00 -0.77651842717E+03  0.77651842718E+03  0.25500000920E-02 0.  1.
    10030    2    1    2    0    0  0.00000000000E+00  0.00000000000E+00 -0.19330236723E+03  0.13597344871E+04  0.13459242439E+04 0.  0.
        1    1    3    3  502    0 -0.12340975654E+03 -0.34290773862E+03 -0.66819664387E+03  0.76111920230E+03  0.50400001928E-02 0.  1.
       -1    1    3    3    0  502  0.12340975654E+03  0.34290773862E+03  0.47489427664E+03  0.59861528482E+03  0.50400001928E-02 0. -1.
</event>
<event>
 5   0  0.1237296E-04  0.2202230E+04  0.7818609E-02  0.8517500E-01
       -2   -1    0    0    0  501  0.00000000000E+00  0.00000000000E+00  0.16603166018E+04  0.16603166018E+04  0.25500000920E-02 0.  1.
        2   -1    0    0  501    0  0.00000000000E+00  0.00000000000E+00 -0.73025489904E+03  0.73025489904E+03  0.25500000920E-02 0. -1.
    10030    2    1    2    0    0  0.00000000000E+00  0.00000000000E+00  0.93006170273E+03  0.23905715008E+04  0.22022300810E+04 0.  0.
        1    1    3    3  502    0  0.99963294593E+03 -0.31516715866E+03  0.98744478739E+02  0.10527805263E+04  0.50400001928E-02 0. -1.
       -1    1    3    3    0  502 -0.99963294593E+03  0.31516715866E+03  0.83131722400E+03  0.13377909745E+04  0.50400001928E-02 0.  1.
</event>
<event>
 5   0  0.5924654E-05  0.2240285E+04  0.7818609E-02  0.8501845E-01
       -1   -1    0    0    0  501  0.00000000000E+00  0.00000000000E+00  0.80793502220E+03  0.80793502221E+03  0.50400001928E-02 0.  1.
        1   -1    0    0  501    0  0.00000000000E+00  0.00000000000E+00 -0.15529952723E+04  0.15529952724E+04  0.50400001928E-02 0. -1.
    10030    2    1    2    0    0  0.00000000000E+00  0.00000000000E+00 -0.74506025015E+03  0.23609302946E+04  0.22402850442E+04 0.  0.
        5    1    3    3  502    0  0.52582585910E+03 -0.36892977991E+03  0.59454557709E+03  0.87527627058E+03  0.46999998093E+01 0.  1.
       -5    1    3    3    0  502 -0.52582585910E+03  0.36892977991E+03 -0.13396058272E+04  0.14856540240E+04  0.46999998093E+01 0. -1.
</event>
<event>
 5   0  0.5924654E-05  0.2303345E+04  0.7818609E-02  0.8476603E-01
       -1   -1    0    0    0  501  0.00000000000E+00  0.00000000000E+00  0.85183416395E+03  0.85183416396E+03  0.50400001928E-02 0.  1.
        1   -1    0    0  501    0  0.00000000000E+00  0.00000000000E+00 -0.15570519484E+04  0.15570519484E+04  0.50400001928E-02 0. -1.
    10030    2    1    2    0    0  0.00000000000E+00  0.00000000000E+00 -0.70521778441E+03  0.24088861123E+04  0.23033454319E+04 0.  0.
        5    1    3    3  502    0  0.27011234699E+03 -0.33728882205E+03 -0.14690455450E+04  0.15312874755E+04  0.46999998093E+01 0. -1.
       -5    1    3    3    0  502 -0.27011234699E+03  0.33728882205E+03  0.76382776058E+03  0.87759863680E+03  0.46999998093E+01 0.  1.
</event>
<event>
 5   0  0.1281432E-04  0.2349531E+04  0.7818609E-02  0.8458644E-01
        2   -1    0    0  501    0  0.00000000000E+00  0.00000000000E+00  0.14984244784E+04  0.14984244784E+04  0.25500000920E-02 0.  1.
       -2   -1    0    0    0  501  0.00000000000E+00  0.00000000000E+00 -0.92101673768E+03  0.92101673768E+03  0.25500000920E-02 0. -1.
    10030    2    1    2    0    0  0.00000000000E+00  0.00000000000E+00  0.57740774074E+03  0.24194412161E+04  0.23495310381E+04 0.  0.
        4    1    3    3  502    0 -0.93726404857E+03 -0.48489215948E+03  0.82028897785E+03  0.13365851724E+04  0.12699999809E+01 0.  1.
       -4    1    3    3    0  502  0.93726404857E+03  0.48489215948E+03 -0.24288123711E+03  0.10828560437E+04  0.12699999809E+01 0. -1.
</event>
<event>
 5   0  0.5632156E-05  0.2216130E+04  0.7818609E-02  0.8511744E-01
       -1   -1    0    0    0  501  0.00000000000E+00  0.00000000000E+00  0.88837052606E+03  0.88837052608E+03  0.50400001928E-02 0. -1.
        1   -1    0    0  501    0  0.00000000000E+00  0.00000000000E+00 -0.13820900576E+04  0.13820900577E+04  0.50400001928E-02 0.  1.
    10030    2    1    2    0    0  0.00000000000E+00  0.00000000000E+00 -0.49371953158E+03  0.22704605837E+04  0.22161300247E+04 0.  0.
        4    1    3    3  502    0  0.72546369395E+03 -0.17532092869E+03  0.59222534893E+03  0.95276832236E+03  0.12699999809E+01 0. -1.
       -4    1    3    3    0  502 -0.72546369395E+03  0.17532092869E+03 -0.10859448805E+04  0.13176922614E+04  0.12699999809E+01 0.  1.
</event>
<event>
 5   0  0.1281432E-04  0.2155565E+04  0.7818609E-02  0.8537154E-01
        2   -1    0    0  501    0  0.00000000000E+00  0.00000000000E+00  0.42396102959E+03  0.42396102959E+03  0.25500000920E-02 0. -1.
       -2   -1    0    0    0  501  0.00000000000E+00  0.00000000000E+00 -0.27399088914E+04  0.27399088914E+04  0.25500000920E-02 0.  1.
    10030    2    1    2    0    0  0.00000000000E+00  0.00000000000E+00 -0.23159478618E+04  0.31638699210E+04  0.21555645150E+04 0.  0.
        4    1    3    3  502    0 -0.81427802015E+03 -0.39912661902E+03 -0.30305418112E+03  0.95613503319E+03  0.12699999809E+01 0.  1.
       -4    1    3    3    0  502  0.81427802015E+03  0.39912661902E+03 -0.20128936807E+04  0.22077348878E+04  0.12699999809E+01 0. -1.
</event>
<event>
 5   0  0.5663790E-05  0.2300859E+04  0.7818609E-02  0.8477582E-01
        1   -1    0    0  501    0  0.00000000000E+00  0.00000000000E+00  0.19768474606E+04  0.19768474606E+04  0.50400001928E-02 0. -1.
       -1   -1    0    0    0  501  0.00000000000E+00  0.00000000000E+00 -0.66949435376E+03  0.66949435378E+03  0.50400001928E-02 0.  1.
    10030    2    1    2    0    0  0.00000000000E+00  0.00000000000E+00  0.13073531069E+04  0.26463418144E+04  0.23008591553E+04 0.  0.
        3    1    3    3  502    0  0.41618389106E+03 -0.24182661827E+03 -0.54810978341E+03  0.72946109516E+03  0.10100000352E+00 0.  1.
       -3    1    3    3    0  502 -0.41618389106E+03  0.24182661827E+03  0.18554628903E+04  0.19168807193E+04  0.10100000352E+00 0. -1.
</event>
<event>
 5   0  0.5632156E-05  0.2268467E+04  0.7818609E-02  0.8490459E-01
       -1   -1    0    0    0  501  0.00000000000E+00  0.00000000000E+00  0.68838823587E+03  0.68838823589E+03  0.50400001928E-02 0. -1.
        1   -1    0    0  501    0  0.00000000000E+00  0.00000000000E+00 -0.18688377768E+04  0.18688377768E+04  0.50400001928E-02 0.  1.
    10030    2    1    2    0    0  0.00000000000E+00  0.00000000000E+00 -0.11804495409E+04  0.25572260127E+04  0.22684672714E+04 0.  0.
        4    1    3    3  502    0  0.16608320469E+03  0.64875008449E+01 -0.18550341362E+04  0.18624658327E+04  0.12699999809E+01 0.  1.
       -4    1    3    3    0  502 -0.16608320469E+03 -0.64875008449E+01  0.67458459530E+03  0.69476017997E+03  0.12699999809E+01 0. -1.
</event>
<event>
 5   0  0.5843670E-05  0.1862033E+04  0.7818609E-02  0.8673989E-01
       -1   -1    0    0    0  501  0.00000000000E+00  0.00000000000E+00  0.59429817624E+03  0.59429817626E+03  0.50400001928E-02 0.  1.
        1   -1    0    0  501    0  0.00000000000E+00  0.00000000000E+00 -0.14585124749E+04  0.14585124749E+04  0.50400001928E-02 0. -1.
    10030    2    1    2    0    0  0.00000000000E+00  0.00000000000E+00 -0.86421429863E+03  0.20528106511E+04  0.18620325495E+04 0.  0.
        2    1    3    3  502    0  0.23373488048E+02  0.34530734451E+02 -0.14574825279E+04  0.14580788767E+04  0.25500000920E-02 0. -1.
       -2    1    3    3    0  502 -0.23373488048E+02 -0.34530734451E+02  0.59326822931E+03  0.59473177440E+03  0.25500000920E-02 0.  1.
</event>
<event>
 5   0  0.1237296E-04  0.2283579E+04  0.7818609E-02  0.8484424E-01
       -2   -1    0    0    0  501  0.00000000000E+00  0.00000000000E+00  0.13105932937E+04  0.13105932937E+04  0.25500000920E-02 0.  1.
        2   -1    0    0  501    0  0.00000000000E+00  0.00000000000E+00 -0.99472720427E+03  0.99472720427E+03  0.25500000920E-02 0. -1.
    10030    2    1    2    0    0  0.00000000000E+00  0.00000000000E+00  0.31586608941E+03  0.23053204980E+04  0.22835785977E+04 0.  0.
        1    1    3    3  502    0  0.56432863786E+03 -0.94949744657E+03  0.44994576129E+03  0.11926707009E+04  0.50400001928E-02 0.  1.
       -1    1    3    3    0  502 -0.56432863786E+03  0.94949744657E+03 -0.13407967188E+03  0.11126497971E+04  0.50400001928E-02 0. -1.
</event>
<event>
 5   0  0.5642466E-05  0.2311136E+04  0.7818609E-02  0.8473543E-01
        1   -1    0    0  501    0  0.00000000000E+00  0.00000000000E+00  0.15740232170E+04  0.15740232170E+04  0.50400001928E-02 0. -1.
       -1   -1    0    0    0  501  0.00000000000E+00  0.00000000000E+00 -0.84835946810E+03  0.84835946811E+03  0.50400001928E-02 0.  1.
    10030    2    1    2    0    0  0.00000000000E+00  0.00000000000E+00  0.72566374894E+03  0.24223826852E+04  0.23111360836E+04 0.  0.
        1    1    3    3  502    0 -0.12850095971E+03  0.35122988763E+03  0.15088334812E+04  0.15544945817E+04  0.50400001928E-02 0. -1.
       -1    1    3    3    0  502  0.12850095971E+03 -0.35122988763E+03 -0.78316973223E+03  0.86788810346E+03  0.50400001928E-02 0.  1.
</event>
<event>
 5   0  0.1237296E-04  0.2236069E+04  0.7818609E-02  0.8503563E-01
       -2   -1    0    0    0  501  0.00000000000E+00  0.00000000000E+00  0.82648760252E+03  0.82648760252E+03  0.25500000920E-02 0.  1.
        2   -1    0    0  501    0  0.00000000000E+00  0.00000000000E+00 -0.15124264018E+04  0.15124264018E+04  0.25500000920E-02 0. -1.
    10030    2    1    2    0    0  0.00000000000E+00  0.00000000000E+00 -0.68593879929E+03  0.23389140043E+04  0.22360694719E+04 0.  0.
        1    1    3    3  502    0 -0.45592638515E+03  0.55582798579E+03  0.55267713824E+03  0.90678863999E+03  0.50400001928E-02 0.  1.
       -1    1    3    3    0  502  0.45592638515E+03 -0.55582798579E+03 -0.12386159375E+04  0.14321253643E+04  0.50400001928E-02 0. -1.
</event>
<event>
 5   0  0.1270613E-04  0.1905767E+04  0.7818609E-02  0.8651991E-01
        2   -1    0    0  501    0  0.00000000000E+00  0.00000000000E+00  0.13200764869E+04  0.13200764869E+04  0.25500000920E-02 0. -1.
       -2   -1    0    0    0  501  0.00000000000E+00  0.00000000000E+00 -0.68782934865E+03  0.68782934866E+03  0.25500000920E-02 0.  1.
    10030    2    1    2    0    0  0.00000000000E+00  0.00000000000E+00  0.63224713827E+03  0.20079058356E+04  0.19057674047E+04 0.  0.
        2    1    3    3  502    0 -0.37346322644E+03  0.86598087802E+03  0.17247229161E+03  0.95872016458E+03  0.25500000920E-02 0.  1.
       -2    1    3    3    0  502  0.37346322644E+03 -0.86598087802E+03  0.45977484666E+03  0.10491856710E+04  0.25500000920E-02 0. -1.
</event>
<event>
 5   0  0.1281432E-04  0.2208082E+04  0.7818609E-02  0.8515072E-01
       -2   -1    0    0    0  501  0.00000000000E+00  0.00000000000E+00  0.90712344978E+03  0.90712344978E+03  0.25500000920E-02 0.  1.
        2   -1    0    0  501    0  0.00000000000E+00  0.00000000000E+00 -0.13437056653E+04  0.13437056653E+04  0.25500000920E-02 0. -1.
    10030    2    1    2    0    0  0.00000000000E+00  0.00000000000E+00 -0.43658221552E+03  0.22508291151E+04  0.22080823523E+04 0.  0.
        4    1    3    3  502    0  0.10856476243E+04  0.13574239831E+03 -0.36896516983E+03  0.11546400618E+04  0.12699999809E+01 0.  1.
       -4    1    3    3    0  502 -0.10856476243E+04 -0.13574239831E+03 -0.67617045684E+02  0.10961890533E+04  0.12699999809E+01 0. -1.
</event>
<event>
 5   0  0.5843670E-05  0.2316039E+04  0.7818609E-02  0.8471624E-01
        1   -1    0    0  501    0  0.00000000000E+00  0.00000000000E+00  0.18693027566E+04  0.18693027566E+04  0.50400001928E-02 0.  1.
       -1   -1    0    0    0  501  0.00000000000E+00  0.00000000000E+00 -0.71738497935E+03  0.71738497937E+03  0.50400001928E-02 0. -1.
    10030    2    1    2    0    0  0.00000000000E+00  0.00000000000E+00  0.11519177773E+04  0.25866877360E+04  0.23160394811E+04 0.  0.
        2    1    3    3  502    0  0.44452363481E+03  0.73237904442E+03  0.14461264829E+04  0.16808516089E+04  0.25500000920E-02 0.  1.
       -2    1    3    3    0  502 -0.44452363481E+03 -0.73237904442E+03 -0.29420870566E+03  0.90583612707E+03  0.25500000920E-02 0. -1.
</event>
<event>
 5   0  0.5642466E-05  0.2384943E+04  0.7818609E-02  0.8445162E-01
       -1   -1    0    0    0  501  0.00000000000E+00  0.00000000000E+00  0.11893927647E+04  0.11893927647E+04  0.50400001928E-02 0.  1.
        1   -1    0    0  501    0  0.00000000000E+00  0.00000000000E+00 -0.11955577206E+04  0.11955577207E+04  0.50400001928E-02 0. -1.
    10030    2    1    2    0    0  0.00000000000E+00  0.00000000000E+00 -0.61649559778E+01  0.23849504853E+04  0.23849425173E+04 0.  0.
        1    1    3    3  502    0  0.86761573449E+01  0.10232552058E+03  0.11849627004E+04  0.11894042161E+04  0.50400001928E-02 0.  1.
       -1    1    3    3    0  502 -0.86761573449E+01 -0.10232552058E+03 -0.11911276564E+04  0.11955462692E+04  0.50400001928E-02 0. -1.
</event>
<event>
 5   0  0.1281432E-04  0.2253831E+04  0.7818609E-02  0.8496351E-01
        2   -1    0    0  501    0  0.00000000000E+00  0.00000000000E+00  0.97195846748E+03  0.97195846748E+03  0.25500000920E-02 0.  1.
       -2   -1    0    0    0  501  0.00000000000E+00  0.00000000000E+00 -0.13065766690E+04  0.13065766690E+04  0.25500000920E-02 0. -1.
    10030    2    1    2    0    0  0.00000000000E+00  0.00000000000E+00 -0.33461820156E+03  0.22785351365E+04  0.22538307451E+04 0.  0.
        4    1    3    3  502    0 -0.81829187089E+03  0.60301302628E+03  0.32455265221E+03  0.10670343634E+04  0.12699999809E+01 0.  1.
       -4    1    3    3    0  502  0.81829187089E+03 -0.60301302628E+03 -0.65917085377E+03  0.12115007731E+04  0.12699999809E+01 0. -1.
</event>
<event>
 5   0  0.1257524E-04  0.2359189E+04  0.7818609E-02  0.8454942E-01
        2   -1    0    0  501    0  0.00000000000E+00  0.00000000000E+00  0.98943868622E+03  0.98943868622E+03  0.25500000920E-02 0.  1.
       -2   -1    0    0    0  501  0.00000000000E+00  0.00000000000E+00 -0.14062957375E+04  0.14062957375E+04  0.25500000920E-02 0. -1.
    10030    2    1    2    0    0  0.00000000000E+00  0.00000000000E+00 -0.41685705130E+03  0.23957344237E+04  0.23591891887E+04 0.  0.
        3    1    3    3  502    0 -0.50868338501E+03  0.96828003871E+02  0.86785207666E+03  0.10105947188E+04  0.10100000352E+00 0.  1.
       -3    1    3    3    0  502  0.50868338501E+03 -0.96828003871E+02 -0.12847091280E+04  0.13851397049E+04  0.10100000352E+00 0. -1.
</event>
<event>
 5   0  0.5843670E-05  0.2305724E+04  0.7818609E-02  0.8475668E-01
        1   -1    0    0  501    0  0.00000000000E+00  0.00000000000E+00  0.16197003512E+04  0.16197003513E+04  0.50400001928E-02 0.  1.
       -1   -1    0    0    0  501  0.00000000000E+00  0.00000000000E+00 -0.82057797733E+03  0.82057797734E+03  0.50400001928E-02 0. -1.
    10030    2    1    2    0    0  0.00000000000E+00  0.00000000000E+00  0.79912237392E+03  0.24402783286E+04  0.23057236939E+04 0.  0.
        2    1    3    3  502    0  0.99694076034E+03 -0.57477781129E+03  0.47311527948E+03  0.12442260565E+04  0.25500000920E-02 0. -1.
       -2    1    3    3    0  502 -0.99694076034E+03  0.57477781129E+03  0.32600709444E+03  0.11960522721E+04  0.25500000920E-02 0.  1.
</event>
<event>
 5   0  0.4489500E-05  0.2308854E+04  0.7818609E-02  0.8474438E-01
       -3   -1    0    0    0  501  0.00000000000E+00  0.00000000000E+00  0.13026223833E+04  0.13026223872E+04  0.10100000352E+00 0. -1.
        3   -1    0    0  501    0  0.00000000000E+00  0.00000000000E+00 -0.10230913289E+04  0.10230913339E+04  0.10100000352E+00 0.  1.
    10030    2    1    2    0    0  0.00000000000E+00  0.00000000000E+00  0.27953105441E+03  0.23257137211E+04  0.23088539802E+04 0.  0.
        5    1    3    3  502    0  0.49539590031E+03  0.80242886857E+03  0.81048842751E+03  0.12434720617E+04  0.46999998093E+01 0. -1.
       -5    1    3    3    0  502 -0.49539590031E+03 -0.80242886857E+03 -0.53095737309E+03  0.10822416593E+04  0.46999998093E+01 0.  1.
</event>
<event>
 5   0  0.5663790E-05  0.2235991E+04  0.7818609E-02  0.8503595E-01
        1   -1    0    0  501    0  0.00000000000E+00  0.00000000000E+00  0.13714654166E+04  0.13714654166E+04  0.50400001928E-02 0.  1.
       -1   -1    0    0    0  501  0.00000000000E+00  0.00000000000E+00 -0.91137147349E+03  0.91137147351E+03  0.50400001928E-02 0. -1.
    10030    2    1    2    0    0  0.00000000000E+00  0.00000000000E+00  0.46009394314E+03  0.22828368901E+04  0.22359914648E+04 0.  0.
        3    1    3    3  502    0 -0.21775893583E+03 -0.58163734596E+03  0.11791431749E+04  0.13327038656E+04  0.10100000352E+00 0.  1.
       -3    1    3    3    0  502  0.21775893583E+03  0.58163734596E+03 -0.71904923177E+03  0.95013302451E+03  0.10100000352E+00 0. -1.
</event>
<event>
 5   0  0.1270613E-04  0.2154343E+04  0.7818609E-02  0.8537676E-01
       -2   -1    0    0    0  501  0.00000000000E+00  0.00000000000E+00  0.54702837908E+03  0.54702837908E+03  0.25500000920E-02 0. -1.
        2   -1    0    0  501    0  0.00000000000E+00  0.00000000000E+00 -0.21210928895E+04  0.21210928895E+04  0.25500000920E-02 0.  1.
    10030    2    1    2    0    0  0.00000000000E+00  0.00000000000E+00 -0.15740645104E+04  0.26681212686E+04  0.21543425960E+04 0.  0.
        2    1    3    3  502    0  0.21787122106E+03 -0.41592356345E+03  0.41361997870E+03  0.62573298330E+03  0.25500000920E-02 0. -1.
       -2    1    3    3    0  502 -0.21787122106E+03  0.41592356345E+03 -0.19876844891E+04  0.20423882853E+04  0.25500000920E-02 0.  1.
</event>
<event>
 5   0  0.1281432E-04  0.2221926E+04  0.7818609E-02  0.8509357E-01
       -2   -1    0    0    0  501  0.00000000000E+00  0.00000000000E+00  0.10931158593E+04  0.10931158593E+04  0.25500000920E-02 0.  1.
        2   -1    0    0  501    0  0.00000000000E+00  0.00000000000E+00 -0.11291016869E+04  0.11291016869E+04  0.25500000920E-02 0. -1.
    10030    2    1    2    0    0  0.00000000000E+00  0.00000000000E+00 -0.35985827550E+02  0.22222175462E+04  0.22219261561E+04 0.  0.
        4    1    3    3  502    0  0.37591389448E+03  0.13389837984E+02  0.10274894797E+04  0.10941785904E+04  0.12699999809E+01 0.  1.
       -4    1    3    3    0  502 -0.37591389448E+03 -0.13389837984E+02 -0.10634753073E+04  0.11280389558E+04  0.12699999809E+01 0. -1.
</event>
<event>
 5   0  0.5642466E-05  0.2351511E+04  0.7818609E-02  0.8457883E-01
        1   -1    0    0  501    0  0.00000000000E+00  0.00000000000E+00  0.23178748531E+04  0.23178748532E+04  0.50400001928E-02 0. -1.
       -1   -1    0    0    0  501  0.00000000000E+00  0.00000000000E+00 -0.59640892194E+03  0.59640892196E+03  0.50400001928E-02 0.  1.
    10030    2    1    2    0    0  0.00000000000E+00  0.00000000000E+00  0.17214659312E+04  0.29142837751E+04  0.23515112098E+04 0.  0.
        1    1    3    3  502    0 -0.31776499541E+03  0.11565746742E+03 -0.53484137015E+03  0.63277684323E+03  0.50400001928E-02 0.  1.
       -1    1    3    3    0  502  0.31776499541E+03 -0.11565746742E+03  0.22563073014E+04  0.22815069319E+04  0.50400001928E-02 0. -1.
</event>
<event>
 5   0  0.5642466E-05  0.2288323E+04  0.7818609E-02  0.8482539E-01
       -1   -1    0    0    0  501  0.00000000000E+00  0.00000000000E+00  0.19173467230E+04  0.19173467230E+04  0.50400001928E-02 0. -1.
        1   -1    0    0  501    0  0.00000000000E+00  0.00000000000E+00 -0.68276962579E+03  0.68276962581E+03  0.50400001928E-02 0.  1.
    10030    2    1    2    0    0  0.00000000000E+00  0.00000000000E+00  0.12345770973E+04  0.26001163489E+04  0.22883234952E+04 0.  0.
        1    1    3    3  502    0 -0.49845474963E+03 -0.72162855840E+03 -0.21760769107E+03  0.90363600026E+03  0.50400001928E-02 0.  1.
       -1    1    3    3    0  502  0.49845474963E+03  0.72162855840E+03  0.14521847883E+04  0.16964803486E+04  0.50400001928E-02 0. -1.
</event>
<event>
 5   0  0.1257524E-04  0.2149750E+04  0.7818609E-02  0.8539639E-01
       -2   -1    0    0    0  501  0.00000000000E+00  0.00000000000E+00  0.67433826765E+03  0.67433826766E+03  0.25500000920E-02 0. -1.
        2   -1    0    0  501    0  0.00000000000E+00  0.00000000000E+00 -0.17133188424E+04  0.17133188424E+04  0.25500000920E-02 0.  1.
    10030    2    1    2    0    0  0.00000000000E+00  0.00000000000E+00 -0.10389805748E+04  0.23876571101E+04  0.21497501810E+04 0.  0.
        3    1    3    3  502    0  0.19350224997E+03  0.10536939888E+04 -0.61658514063E+03  0.12360790382E+04  0.10100000352E+00 0.  1.
       -3    1    3    3    0  502 -0.19350224997E+03 -0.10536939888E+04 -0.42239543414E+03  0.11515780719E+04  0.10100000352E+00 0. -1.
</event>
<event>
 5   0  0.5632156E-05  0.2111014E+04  0.7818609E-02  0.8556407E-01
        1   -1    0    0  501    0  0.00000000000E+00  0.00000000000E+00  0.25431236354E+04  0.25431236354E+04  0.50400001928E-02 0.  1.
       -1   -1    0    0    0  501  0.00000000000E+00  0.00000000000E+00 -0.43808135136E+03  0.43808135139E+03  0.50400001928E-02 0. -1.
    10030    2    1    2    0    0  0.00000000000E+00  0.00000000000E+00  0.21050422840E+04  0.29812049868E+04  0.21110140112E+04 0.  0.
        4    1    3    3  502    0  0.33557070387E+03 -0.47727605337E+03 -0.18966059703E+03  0.61349236620E+03  0.12699999809E+01 0. -1.
       -4    1    3    3    0  502 -0.33557070387E+03  0.47727605337E+03  0.22947028811E+04  0.23677126206E+04  0.12699999809E+01 0.  1.
</event>
<event>
 5   0  0.5642466E-05  0.2313256E+04  0.7818609E-02  0.8472713E-01
       -1   -1    0    0    0  501  0.00000000000E+00  0.00000000000E+00  0.11478148882E+04  0.11478148882E+04  0.50400001928E-02 0.  1.
        1   -1    0    0  501    0  0.00000000000E+00  0.00000000000E+00 -0.11655084839E+04  0.11655084839E+04  0.50400001928E-02 0. -1.
    10030    2    1    2    0    0  0.00000000000E+00  0.00000000000E+00 -0.17693595714E+02  0.23133233721E+04  0.23132557058E+04 0.  0.
        1    1    3    3  502    0  0.15807410293E+03  0.84158965800E+03 -0.78638315253E+03  0.11626087205E+04  0.50400001928E-02 0.  1.
       -1    1    3    3    0  502 -0.15807410293E+03 -0.84158965800E+03  0.76868955682E+03  0.11507146515E+04  0.50400001928E-02 0. -1.
</event>
<event>
 5   0  0.5642466E-05  0.2552423E+04  0.7818609E-02  0.8384544E-01
        1   -1    0    0  501    0  0.00000000000E+00  0.00000000000E+00  0.11172305746E+04  0.11172305746E+04  0.50400001928E-02 0.  1.
       -1   -1    0    0    0  501  0.00000000000E+00  0.00000000000E+00 -0.14578150559E+04  0.14578150559E+04  0.50400001928E-02 0. -1.
    10030    2    1    2    0    0  0.00000000000E+00  0.00000000000E+00 -0.34058448132E+03  0.25750456304E+04  0.25524228118E+04 0.  0.
        1    1    3    3  502    0  0.73851664669E+03 -0.10407803938E+04 -0.17958730682E+03  0.12887522130E+04  0.50400001928E-02 0. -1.
       -1    1    3    3    0  502 -0.73851664669E+03  0.10407803938E+04 -0.16099717450E+03  0.12862934175E+04  0.50400001928E-02 0.  1.
</event>
<event>
 5   0  0.5663790E-05  0.2335896E+04  0.7818609E-02  0.8463901E-01
        1   -1    0    0  501    0  0.00000000000E+00  0.00000000000E+00  0.95469879631E+03  0.95469879632E+03  0.50400001928E-02 0.  1.
       -1   -1    0    0    0  501  0.00000000000E+00  0.00000000000E+00 -0.14288306857E+04  0.14288306857E+04  0.50400001928E-02 0. -1.
    10030    2    1    2    0    0  0.00000000000E+00  0.00000000000E+00 -0.47413188939E+03  0.23835294820E+04  0.23358963468E+04 0.  0.
        3    1    3    3  502    0  0.85529450402E+03 -0.66879796966E+03 -0.67628922244E+03  0.12791350732E+04  0.10100000352E+00 0. -1.
       -3    1    3    3    0  502 -0.85529450402E+03  0.66879796966E+03  0.20215733305E+03  0.11043944089E+04  0.10100000352E+00 0.  1.
</event>
<event>
 5   0  0.1234988E-04  0.2355180E+04  0.7818609E-02  0.8456477E-01
       -2   -1    0    0    0  501  0.00000000000E+00  0.00000000000E+00  0.91716723085E+03  0.91716723085E+03  0.25500000920E-02 0. -1.
        2   -1    0    0  501    0  0.00000000000E+00  0.00000000000E+00 -0.15119582589E+04  0.15119582589E+04  0.25500000920E-02 0.  1.
    10030    2    1    2    0    0  0.00000000000E+00  0.00000000000E+00 -0.59479102801E+03  0.24291254897E+04  0.23551803069E+04 0.  0.
        5    1    3    3  502    0  0.72570654319E+03 -0.87699953326E+03  0.13598099262E+02  0.11384134427E+04  0.46999998093E+01 0. -1.
       -5    1    3    3    0  502 -0.72570654319E+03  0.87699953326E+03 -0.60838912728E+03  0.12907120470E+04  0.46999998093E+01 0.  1.
</event>
<event>
 5   0  0.5632156E-05  0.2310757E+04  0.7818609E-02  0.8473692E-01
       -1   -1    0    0    0  501  0.00000000000E+00  0.00000000000E+00  0.11133957130E+04  0.11133957130E+04  0.50400001928E-02 0.  1.
        1   -1    0    0  501    0  0.00000000000E+00  0.00000000000E+00 -0.11989442783E+04  0.11989442783E+04  0.50400001928E-02 0. -1.
    10030    2    1    2    0    0  0.00000000000E+00  0.00000000000E+00 -0.85548565286E+02  0.23123399913E+04  0.23107569492E+04 0.  0.
        4    1    3    3  502    0 -0.32206839643E+03 -0.59988709237E+03 -0.97685107775E+03  0.11907275996E+04  0.12699999809E+01 0. -1.
       -4    1    3    3    0  502  0.32206839643E+03  0.59988709237E+03  0.89130251246E+03  0.11216123917E+04  0.12699999809E+01 0.  1.
</event>
<event>
 5   0  0.5642466E-05  0.2000734E+04  0.7818609E-02  0.8606278E-01
       -1   -1    0    0    0  501  0.00000000000E+00  0.00000000000E+00  0.99341158745E+03  0.99341158746E+03  0.50400001928E-02 0.  1.
        1   -1    0    0  501    0  0.00000000000E+00  0.00000000000E+00 -0.10073709492E+04  0.10073709492E+04  0.50400001928E-02 0. -1.
    10030    2    1    2    0    0  0.00000000000E+00  0.00000000000E+00 -0.13959361766E+02  0.20007825367E+04  0.20007338392E+04 0.  0.
        1    1    3    3  502    0  0.16626256412E+03  0.26851288466E+03 -0.95620853886E+03  0.10070139916E+04  0.50400001928E-02 0. -1.
       -1    1    3    3    0  502 -0.16626256412E+03 -0.26851288466E+03  0.94224917710E+03  0.99376854510E+03  0.50400001928E-02 0.  1.
</event>
<event>
 5   0  0.5642466E-05  0.2309793E+04  0.7818609E-02  0.8474070E-01
        1   -1    0    0  501    0  0.00000000000E+00  0.00000000000E+00  0.10945254173E+04  0.10945254173E+04  0.50400001928E-02 0.  1.
       -1   -1    0    0    0  501  0.00000000000E+00  0.00000000000E+00 -0.12185978902E+04  0.12185978902E+04  0.50400001928E-02 0. -1.
    10030    2    1    2    0    0  0.00000000000E+00  0.00000000000E+00 -0.12407247285E+03  0.23131233075E+04  0.23097933797E+04 0.  0.
        1    1    3    3  502    0  0.96865095512E+02 -0.11430535111E+04 -0.19576596766E+03  0.11637347164E+04  0.50400001928E-02 0. -1.
       -1    1    3    3    0  502 -0.96865095512E+02  0.11430535111E+04  0.71693494807E+02  0.11493885911E+04  0.50400001928E-02 0.  1.
</event>
<event>
 5   0  0.1234988E-04  0.2282206E+04  0.7818609E-02  0.8484970E-01
        2   -1    0    0  501    0  0.00000000000E+00  0.00000000000E+00  0.23030988604E+04  0.23030988604E+04  0.25500000920E-02 0.  1.
       -2   -1    0    0    0  501  0.00000000000E+00  0.00000000000E+00 -0.56537574677E+03  0.56537574677E+03  0.25500000920E-02 0. -1.
    10030    2    1    2    0    0  0.00000000000E+00  0.00000000000E+00  0.17377231136E+04  0.28684746071E+04  0.22822061590E+04 0.  0.
        5    1    3    3  502    0  0.53145985863E+03  0.29572805397E+03  0.20823851842E+04  0.21693904233E+04  0.46999998093E+01 0.  1.
       -5    1    3    3    0  502 -0.53145985863E+03 -0.29572805397E+03 -0.34466207058E+03  0.69908418387E+03  0.46999998093E+01 0. -1.
</event>
<event>
 5   0  0.1281432E-04  0.1361460E+04  0.7818609E-02  0.8982198E-01
        2   -1    0    0  501    0  0.00000000000E+00  0.00000000000E+00  0.15467277751E+04  0.15467277751E+04  0.25500000920E-02 0.  1.
       -2   -1    0    0    0  501  0.00000000000E+00  0.00000000000E+00 -0.29959582890E+03  0.29959582891E+03  0.25500000920E-02 0. -1.
    10030    2    1    2    0    0  0.00000000000E+00  0.00000000000E+00  0.12471319462E+04  0.18463236040E+04  0.13614597899E+04 0.  0.
        4    1    3    3  502    0  0.64515525996E+03 -0.21683144155E+03  0.60693500647E+03  0.91192812134E+03  0.12699999809E+01 0.  1.
       -4    1    3    3    0  502 -0.64515525996E+03  0.21683144155E+03  0.64019693969E+03  0.93439548265E+03  0.12699999809E+01 0. -1.
</event>
<event>
 5   0  0.5924654E-05  0.2271196E+04  0.7818609E-02  0.8489365E-01
        1   -1    0    0  501    0  0.00000000000E+00  0.00000000000E+00  0.16740263487E+04  0.16740263487E+04  0.50400001928E-02 0. -1.
       -1   -1    0    0    0  501  0.00000000000E+00  0.00000000000E+00 -0.77034812144E+03  0.77034812146E+03  0.50400001928E-02 0.  1.
    10030    2    1    2    0    0  0.00000000000E+00  0.00000000000E+00  0.90367822727E+03  0.24443744702E+04  0.22711962073E+04 0.  0.
        5    1    3    3  502    0 -0.21842006241E+03  0.11108425076E+04  0.35628556912E+03  0.11868613639E+04  0.46999998093E+01 0.  1.
       -5    1    3    3    0  502  0.21842006241E+03 -0.11108425076E+04  0.54739265815E+03  0.12575131063E+04  0.46999998093E+01 0. -1.
</event>
<event>
 5   0  0.1281432E-04  0.1448380E+04  0.7818609E-02  0.8919525E-01
        2   -1    0    0  501    0  0.00000000000E+00  0.00000000000E+00  0.17277712610E+04  0.17277712610E+04  0.25500000920E-02 0. -1.
       -2   -1    0    0    0  501  0.00000000000E+00  0.00000000000E+00 -0.30354187813E+03  0.30354187814E+03  0.25500000920E-02 0.  1.
    10030    2    1    2    0    0  0.00000000000E+00  0.00000000000E+00  0.14242293829E+04  0.20313131392E+04  0.14483796927E+04 0.  0.
        4    1    3    3  502    0  0.90681032539E+01 -0.31637984805E+03  0.16256304931E+04  0.16561565601E+04  0.12699999809E+01 0. -1.
       -4    1    3    3    0  502 -0.90681032539E+01  0.31637984805E+03 -0.20140111015E+03  0.37515657907E+03  0.12699999809E+01 0.  1.
</event>
<event>
 5   0  0.5663790E-05  0.2256001E+04  0.7818609E-02  0.8495474E-01
        1   -1    0    0  501    0  0.00000000000E+00  0.00000000000E+00  0.12265759942E+04  0.12265759942E+04  0.50400001928E-02 0. -1.
       -1   -1    0    0    0  501  0.00000000000E+00  0.00000000000E+00 -0.10373471819E+04  0.10373471819E+04  0.50400001928E-02 0.  1.
    10030    2    1    2    0    0  0.00000000000E+00  0.00000000000E+00  0.18922881229E+03  0.22639231761E+04  0.22560010203E+04 0.  0.
        3    1    3    3  502    0 -0.51855240047E+03 -0.66895203582E+03 -0.65365253221E+03  0.10694180947E+04  0.10100000352E+00 0.  1.
       -3    1    3    3    0  502  0.51855240047E+03  0.66895203582E+03  0.84288134450E+03  0.11945050813E+04  0.10100000352E+00 0. -1.
</event>
<event>
 5   0  0.1270613E-04  0.2279013E+04  0.7818609E-02  0.8486242E-01
        2   -1    0    0  501    0  0.00000000000E+00  0.00000000000E+00  0.12663559606E+04  0.12663559606E+04  0.25500000920E-02 0. -1.
       -2   -1    0    0    0  501  0.00000000000E+00  0.00000000000E+00 -0.10253630576E+04  0.10253630576E+04  0.25500000920E-02 0.  1.
    10030    2    1    2    0    0  0.00000000000E+00  0.00000000000E+00  0.24099290301E+03  0.22917190182E+04  0.22790126105E+04 0.  0.
        2    1    3    3  502    0  0.51728382286E+03 -0.76237381582E+02  0.11386036436E+04  0.12529217649E+04  0.25500000920E-02 0. -1.
       -2    1    3    3    0  502 -0.51728382286E+03  0.76237381582E+02 -0.89761074060E+03  0.10387972533E+04  0.25500000920E-02 0.  1.
</event>
<event>
 5   0  0.1237296E-04  0.2314615E+04  0.7818609E-02  0.8472181E-01
        2   -1    0    0  501    0  0.00000000000E+00  0.00000000000E+00  0.16874326632E+04  0.16874326632E+04  0.25500000920E-02 0.  1.
       -2   -1    0    0    0  501  0.00000000000E+00  0.00000000000E+00 -0.79372677679E+03  0.79372677679E+03  0.25500000920E-02 0. -1.
    10030    2    1    2    0    0  0.00000000000E+00  0.00000000000E+00  0.89370588640E+03  0.24811594400E+04  0.23146148611E+04 0.  0.
        1    1    3    3  502    0 -0.33164273655E+01  0.11515491338E+04  0.57040264961E+03  0.12850819386E+04  0.50400001928E-02 0.  1.
       -1    1    3    3    0  502  0.33164273655E+01 -0.11515491338E+04  0.32330323680E+03  0.11960775014E+04  0.50400001928E-02 0. -1.
</event>
<event>
 5   0  0.5632156E-05  0.1611801E+04  0.7818609E-02  0.8813331E-01
        1   -1    0    0  501    0  0.00000000000E+00  0.00000000000E+00  0.93014232617E+03  0.93014232619E+03  0.50400001928E-02 0. -1.
       -1   -1    0    0    0  501  0.00000000000E+00  0.00000000000E+00 -0.69825391358E+03  0.69825391360E+03  0.50400001928E-02 0.  1.
    10030    2    1    2    0    0  0.00000000000E+00  0.00000000000E+00  0.23188841259E+03  0.16283962398E+04  0.16118008803E+04 0.  0.
        4    1    3    3  502    0 -0.68832071582E+03 -0.40950749711E+03  0.20626326212E+03  0.82705981901E+03  0.12699999809E+01 0. -1.
       -4    1    3    3    0  502  0.68832071582E+03  0.40950749711E+03  0.25625150472E+02  0.80133642077E+03  0.12699999809E+01 0.  1.
</event>
<event>
 5   0  0.1237296E-04  0.1454443E+04  0.7818609E-02  0.8915326E-01
        2   -1    0    0  501    0  0.00000000000E+00  0.00000000000E+00  0.21724238749E+04  0.21724238749E+04  0.25500000920E-02 0.  1.
       -2   -1    0    0    0  501  0.00000000000E+00  0.00000000000E+00 -0.24343840604E+03  0.24343840605E+03  0.25500000920E-02 0. -1.
    10030    2    1    2    0    0  0.00000000000E+00  0.00000000000E+00  0.19289854689E+04  0.24158622810E+04  0.14544434061E+04 0.  0.
        1    1    3    3  502    0 -0.44001253544E+03  0.23484605196E+02  0.35534095666E+01  0.44065313431E+03  0.50400001928E-02 0. -1.
       -1    1    3    3    0  502  0.44001253544E+03 -0.23484605196E+02  0.19254320593E+04  0.19752091467E+04  0.50400001928E-02 0.  1.
</event>
<event>
 5   0  0.4489500E-05  0.2248979E+04  0.7818609E-02  0.8498314E-01
        4   -1    0    0  501    0  0.00000000000E+00  0.00000000000E+00  0.18725606047E+04  0.18725610353E+04  0.12699999809E+01 0.  1.
       -4   -1    0    0    0  501  0.00000000000E+00  0.00000000000E+00 -0.67526506435E+03  0.67526625862E+03  0.12699999809E+01 0. -1.
    10030    2    1    2    0    0  0.00000000000E+00  0.00000000000E+00  0.11972955403E+04  0.25478272940E+04  0.22489791704E+04 0.  0.
        3    1    3    3  502    0 -0.18143665668E+03 -0.46989736786E+03  0.17376046738E+04  0.18091414564E+04  0.10100000352E+00 0.  1.
       -3    1    3    3    0  502  0.18143665668E+03  0.46989736786E+03 -0.54030913346E+03  0.73868583756E+03  0.10100000352E+00 0. -1.
</event>
<event>
 5   0  0.1281432E-04  0.2256837E+04  0.7818609E-02  0.8495137E-01
       -2   -1    0    0    0  501  0.00000000000E+00  0.00000000000E+00  0.72791638767E+03  0.72791638767E+03  0.25500000920E-02 0. -1.
        2   -1    0    0  501    0  0.00000000000E+00  0.00000000000E+00 -0.17492784604E+04  0.17492784604E+04  0.25500000920E-02 0.  1.
    10030    2    1    2    0    0  0.00000000000E+00  0.00000000000E+00 -0.10213620727E+04  0.24771948481E+04  0.22568371301E+04 0.  0.
        4    1    3    3  502    0 -0.46026546222E+03 -0.81385870964E+03  0.18276044635E+03  0.95268740341E+03  0.12699999809E+01 0. -1.
       -4    1    3    3    0  502  0.46026546222E+03  0.81385870964E+03 -0.12041225191E+04  0.15245074447E+04  0.12699999809E+01 0.  1.
</event>
<event>
 5   0  0.1257524E-04  0.1998819E+04  0.7818609E-02  0.8607173E-01
        2   -1    0    0  501    0  0.00000000000E+00  0.00000000000E+00  0.76277612961E+03  0.76277612961E+03  0.25500000920E-02 0.  1.
       -2   -1    0    0    0  501  0.00000000000E+00  0.00000000000E+00 -0.13094533066E+04  0.13094533066E+04  0.25500000920E-02 0. -1.
    10030    2    1    2    0    0  0.00000000000E+00  0.00000000000E+00 -0.54667717698E+03  0.20722294362E+04  0.19988193766E+04 0.  0.
        3    1    3    3  502    0 -0.27186393969E+03  0.58562995470E+03  0.51753323856E+03  0.82747393238E+03  0.10100000352E+00 0.  1.
       -3    1    3    3    0  502  0.27186393969E+03 -0.58562995470E+03 -0.10642104155E+04  0.12447555038E+04  0.10100000352E+00 0. -1.
</event>
<event>
 5   0  0.5843670E-05  0.2292287E+04  0.7818609E-02  0.8480969E-01
        1   -1    0    0  501    0  0.00000000000E+00  0.00000000000E+00  0.14263587216E+04  0.14263587216E+04  0.50400001928E-02 0. -1.
       -1   -1    0    0    0  501  0.00000000000E+00  0.00000000000E+00 -0.92097783642E+03  0.92097783644E+03  0.50400001928E-02 0.  1.
    10030    2    1    2    0    0  0.00000000000E+00  0.00000000000E+00  0.50538088515E+03  0.23473365580E+04  0.22922868663E+04 0.  0.
        2    1    3    3  502    0 -0.37647206024E+03 -0.64916466082E+03 -0.63442757041E+03  0.98267202621E+03  0.25500000920E-02 0.  1.
       -2    1    3    3    0  502  0.37647206024E+03  0.64916466082E+03  0.11398084556E+04  0.13646645318E+04  0.25500000920E-02 0. -1.
</event>
<event>
 5   0  0.5632156E-05  0.2236392E+04  0.7818609E-02  0.8503432E-01
        1   -1    0    0  501    0  0.00000000000E+00  0.00000000000E+00  0.98674559001E+03  0.98674559002E+03  0.50400001928E-02 0. -1.
       -1   -1    0    0    0  501  0.00000000000E+00  0.00000000000E+00 -0.12671578192E+04  0.12671578192E+04  0.50400001928E-02 0.  1.
    10030    2    1    2    0    0  0.00000000000E+00  0.00000000000E+00 -0.28041222918E+03  0.22539034092E+04  0.22363920854E+04 0.  0.
        4    1    3    3  502    0 -0.53560313468E+03  0.89031410050E+03  0.27634712801E+03  0.10751275568E+04  0.12699999809E+01 0. -1.
       -4    1    3    3    0  502  0.53560313468E+03 -0.89031410050E+03 -0.55675935718E+03  0.11787758524E+04  0.12699999809E+01 0.  1.
</event>
<event>
 5   0  0.5663790E-05  0.2317624E+04  0.7818609E-02  0.8471004E-01
        1   -1    0    0  501    0  0.00000000000E+00  0.00000000000E+00  0.10231521311E+04  0.10231521311E+04  0.50400001928E-02 0. -1.
       -1   -1    0    0    0  501  0.00000000000E+00  0.00000000000E+00 -0.13124595290E+04  0.13124595290E+04  0.50400001928E-02 0.  1.
    10030    2    1    2    0    0  0.00000000000E+00  0.00000000000E+00 -0.28930739790E+03  0.23356116601E+04  0.23176244425E+04 0.  0.
        3    1    3    3  502    0 -0.26083110436E+03 -0.18811358575E+03  0.97728183398E+03  0.10288339902E+04  0.10100000352E+00 0. -1.
       -3    1    3    3    0  502  0.26083110436E+03  0.18811358575E+03 -0.12665892319E+04  0.13067776699E+04  0.10100000352E+00 0.  1.
</event>
<event>
 5   0  0.5663790E-05  0.2313749E+04  0.7818609E-02  0.8472520E-01
        1   -1    0    0  501    0  0.00000000000E+00  0.00000000000E+00  0.14362944845E+04  0.14362944845E+04  0.50400001928E-02 0.  1.
       -1   -1    0    0    0  501  0.00000000000E+00  0.00000000000E+00 -0.93181312391E+03  0.93181312392E+03  0.50400001928E-02 0. -1.
    10030    2    1    2    0    0  0.00000000000E+00  0.00000000000E+00  0.50448136061E+03  0.23681076085E+04  0.23137485174E+04 0.  0.
        3    1    3    3  502    0 -0.75783870320E+03  0.46681348508E+03 -0.50412322533E+03  0.10229245165E+04  0.10100000352E+00 0. -1.
       -3    1    3    3    0  502  0.75783870320E+03 -0.46681348508E+03  0.10086045859E+04  0.13451830920E+04  0.10100000352E+00 0.  1.
</event>
<event>
 5   0  0.1237296E-04  0.2290218E+04  0.7818609E-02  0.8481788E-01
        2   -1    0    0  501    0  0.00000000000E+00  0.00000000000E+00  0.13834232673E+04  0.13834232673E+04  0.25500000920E-02 0. -1.
       -2   -1    0    0    0  501  0.00000000000E+00  0.00000000000E+00 -0.94784772620E+03  0.94784772620E+03  0.25500000920E-02 0.  1.
    10030    2    1    2    0    0  0.00000000000E+00  0.00000000000E+00  0.43557554114E+03  0.23312709935E+04  0.22902179794E+04 0.  0.
        1    1    3    3  502    0  0.11368729357E+04  0.10413892798E+03  0.12702894782E+03  0.11486780845E+04  0.50400001928E-02 0.  1.
       -1    1    3    3    0  502 -0.11368729357E+04 -0.10413892798E+03  0.30854659333E+03  0.11825929090E+04  0.50400001928E-02 0. -1.
</event>
<event>
 5   0  0.1234988E-04  0.1926791E+04  0.7818609E-02  0.8641635E-01
        2   -1    0    0  501    0  0.00000000000E+00  0.00000000000E+00  0.18962842121E+04  0.18962842121E+04  0.25500000920E-02 0. -1.
       -2   -1    0    0    0  501  0.00000000000E+00  0.00000000000E+00 -0.48944708176E+03  0.48944708177E+03  0.25500000920E-02 0.  1.
    10030    2    1    2    0    0  0.00000000000E+00  0.00000000000E+00  0.14068371304E+04  0.23857312939E+04  0.19267908800E+04 0.  0.
        5    1    3    3  502    0 -0.52909139471E+03 -0.17980512922E+03 -0.26825699272E+03  0.61988022440E+03  0.46999998093E+01 0.  1.
       -5    1    3    3    0  502  0.52909139471E+03  0.17980512922E+03  0.16750941231E+04  0.17658510695E+04  0.46999998093E+01 0. -1.
</event>
<event>
 5   0  0.1270613E-04  0.2410652E+04  0.7818609E-02  0.8435526E-01
        2   -1    0    0  501    0  0.00000000000E+00  0.00000000000E+00  0.14019152550E+04  0.14019152550E+04  0.25500000920E-02 0.  1.
       -2   -1    0    0    0  501  0.00000000000E+00  0.00000000000E+00 -0.10363040757E+04  0.10363040757E+04  0.25500000920E-02 0. -1.
    10030    2    1    2    0    0  0.00000000000E+00  0.00000000000E+00  0.36561117925E+03  0.24382193307E+04  0.24106517729E+04 0.  0.
        2    1    3    3  502    0 -0.20017054649E+03  0.42554818616E+03 -0.93968347826E+03  0.10507923419E+04  0.25500000920E-02 0. -1.
       -2    1    3    3    0  502  0.20017054649E+03 -0.42554818616E+03  0.13052946575E+04  0.13874269888E+04  0.25500000920E-02 0.  1.
</event>
<event>
 5   0  0.5642466E-05  0.2221401E+04  0.7818609E-02  0.8509573E-01
        1   -1    0    0  501    0  0.00000000000E+00  0.00000000000E+00  0.10140274331E+04  0.10140274332E+04  0.50400001928E-02 0.  1.
       -1   -1    0    0    0  501  0.00000000000E+00  0.00000000000E+00 -0.12165902861E+04  0.12165902862E+04  0.50400001928E-02 0. -1.
    10030    2    1    2    0    0  0.00000000000E+00  0.00000000000E+00 -0.20256285300E+03  0.22306177193E+04  0.22214012920E+04 0.  0.
        1    1    3    3  502    0  0.38956056006E+03 -0.97210537822E+03  0.27026674129E+03  0.10815684943E+04  0.50400001928E-02 0.  1.
       -1    1    3    3    0  502 -0.38956056006E+03  0.97210537822E+03 -0.47282959428E+03  0.11490492250E+04  0.50400001928E-02 0. -1.
</event>
<event>
 5   0  0.1270613E-04  0.1706336E+04  0.7818609E-02  0.8757759E-01
        2   -1    0    0  501    0  0.00000000000E+00  0.00000000000E+00  0.80665735097E+03  0.80665735098E+03  0.25500000920E-02 0.  1.
       -2   -1    0    0    0  501  0.00000000000E+00  0.00000000000E+00 -0.90236058564E+03  0.90236058564E+03  0.25500000920E-02 0. -1.
    10030    2    1    2    0    0  0.00000000000E+00  0.00000000000E+00 -0.95703234664E+02  0.17090179366E+04  0.17063361915E+04 0.  0.
        2    1    3    3  502    0 -0.24732915496E+03 -0.81288892789E+03  0.29312829202E+02  0.85018783921E+03  0.25500000920E-02 0. -1.
       -2    1    3    3    0  502  0.24732915496E+03  0.81288892789E+03 -0.12501606387E+03  0.85883009741E+03  0.25500000920E-02 0.  1.
</event>
<event>
 5   0  0.5642466E-05  0.2334056E+04  0.7818609E-02  0.8464613E-01
        1   -1    0    0  501    0  0.00000000000E+00  0.00000000000E+00  0.13609297787E+04  0.13609297787E+04  0.50400001928E-02 0. -1.
       -1   -1    0    0    0  501  0.00000000000E+00  0.00000000000E+00 -0.10007532342E+04  0.10007532342E+04  0.50400001928E-02 0.  1.
    10030    2    1    2    0    0  0.00000000000E+00  0.00000000000E+00  0.36017654453E+03  0.23616830129E+04  0.23340564496E+04 0.  0.
        1    1    3    3  502    0  0.34721818889E+03 -0.77240401936E+03 -0.63240205144E+03  0.10569298910E+04  0.50400001928E-02 0.  1.
       -1    1    3    3    0  502 -0.34721818889E+03  0.77240401936E+03  0.99257859596E+03  0.13047531219E+04  0.50400001928E-02 0. -1.
</event>
<event>
 5   0  0.5924654E-05  0.2281770E+04  0.7818609E-02  0.8485144E-01
       -1   -1    0    0    0  501  0.00000000000E+00  0.00000000000E+00  0.15988722362E+04  0.15988722362E+04  0.50400001928E-02 0. -1.
        1   -1    0    0  501    0  0.00000000000E+00  0.00000000000E+00 -0.81408554977E+03  0.81408554979E+03  0.50400001928E-02 0.  1.
    10030    2    1    2    0    0  0.00000000000E+00  0.00000000000E+00  0.78478668647E+03  0.24129577860E+04  0.22817701755E+04 0.  0.
        5    1    3    3  502    0 -0.88477278877E+03 -0.52839335206E+03  0.90999768750E+03  0.13748237354E+04  0.46999998093E+01 0. -1.
       -5    1    3    3    0  502  0.88477278877E+03  0.52839335206E+03 -0.12521100103E+03  0.10381340506E+04  0.46999998093E+01 0.  1.
</event>
<event>
 5   0  0.1281432E-04  0.1522538E+04  0.7818609E-02  0.8869602E-01
       -2   -1    0    0    0  501  0.00000000000E+00  0.00000000000E+00  0.66888985141E+03  0.66888985142E+03  0.25500000920E-02 0. -1.
        2   -1    0    0  501    0  0.00000000000E+00  0.00000000000E+00 -0.86640658355E+03  0.86640658355E+03  0.25500000920E-02 0.  1.
    10030    2    1    2    0    0  0.00000000000E+00  0.00000000000E+00 -0.19751673214E+03  0.15352964350E+04  0.15225381059E+04 0.  0.
        4    1    3    3  502    0  0.28366543649E+03 -0.31273316801E+03  0.54000126535E+03  0.68547143902E+03  0.12699999809E+01 0. -1.
       -4    1    3    3    0  502 -0.28366543649E+03  0.31273316801E+03 -0.73751799749E+03  0.84982499595E+03  0.12699999809E+01 0.  1.
</event>
<event>
 5   0  0.5642466E-05  0.2355949E+04  0.7818609E-02  0.8456182E-01
       -1   -1    0    0    0  501  0.00000000000E+00  0.00000000000E+00  0.10221982355E+04  0.10221982355E+04  0.50400001928E-02 0. -1.
        1   -1    0    0  501    0  0.00000000000E+00  0.00000000000E+00 -0.13574903795E+04  0.13574903795E+04  0.50400001928E-02 0.  1.
    10030    2    1    2    0    0  0.00000000000E+00  0.00000000000E+00 -0.33529214403E+03  0.23796886150E+04  0.23559492954E+04 0.  0.
        1    1    3    3  502    0 -0.88893848533E+03 -0.23340133094E+03 -0.91191295748E+03  0.12947096408E+04  0.50400001928E-02 0.  1.
       -1    1    3    3    0  502  0.88893848533E+03  0.23340133094E+03  0.57662081345E+03  0.10849789742E+04  0.50400001928E-02 0. -1.
</event>
<event>
 5   0  0.4489500E-05  0.2304242E+04  0.7818609E-02  0.8476251E-01
        3   -1    0    0  501    0  0.00000000000E+00  0.00000000000E+00  0.79294051673E+03  0.79294052316E+03  0.10100000352E+00 0.  1.
       -3   -1    0    0    0  501  0.00000000000E+00  0.00000000000E+00 -0.16740001032E+04  0.16740001062E+04  0.10100000352E+00 0. -1.
    10030    2    1    2    0    0  0.00000000000E+00  0.00000000000E+00 -0.88105958643E+03  0.24669406294E+04  0.23042417568E+04 0.  0.
        2    1    3    3  502    0  0.91885370852E+03  0.58814342363E+03 -0.44003121958E+02  0.10918521416E+04  0.25500000920E-02 0.  1.
       -2    1    3    3    0  502 -0.91885370852E+03 -0.58814342363E+03 -0.83705646447E+03  0.13750884877E+04  0.25500000920E-02 0. -1.
</event>
<event>
 5   0  0.5642466E-05  0.2317176E+04  0.7818609E-02  0.8471180E-01
       -1   -1    0    0    0  501  0.00000000000E+00  0.00000000000E+00  0.16027010919E+04  0.16027010919E+04  0.50400001928E-02 0. -1.
        1   -1    0    0  501    0  0.00000000000E+00  0.00000000000E+00 -0.83753987628E+03  0.83753987629E+03  0.50400001928E-02 0.  1.
    10030    2    1    2    0    0  0.00000000000E+00  0.00000000000E+00  0.76516121563E+03  0.24402409682E+04  0.23171759314E+04 0.  0.
        1    1    3    3  502    0 -0.63451781120E+03  0.94353462986E+03  0.14838348945E+03  0.11466857069E+04  0.50400001928E-02 0.  1.
       -1    1    3    3    0  502  0.63451781120E+03 -0.94353462986E+03  0.61677772619E+03  0.12935552613E+04  0.50400001928E-02 0. -1.
</event>
<event>
 5   0  0.5843670E-05  0.2314525E+04  0.7818609E-02  0.8472216E-01
       -1   -1    0    0    0  501  0.00000000000E+00  0.00000000000E+00  0.55887918298E+03  0.55887918300E+03  0.50400001928E-02 0. -1.
        1   -1    0    0  501    0  0.00000000000E+00  0.00000000000E+00 -0.23963262324E+04  0.23963262324E+04  0.50400001928E-02 0.  1.
    10030    2    1    2    0    0  0.00000000000E+00  0.00000000000E+00 -0.18374470495E+04  0.29552054154E+04  0.23145253051E+04 0.  0.
        2    1    3    3  502    0  0.59048796171E+03  0.19579333213E+02 -0.21892585602E+04  0.22675785382E+04  0.25500000920E-02 0.  1.
       -2    1    3    3    0  502 -0.59048796171E+03 -0.19579333213E+02  0.35181151078E+03  0.68762687727E+03  0.25500000920E-02 0. -1.
</event>
<event>
 5   0  0.5632156E-05  0.2363834E+04  0.7818609E-02  0.8453169E-01
       -1   -1    0    0    0  501  0.00000000000E+00  0.00000000000E+00  0.10514789926E+04  0.10514789926E+04  0.50400001928E-02 0.  1.
        1   -1    0    0  501    0  0.00000000000E+00  0.00000000000E+00 -0.13285365433E+04  0.13285365433E+04  0.50400001928E-02 0. -1.
    10030    2    1    2    0    0  0.00000000000E+00  0.00000000000E+00 -0.27705755069E+03  0.23800155358E+04  0.23638343987E+04 0.  0.
        4    1    3    3  502    0 -0.78028553720E+03 -0.18631336936E+03  0.73538072679E+03  0.10882759840E+04  0.12699999809E+01 0. -1.
       -4    1    3    3    0  502  0.78028553720E+03  0.18631336936E+03 -0.10124382775E+04  0.12917395518E+04  0.12699999809E+01 0.  1.
</event>
<event>
 5   0  0.5924654E-05  0.2336176E+04  0.7818609E-02  0.8463792E-01
       -1   -1    0    0    0  501  0.00000000000E+00  0.00000000000E+00  0.12404633560E+04  0.12404633560E+04  0.50400001928E-02 0.  1.
        1   -1    0    0  501    0  0.00000000000E+00  0.00000000000E+00 -0.10999358472E+04  0.10999358473E+04  0.50400001928E-02 0. -1.
    10030    2    1    2    0    0  0.00000000000E+00  0.00000000000E+00  0.14052750877E+03  0.23403992033E+04  0.23361764595E+04 0.  0.
        5    1    3    3  502    0 -0.85432624251E+03 -0.68432899220E+03 -0.33818452682E+03  0.11456746320E+04  0.46999998093E+01 0. -1.
       -5    1    3    3    0  502  0.85432624251E+03  0.68432899220E+03  0.47871203559E+03  0.11947245713E+04  0.46999998093E+01 0.  1.
</event>
<event>
 5   0  0.1237296E-04  0.2401874E+04  0.7818609E-02  0.8438802E-01
       -2   -1    0    0    0  501  0.00000000000E+00  0.00000000000E+00  0.12970353710E+04  0.12970353710E+04  0.25500000920E-02 0. -1.
        2   -1    0    0  501    0  0.00000000000E+00  0.00000000000E+00 -0.11119587553E+04  0.11119587553E+04  0.25500000920E-02 0.  1.
    10030    2    1    2    0    0  0.00000000000E+00  0.00000000000E+00  0.18507661569E+03  0.24089941264E+04  0.24018741323E+04 0.  0.
        1    1    3    3  502    0 -0.85464389464E+03  0.22090388588E+03 -0.72414515910E+03  0.11417534431E+04  0.50400001928E-02 0.  1.
       -1    1    3    3    0  502  0.85464389464E+03 -0.22090388588E+03  0.90922177479E+03  0.12672406832E+04  0.50400001928E-02 0. -1.
</event>
<event>
 5   0  0.5843670E-05  0.2187125E+04  0.7818609E-02  0.8523806E-01
        1   -1    0    0  501    0  0.00000000000E+00  0.00000000000E+00  0.16843260890E+04  0.16843260890E+04  0.50400001928E-02 0.  1.
       -1   -1    0    0    0  501  0.00000000000E+00  0.00000000000E+00 -0.71000436684E+03  0.71000436686E+03  0.50400001928E-02 0. -1.
    10030    2    1    2    0    0  0.00000000000E+00  0.00000000000E+00  0.97432172214E+03  0.23943304558E+04  0.21871249424E+04 0.  0.
        2    1    3    3  502    0 -0.55742854563E+03  0.72019891511E+03  0.11498765197E+04  0.14668432334E+04  0.25500000920E-02 0.  1.
       -2    1    3    3    0  502  0.55742854563E+03 -0.72019891511E+03 -0.17555479757E+03  0.92748722243E+03  0.25500000920E-02 0. -1.
</event>
<event>
 5   0  0.1257524E-04  0.2306493E+04  0.7818609E-02  0.8475365E-01
        2   -1    0    0  501    0  0.00000000000E+00  0.00000000000E+00  0.11173000178E+04  0.11173000178E+04  0.25500000920E-02 0.  1.
       -2   -1    0    0    0  501  0.00000000000E+00  0.00000000000E+00 -0.11903494048E+04  0.11903494048E+04  0.25500000920E-02 0. -1.
    10030    2    1    2    0    0  0.00000000000E+00  0.00000000000E+00 -0.73049387003E+02  0.23076494227E+04  0.23064929319E+04 0.  0.
        3    1    3    3  502    0 -0.41920180095E+03 -0.42940431072E+03 -0.10218327775E+04  0.11850149566E+04  0.10100000352E+00 0. -1.
       -3    1    3    3    0  502  0.41920180095E+03  0.42940431072E+03  0.94878339053E+03  0.11226344660E+04  0.10100000352E+00 0.  1.
</event>
<event>
 5   0  0.5632156E-05  0.1441701E+04  0.7818609E-02  0.8924175E-01
       -1   -1    0    0    0  501  0.00000000000E+00  0.00000000000E+00  0.94801817245E+03  0.94801817246E+03  0.50400001928E-02 0.  1.
        1   -1    0    0  501    0  0.00000000000E+00  0.00000000000E+00 -0.54811731478E+03  0.54811731481E+03  0.50400001928E-02 0. -1.
    10030    2    1    2    0    0  0.00000000000E+00  0.00000000000E+00  0.39990085766E+03  0.14961354873E+04  0.14417006278E+04 0.  0.
        4    1    3    3  502    0 -0.26268292445E+03 -0.30967747483E+03 -0.41812197161E+03  0.58286366610E+03  0.12699999809E+01 0. -1.
       -4    1    3    3    0  502  0.26268292445E+03  0.30967747483E+03  0.81802282928E+03  0.91327182116E+03  0.12699999809E+01 0.  1.
</event>
<event>
 5   0  0.1237296E-04  0.2284824E+04  0.7818609E-02  0.8483929E-01
       -2   -1    0    0    0  501  0.00000000000E+00  0.00000000000E+00  0.15399563290E+04  0.15399563290E+04  0.25500000920E-02 0.  1.
        2   -1    0    0  501    0  0.00000000000E+00  0.00000000000E+00 -0.84749510603E+03  0.84749510604E+03  0.25500000920E-02 0. -1.
    10030    2    1    2    0    0  0.00000000000E+00  0.00000000000E+00  0.69246122294E+03  0.23874514350E+04  0.22848242403E+04 0.  0.
        1    1    3    3  502    0  0.65485759205E+03 -0.27315005782E+03  0.12817995204E+04  0.14650800083E+04  0.50400001928E-02 0.  1.
       -1    1    3    3    0  502 -0.65485759205E+03  0.27315005782E+03 -0.58933829751E+03  0.92237142675E+03  0.50400001928E-02 0. -1.
</event>
<event>
 5   0  0.5663790E-05  0.2289119E+04  0.7818609E-02  0.8482224E-01
       -1   -1    0    0    0  501  0.00000000000E+00  0.00000000000E+00  0.10520627347E+04  0.10520627347E+04  0.50400001928E-02 0.  1.
        1   -1    0    0  501    0  0.00000000000E+00  0.00000000000E+00 -0.12451883180E+04  0.12451883180E+04  0.50400001928E-02 0. -1.
    10030    2    1    2    0    0  0.00000000000E+00  0.00000000000E+00 -0.19312558330E+03  0.22972510527E+04  0.22891188060E+04 0.  0.
        3    1    3    3  502    0 -0.20193769384E+02 -0.11331188444E+04 -0.25728828447E+03  0.11621374168E+04  0.10100000352E+00 0.  1.
       -3    1    3    3    0  502  0.20193769384E+02  0.11331188444E+04  0.64162701169E+02  0.11351136359E+04  0.10100000352E+00 0. -1.
</event>
<event>
 5   0  0.1281432E-04  0.2343422E+04  0.7818609E-02  0.8460995E-01
       -2   -1    0    0    0  501  0.00000000000E+00  0.00000000000E+00  0.90348257437E+03  0.90348257437E+03  0.25500000920E-02 0.  1.
        2   -1    0    0  501    0  0.00000000000E+00  0.00000000000E+00 -0.15195712485E+04  0.15195712485E+04  0.25500000920E-02 0. -1.
    10030    2    1    2    0    0  0.00000000000E+00  0.00000000000E+00 -0.61608867412E+03  0.24230538229E+04  0.23434215528E+04 0.  0.
        4    1    3    3  502    0  0.56699368573E+03  0.24406330820E+03  0.72171777369E+03  0.94969831832E+03  0.12699999809E+01 0.  1.
       -4    1    3    3    0  502 -0.56699368573E+03 -0.24406330820E+03 -0.13378064478E+04  0.14733555045E+04  0.12699999809E+01 0. -1.
</event>
<event>
 5   0  0.4489500E-05  0.2399023E+04  0.7818609E-02  0.8439869E-01
       -3   -1    0    0    0  501  0.00000000000E+00  0.00000000000E+00  0.18040058578E+04  0.18040058607E+04  0.10100000352E+00 0.  1.
        3   -1    0    0  501    0  0.00000000000E+00  0.00000000000E+00 -0.79757403946E+03  0.79757404586E+03  0.10100000352E+00 0. -1.
    10030    2    1    2    0    0  0.00000000000E+00  0.00000000000E+00  0.10064318184E+04  0.26015799065E+04  0.23990233440E+04 0.  0.
        3    1    3    3  502    0  0.82541183982E+02  0.11961009454E+04  0.54317431841E+03  0.13162480272E+04  0.10100000352E+00 0.  1.
       -3    1    3    3    0  502 -0.82541183982E+02 -0.11961009454E+04  0.46325749998E+03  0.12853318794E+04  0.10100000352E+00 0. -1.
</event>
<event>
 5   0  0.1281432E-04  0.2312152E+04  0.7818609E-02  0.8473145E-01
        2   -1    0    0  501    0  0.00000000000E+00  0.00000000000E+00  0.11022611996E+04  0.11022611996E+04  0.25500000920E-02 0.  1.
       -2   -1    0    0    0  501  0.00000000000E+00  0.00000000000E+00 -0.12125184896E+04  0.12125184896E+04  0.25500000920E-02 0. -1.
    10030    2    1    2    0    0  0.00000000000E+00  0.00000000000E+00 -0.11025728997E+03  0.23147796892E+04  0.23121523175E+04 0.  0.
        4    1    3    3  502    0 -0.22803257628E+02 -0.10391906724E+04  0.45148316763E+03  0.11332589756E+04  0.12699999809E+01 0.  1.
       -4    1    3    3    0  502  0.22803257628E+02  0.10391906724E+04 -0.56174045760E+03  0.11815207136E+04  0.12699999809E+01 0. -1.
</event>
<event>
 5   0  0.1234988E-04  0.2301408E+04  0.7818609E-02  0.8477366E-01
        2   -1    0    0  501    0  0.00000000000E+00  0.00000000000E+00  0.16433105075E+04  0.16433105075E+04  0.25500000920E-02 0. -1.
       -2   -1    0    0    0  501  0.00000000000E+00  0.00000000000E+00 -0.80576371041E+03  0.80576371041E+03  0.25500000920E-02 0.  1.
    10030    2    1    2    0    0  0.00000000000E+00  0.00000000000E+00  0.83754679705E+03  0.24490742179E+04  0.23014082401E+04 0.  0.
        5    1    3    3  502    0  0.15623274711E+03 -0.92047631726E+03  0.11345468884E+04  0.14693209499E+04  0.46999998093E+01 0. -1.
       -5    1    3    3    0  502 -0.15623274711E+03  0.92047631726E+03 -0.29700009130E+03  0.97975326799E+03  0.46999998093E+01 0.  1.
</event>
<event>
 5   0  0.1270613E-04  0.2294106E+04  0.7818609E-02  0.8480249E-01
        2   -1    0    0  501    0  0.00000000000E+00  0.00000000000E+00  0.15282120785E+04  0.15282120785E+04  0.25500000920E-02 0.  1.
       -2   -1    0    0    0  501  0.00000000000E+00  0.00000000000E+00 -0.86096083092E+03  0.86096083092E+03  0.25500000920E-02 0. -1.
    10030    2    1    2    0    0  0.00000000000E+00  0.00000000000E+00  0.66725124754E+03  0.23891729094E+04  0.22941061361E+04 0.  0.
        2    1    3    3  502    0  0.70624911056E+03 -0.11337601926E+02  0.12748556349E+04  0.14574543688E+04  0.25500000920E-02 0.  1.
       -2    1    3    3    0  502 -0.70624911056E+03  0.11337601926E+02 -0.60760438732E+03  0.93171854059E+03  0.25500000920E-02 0. -1.
</event>
<event>
 5   0  0.1257524E-04  0.2270148E+04  0.7818609E-02  0.8489785E-01
       -2   -1    0    0    0  501  0.00000000000E+00  0.00000000000E+00  0.62965263630E+03  0.62965263631E+03  0.25500000920E-02 0. -1.
        2   -1    0    0  501    0  0.00000000000E+00  0.00000000000E+00 -0.20461966021E+04  0.20461966021E+04  0.25500000920E-02 0.  1.
    10030    2    1    2    0    0  0.00000000000E+00  0.00000000000E+00 -0.14165439658E+04  0.26758492384E+04  0.22701480876E+04 0.  0.
        3    1    3    3  502    0 -0.40484369486E+03  0.98798429603E+03 -0.11623156334E+04  0.15782867383E+04  0.10100000352E+00 0.  1.
       -3    1    3    3    0  502  0.40484369486E+03 -0.98798429603E+03 -0.25422833243E+03  0.10975625001E+04  0.10100000352E+00 0. -1.
</event>
<event>
 5   0  0.1257524E-04  0.2264486E+04  0.7818609E-02  0.8492057E-01
       -2   -1    0    0    0  501  0.00000000000E+00  0.00000000000E+00  0.52364920591E+03  0.52364920592E+03  0.25500000920E-02 0.  1.
        2   -1    0    0  501    0  0.00000000000E+00  0.00000000000E+00 -0.24481548328E+04  0.24481548328E+04  0.25500000920E-02 0. -1.
    10030    2    1    2    0    0  0.00000000000E+00  0.00000000000E+00 -0.19245056269E+04  0.29718040387E+04  0.22644861087E+04 0.  0.
        3    1    3    3  502    0  0.12703579811E+03 -0.55968601906E+03  0.31861116720E+03  0.65642944784E+03  0.10100000352E+00 0.  1.
       -3    1    3    3    0  502 -0.12703579811E+03  0.55968601906E+03 -0.22431167941E+04  0.23153745909E+04  0.10100000352E+00 0. -1.
</event>
<event>
 5   0  0.1270613E-04  0.2296562E+04  0.7818609E-02  0.8479278E-01
       -2   -1    0    0    0  501  0.00000000000E+00  0.00000000000E+00  0.11624888820E+04  0.11624888820E+04  0.25500000920E-02 0. -1.
        2   -1    0    0  501    0  0.00000000000E+00  0.00000000000E+00 -0.11342468792E+04  0.11342468792E+04  0.25500000920E-02 0.  1.
    10030    2    1    2    0    0  0.00000000000E+00  0.00000000000E+00  0.28242002775E+02  0.22967357613E+04  0.22965621146E+04 0.  0.
        2    1    3    3  502    0  0.87851030660E+03  0.32351047514E+03 -0.65084280215E+03  0.11401910978E+04  0.25500000920E-02 0.  1.
       -2    1    3    3    0  502 -0.87851030660E+03 -0.32351047514E+03  0.67908480493E+03  0.11565446635E+04  0.25500000920E-02 0. -1.
</event>
<event>
 5   0  0.4489500E-05  0.2125769E+04  0.7818609E-02  0.8549976E-01
       -3   -1    0    0    0  501  0.00000000000E+00  0.00000000000E+00  0.10611097057E+04  0.10611097105E+04  0.10100000352E+00 0. -1.
        3   -1    0    0  501    0  0.00000000000E+00  0.00000000000E+00 -0.10646618332E+04  0.10646618380E+04  0.10100000352E+00 0.  1.
    10030    2    1    2    0    0  0.00000000000E+00  0.00000000000E+00 -0.35521274366E+01  0.21257715485E+04  0.21257685807E+04 0.  0.
        4    1    3    3  502    0 -0.60442340853E+02 -0.26127342789E+03 -0.10302736450E+04  0.10646043759E+04  0.12699999809E+01 0.  1.
       -4    1    3    3    0  502  0.60442340853E+02  0.26127342789E+03  0.10267215176E+04  0.10611671726E+04  0.12699999809E+01 0. -1.
</event>
<event>
 5   0  0.1234988E-04  0.2066500E+04  0.7818609E-02  0.8576146E-01
       -2   -1    0    0    0  501  0.00000000000E+00  0.00000000000E+00  0.10969689082E+04  0.10969689082E+04  0.25500000920E-02 0.  1.
        2   -1    0    0  501    0  0.00000000000E+00  0.00000000000E+00 -0.97323257022E+03  0.97323257022E+03  0.25500000920E-02 0. -1.
    10030    2    1    2    0    0  0.00000000000E+00  0.00000000000E+00  0.12373633797E+03  0.20702014784E+04  0.20665002976E+04 0.  0.
        5    1    3    3  502    0 -0.36020216084E+03  0.91718739152E+03 -0.24950271953E+03  0.10164900417E+04  0.46999998093E+01 0. -1.
       -5    1    3    3    0  502  0.36020216084E+03 -0.91718739152E+03  0.37323905750E+03  0.10537114367E+04  0.46999998093E+01 0.  1.
</event>
<event>
 5   0  0.1257524E-04  0.1530865E+04  0.7818609E-02  0.8864184E-01
       -2   -1    0    0    0  501  0.00000000000E+00  0.00000000000E+00  0.65499878370E+03  0.65499878370E+03  0.25500000920E-02 0. -1.
        2   -1    0    0  501    0  0.00000000000E+00  0.00000000000E+00 -0.89448559575E+03  0.89448559575E+03  0.25500000920E-02 0.  1.
    10030    2    1    2    0    0  0.00000000000E+00  0.00000000000E+00 -0.23948681205E+03  0.15494843795E+04  0.15308650852E+04 0.  0.
        3    1    3    3  502    0 -0.47051972277E+03 -0.29747937808E+03 -0.65149415682E+03  0.85692907319E+03  0.10100000352E+00 0.  1.
       -3    1    3    3    0  502  0.47051972277E+03  0.29747937808E+03  0.41200734477E+03  0.69255530627E+03  0.10100000352E+00 0. -1.
</event>
<event>
 5   0  0.5632156E-05  0.2276108E+04  0.7818609E-02  0.8487401E-01
        1   -1    0    0  501    0  0.00000000000E+00  0.00000000000E+00  0.13980077764E+04  0.13980077764E+04  0.50400001928E-02 0.  1.
       -1   -1    0    0    0  501  0.00000000000E+00  0.00000000000E+00 -0.92643792714E+03  0.92643792715E+03  0.50400001928E-02 0. -1.
    10030    2    1    2    0    0  0.00000000000E+00  0.00000000000E+00  0.47156984924E+03  0.23244457035E+04  0.22761084565E+04 0.  0.
        4    1    3    3  502    0  0.46826188086E+03 -0.99434684091E+03  0.53730235905E+03  0.12233929324E+04  0.12699999809E+01 0.  1.
       -4    1    3    3    0  502 -0.46826188086E+03  0.99434684091E+03 -0.65732509805E+02  0.11010527711E+04  0.12699999809E+01 0. -1.
</event>
<event>
 5   0  0.1237296E-04  0.2194231E+04  0.7818609E-02  0.8520833E-01
       -2   -1    0    0    0  501  0.00000000000E+00  0.00000000000E+00  0.13602443230E+04  0.13602443230E+04  0.25500000920E-02 0. -1.
        2   -1    0    0  501    0  0.00000000000E+00  0.00000000000E+00 -0.88488690424E+03  0.88488690424E+03  0.25500000920E-02 0.  1.
    10030    2    1    2    0    0  0.00000000000E+00  0.00000000000E+00  0.47535741876E+03  0.22451312272E+04  0.21942309705E+04 0.  0.
        1    1    3    3  502    0 -0.99604429522E+03 -0.32203871362E+03 -0.98343426303E+02  0.10514202778E+04  0.50400001928E-02 0.  1.
       -1    1    3    3    0  502  0.99604429522E+03  0.32203871362E+03  0.57370084506E+03  0.11937109494E+04  0.50400001928E-02 0. -1.
</event>
<event>
 5   0  0.1270613E-04  0.2277826E+04  0.7818609E-02  0.8486716E-01
        2   -1    0    0  501    0  0.00000000000E+00  0.00000000000E+00  0.15887221308E+04  0.15887221308E+04  0.25500000920E-02 0. -1.
       -2   -1    0    0    0  501  0.00000000000E+00  0.00000000000E+00 -0.81645666516E+03  0.81645666517E+03  0.25500000920E-02 0.  1.
    10030    2    1    2    0    0  0.00000000000E+00  0.00000000000E+00  0.77226546568E+03  0.24051787960E+04  0.22778259572E+04 0.  0.
        2    1    3    3  502    0 -0.60385736750E+03 -0.60592223530E+03 -0.40779440645E+03  0.94767175407E+03  0.25500000920E-02 0.  1.
       -2    1    3    3    0  502  0.60385736750E+03  0.60592223530E+03  0.11800598721E+04  0.14575070420E+04  0.25500000920E-02 0. -1.
</event>
<event>
 5   0  0.5843670E-05  0.2306657E+04  0.7818609E-02  0.8475301E-01
       -1   -1    0    0    0  501  0.00000000000E+00  0.00000000000E+00  0.90837632312E+03  0.90837632313E+03  0.50400001928E-02 0. -1.
        1   -1    0    0  501    0  0.00000000000E+00  0.00000000000E+00 -0.14643348463E+04  0.14643348463E+04  0.50400001928E-02 0.  1.
    10030    2    1    2    0    0  0.00000000000E+00  0.00000000000E+00 -0.55595852317E+03  0.23727111694E+04  0.23066574115E+04 0.  0.
        2    1    3    3  502    0 -0.10455238162E+04 -0.46777183506E+03 -0.41688918784E+03  0.12189040712E+04  0.25500000920E-02 0.  1.
       -2    1    3    3    0  502  0.10455238162E+04  0.46777183506E+03 -0.13906933533E+03  0.11538070982E+04  0.25500000920E-02 0. -1.
</event>
<event>
 5   0  0.1234988E-04  0.2286093E+04  0.7818609E-02  0.8483425E-01
       -2   -1    0    0    0  501  0.00000000000E+00  0.00000000000E+00  0.12871842405E+04  0.12871842405E+04  0.25500000920E-02 0.  1.
        2   -1    0    0  501    0  0.00000000000E+00  0.00000000000E+00 -0.10150488562E+04  0.10150488562E+04  0.25500000920E-02 0. -1.
    10030    2    1    2    0    0  0.00000000000E+00  0.00000000000E+00  0.27213538438E+03  0.23022330967E+04  0.22860926412E+04 0.  0.
        5    1    3    3  502    0 -0.87405885613E+03  0.73112587596E+03  0.45943558140E+02  0.11404634282E+04  0.46999998093E+01 0. -1.
       -5    1    3    3    0  502  0.87405885613E+03 -0.73112587596E+03  0.22619182624E+03  0.11617696685E+04  0.46999998093E+01 0.  1.
</event>
<event>
 5   0  0.5663790E-05  0.2273332E+04  0.7818609E-02  0.8488511E-01
        1   -1    0    0  501    0  0.00000000000E+00  0.00000000000E+00  0.12229277817E+04  0.12229277817E+04  0.50400001928E-02 0. -1.
       -1   -1    0    0    0  501  0.00000000000E+00  0.00000000000E+00 -0.10564884764E+04  0.10564884765E+04  0.50400001928E-02 0.  1.
    10030    2    1    2    0    0  0.00000000000E+00  0.00000000000E+00  0.16643930522E+03  0.22794162581E+04  0.22733315718E+04 0.  0.
        3    1    3    3  502    0 -0.77535974131E+02  0.84801496799E+03  0.83814113677E+03  0.11948312804E+04  0.10100000352E+00 0. -1.
       -3    1    3    3    0  502  0.77535974131E+02 -0.84801496799E+03 -0.67170183155E+03  0.10845849777E+04  0.10100000352E+00 0.  1.
</event>
<event>
 5   0  0.5663790E-05  0.2238610E+04  0.7818609E-02  0.8502528E-01
       -1   -1    0    0    0  501  0.00000000000E+00  0.00000000000E+00  0.10846722976E+04  0.10846722976E+04  0.50400001928E-02 0. -1.
        1   -1    0    0  501    0  0.00000000000E+00  0.00000000000E+00 -0.11550434150E+04  0.11550434150E+04  0.50400001928E-02 0.  1.
    10030    2    1    2    0    0  0.00000000000E+00  0.00000000000E+00 -0.70371117432E+02  0.22397157126E+04  0.22386099212E+04 0.  0.
        3    1    3    3  502    0 -0.10776949436E+04  0.10572906583E+03  0.24821847633E+03  0.11109533965E+04  0.10100000352E+00 0.  1.
       -3    1    3    3    0  502  0.10776949436E+04 -0.10572906583E+03 -0.31858959376E+03  0.11287623162E+04  0.10100000352E+00 0. -1.
</event>
<event>
 5   0  0.5632156E-05  0.1402523E+04  0.7818609E-02  0.8951995E-01
        1   -1    0    0  501    0  0.00000000000E+00  0.00000000000E+00  0.48921231888E+03  0.48921231891E+03  0.50400001928E-02 0. -1.
       -1   -1    0    0    0  501  0.00000000000E+00  0.00000000000E+00 -0.10052227330E+04  0.10052227330E+04  0.50400001928E-02 0.  1.
    10030    2    1    2    0    0  0.00000000000E+00  0.00000000000E+00 -0.51601041407E+03  0.14944350519E+04  0.14025225049E+04 0.  0.
        4    1    3    3  502    0 -0.13735868557E+03  0.36746446760E+03 -0.87736193256E+03  0.96107393943E+03  0.12699999809E+01 0.  1.
       -4    1    3    3    0  502  0.13735868557E+03 -0.36746446760E+03  0.36135151849E+03  0.53336111244E+03  0.12699999809E+01 0. -1.
</event>
<event>
 5   0  0.1281432E-04  0.2346229E+04  0.7818609E-02  0.8459913E-01
       -2   -1    0    0    0  501  0.00000000000E+00  0.00000000000E+00  0.93453504745E+03  0.93453504745E+03  0.25500000920E-02 0.  1.
        2   -1    0    0  501    0  0.00000000000E+00  0.00000000000E+00 -0.14726016276E+04  0.14726016276E+04  0.25500000920E-02 0. -1.
    10030    2    1    2    0    0  0.00000000000E+00  0.00000000000E+00 -0.53806658012E+03  0.24071366750E+04  0.23462291720E+04 0.  0.
        4    1    3    3  502    0  0.44381989025E+03 -0.77766790973E+03 -0.10466354790E+04  0.13773855349E+04  0.12699999809E+01 0. -1.
       -4    1    3    3    0  502 -0.44381989025E+03  0.77766790973E+03  0.50856889891E+03  0.10297511401E+04  0.12699999809E+01 0.  1.
</event>
<event>
 5   0  0.1270613E-04  0.2226421E+04  0.7818609E-02  0.8507511E-01
       -2   -1    0    0    0  501  0.00000000000E+00  0.00000000000E+00  0.61155666852E+03  0.61155666852E+03  0.25500000920E-02 0. -1.
        2   -1    0    0  501    0  0.00000000000E+00  0.00000000000E+00 -0.20263664832E+04  0.20263664832E+04  0.25500000920E-02 0.  1.
    10030    2    1    2    0    0  0.00000000000E+00  0.00000000000E+00 -0.14148098147E+04  0.26379231517E+04  0.22264212860E+04 0.  0.
        2    1    3    3  502    0 -0.10052504728E+04 -0.38317698787E+03 -0.36836057465E+03  0.11371203235E+04  0.25500000920E-02 0. -1.
       -2    1    3    3    0  502  0.10052504728E+04  0.38317698787E+03 -0.10464492400E+04  0.15008028282E+04  0.25500000920E-02 0.  1.
</event>
<event>
 5   0  0.1281432E-04  0.2178129E+04  0.7818609E-02  0.8527587E-01
       -2   -1    0    0    0  501  0.00000000000E+00  0.00000000000E+00  0.71513797727E+03  0.71513797727E+03  0.25500000920E-02 0. -1.
        2   -1    0    0  501    0  0.00000000000E+00  0.00000000000E+00 -0.16585073382E+04  0.16585073382E+04  0.25500000920E-02 0.  1.
    10030    2    1    2    0    0  0.00000000000E+00  0.00000000000E+00 -0.94336936092E+03  0.23736453155E+04  0.21781290900E+04 0.  0.
        4    1    3    3  502    0 -0.30281140635E+03  0.10172915294E+04 -0.20590042587E+03  0.10811907334E+04  0.12699999809E+01 0. -1.
       -4    1    3    3    0  502  0.30281140635E+03 -0.10172915294E+04 -0.73746893505E+03  0.12924545821E+04  0.12699999809E+01 0.  1.
</event>
<event>
 5   0  0.1237296E-04  0.2277887E+04  0.7818609E-02  0.8486691E-01
        2   -1    0    0  501    0  0.00000000000E+00  0.00000000000E+00  0.98032996282E+03  0.98032996282E+03  0.25500000920E-02 0.  1.
       -2   -1    0    0    0  501  0.00000000000E+00  0.00000000000E+00 -0.13232201723E+04  0.13232201723E+04  0.25500000920E-02 0. -1.
    10030    2    1    2    0    0  0.00000000000E+00  0.00000000000E+00 -0.34289020952E+03  0.23035501352E+04  0.22778870756E+04 0.  0.
        1    1    3    3  502    0 -0.69364120126E+03 -0.82751497206E+03 -0.53784351104E+03  0.12063145475E+04  0.50400001928E-02 0. -1.
       -1    1    3    3    0  502  0.69364120126E+03  0.82751497206E+03  0.19495330152E+03  0.10972355877E+04  0.50400001928E-02 0.  1.
</event>
<event>
 5   0  0.1257524E-04  0.2143662E+04  0.7818609E-02  0.8542250E-01
       -2   -1    0    0    0  501  0.00000000000E+00  0.00000000000E+00  0.97057779512E+03  0.97057779513E+03  0.25500000920E-02 0.  1.
        2   -1    0    0  501    0  0.00000000000E+00  0.00000000000E+00 -0.11836470907E+04  0.11836470907E+04  0.25500000920E-02 0. -1.
    10030    2    1    2    0    0  0.00000000000E+00  0.00000000000E+00 -0.21306929559E+03  0.21542248858E+04  0.21436618983E+04 0.  0.
        3    1    3    3  502    0 -0.95588126612E+03  0.33536586289E+03 -0.45846353973E+03  0.11119208984E+04  0.10100000352E+00 0. -1.
       -3    1    3    3    0  502  0.95588126612E+03 -0.33536586289E+03  0.24539424414E+03  0.10423039874E+04  0.10100000352E+00 0.  1.
</event>
<event>
 5   0  0.5642466E-05  0.2185863E+04  0.7818609E-02  0.8524335E-01
       -1   -1    0    0    0  501  0.00000000000E+00  0.00000000000E+00  0.14874139516E+04  0.14874139516E+04  0.50400001928E-02 0.  1.
        1   -1    0    0  501    0  0.00000000000E+00  0.00000000000E+00 -0.80307128128E+03  0.80307128129E+03  0.50400001928E-02 0. -1.
    10030    2    1    2    0    0  0.00000000000E+00  0.00000000000E+00  0.68434267033E+03  0.22904852329E+04  0.21858631503E+04 0.  0.
        1    1    3    3  502    0  0.58586295677E+03 -0.19154892663E+03 -0.60356383837E+03  0.86267937405E+03  0.50400001928E-02 0. -1.
       -1    1    3    3    0  502 -0.58586295677E+03  0.19154892663E+03  0.12879065087E+04  0.14278058589E+04  0.50400001928E-02 0.  1.
</event>
<event>
 5   0  0.1270613E-04  0.1506250E+04  0.7818609E-02  0.8880307E-01
        2   -1    0    0  501    0  0.00000000000E+00  0.00000000000E+00  0.28582819340E+04  0.28582819340E+04  0.25500000920E-02 0.  1.
       -2   -1    0    0    0  501  0.00000000000E+00  0.00000000000E+00 -0.19843997414E+03  0.19843997416E+03  0.25500000920E-02 0. -1.
    10030    2    1    2    0    0  0.00000000000E+00  0.00000000000E+00  0.26598419598E+04  0.30567219081E+04  0.15062501693E+04 0.  0.
        2    1    3    3  502    0 -0.55515368601E+03 -0.14459916923E+03  0.23201416902E+04  0.23900129701E+04  0.25500000920E-02 0.  1.
       -2    1    3    3    0  502  0.55515368601E+03  0.14459916923E+03  0.33970026966E+03  0.66670893802E+03  0.25500000920E-02 0. -1.
</event>
<event>
 5   0  0.5843670E-05  0.2378241E+04  0.7818609E-02  0.8447695E-01
        1   -1    0    0  501    0  0.00000000000E+00  0.00000000000E+00  0.14601967491E+04  0.14601967491E+04  0.50400001928E-02 0. -1.
       -1   -1    0    0    0  501  0.00000000000E+00  0.00000000000E+00 -0.96836746410E+03  0.96836746411E+03  0.50400001928E-02 0.  1.
    10030    2    1    2    0    0  0.00000000000E+00  0.00000000000E+00  0.49182928502E+03  0.24285642132E+04  0.23782405455E+04 0.  0.
        2    1    3    3  502    0 -0.11073325922E+04  0.13474887178E+03  0.66653379160E+03  0.12994652837E+04  0.25500000920E-02 0. -1.
       -2    1    3    3    0  502  0.11073325922E+04 -0.13474887178E+03 -0.17470450659E+03  0.11290989296E+04  0.25500000920E-02 0.  1.
</event>
<event>
 5   0  0.1270613E-04  0.2306260E+04  0.7818609E-02  0.8475457E-01
       -2   -1    0    0    0  501  0.00000000000E+00  0.00000000000E+00  0.87671550558E+03  0.87671550558E+03  0.25500000920E-02 0. -1.
        2   -1    0    0  501    0  0.00000000000E+00  0.00000000000E+00 -0.15166935873E+04  0.15166935873E+04  0.25500000920E-02 0.  1.
    10030    2    1    2    0    0  0.00000000000E+00  0.00000000000E+00 -0.63997808171E+03  0.23934090929E+04  0.23062599898E+04 0.  0.
        2    1    3    3  502    0  0.10883312160E+04  0.37940164392E+03 -0.28259492700E+03  0.11867056652E+04  0.25500000920E-02 0.  1.
       -2    1    3    3    0  502 -0.10883312160E+04 -0.37940164392E+03 -0.35738315471E+03  0.12067034277E+04  0.25500000920E-02 0. -1.
</event>
<event>
 5   0  0.1281432E-04  0.2303990E+04  0.7818609E-02  0.8476349E-01
        2   -1    0    0  501    0  0.00000000000E+00  0.00000000000E+00  0.19156596720E+04  0.19156596720E+04  0.25500000920E-02 0. -1.
       -2   -1    0    0    0  501  0.00000000000E+00  0.00000000000E+00 -0.69276027439E+03  0.69276027439E+03  0.25500000920E-02 0.  1.
    10030    2    1    2    0    0  0.00000000000E+00  0.00000000000E+00  0.12228993976E+04  0.26084199464E+04  0.23039903820E+04 0.  0.
        4    1    3    3  502    0 -0.63698170194E+03 -0.43031456457E+03 -0.35992632908E+03  0.84880203131E+03  0.12699999809E+01 0.  1.
       -4    1    3    3    0  502  0.63698170194E+03  0.43031456457E+03  0.15828257267E+04  0.17596179151E+04  0.12699999809E+01 0. -1.
</event>
<event>
 5   0  0.5642466E-05  0.2172872E+04  0.7818609E-02  0.8529805E-01
        1   -1    0    0  501    0  0.00000000000E+00  0.00000000000E+00  0.19164048869E+04  0.19164048869E+04  0.50400001928E-02 0. -1.
       -1   -1    0    0    0  501  0.00000000000E+00  0.00000000000E+00 -0.61591551414E+03  0.61591551417E+03  0.50400001928E-02 0.  1.
    10030    2    1    2    0    0  0.00000000000E+00  0.00000000000E+00  0.13004893727E+04  0.25323204010E+04  0.21728722938E+04 0.  0.
        1    1    3    3  502    0  0.23011594651E+03  0.83871742243E+03 -0.10857450762E+03  0.87646373984E+03  0.50400001928E-02 0.  1.
       -1    1    3    3    0  502 -0.23011594651E+03 -0.83871742243E+03  0.14090638804E+04  0.16558566612E+04  0.50400001928E-02 0. -1.
</event>
<event>
 5   0  0.5663790E-05  0.2242549E+04  0.7818609E-02  0.8500924E-01
        1   -1    0    0  501    0  0.00000000000E+00  0.00000000000E+00  0.77446373921E+03  0.77446373922E+03  0.50400001928E-02 0.  1.
       -1   -1    0    0    0  501  0.00000000000E+00  0.00000000000E+00 -0.16233892197E+04  0.16233892197E+04  0.50400001928E-02 0. -1.
    10030    2    1    2    0    0  0.00000000000E+00  0.00000000000E+00 -0.84892548051E+03  0.23978529589E+04  0.22425486263E+04 0.  0.
        3    1    3    3  502    0  0.41738873896E+03 -0.57808752594E+03 -0.13497578757E+04  0.15265139633E+04  0.10100000352E+00 0. -1.
       -3    1    3    3    0  502 -0.41738873896E+03  0.57808752594E+03  0.50083239517E+03  0.87133899563E+03  0.10100000352E+00 0.  1.
</event>
<event>
 5   0  0.1257524E-04  0.2373488E+04  0.7818609E-02  0.8449496E-01
       -2   -1    0    0    0  501  0.00000000000E+00  0.00000000000E+00  0.97923172206E+03  0.97923172206E+03  0.25500000920E-02 0. -1.
        2   -1    0    0  501    0  0.00000000000E+00  0.00000000000E+00 -0.14382312955E+04  0.14382312955E+04  0.25500000920E-02 0.  1.
    10030    2    1    2    0    0  0.00000000000E+00  0.00000000000E+00 -0.45899957346E+03  0.24174630176E+04  0.23734883258E+04 0.  0.
        3    1    3    3  502    0  0.53589399502E+03  0.17702747311E+03 -0.12927959087E+04  0.14106177271E+04  0.10100000352E+00 0.  1.
       -3    1    3    3    0  502 -0.53589399502E+03 -0.17702747311E+03  0.83379633525E+03  0.10068452905E+04  0.10100000352E+00 0. -1.
</event>
<event>
 5   0  0.5924654E-05  0.2462914E+04  0.7818609E-02  0.8416318E-01
       -1   -1    0    0    0  501  0.00000000000E+00  0.00000000000E+00  0.12582327692E+04  0.12582327692E+04  0.50400001928E-02 0.  1.
        1   -1    0    0  501    0  0.00000000000E+00  0.00000000000E+00 -0.12052509412E+04  0.12052509412E+04  0.50400001928E-02 0. -1.
    10030    2    1    2    0    0  0.00000000000E+00  0.00000000000E+00  0.52981827977E+02  0.24634837104E+04  0.24629139078E+04 0.  0.
        5    1    3    3  502    0 -0.90316789507E+03  0.50738333697E+03 -0.63948145019E+03  0.12174188730E+04  0.46999998093E+01 0. -1.
       -5    1    3    3    0  502  0.90316789507E+03 -0.50738333697E+03  0.69246327817E+03  0.12460648374E+04  0.46999998093E+01 0.  1.
</event>
<event>
 5   0  0.5632156E-05  0.2210339E+04  0.7818609E-02  0.8514137E-01
        1   -1    0    0  501    0  0.00000000000E+00  0.00000000000E+00  0.26484936221E+04  0.26484936221E+04  0.50400001928E-02 0.  1.
       -1   -1    0    0    0  501  0.00000000000E+00  0.00000000000E+00 -0.46116753445E+03  0.46116753447E+03  0.50400001928E-02 0. -1.
    10030    2    1    2    0    0  0.00000000000E+00  0.00000000000E+00  0.21873260876E+04  0.31096611565E+04  0.22103386833E+04 0.  0.
        4    1    3    3  502    0  0.61341740485E+03  0.85752565196E+03  0.15597738393E+04  0.18826914774E+04  0.12699999809E+01 0. -1.
       -4    1    3    3    0  502 -0.61341740485E+03 -0.85752565196E+03  0.62755224835E+03  0.12269696792E+04  0.12699999809E+01 0.  1.
</event>
<event>
 5   0  0.1281432E-04  0.2267923E+04  0.7818609E-02  0.8490677E-01
       -2   -1    0    0    0  501  0.00000000000E+00  0.00000000000E+00  0.12477588156E+04  0.12477588156E+04  0.25500000920E-02 0. -1.
        2   -1    0    0  501    0  0.00000000000E+00  0.00000000000E+00 -0.10305422622E+04  0.10305422622E+04  0.25500000920E-02 0.  1.
    10030    2    1    2    0    0  0.00000000000E+00  0.00000000000E+00  0.21721655342E+03  0.22783010778E+04  0.22679225671E+04 0.  0.
        4    1    3    3  502    0 -0.70878841616E+03 -0.84065254524E+03 -0.16976785796E+03  0.11126097515E+04  0.12699999809E+01 0. -1.
       -4    1    3    3    0  502  0.70878841616E+03  0.84065254524E+03  0.38698441139E+03  0.11656913263E+04  0.12699999809E+01 0.  1.
</event>
<event>
 5   0  0.1237296E-04  0.2300079E+04  0.7818609E-02  0.8477890E-01
        2   -1    0    0  501    0  0.00000000000E+00  0.00000000000E+00  0.15821074385E+04  0.15821074385E+04  0.25500000920E-02 0. -1.
       -2   -1    0    0    0  501  0.00000000000E+00  0.00000000000E+00 -0.83596772095E+03  0.83596772095E+03  0.25500000920E-02 0.  1.
    10030    2    1    2    0    0  0.00000000000E+00  0.00000000000E+00  0.74613971760E+03  0.24180751595E+04  0.23000789114E+04 0.  0.
        1    1    3    3  502    0  0.41444939289E+03  0.36932835481E+03 -0.68578333418E+03  0.88230976102E+03  0.50400001928E-02 0.  1.
       -1    1    3    3    0  502 -0.41444939289E+03 -0.36932835481E+03  0.14319230518E+04  0.15357653985E+04  0.50400001928E-02 0. -1.
</event>
<event>
 5   0  0.5843670E-05  0.2263314E+04  0.7818609E-02  0.8492528E-01
        1   -1    0    0  501    0  0.00000000000E+00  0.00000000000E+00  0.15304161201E+04  0.15304161201E+04  0.50400001928E-02 0. -1.
       -1   -1    0    0    0  501  0.00000000000E+00  0.00000000000E+00 -0.83679687280E+03  0.83679687282E+03  0.50400001928E-02 0.  1.
    10030    2    1    2    0    0  0.00000000000E+00  0.00000000000E+00  0.69361924733E+03  0.23672129930E+04  0.22633138743E+04 0.  0.
        2    1    3    3  502    0  0.89114220778E+02  0.29341453334E+03  0.14861337195E+04  0.15174408934E+04  0.25500000920E-02 0. -1.
       -2    1    3    3    0  502 -0.89114220778E+02 -0.29341453334E+03 -0.79251447213E+03  0.84977209960E+03  0.25500000920E-02 0.  1.
</event>
<event>
 5   0  0.1270613E-04  0.2314148E+04  0.7818609E-02  0.8472364E-01
        2   -1    0    0  501    0  0.00000000000E+00  0.00000000000E+00  0.13182356956E+04  0.13182356956E+04  0.25500000920E-02 0.  1.
       -2   -1    0    0    0  501  0.00000000000E+00  0.00000000000E+00 -0.10156147896E+04  0.10156147896E+04  0.25500000920E-02 0. -1.
    10030    2    1    2    0    0  0.00000000000E+00  0.00000000000E+00  0.30262090595E+03  0.23338504852E+04  0.23141475049E+04 0.  0.
        2    1    3    3  502    0 -0.31716627480E+03 -0.25374605052E+03  0.12439731211E+04  0.13086063694E+04  0.25500000920E-02 0.  1.
       -2    1    3    3    0  502  0.31716627480E+03  0.25374605052E+03 -0.94135221514E+03  0.10252441158E+04  0.25500000920E-02 0. -1.
</event>
<event>
 5   0  0.1237296E-04  0.2881638E+04  0.7818609E-02  0.8278362E-01
       -2   -1    0    0    0  501  0.00000000000E+00  0.00000000000E+00  0.14406332313E+04  0.14406332313E+04  0.25500000920E-02 0. -1.
        2   -1    0    0  501    0  0.00000000000E+00  0.00000000000E+00 -0.14410046258E+04  0.14410046258E+04  0.25500000920E-02 0.  1.
    10030    2    1    2    0    0  0.00000000000E+00  0.00000000000E+00 -0.37139445000E+00  0.28816378571E+04  0.28816378331E+04 0.  0.
        1    1    3    3  502    0 -0.26920242138E+03  0.41216376270E+03 -0.13542943597E+04  0.14409934503E+04  0.50400001928E-02 0.  1.
       -1    1    3    3    0  502  0.26920242138E+03 -0.41216376270E+03  0.13539229653E+04  0.14406444068E+04  0.50400001928E-02 0. -1.
</event>
<event>
 5   0  0.1257524E-04  0.2348049E+04  0.7818609E-02  0.8459214E-01
        2   -1    0    0  501    0  0.00000000000E+00  0.00000000000E+00  0.16101705364E+04  0.16101705364E+04  0.25500000920E-02 0. -1.
       -2   -1    0    0    0  501  0.00000000000E+00  0.00000000000E+00 -0.85601675260E+03  0.85601675261E+03  0.25500000920E-02 0.  1.
    10030    2    1    2    0    0  0.00000000000E+00  0.00000000000E+00  0.75415378382E+03  0.24661872890E+04  0.23480485120E+04 0.  0.
        3    1    3    3  502    0  0.64172449851E+03 -0.48420372854E+03 -0.52158247408E+03  0.95828590212E+03  0.10100000352E+00 0.  1.
       -3    1    3    3    0  502 -0.64172449851E+03  0.48420372854E+03  0.12757362579E+04  0.15079013869E+04  0.10100000352E+00 0. -1.
</event>
<event>
 5   0  0.1270613E-04  0.2295127E+04  0.7818609E-02  0.8479845E-01
       -2   -1    0    0    0  501  0.00000000000E+00  0.00000000000E+00  0.15111398760E+04  0.15111398760E+04  0.25500000920E-02 0. -1.
        2   -1    0    0  501    0  0.00000000000E+00  0.00000000000E+00 -0.87146287001E+03  0.87146287001E+03  0.25500000920E-02 0.  1.
    10030    2    1    2    0    0  0.00000000000E+00  0.00000000000E+00  0.63967700601E+03  0.23826027460E+04  0.22951272674E+04 0.  0.
        2    1    3    3  502    0 -0.69987705517E+03  0.73424921766E+02  0.12608546256E+04  0.14439437310E+04  0.25500000920E-02 0. -1.
       -2    1    3    3    0  502  0.69987705517E+03 -0.73424921766E+02 -0.62117761954E+03  0.93865901504E+03  0.25500000920E-02 0.  1.
</event>
<event>
 5   0  0.5924654E-05  0.2350763E+04  0.7818609E-02  0.8458171E-01
       -1   -1    0    0    0  501  0.00000000000E+00  0.00000000000E+00  0.10080320697E+04  0.10080320697E+04  0.50400001928E-02 0.  1.
        1   -1    0    0  501    0  0.00000000000E+00  0.00000000000E+00 -0.13705135175E+04  0.13705135175E+04  0.50400001928E-02 0. -1.
    10030    2    1    2    0    0  0.00000000000E+00  0.00000000000E+00 -0.36248144782E+03  0.23785455873E+04  0.23507629210E+04 0.  0.
        5    1    3    3  502    0  0.40899236750E+02  0.59068596629E+03  0.84609990158E+03  0.10327099263E+04  0.46999998093E+01 0.  1.
       -5    1    3    3    0  502 -0.40899236750E+02 -0.59068596629E+03 -0.12085813494E+04  0.13458356610E+04  0.46999998093E+01 0. -1.
</event>
<event>
 5   0  0.1281432E-04  0.2328763E+04  0.7818609E-02  0.8466666E-01
       -2   -1    0    0    0  501  0.00000000000E+00  0.00000000000E+00  0.86597907377E+03  0.86597907377E+03  0.25500000920E-02 0.  1.
        2   -1    0    0  501    0  0.00000000000E+00  0.00000000000E+00 -0.15656085797E+04  0.15656085797E+04  0.25500000920E-02 0. -1.
    10030    2    1    2    0    0  0.00000000000E+00  0.00000000000E+00 -0.69962950596E+03  0.24315876535E+04  0.23287629916E+04 0.  0.
        4    1    3    3  502    0  0.10400669918E+04  0.22595320342E+03 -0.84288163189E+03  0.13576616868E+04  0.12699999809E+01 0. -1.
       -4    1    3    3    0  502 -0.10400669918E+04 -0.22595320342E+03  0.14325212594E+03  0.10739259667E+04  0.12699999809E+01 0.  1.
</event>
<event>
 5   0  0.5663790E-05  0.2277776E+04  0.7818609E-02  0.8486735E-01
        1   -1    0    0  501    0  0.00000000000E+00  0.00000000000E+00  0.90438363310E+03  0.90438363311E+03  0.50400001928E-02 0.  1.
       -1   -1    0    0    0  501  0.00000000000E+00  0.00000000000E+00 -0.14341991165E+04  0.14341991165E+04  0.50400001928E-02 0. -1.
    10030    2    1    2    0    0  0.00000000000E+00  0.00000000000E+00 -0.52981548344E+03  0.23385827497E+04  0.22777762907E+04 0.  0.
        3    1    3    3  502    0  0.11193887824E+04  0.18101575712E+03 -0.15592195801E+03  0.11446001999E+04  0.10100000352E+00 0.  1.
       -3    1    3    3    0  502 -0.11193887824E+04 -0.18101575712E+03 -0.37389352543E+03  0.11939825497E+04  0.10100000352E+00 0. -1.
</event>
<event>
 5   0  0.5642466E-05  0.2268593E+04  0.7818609E-02  0.8490409E-01
        1   -1    0    0  501    0  0.00000000000E+00  0.00000000000E+00  0.15281681919E+04  0.15281681919E+04  0.50400001928E-02 0. -1.
       -1   -1    0    0    0  501  0.00000000000E+00  0.00000000000E+00 -0.84194141583E+03  0.84194141585E+03  0.50400001928E-02 0.  1.
    10030    2    1    2    0    0  0.00000000000E+00  0.00000000000E+00  0.68622677604E+03  0.23701096077E+04  0.22685925955E+04 0.  0.
        1    1    3    3  502    0 -0.55730661489E+03  0.70606291464E+01 -0.68901581252E+03  0.88621854269E+03  0.50400001928E-02 0.  1.
       -1    1    3    3    0  502  0.55730661489E+03 -0.70606291464E+01  0.13752425886E+04  0.14838910650E+04  0.50400001928E-02 0. -1.
</event>
<event>
 5   0  0.1257524E-04  0.2342064E+04  0.7818609E-02  0.8461518E-01
       -2   -1    0    0    0  501  0.00000000000E+00  0.00000000000E+00  0.96138519539E+03  0.96138519539E+03  0.25500000920E-02 0. -1.
        2   -1    0    0  501    0  0.00000000000E+00  0.00000000000E+00 -0.14263954188E+04  0.14263954188E+04  0.25500000920E-02 0.  1.
    10030    2    1    2    0    0  0.00000000000E+00  0.00000000000E+00 -0.46501022340E+03  0.23877806142E+04  0.23420635674E+04 0.  0.
        3    1    3    3  502    0  0.61187736994E+03 -0.18235202180E+03  0.76832357437E+03  0.99898313341E+03  0.10100000352E+00 0. -1.
       -3    1    3    3    0  502 -0.61187736994E+03  0.18235202180E+03 -0.12333337978E+04  0.13887974808E+04  0.10100000352E+00 0.  1.
</event>
<event>
 5   0  0.4489500E-05  0.2235164E+04  0.7818609E-02  0.8503933E-01
        3   -1    0    0  501    0  0.00000000000E+00  0.00000000000E+00  0.10552214322E+04  0.10552214370E+04  0.10100000352E+00 0. -1.
       -3   -1    0    0    0  501  0.00000000000E+00  0.00000000000E+00 -0.11836276195E+04  0.11836276238E+04  0.10100000352E+00 0.  1.
    10030    2    1    2    0    0  0.00000000000E+00  0.00000000000E+00 -0.12840618734E+03  0.22388490609E+04  0.22351637453E+04 0.  0.
        2    1    3    3  502    0  0.84485852845E+03 -0.53876512390E+02  0.66658920332E+03  0.10775109177E+04  0.25500000920E-02 0. -1.
       -2    1    3    3    0  502 -0.84485852845E+03  0.53876512390E+02 -0.79499539065E+03  0.11613381432E+04  0.25500000920E-02 0.  1.
</event>
<event>
 5   0  0.5663790E-05  0.2235256E+04  0.7818609E-02  0.8503896E-01
        1   -1    0    0  501    0  0.00000000000E+00  0.00000000000E+00  0.20923600290E+04  0.20923600290E+04  0.50400001928E-02 0.  1.
       -1   -1    0    0    0  501  0.00000000000E+00  0.00000000000E+00 -0.59697757980E+03  0.59697757982E+03  0.50400001928E-02 0. -1.
    10030    2    1    2    0    0  0.00000000000E+00  0.00000000000E+00  0.14953824492E+04  0.26893376088E+04  0.22352557135E+04 0.  0.
        3    1    3    3  502    0  0.45190365825E+03  0.96726754634E+03  0.11454005625E+04  0.15658115727E+04  0.10100000352E+00 0.  1.
       -3    1    3    3    0  502 -0.45190365825E+03 -0.96726754634E+03  0.34998188671E+03  0.11235260361E+04  0.10100000352E+00 0. -1.
</event>
<event>
 5   0  0.5632156E-05  0.2302246E+04  0.7818609E-02  0.8477036E-01
       -1   -1    0    0    0  501  0.00000000000E+00  0.00000000000E+00  0.79776685575E+03  0.79776685577E+03  0.50400001928E-02 0.  1.
        1   -1    0    0  501    0  0.00000000000E+00  0.00000000000E+00 -0.16609915711E+04  0.16609915711E+04  0.50400001928E-02 0. -1.
    10030    2    1    2    0    0  0.00000000000E+00  0.00000000000E+00 -0.86322471536E+03  0.24587584269E+04  0.23022458801E+04 0.  0.
        4    1    3    3  502    0  0.88852015863E+02  0.69167755175E+03  0.54649285596E+03  0.88598452065E+03  0.12699999809E+01 0.  1.
       -4    1    3    3    0  502 -0.88852015863E+02 -0.69167755175E+03 -0.14097175713E+04  0.15727739062E+04  0.12699999809E+01 0. -1.
</event>
<event>
 5   0  0.5924654E-05  0.2258700E+04  0.7818609E-02  0.8494386E-01
       -1   -1    0    0    0  501  0.00000000000E+00  0.00000000000E+00  0.97961915346E+03  0.97961915348E+03  0.50400001928E-02 0. -1.
        1   -1    0    0  501    0  0.00000000000E+00  0.00000000000E+00 -0.13019660622E+04  0.13019660622E+04  0.50400001928E-02 0.  1.
    10030    2    1    2    0    0  0.00000000000E+00  0.00000000000E+00 -0.32234690870E+03  0.22815852157E+04  0.22586995300E+04 0.  0.
        5    1    3    3  502    0 -0.65882445689E+02 -0.10178277247E+04 -0.65095222251E+03  0.12099895288E+04  0.46999998093E+01 0.  1.
       -5    1    3    3    0  502  0.65882445689E+02  0.10178277247E+04  0.32860531381E+03  0.10715956869E+04  0.46999998093E+01 0. -1.
</event>
<event>
 5   0  0.5632156E-05  0.2282040E+04  0.7818609E-02  0.8485036E-01
        1   -1    0    0  501    0  0.00000000000E+00  0.00000000000E+00  0.31981059763E+04  0.31981059763E+04  0.50400001928E-02 0.  1.
       -1   -1    0    0    0  501  0.00000000000E+00  0.00000000000E+00 -0.40709292110E+03  0.40709292113E+03  0.50400001928E-02 0. -1.
    10030    2    1    2    0    0  0.00000000000E+00  0.00000000000E+00  0.27910130552E+04  0.36051988974E+04  0.22820397051E+04 0.  0.
        4    1    3    3  502    0 -0.21092052962E+03  0.97589044121E+03  0.22680948397E+04  0.24781253878E+04  0.12699999809E+01 0.  1.
       -4    1    3    3    0  502  0.21092052962E+03 -0.97589044121E+03  0.52291821552E+03  0.11270735096E+04  0.12699999809E+01 0. -1.
</event>
<event>
 5   0  0.1237296E-04  0.2011127E+04  0.7818609E-02  0.8601436E-01
        2   -1    0    0  501    0  0.00000000000E+00  0.00000000000E+00  0.13850623981E+04  0.13850623981E+04  0.25500000920E-02 0. -1.
       -2   -1    0    0    0  501  0.00000000000E+00  0.00000000000E+00 -0.73004537836E+03  0.73004537837E+03  0.25500000920E-02 0.  1.
    10030    2    1    2    0    0  0.00000000000E+00  0.00000000000E+00  0.65501701977E+03  0.21151077765E+04  0.20111274475E+04 0.  0.
        1    1    3    3  502    0 -0.88401553870E+03  0.71338154309E+02 -0.17089839817E+03  0.90320477603E+03  0.50400001928E-02 0.  1.
       -1    1    3    3    0  502  0.88401553870E+03 -0.71338154309E+02  0.82591541795E+03  0.12119030005E+04  0.50400001928E-02 0. -1.
</event>
<event>
 5   0  0.5632156E-05  0.2382780E+04  0.7818609E-02  0.8445979E-01
        1   -1    0    0  501    0  0.00000000000E+00  0.00000000000E+00  0.19688522539E+04  0.19688522539E+04  0.50400001928E-02 0. -1.
       -1   -1    0    0    0  501  0.00000000000E+00  0.00000000000E+00 -0.72093250951E+03  0.72093250953E+03  0.50400001928E-02 0.  1.
    10030    2    1    2    0    0  0.00000000000E+00  0.00000000000E+00  0.12479197444E+04  0.26897847634E+04  0.23827795503E+04 0.  0.
        4    1    3    3  502    0  0.62802296814E+03  0.61707388007E+03  0.15300034124E+04  0.17652492959E+04  0.12699999809E+01 0. -1.
       -4    1    3    3    0  502 -0.62802296814E+03 -0.61707388007E+03 -0.28208366802E+03  0.92453546748E+03  0.12699999809E+01 0.  1.
</event>
<event>
 5   0  0.1257524E-04  0.2289660E+04  0.7818609E-02  0.8482009E-01
        2   -1    0    0  501    0  0.00000000000E+00  0.00000000000E+00  0.20176128430E+04  0.20176128430E+04  0.25500000920E-02 0. -1.
       -2   -1    0    0    0  501  0.00000000000E+00  0.00000000000E+00 -0.64959709178E+03  0.64959709178E+03  0.25500000920E-02 0.  1.
    10030    2    1    2    0    0  0.00000000000E+00  0.00000000000E+00  0.13680157512E+04  0.26672099348E+04  0.22896597434E+04 0.  0.
        3    1    3    3  502    0  0.66007194589E+03  0.25648866508E+03 -0.36384871339E+03  0.79615783956E+03  0.10100000352E+00 0.  1.
       -3    1    3    3    0  502 -0.66007194589E+03 -0.25648866508E+03  0.17318644646E+04  0.18710520952E+04  0.10100000352E+00 0. -1.
</event>
<event>
 5   0  0.1281432E-04  0.2306757E+04  0.7818609E-02  0.8475262E-01
       -2   -1    0    0    0  501  0.00000000000E+00  0.00000000000E+00  0.10695419965E+04  0.10695419965E+04  0.25500000920E-02 0.  1.
        2   -1    0    0  501    0  0.00000000000E+00  0.00000000000E+00 -0.12437867100E+04  0.12437867100E+04  0.25500000920E-02 0. -1.
    10030    2    1    2    0    0  0.00000000000E+00  0.00000000000E+00 -0.17424471345E+03  0.23133287065E+04  0.23067571359E+04 0.  0.
        4    1    3    3  502    0 -0.65849429947E+02  0.28327571256E+02  0.10673051575E+04  0.10697104799E+04  0.12699999809E+01 0.  1.
       -4    1    3    3    0  502  0.65849429947E+02 -0.28327571256E+02 -0.12415498709E+04  0.12436182266E+04  0.12699999809E+01 0. -1.
</event>
<event>
 5   0  0.5632156E-05  0.2305959E+04  0.7818609E-02  0.8475575E-01
       -1   -1    0    0    0  501  0.00000000000E+00  0.00000000000E+00  0.15386914848E+04  0.15386914848E+04  0.50400001928E-02 0. -1.
        1   -1    0    0  501    0  0.00000000000E+00  0.00000000000E+00 -0.86395636250E+03  0.86395636252E+03  0.50400001928E-02 0.  1.
    10030    2    1    2    0    0  0.00000000000E+00  0.00000000000E+00  0.67473512234E+03  0.24026478474E+04  0.23059594951E+04 0.  0.
        4    1    3    3  502    0 -0.11199501430E+04  0.19563522427E+03  0.53724223284E+03  0.12574546884E+04  0.12699999809E+01 0. -1.
       -4    1    3    3    0  502  0.11199501430E+04 -0.19563522427E+03  0.13749288950E+03  0.11451931590E+04  0.12699999809E+01 0.  1.
</event>
<event>
 5   0  0.5642466E-05  0.2234021E+04  0.7818609E-02  0.8504400E-01
       -1   -1    0    0    0  501  0.00000000000E+00  0.00000000000E+00  0.12235975020E+04  0.12235975020E+04  0.50400001928E-02 0. -1.
        1   -1    0    0  501    0  0.00000000000E+00  0.00000000000E+00 -0.10197085595E+04  0.10197085595E+04  0.50400001928E-02 0.  1.
    10030    2    1    2    0    0  0.00000000000E+00  0.00000000000E+00  0.20388894244E+03  0.22433060615E+04  0.22340213483E+04 0.  0.
        1    1    3    3  502    0  0.63202332481E+03 -0.60291369197E+03 -0.59719224456E+03  0.10581100983E+04  0.50400001928E-02 0.  1.
       -1    1    3    3    0  502 -0.63202332481E+03  0.60291369197E+03  0.80108118700E+03  0.11851959632E+04  0.50400001928E-02 0. -1.
</event>
<event>
 5   0  0.1270613E-04  0.2212977E+04  0.7818609E-02  0.8513046E-01
       -2   -1    0    0    0  501  0.00000000000E+00  0.00000000000E+00  0.67698931243E+03  0.67698931244E+03  0.25500000920E-02 0. -1.
        2   -1    0    0  501    0  0.00000000000E+00  0.00000000000E+00 -0.18084732726E+04  0.18084732726E+04  0.25500000920E-02 0.  1.
    10030    2    1    2    0    0  0.00000000000E+00  0.00000000000E+00 -0.11314839602E+04  0.24854625850E+04  0.22129772501E+04 0.  0.
        2    1    3    3  502    0 -0.10734491270E+04 -0.27242824389E+02 -0.86560288423E+03  0.13792402085E+04  0.25500000920E-02 0. -1.
       -2    1    3    3    0  502  0.10734491270E+04  0.27242824389E+02 -0.26588107593E+03  0.11062223765E+04  0.25500000920E-02 0.  1.
</event>
<event>
 5   0  0.1257524E-04  0.2161971E+04  0.7818609E-02  0.8534425E-01
        2   -1    0    0  501    0  0.00000000000E+00  0.00000000000E+00  0.10253620821E+04  0.10253620821E+04  0.25500000920E-02 0.  1.
       -2   -1    0    0    0  501  0.00000000000E+00  0.00000000000E+00 -0.11396266316E+04  0.11396266316E+04  0.25500000920E-02 0. -1.
    10030    2    1    2    0    0  0.00000000000E+00  0.00000000000E+00 -0.11426454948E+03  0.21649887138E+04  0.21619712633E+04 0.  0.
        3    1    3    3  502    0  0.10372661537E+02 -0.83508541584E+03  0.63015987263E+03  0.10462202059E+04  0.10100000352E+00 0.  1.
       -3    1    3    3    0  502 -0.10372661537E+02  0.83508541584E+03 -0.74442442212E+03  0.11187685079E+04  0.10100000352E+00 0. -1.
</event>
<event>
 5   0  0.5632156E-05  0.2236997E+04  0.7818609E-02  0.8503185E-01
       -1   -1    0    0    0  501  0.00000000000E+00  0.00000000000E+00  0.99806903655E+03  0.99806903656E+03  0.50400001928E-02 0. -1.
        1   -1    0    0  501    0  0.00000000000E+00  0.00000000000E+00 -0.12534587364E+04  0.12534587364E+04  0.50400001928E-02 0.  1.
    10030    2    1    2    0    0  0.00000000000E+00  0.00000000000E+00 -0.25538969985E+03  0.22515277730E+04  0.22369965162E+04 0.  0.
        4    1    3    3  502    0  0.81603732857E+03  0.26893995574E+03  0.59305116239E+03  0.10440100170E+04  0.12699999809E+01 0. -1.
       -4    1    3    3    0  502 -0.81603732857E+03 -0.26893995574E+03 -0.84844086224E+03  0.12075177560E+04  0.12699999809E+01 0.  1.
</event>
<event>
 5   0  0.5843670E-05  0.2332804E+04  0.7818609E-02  0.8465098E-01
       -1   -1    0    0    0  501  0.00000000000E+00  0.00000000000E+00  0.11199065609E+04  0.11199065609E+04  0.50400001928E-02 0. -1.
        1   -1    0    0  501    0  0.00000000000E+00  0.00000000000E+00 -0.12148279928E+04  0.12148279928E+04  0.50400001928E-02 0.  1.
    10030    2    1    2    0    0  0.00000000000E+00  0.00000000000E+00 -0.94921431881E+02  0.23347345537E+04  0.23328041834E+04 0.  0.
        2    1    3    3  502    0 -0.11080098824E+04  0.19593231357E+03 -0.35499086689E+03  0.11798702838E+04  0.25500000920E-02 0.  1.
       -2    1    3    3    0  502  0.11080098824E+04 -0.19593231357E+03  0.26006943501E+03  0.11548642699E+04  0.25500000920E-02 0. -1.
</event>
<event>
 5   0  0.5642466E-05  0.1405780E+04  0.7818609E-02  0.8949645E-01
        1   -1    0    0  501    0  0.00000000000E+00  0.00000000000E+00  0.18399856045E+04  0.18399856045E+04  0.50400001928E-02 0. -1.
       -1   -1    0    0    0  501  0.00000000000E+00  0.00000000000E+00 -0.26850980909E+03  0.26850980913E+03  0.50400001928E-02 0.  1.
    10030    2    1    2    0    0  0.00000000000E+00  0.00000000000E+00  0.15714757954E+04  0.21084954137E+04  0.14057797601E+04 0.  0.
        1    1    3    3  502    0  0.31223378512E+03 -0.17657446135E+03 -0.12089432762E+03  0.37852861906E+03  0.50400001928E-02 0.  1.
       -1    1    3    3    0  502 -0.31223378512E+03  0.17657446135E+03  0.16923701231E+04  0.17299667946E+04  0.50400001928E-02 0. -1.
</event>
<event>
 5   0  0.1270613E-04  0.2247145E+04  0.7818609E-02  0.8499057E-01
       -2   -1    0    0    0  501  0.00000000000E+00  0.00000000000E+00  0.83651938577E+03  0.83651938577E+03  0.25500000920E-02 0. -1.
        2   -1    0    0  501    0  0.00000000000E+00  0.00000000000E+00 -0.15091289003E+04  0.15091289003E+04  0.25500000920E-02 0.  1.
    10030    2    1    2    0    0  0.00000000000E+00  0.00000000000E+00 -0.67260951453E+03  0.23456482861E+04  0.22471453720E+04 0.  0.
        2    1    3    3  502    0 -0.17691493997E+03  0.13945987234E+03  0.81270436636E+03  0.84334829049E+03  0.25500000920E-02 0. -1.
       -2    1    3    3    0  502  0.17691493997E+03 -0.13945987234E+03 -0.14853138809E+04  0.15022999956E+04  0.25500000920E-02 0.  1.
</event>
<event>
 5   0  0.5924654E-05  0.1592673E+04  0.7818609E-02  0.8825062E-01
       -1   -1    0    0    0  501  0.00000000000E+00  0.00000000000E+00  0.12065124172E+04  0.12065124172E+04  0.50400001928E-02 0.  1.
        1   -1    0    0  501    0  0.00000000000E+00  0.00000000000E+00 -0.52560737722E+03  0.52560737725E+03  0.50400001928E-02 0. -1.
    10030    2    1    2    0    0  0.00000000000E+00  0.00000000000E+00  0.68090503995E+03  0.17321197944E+04  0.15926730075E+04 0.  0.
        5    1    3    3  502    0  0.59608506718E+03  0.32095621592E+02 -0.23274395692E+03  0.64073346699E+03  0.46999998093E+01 0. -1.
       -5    1    3    3    0  502 -0.59608506718E+03 -0.32095621592E+02  0.91364899687E+03  0.10913863274E+04  0.46999998093E+01 0.  1.
</event>
<event>
 5   0  0.5663790E-05  0.2442267E+04  0.7818609E-02  0.8423847E-01
       -1   -1    0    0    0  501  0.00000000000E+00  0.00000000000E+00  0.12429316744E+04  0.12429316744E+04  0.50400001928E-02 0.  1.
        1   -1    0    0  501    0  0.00000000000E+00  0.00000000000E+00 -0.11997176091E+04  0.11997176091E+04  0.50400001928E-02 0. -1.
    10030    2    1    2    0    0  0.00000000000E+00  0.00000000000E+00  0.43214065269E+02  0.24426492835E+04  0.24422669934E+04 0.  0.
        3    1    3    3  502    0  0.50865688076E+03  0.74181758791E+03 -0.80444104084E+03  0.12067106341E+04  0.10100000352E+00 0. -1.
       -3    1    3    3    0  502 -0.50865688076E+03 -0.74181758791E+03  0.84765510611E+03  0.12359386494E+04  0.10100000352E+00 0.  1.
</event>
<event>
 5   0  0.1257524E-04  0.2172243E+04  0.7818609E-02  0.8530071E-01
        2   -1    0    0  501    0  0.00000000000E+00  0.00000000000E+00  0.90627341089E+03  0.90627341089E+03  0.25500000920E-02 0. -1.
       -2   -1    0    0    0  501  0.00000000000E+00  0.00000000000E+00 -0.13016605208E+04  0.13016605209E+04  0.25500000920E-02 0.  1.
    10030    2    1    2    0    0  0.00000000000E+00  0.00000000000E+00 -0.39538710996E+03  0.22079339317E+04  0.21722433750E+04 0.  0.
        3    1    3    3  502    0  0.46419529093E+03 -0.61607372786E+03  0.57948435002E+03  0.96479336046E+03  0.10100000352E+00 0. -1.
       -3    1    3    3    0  502 -0.46419529093E+03  0.61607372786E+03 -0.97487145998E+03  0.12431405713E+04  0.10100000352E+00 0.  1.
</event>
<event>
 5   0  0.1257524E-04  0.2357294E+04  0.7818609E-02  0.8455667E-01
        2   -1    0    0  501    0  0.00000000000E+00  0.00000000000E+00  0.17698074590E+04  0.17698074590E+04  0.25500000920E-02 0. -1.
       -2   -1    0    0    0  501  0.00000000000E+00  0.00000000000E+00 -0.78494932471E+03  0.78494932471E+03  0.25500000920E-02 0.  1.
    10030    2    1    2    0    0  0.00000000000E+00  0.00000000000E+00  0.98485813431E+03  0.25547567837E+04  0.23572943557E+04 0.  0.
        3    1    3    3  502    0  0.66423560320E+03 -0.41311413194E+03 -0.46309228676E+03  0.90902513652E+03  0.10100000352E+00 0.  1.
       -3    1    3    3    0  502 -0.66423560320E+03  0.41311413194E+03  0.14479504211E+04  0.16457316472E+04  0.10100000352E+00 0. -1.
</event>
<event>
 5   0  0.5642466E-05  0.2235134E+04  0.7818609E-02  0.8503945E-01
       -1   -1    0    0    0  501  0.00000000000E+00  0.00000000000E+00  0.16085902473E+04  0.16085902473E+04  0.50400001928E-02 0. -1.
        1   -1    0    0  501    0  0.00000000000E+00  0.00000000000E+00 -0.77642905069E+03  0.77642905070E+03  0.50400001928E-02 0.  1.
    10030    2    1    2    0    0  0.00000000000E+00  0.00000000000E+00  0.83216119657E+03  0.23850192980E+04  0.22351341782E+04 0.  0.
        1    1    3    3  502    0 -0.77956375298E+03 -0.40879400320E+03 -0.31866040225E+03  0.93614989932E+03  0.50400001928E-02 0.  1.
       -1    1    3    3    0  502  0.77956375298E+03  0.40879400320E+03  0.11508215988E+04  0.14488693987E+04  0.50400001928E-02 0. -1.
</event>
<event>
 5   0  0.1237296E-04  0.2355796E+04  0.7818609E-02  0.8456241E-01
        2   -1    0    0  501    0  0.00000000000E+00  0.00000000000E+00  0.19726416597E+04  0.19726416597E+04  0.25500000920E-02 0.  1.
       -2   -1    0    0    0  501  0.00000000000E+00  0.00000000000E+00 -0.70334277658E+03  0.70334277658E+03  0.25500000920E-02 0. -1.
    10030    2    1    2    0    0  0.00000000000E+00  0.00000000000E+00  0.12692988831E+04  0.26759844363E+04  0.23557956296E+04 0.  0.
        1    1    3    3  502    0  0.10035884702E+04 -0.50195927509E+03  0.10415075109E+04  0.15309770823E+04  0.50400001928E-02 0.  1.
       -1    1    3    3    0  502 -0.10035884702E+04  0.50195927509E+03  0.22779137226E+03  0.11450073540E+04  0.50400001928E-02 0. -1.
</event>
<event>
 5   0  0.5843670E-05  0.1893369E+04  0.7818609E-02  0.8658164E-01
       -1   -1    0    0    0  501  0.00000000000E+00  0.00000000000E+00  0.43020504224E+03  0.43020504227E+03  0.50400001928E-02 0.  1.
        1   -1    0    0  501    0  0.00000000000E+00  0.00000000000E+00 -0.20832201939E+04  0.20832201939E+04  0.50400001928E-02 0. -1.
    10030    2    1    2    0    0  0.00000000000E+00  0.00000000000E+00 -0.16530151516E+04  0.25134252361E+04  0.18933693053E+04 0.  0.
        2    1    3    3  502    0  0.29814963228E+03  0.43820342666E+03  0.21478511741E+03  0.57188118787E+03  0.25500000920E-02 0.  1.
       -2    1    3    3    0  502 -0.29814963228E+03 -0.43820342666E+03 -0.18678002690E+04  0.19415440483E+04  0.25500000920E-02 0. -1.
</event>
<event>
 5   0  0.5642466E-05  0.2255875E+04  0.7818609E-02  0.8495525E-01
        1   -1    0    0  501    0  0.00000000000E+00  0.00000000000E+00  0.15935896231E+04  0.15935896231E+04  0.50400001928E-02 0.  1.
       -1   -1    0    0    0  501  0.00000000000E+00  0.00000000000E+00 -0.79835075158E+03  0.79835075160E+03  0.50400001928E-02 0. -1.
    10030    2    1    2    0    0  0.00000000000E+00  0.00000000000E+00  0.79523887155E+03  0.23919403747E+04  0.22558754162E+04 0.  0.
        1    1    3    3  502    0 -0.31951118155E+03 -0.29748887810E+03  0.15003766545E+04  0.15625994794E+04  0.50400001928E-02 0.  1.
       -1    1    3    3    0  502  0.31951118155E+03  0.29748887810E+03 -0.70513778293E+03  0.82934089533E+03  0.50400001928E-02 0. -1.
</event>
<event>
 5   0  0.1234988E-04  0.2348773E+04  0.7818609E-02  0.8458935E-01
       -2   -1    0    0    0  501  0.00000000000E+00  0.00000000000E+00  0.57430931085E+03  0.57430931086E+03  0.25500000920E-02 0.  1.
        2   -1    0    0  501    0  0.00000000000E+00  0.00000000000E+00 -0.24014651043E+04  0.24014651043E+04  0.25500000920E-02 0. -1.
    10030    2    1    2    0    0  0.00000000000E+00  0.00000000000E+00 -0.18271557934E+04  0.29757744151E+04  0.23487731002E+04 0.  0.
        5    1    3    3  502    0  0.60668452328E+02  0.58796772876E+03 -0.21992496619E+04  0.22773027635E+04  0.46999998093E+01 0. -1.
       -5    1    3    3    0  502 -0.60668452328E+02 -0.58796772876E+03  0.37209386850E+03  0.69847165164E+03  0.46999998093E+01 0.  1.
</event>
<event>
 5   0  0.1237296E-04  0.2307796E+04  0.7818609E-02  0.8474853E-01
       -2   -1    0    0    0  501  0.00000000000E+00  0.00000000000E+00  0.16829985714E+04  0.16829985714E+04  0.25500000920E-02 0.  1.
        2   -1    0    0  501    0  0.00000000000E+00  0.00000000000E+00 -0.79113612481E+03  0.79113612481E+03  0.25500000920E-02 0. -1.
    10030    2    1    2    0    0  0.00000000000E+00  0.00000000000E+00  0.89186244663E+03  0.24741346962E+04  0.23077963237E+04 0.  0.
        1    1    3    3  502    0 -0.80109826645E+03  0.58978072576E+03 -0.18091857713E+03  0.10111039850E+04  0.50400001928E-02 0. -1.
       -1    1    3    3    0  502  0.80109826645E+03 -0.58978072576E+03  0.10727810238E+04  0.14630307112E+04  0.50400001928E-02 0.  1.
</event>
<event>
 5   0  0.5843670E-05  0.2077885E+04  0.7818609E-02  0.8571048E-01
       -1   -1    0    0    0  501  0.00000000000E+00  0.00000000000E+00  0.14700220307E+04  0.14700220307E+04  0.50400001928E-02 0.  1.
        1   -1    0    0  501    0  0.00000000000E+00  0.00000000000E+00 -0.73427589625E+03  0.73427589627E+03  0.50400001928E-02 0. -1.
    10030    2    1    2    0    0  0.00000000000E+00  0.00000000000E+00  0.73574613445E+03  0.22042979270E+04  0.20778852174E+04 0.  0.
        2    1    3    3  502    0  0.10607163588E+03  0.10020202729E+04  0.63646800550E+03  0.11918000425E+04  0.25500000920E-02 0.  1.
       -2    1    3    3    0  502 -0.10607163588E+03 -0.10020202729E+04  0.99278128949E+02  0.10124978845E+04  0.25500000920E-02 0. -1.
</event>
<event>
 5   0  0.5843670E-05  0.2368556E+04  0.7818609E-02  0.8451370E-01
       -1   -1    0    0    0  501  0.00000000000E+00  0.00000000000E+00  0.10095559599E+04  0.10095559599E+04  0.50400001928E-02 0. -1.
        1   -1    0    0  501    0  0.00000000000E+00  0.00000000000E+00 -0.13892394127E+04  0.13892394127E+04  0.50400001928E-02 0.  1.
    10030    2    1    2    0    0  0.00000000000E+00  0.00000000000E+00 -0.37968345279E+03  0.23987953727E+04  0.23685564624E+04 0.  0.
        2    1    3    3  502    0 -0.92800420934E+03 -0.33504996387E+03  0.47355117778E+03  0.10943952708E+04  0.25500000920E-02 0. -1.
       -2    1    3    3    0  502  0.92800420934E+03  0.33504996387E+03 -0.85323463057E+03  0.13044001018E+04  0.25500000920E-02 0.  1.
</event>
<event>
 5   0  0.1270613E-04  0.2403379E+04  0.7818609E-02  0.8438240E-01
       -2   -1    0    0    0  501  0.00000000000E+00  0.00000000000E+00  0.15487434732E+04  0.15487434732E+04  0.25500000920E-02 0. -1.
        2   -1    0    0  501    0  0.00000000000E+00  0.00000000000E+00 -0.93240577515E+03  0.93240577515E+03  0.25500000920E-02 0.  1.
    10030    2    1    2    0    0  0.00000000000E+00  0.00000000000E+00  0.61633769807E+03  0.24811492484E+04  0.24033787539E+04 0.  0.
        2    1    3    3  502    0 -0.35212447387E+03 -0.79710440660E+03 -0.54606691966E+03  0.10283754960E+04  0.25500000920E-02 0.  1.
       -2    1    3    3    0  502  0.35212447387E+03  0.79710440660E+03  0.11624046177E+04  0.14527737523E+04  0.25500000920E-02 0. -1.
</event>
<event>
 5   0  0.4489500E-05  0.2323594E+04  0.7818609E-02  0.8468676E-01
        3   -1    0    0  501    0  0.00000000000E+00  0.00000000000E+00  0.16841304567E+04  0.16841304597E+04  0.10100000352E+00 0. -1.
       -3   -1    0    0    0  501  0.00000000000E+00  0.00000000000E+00 -0.80146510837E+03  0.80146511473E+03  0.10100000352E+00 0.  1.
    10030    2    1    2    0    0  0.00000000000E+00  0.00000000000E+00  0.88266534830E+03  0.24855955744E+04  0.23235936053E+04 0.  0.
        5    1    3    3  502    0  0.11376105799E+04 -0.23488828907E+03  0.46323925016E+03  0.12505770799E+04  0.46999998093E+01 0.  1.
       -5    1    3    3    0  502 -0.11376105799E+04  0.23488828907E+03  0.41942609814E+03  0.12350184945E+04  0.46999998093E+01 0. -1.
</event>
<event>
 5   0  0.5663790E-05  0.1556787E+04  0.7818609E-02  0.8847544E-01
       -1   -1    0    0    0  501  0.00000000000E+00  0.00000000000E+00  0.41089487990E+03  0.41089487993E+03  0.50400001928E-02 0. -1.
        1   -1    0    0  501    0  0.00000000000E+00  0.00000000000E+00 -0.14745770930E+04  0.14745770930E+04  0.50400001928E-02 0.  1.
    10030    2    1    2    0    0  0.00000000000E+00  0.00000000000E+00 -0.10636822131E+04  0.18854719730E+04  0.15567866618E+04 0.  0.
        3    1    3    3  502    0 -0.56846280914E+03 -0.42762499414E+02 -0.11737604032E+04  0.13048724424E+04  0.10100000352E+00 0.  1.
       -3    1    3    3    0  502  0.56846280914E+03  0.42762499414E+02  0.11007819006E+03  0.58059953054E+03  0.10100000352E+00 0. -1.
</event>
<event>
 5   0  0.1234988E-04  0.2309186E+04  0.7818609E-02  0.8474308E-01
       -2   -1    0    0    0  501  0.00000000000E+00  0.00000000000E+00  0.65380124946E+03  0.65380124946E+03  0.25500000920E-02 0.  1.
        2   -1    0    0  501    0  0.00000000000E+00  0.00000000000E+00 -0.20389765096E+04  0.20389765096E+04  0.25500000920E-02 0. -1.
    10030    2    1    2    0    0  0.00000000000E+00  0.00000000000E+00 -0.13851752601E+04  0.26927777590E+04  0.23091863412E+04 0.  0.
        5    1    3    3  502    0 -0.48983678845E+03 -0.51367629899E+03  0.36932028749E+03  0.80013935299E+03  0.46999998093E+01 0.  1.
       -5    1    3    3    0  502  0.48983678845E+03  0.51367629899E+03 -0.17544955476E+04  0.18926384060E+04  0.46999998093E+01 0. -1.
</event>
<event>
 5   0  0.5663790E-05  0.2165176E+04  0.7818609E-02  0.8533064E-01
       -1   -1    0    0    0  501  0.00000000000E+00  0.00000000000E+00  0.68266095234E+03  0.68266095236E+03  0.50400001928E-02 0. -1.
        1   -1    0    0  501    0  0.00000000000E+00  0.00000000000E+00 -0.17168064164E+04  0.17168064164E+04  0.50400001928E-02 0.  1.
    10030    2    1    2    0    0  0.00000000000E+00  0.00000000000E+00 -0.10341454640E+04  0.23994673688E+04  0.21651759312E+04 0.  0.
        3    1    3    3  502    0 -0.10414133962E+04  0.55161009365E+02 -0.83904909867E+03  0.13385021475E+04  0.10100000352E+00 0. -1.
       -3    1    3    3    0  502  0.10414133962E+04 -0.55161009365E+02 -0.19509636538E+03  0.10609652212E+04  0.10100000352E+00 0.  1.
</event>
<event>
 5   0  0.1270613E-04  0.2287307E+04  0.7818609E-02  0.8482943E-01
        2   -1    0    0  501    0  0.00000000000E+00  0.00000000000E+00  0.12322784545E+04  0.12322784545E+04  0.25500000920E-02 0.  1.
       -2   -1    0    0    0  501  0.00000000000E+00  0.00000000000E+00 -0.10614020054E+04  0.10614020054E+04  0.25500000920E-02 0. -1.
    10030    2    1    2    0    0  0.00000000000E+00  0.00000000000E+00  0.17087644912E+03  0.22936804598E+04  0.22873065582E+04 0.  0.
        2    1    3    3  502    0 -0.36868611559E+03  0.63558711611E+03  0.96426065790E+03  0.12123114494E+04  0.25500000920E-02 0. -1.
       -2    1    3    3    0  502  0.36868611559E+03 -0.63558711611E+03 -0.79338420878E+03  0.10813690104E+04  0.25500000920E-02 0.  1.
</event>
<event>
 5   0  0.1270613E-04  0.2243931E+04  0.7818609E-02  0.8500362E-01
       -2   -1    0    0    0  501  0.00000000000E+00  0.00000000000E+00  0.96246876036E+03  0.96246876036E+03  0.25500000920E-02 0.  1.
        2   -1    0    0  501    0  0.00000000000E+00  0.00000000000E+00 -0.13078934762E+04  0.13078934762E+04  0.25500000920E-02 0. -1.
    10030    2    1    2    0    0  0.00000000000E+00  0.00000000000E+00 -0.34542471582E+03  0.22703622365E+04  0.22439310263E+04 0.  0.
        2    1    3    3  502    0 -0.25310588934E+03  0.81428692345E+03  0.56504092545E+03  0.10229354977E+04  0.25500000920E-02 0. -1.
       -2    1    3    3    0  502  0.25310588934E+03 -0.81428692345E+03 -0.91046564127E+03  0.12474267389E+04  0.25500000920E-02 0.  1.
</event>
<event>
 5   0  0.5642466E-05  0.2324415E+04  0.7818609E-02  0.8468356E-01
       -1   -1    0    0    0  501  0.00000000000E+00  0.00000000000E+00  0.12160717337E+04  0.12160717337E+04  0.50400001928E-02 0.  1.
        1   -1    0    0  501    0  0.00000000000E+00  0.00000000000E+00 -0.11107290817E+04  0.11107290817E+04  0.50400001928E-02 0. -1.
    10030    2    1    2    0    0  0.00000000000E+00  0.00000000000E+00  0.10534265194E+03  0.23268008154E+04  0.23244149716E+04 0.  0.
        1    1    3    3  502    0  0.94193039024E+03 -0.93993622358E+02 -0.62230453006E+03  0.11328418201E+04  0.50400001928E-02 0. -1.
       -1    1    3    3    0  502 -0.94193039024E+03  0.93993622358E+02  0.72764718200E+03  0.11939589954E+04  0.50400001928E-02 0.  1.
</event>
<event>
 5   0  0.1257524E-04  0.2191675E+04  0.7818609E-02  0.8521901E-01
       -2   -1    0    0    0  501  0.00000000000E+00  0.00000000000E+00  0.10656447350E+04  0.10656447350E+04  0.25500000920E-02 0.  1.
        2   -1    0    0  501    0  0.00000000000E+00  0.00000000000E+00 -0.11268856233E+04  0.11268856234E+04  0.25500000920E-02 0. -1.
    10030    2    1    2    0    0  0.00000000000E+00  0.00000000000E+00 -0.61240888397E+02  0.21925303583E+04  0.21916749133E+04 0.  0.
        3    1    3    3  502    0 -0.76706493623E+03 -0.14983757882E+03  0.73780683447E+03  0.10748017732E+04  0.10100000352E+00 0.  1.
       -3    1    3    3    0  502  0.76706493623E+03  0.14983757882E+03 -0.79904772286E+03  0.11177285851E+04  0.10100000352E+00 0. -1.
</event>
<event>
 5   0  0.1270613E-04  0.1769967E+04  0.7818609E-02  0.8722436E-01
        2   -1    0    0  501    0  0.00000000000E+00  0.00000000000E+00  0.93869480478E+03  0.93869480478E+03  0.25500000920E-02 0. -1.
       -2   -1    0    0    0  501  0.00000000000E+00  0.00000000000E+00 -0.83434525981E+03  0.83434525981E+03  0.25500000920E-02 0.  1.
    10030    2    1    2    0    0  0.00000000000E+00  0.00000000000E+00  0.10434954497E+03  0.17730400646E+04  0.17699667350E+04 0.  0.
        2    1    3    3  502    0  0.38551120262E+03 -0.39441518291E+03 -0.64113488174E+03  0.84571635933E+03  0.25500000920E-02 0.  1.
       -2    1    3    3    0  502 -0.38551120262E+03  0.39441518291E+03  0.74548442671E+03  0.92732370526E+03  0.25500000920E-02 0. -1.
</event>
<event>
 5   0  0.5663790E-05  0.2295017E+04  0.7818609E-02  0.8479888E-01
        1   -1    0    0  501    0  0.00000000000E+00  0.00000000000E+00  0.16065808921E+04  0.16065808921E+04  0.50400001928E-02 0.  1.
       -1   -1    0    0    0  501  0.00000000000E+00  0.00000000000E+00 -0.81961380355E+03  0.81961380356E+03  0.50400001928E-02 0. -1.
    10030    2    1    2    0    0  0.00000000000E+00  0.00000000000E+00  0.78696708856E+03  0.24261946957E+04  0.22950171030E+04 0.  0.
        3    1    3    3  502    0  0.67610111763E+03 -0.41589651272E+03  0.12695178368E+04  0.14972502058E+04  0.10100000352E+00 0.  1.
       -3    1    3    3    0  502 -0.67610111763E+03  0.41589651272E+03 -0.48255074821E+03  0.92894448992E+03  0.10100000352E+00 0. -1.
</event>
<event>
 5   0  0.5663790E-05  0.1872727E+04  0.7818609E-02  0.8668552E-01
        1   -1    0    0  501    0  0.00000000000E+00  0.00000000000E+00  0.16607144645E+04  0.16607144645E+04  0.50400001928E-02 0.  1.
       -1   -1    0    0    0  501  0.00000000000E+00  0.00000000000E+00 -0.52795133953E+03  0.52795133955E+03  0.50400001928E-02 0. -1.
    10030    2    1    2    0    0  0.00000000000E+00  0.00000000000E+00  0.11327631250E+04  0.21886658041E+04  0.18727268099E+04 0.  0.
        3    1    3    3  502    0 -0.43285678253E+03  0.28952087529E+03  0.14758634280E+04  0.15650431942E+04  0.10100000352E+00 0.  1.
       -3    1    3    3    0  502  0.43285678253E+03 -0.28952087529E+03 -0.34310030302E+03  0.62362260987E+03  0.10100000352E+00 0. -1.
</event>
<event>
 5   0  0.5632156E-05  0.2293006E+04  0.7818609E-02  0.8480684E-01
        1   -1    0    0  501    0  0.00000000000E+00  0.00000000000E+00  0.15438057851E+04  0.15438057851E+04  0.50400001928E-02 0.  1.
       -1   -1    0    0    0  501  0.00000000000E+00  0.00000000000E+00 -0.85144747315E+03  0.85144747317E+03  0.50400001928E-02 0. -1.
    10030    2    1    2    0    0  0.00000000000E+00  0.00000000000E+00  0.69235831190E+03  0.23952532582E+04  0.22930063539E+04 0.  0.
        4    1    3    3  502    0 -0.84196251940E+03  0.52243993406E+03 -0.25627316331E+03  0.10234851811E+04  0.12699999809E+01 0. -1.
       -4    1    3    3    0  502  0.84196251940E+03 -0.52243993406E+03  0.94863147521E+03  0.13717680771E+04  0.12699999809E+01 0.  1.
</event>
<event>
 5   0  0.1257524E-04  0.2189752E+04  0.7818609E-02  0.8522706E-01
       -2   -1    0    0    0  501  0.00000000000E+00  0.00000000000E+00  0.70244791403E+03  0.70244791403E+03  0.25500000920E-02 0.  1.
        2   -1    0    0  501    0  0.00000000000E+00  0.00000000000E+00 -0.17065376205E+04  0.17065376205E+04  0.25500000920E-02 0. -1.
    10030    2    1    2    0    0  0.00000000000E+00  0.00000000000E+00 -0.10040897064E+04  0.24089855345E+04  0.21897523072E+04 0.  0.
        3    1    3    3  502    0 -0.73080170843E+03 -0.32996766248E+03  0.31811787307E+03  0.86264058953E+03  0.10100000352E+00 0. -1.
       -3    1    3    3    0  502  0.73080170843E+03  0.32996766248E+03 -0.13222075795E+04  0.15463449450E+04  0.10100000352E+00 0.  1.
</event>
<event>
 5   0  0.1270613E-04  0.2278693E+04  0.7818609E-02  0.8486370E-01
       -2   -1    0    0    0  501  0.00000000000E+00  0.00000000000E+00  0.89938328254E+03  0.89938328254E+03  0.25500000920E-02 0. -1.
        2   -1    0    0  501    0  0.00000000000E+00  0.00000000000E+00 -0.14433345234E+04  0.14433345234E+04  0.25500000920E-02 0.  1.
    10030    2    1    2    0    0  0.00000000000E+00  0.00000000000E+00 -0.54395124086E+03  0.23427178059E+04  0.22786934339E+04 0.  0.
        2    1    3    3  502    0 -0.60795108018E+03 -0.19079810076E+03 -0.12430253200E+04  0.13968251062E+04  0.25500000920E-02 0.  1.
       -2    1    3    3    0  502  0.60795108018E+03  0.19079810076E+03  0.69907407919E+03  0.94589269970E+03  0.25500000920E-02 0. -1.
</event>
<event>
 5   0  0.1281432E-04  0.2293509E+04  0.7818609E-02  0.8480485E-01
       -2   -1    0    0    0  501  0.00000000000E+00  0.00000000000E+00  0.64574847195E+03  0.64574847196E+03  0.25500000920E-02 0. -1.
        2   -1    0    0  501    0  0.00000000000E+00  0.00000000000E+00 -0.20364669253E+04  0.20364669253E+04  0.25500000920E-02 0.  1.
    10030    2    1    2    0    0  0.00000000000E+00  0.00000000000E+00 -0.13907184533E+04  0.26822153972E+04  0.22935085831E+04 0.  0.
        4    1    3    3  502    0  0.64601733228E+03 -0.32958397058E+03 -0.17342113835E+04  0.18797485797E+04  0.12699999809E+01 0.  1.
       -4    1    3    3    0  502 -0.64601733228E+03  0.32958397058E+03  0.34349293018E+03  0.80246681754E+03  0.12699999809E+01 0. -1.
</event>
<event>
 5   0  0.5843670E-05  0.2233432E+04  0.7818609E-02  0.8504641E-01
       -1   -1    0    0    0  501  0.00000000000E+00  0.00000000000E+00  0.81097774950E+03  0.81097774952E+03  0.50400001928E-02 0. -1.
        1   -1    0    0  501    0  0.00000000000E+00  0.00000000000E+00 -0.15377167545E+04  0.15377167545E+04  0.50400001928E-02 0.  1.
    10030    2    1    2    0    0  0.00000000000E+00  0.00000000000E+00 -0.72673900503E+03  0.23486945040E+04  0.22334315060E+04 0.  0.
        2    1    3    3  502    0  0.83933855679E+03  0.30290365427E+03  0.34270853725E+03  0.95587079576E+03  0.25500000920E-02 0. -1.
       -2    1    3    3    0  502 -0.83933855679E+03 -0.30290365427E+03 -0.10694475423E+04  0.13928237083E+04  0.25500000920E-02 0.  1.
</event>
<event>
 5   0  0.4489500E-05  0.2317687E+04  0.7818609E-02  0.8470980E-01
        3   -1    0    0  501    0  0.00000000000E+00  0.00000000000E+00  0.13399800559E+04  0.13399800597E+04  0.10100000352E+00 0. -1.
       -3   -1    0    0    0  501  0.00000000000E+00  0.00000000000E+00 -0.10021930247E+04  0.10021930297E+04  0.10100000352E+00 0.  1.
    10030    2    1    2    0    0  0.00000000000E+00  0.00000000000E+00  0.33778703120E+03  0.23421730894E+04  0.23176873608E+04 0.  0.
        4    1    3    3  502    0  0.87003856159E+03 -0.18178350717E+03  0.92032481939E+03  0.12794575914E+04  0.12699999809E+01 0. -1.
       -4    1    3    3    0  502 -0.87003856159E+03  0.18178350717E+03 -0.58253778819E+03  0.10627154980E+04  0.12699999809E+01 0.  1.
</event>
<event>
 5   0  0.1237296E-04  0.2298719E+04  0.7818609E-02  0.8478426E-01
       -2   -1    0    0    0  501  0.00000000000E+00  0.00000000000E+00  0.10126099643E+04  0.10126099643E+04  0.25500000920E-02 0. -1.
        2   -1    0    0  501    0  0.00000000000E+00  0.00000000000E+00 -0.13045763269E+04  0.13045763269E+04  0.25500000920E-02 0.  1.
    10030    2    1    2    0    0  0.00000000000E+00  0.00000000000E+00 -0.29196636264E+03  0.23171862912E+04  0.22987187630E+04 0.  0.
        1    1    3    3  502    0 -0.32440436743E+03  0.56701819831E+03 -0.10992438273E+04  0.12787043531E+04  0.50400001928E-02 0.  1.
       -1    1    3    3    0  502  0.32440436743E+03 -0.56701819831E+03  0.80727746464E+03  0.10384819381E+04  0.50400001928E-02 0. -1.
</event>
<event>
 5   0  0.1270613E-04  0.2312292E+04  0.7818609E-02  0.8473090E-01
       -2   -1    0    0    0  501  0.00000000000E+00  0.00000000000E+00  0.85623106015E+03  0.85623106016E+03  0.25500000920E-02 0.  1.
        2   -1    0    0  501    0  0.00000000000E+00  0.00000000000E+00 -0.15611126302E+04  0.15611126302E+04  0.25500000920E-02 0. -1.
    10030    2    1    2    0    0  0.00000000000E+00  0.00000000000E+00 -0.70488157004E+03  0.24173436903E+04  0.23122916100E+04 0.  0.
        2    1    3    3  502    0 -0.46070864229E+03  0.92542746984E+03 -0.89365223589E+03  0.13664855556E+04  0.25500000920E-02 0. -1.
       -2    1    3    3    0  502  0.46070864229E+03 -0.92542746984E+03  0.18877066586E+03  0.10508581347E+04  0.25500000920E-02 0.  1.
</event>
<event>
 5   0  0.5642466E-05  0.2529200E+04  0.7818609E-02  0.8392656E-01
       -1   -1    0    0    0  501  0.00000000000E+00  0.00000000000E+00  0.15583739101E+04  0.15583739101E+04  0.50400001928E-02 0.  1.
        1   -1    0    0  501    0  0.00000000000E+00  0.00000000000E+00 -0.10262059489E+04  0.10262059489E+04  0.50400001928E-02 0. -1.
    10030    2    1    2    0    0  0.00000000000E+00  0.00000000000E+00  0.53216796125E+03  0.25845798591E+04  0.25291995392E+04 0.  0.
        1    1    3    3  502    0 -0.72067359693E+03 -0.73243345679E+03 -0.48720226075E+03  0.11371874273E+04  0.50400001928E-02 0. -1.
       -1    1    3    3    0  502  0.72067359693E+03  0.73243345679E+03  0.10193702220E+04  0.14473924317E+04  0.50400001928E-02 0.  1.
</event>
<event>
 5   0  0.5663790E-05  0.2269081E+04  0.7818609E-02  0.8490213E-01
       -1   -1    0    0    0  501  0.00000000000E+00  0.00000000000E+00  0.90473384833E+03  0.90473384835E+03  0.50400001928E-02 0.  1.
        1   -1    0    0  501    0  0.00000000000E+00  0.00000000000E+00 -0.14227189753E+04  0.14227189753E+04  0.50400001928E-02 0. -1.
    10030    2    1    2    0    0  0.00000000000E+00  0.00000000000E+00 -0.51798512696E+03  0.23274528237E+04  0.22690808832E+04 0.  0.
        3    1    3    3  502    0  0.83398951558E+03 -0.13163826187E+03  0.51833834457E+03  0.99072791106E+03  0.10100000352E+00 0.  1.
       -3    1    3    3    0  502 -0.83398951558E+03  0.13163826187E+03 -0.10363234715E+04  0.13367249126E+04  0.10100000352E+00 0. -1.
</event>
<event>
 5   0  0.5632156E-05  0.2057644E+04  0.7818609E-02  0.8580134E-01
        1   -1    0    0  501    0  0.00000000000E+00  0.00000000000E+00  0.90834184151E+03  0.90834184152E+03  0.50400001928E-02 0.  1.
       -1   -1    0    0    0  501  0.00000000000E+00  0.00000000000E+00 -0.11652826044E+04  0.11652826044E+04  0.50400001928E-02 0. -1.
    10030    2    1    2    0    0  0.00000000000E+00  0.00000000000E+00 -0.25694076291E+03  0.20736244460E+04  0.20576442324E+04 0.  0.
        4    1    3    3  502    0 -0.84657001927E+03  0.53215983321E+03 -0.37242153434E+03  0.10670399701E+04  0.12699999809E+01 0. -1.
       -4    1    3    3    0  502  0.84657001927E+03 -0.53215983321E+03  0.11548077143E+03  0.10065844759E+04  0.12699999809E+01 0.  1.
</event>
<event>
 5   0  0.4489500E-05  0.2314680E+04  0.7818609E-02  0.8472155E-01
       -3   -1    0    0    0  501  0.00000000000E+00  0.00000000000E+00  0.16104299166E+04  0.16104299198E+04  0.10100000352E+00 0. -1.
        3   -1    0    0  501    0  0.00000000000E+00  0.00000000000E+00 -0.83172586723E+03  0.83172587336E+03  0.10100000352E+00 0.  1.
    10030    2    1    2    0    0  0.00000000000E+00  0.00000000000E+00  0.77870404938E+03  0.24421557931E+04  0.23146803065E+04 0.  0.
        5    1    3    3  502    0  0.82279906603E+03 -0.21505257317E+03  0.12175458710E+04  0.14851551940E+04  0.46999998093E+01 0. -1.
       -5    1    3    3    0  502 -0.82279906603E+03  0.21505257317E+03 -0.43884182164E+03  0.95700059912E+03  0.46999998093E+01 0.  1.
</event>
<event>
 5   0  0.5642466E-05  0.2293755E+04  0.7818609E-02  0.8480387E-01
       -1   -1    0    0    0  501  0.00000000000E+00  0.00000000000E+00  0.72398734027E+03  0.72398734029E+03  0.50400001928E-02 0. -1.
        1   -1    0    0  501    0  0.00000000000E+00  0.00000000000E+00 -0.18167831313E+04  0.18167831313E+04  0.50400001928E-02 0.  1.
    10030    2    1    2    0    0  0.00000000000E+00  0.00000000000E+00 -0.10927957911E+04  0.25407704716E+04  0.22937549888E+04 0.  0.
        1    1    3    3  502    0  0.90091011257E+02 -0.72570450789E+03  0.43224178961E+03  0.84946829711E+03  0.50400001928E-02 0. -1.
       -1    1    3    3    0  502 -0.90091011257E+02  0.72570450789E+03 -0.15250375807E+04  0.16913021745E+04  0.50400001928E-02 0.  1.
</event>
<event>
 5   0  0.1257524E-04  0.2296090E+04  0.7818609E-02  0.8479464E-01
        2   -1    0    0  501    0  0.00000000000E+00  0.00000000000E+00  0.20069140052E+04  0.20069140052E+04  0.25500000920E-02 0. -1.
       -2   -1    0    0    0  501  0.00000000000E+00  0.00000000000E+00 -0.65673323817E+03  0.65673323818E+03  0.25500000920E-02 0.  1.
    10030    2    1    2    0    0  0.00000000000E+00  0.00000000000E+00  0.13501807670E+04  0.26636472433E+04  0.22960898357E+04 0.  0.
        3    1    3    3  502    0 -0.81480221773E+03 -0.51592414429E+03 -0.47450947972E+02  0.96557339408E+03  0.10100000352E+00 0.  1.
       -3    1    3    3    0  502  0.81480221773E+03  0.51592414429E+03  0.13976317150E+04  0.16980738493E+04  0.10100000352E+00 0. -1.
</event>
<event>
 5   0  0.5843670E-05  0.2338545E+04  0.7818609E-02  0.8462877E-01
       -1   -1    0    0    0  501  0.00000000000E+00  0.00000000000E+00  0.93440204575E+03  0.93440204576E+03  0.50400001928E-02 0.  1.
        1   -1    0    0  501    0  0.00000000000E+00  0.00000000000E+00 -0.14631799843E+04  0.14631799843E+04  0.50400001928E-02 0. -1.
    10030    2    1    2    0    0  0.00000000000E+00  0.00000000000E+00 -0.52877793851E+03  0.23975820300E+04  0.23385451637E+04 0.  0.
        2    1    3    3  502    0 -0.10137325657E+04 -0.57462733357E+03 -0.36351529333E+03  0.12206529629E+04  0.25500000920E-02 0. -1.
       -2    1    3    3    0  502  0.10137325657E+04  0.57462733357E+03 -0.16526264518E+03  0.11769290672E+04  0.25500000920E-02 0.  1.
</event>
<event>
 5   0  0.1237296E-04  0.2264261E+04  0.7818609E-02  0.8492147E-01
       -2   -1    0    0    0  501  0.00000000000E+00  0.00000000000E+00  0.72305054545E+03  0.72305054546E+03  0.25500000920E-02 0.  1.
        2   -1    0    0  501    0  0.00000000000E+00  0.00000000000E+00 -0.17726561016E+04  0.17726561016E+04  0.25500000920E-02 0. -1.
    10030    2    1    2    0    0  0.00000000000E+00  0.00000000000E+00 -0.10496055561E+04  0.24957066470E+04  0.22642614347E+04 0.  0.
        1    1    3    3  502    0  0.39581173546E+03  0.36743779665E+03 -0.16215180331E+04  0.17090927991E+04  0.50400001928E-02 0. -1.
       -1    1    3    3    0  502 -0.39581173546E+03 -0.36743779665E+03  0.57191247699E+03  0.78661384790E+03  0.50400001928E-02 0.  1.
</event>
<event>
 5   0  0.5843670E-05  0.2335901E+04  0.7818609E-02  0.8463899E-01
       -1   -1    0    0    0  501  0.00000000000E+00  0.00000000000E+00  0.63376239318E+03  0.63376239320E+03  0.50400001928E-02 0.  1.
        1   -1    0    0  501    0  0.00000000000E+00  0.00000000000E+00 -0.21523977998E+04  0.21523977998E+04  0.50400001928E-02 0. -1.
    10030    2    1    2    0    0  0.00000000000E+00  0.00000000000E+00 -0.15186354066E+04  0.27861601930E+04  0.23359013513E+04 0.  0.
        2    1    3    3  502    0  0.22643904672E+03 -0.10203833529E+03 -0.21205351278E+04  0.21350306068E+04  0.25500000920E-02 0. -1.
       -2    1    3    3    0  502 -0.22643904672E+03  0.10203833529E+03  0.60189972115E+03  0.65112958624E+03  0.25500000920E-02 0.  1.
</event>
<event>
 5   0  0.5663790E-05  0.2282624E+04  0.7818609E-02  0.8484804E-01
       -1   -1    0    0    0  501  0.00000000000E+00  0.00000000000E+00  0.12814782020E+04  0.12814782020E+04  0.50400001928E-02 0. -1.
        1   -1    0    0  501    0  0.00000000000E+00  0.00000000000E+00 -0.10164768656E+04  0.10164768656E+04  0.50400001928E-02 0.  1.
    10030    2    1    2    0    0  0.00000000000E+00  0.00000000000E+00  0.26500133641E+03  0.22979550676E+04  0.22826238815E+04 0.  0.
        3    1    3    3  502    0  0.60052463338E+02 -0.72232552138E+03 -0.75502852309E+03  0.10466272202E+04  0.10100000352E+00 0.  1.
       -3    1    3    3    0  502 -0.60052463338E+02  0.72232552138E+03  0.10200298595E+04  0.12513278474E+04  0.10100000352E+00 0. -1.
</event>
<event>
 5   0  0.1281432E-04  0.2296167E+04  0.7818609E-02  0.8479434E-01
       -2   -1    0    0    0  501  0.00000000000E+00  0.00000000000E+00  0.14519245410E+04  0.14519245410E+04  0.25500000920E-02 0.  1.
        2   -1    0    0  501    0  0.00000000000E+00  0.00000000000E+00 -0.90782698752E+03  0.90782698752E+03  0.25500000920E-02 0. -1.
    10030    2    1    2    0    0  0.00000000000E+00  0.00000000000E+00  0.54409755346E+03  0.23597515285E+04  0.22961674870E+04 0.  0.
        4    1    3    3  502    0  0.19513301882E+03 -0.38902180224E+03  0.13638613502E+04  0.14316194512E+04  0.12699999809E+01 0.  1.
       -4    1    3    3    0  502 -0.19513301882E+03  0.38902180224E+03 -0.81976379670E+03  0.92813207731E+03  0.12699999809E+01 0. -1.
</event>
<event>
 5   0  0.5632156E-05  0.1952255E+04  0.7818609E-02  0.8629274E-01
        1   -1    0    0  501    0  0.00000000000E+00  0.00000000000E+00  0.11738454692E+04  0.11738454692E+04  0.50400001928E-02 0. -1.
       -1   -1    0    0    0  501  0.00000000000E+00  0.00000000000E+00 -0.81171219261E+03  0.81171219262E+03  0.50400001928E-02 0.  1.
    10030    2    1    2    0    0  0.00000000000E+00  0.00000000000E+00  0.36213327658E+03  0.19855576618E+04  0.19522547780E+04 0.  0.
        4    1    3    3  502    0  0.75227694240E+03 -0.53866680899E+03  0.49740383188E+03  0.10504735666E+04  0.12699999809E+01 0. -1.
       -4    1    3    3    0  502 -0.75227694240E+03  0.53866680899E+03 -0.13527055530E+03  0.93508409526E+03  0.12699999809E+01 0.  1.
</event>
<event>
 5   0  0.1270613E-04  0.2254601E+04  0.7818609E-02  0.8496040E-01
       -2   -1    0    0    0  501  0.00000000000E+00  0.00000000000E+00  0.15477884457E+04  0.15477884457E+04  0.25500000920E-02 0.  1.
        2   -1    0    0  501    0  0.00000000000E+00  0.00000000000E+00 -0.82104623796E+03  0.82104623796E+03  0.25500000920E-02 0. -1.
    10030    2    1    2    0    0  0.00000000000E+00  0.00000000000E+00  0.72674220773E+03  0.23688346837E+04  0.22546005238E+04 0.  0.
        2    1    3    3  502    0  0.65035228974E+03  0.57804459218E+03 -0.38968113123E+03  0.95338608935E+03  0.25500000920E-02 0. -1.
       -2    1    3    3    0  502 -0.65035228974E+03 -0.57804459218E+03  0.11164233390E+04  0.14154485943E+04  0.25500000920E-02 0.  1.
</event>
<event>
 5   0  0.5663790E-05  0.2330298E+04  0.7818609E-02  0.8466070E-01
        1   -1    0    0  501    0  0.00000000000E+00  0.00000000000E+00  0.12644014799E+04  0.12644014799E+04  0.50400001928E-02 0.  1.
       -1   -1    0    0    0  501  0.00000000000E+00  0.00000000000E+00 -0.10736879744E+04  0.10736879744E+04  0.50400001928E-02 0. -1.
    10030    2    1    2    0    0  0.00000000000E+00  0.00000000000E+00  0.19071350555E+03  0.23380894543E+04  0.23302984047E+04 0.  0.
        3    1    3    3  502    0 -0.41976873009E+03  0.20032310610E+03  0.11672156219E+04  0.12564742145E+04  0.10100000352E+00 0.  1.
       -3    1    3    3    0  502  0.41976873009E+03 -0.20032310610E+03 -0.97650211631E+03  0.10816152398E+04  0.10100000352E+00 0. -1.
</event>
<event>
 5   0  0.1257524E-04  0.2404294E+04  0.7818609E-02  0.8437898E-01
        2   -1    0    0  501    0  0.00000000000E+00  0.00000000000E+00  0.18910130816E+04  0.18910130816E+04  0.25500000920E-02 0.  1.
       -2   -1    0    0    0  501  0.00000000000E+00  0.00000000000E+00 -0.76422407553E+03  0.76422407554E+03  0.25500000920E-02 0. -1.
    10030    2    1    2    0    0  0.00000000000E+00  0.00000000000E+00  0.11267890060E+04  0.26552371571E+04  0.24042942616E+04 0.  0.
        3    1    3    3  502    0  0.92714949003E+03 -0.46160333239E+03  0.12374002824E+04  0.16136428609E+04  0.10100000352E+00 0.  1.
       -3    1    3    3    0  502 -0.92714949003E+03  0.46160333239E+03 -0.11061127636E+03  0.10415942963E+04  0.10100000352E+00 0. -1.
</event>
<event>
 5   0  0.5843670E-05  0.2204664E+04  0.7818609E-02  0.8516489E-01
       -1   -1    0    0    0  501  0.00000000000E+00  0.00000000000E+00  0.12238127374E+04  0.12238127374E+04  0.50400001928E-02 0.  1.
        1   -1    0    0  501    0  0.00000000000E+00  0.00000000000E+00 -0.99291017830E+03  0.99291017831E+03  0.50400001928E-02 0. -1.
    10030    2    1    2    0    0  0.00000000000E+00  0.00000000000E+00  0.23090255906E+03  0.22167229157E+04  0.22046642586E+04 0.  0.
        2    1    3    3  502    0  0.22107867127E+03 -0.67485081311E+03 -0.73227154769E+03  0.10200593210E+04  0.25500000920E-02 0. -1.
       -2    1    3    3    0  502 -0.22107867127E+03  0.67485081311E+03  0.96317410675E+03  0.11966635947E+04  0.25500000920E-02 0.  1.
</event>
<event>
 5   0  0.1270613E-04  0.2293910E+04  0.7818609E-02  0.8480326E-01
        2   -1    0    0  501    0  0.00000000000E+00  0.00000000000E+00  0.76214127212E+03  0.76214127213E+03  0.25500000920E-02 0.  1.
       -2   -1    0    0    0  501  0.00000000000E+00  0.00000000000E+00 -0.17260653648E+04  0.17260653648E+04  0.25500000920E-02 0. -1.
    10030    2    1    2    0    0  0.00000000000E+00  0.00000000000E+00 -0.96392409264E+03  0.24882066369E+04  0.22939098961E+04 0.  0.
        2    1    3    3  502    0  0.50100278113E+03  0.34093829445E+03 -0.15382309133E+04  0.16532988387E+04  0.25500000920E-02 0. -1.
       -2    1    3    3    0  502 -0.50100278113E+03 -0.34093829445E+03  0.57430682064E+03  0.83490779824E+03  0.25500000920E-02 0.  1.
</event>
<event>
 5   0  0.1237296E-04  0.2283494E+04  0.7818609E-02  0.8484458E-01
       -2   -1    0    0    0  501  0.00000000000E+00  0.00000000000E+00  0.84182408524E+03  0.84182408524E+03  0.25500000920E-02 0. -1.
        2   -1    0    0  501    0  0.00000000000E+00  0.00000000000E+00 -0.15485250031E+04  0.15485250031E+04  0.25500000920E-02 0.  1.
    10030    2    1    2    0    0  0.00000000000E+00  0.00000000000E+00 -0.70670091785E+03  0.23903490883E+04  0.22834935027E+04 0.  0.
        1    1    3    3  502    0  0.99399621616E+03 -0.45798366235E+03 -0.12847357080E+02  0.10945056269E+04  0.50400001928E-02 0. -1.
       -1    1    3    3    0  502 -0.99399621616E+03  0.45798366235E+03 -0.69385356077E+03  0.12958434614E+04  0.50400001928E-02 0.  1.
</event>
<event>
 5   0  0.5663790E-05  0.2361394E+04  0.7818609E-02  0.8454100E-01
        1   -1    0    0  501    0  0.00000000000E+00  0.00000000000E+00  0.24762551282E+04  0.24762551283E+04  0.50400001928E-02 0.  1.
       -1   -1    0    0    0  501  0.00000000000E+00  0.00000000000E+00 -0.56296495341E+03  0.56296495344E+03  0.50400001928E-02 0. -1.
    10030    2    1    2    0    0  0.00000000000E+00  0.00000000000E+00  0.19132901748E+04  0.30392200817E+04  0.23613935318E+04 0.  0.
        3    1    3    3  502    0 -0.37700084465E+03  0.25391862729E+03  0.23591349029E+04  0.24025240491E+04  0.10100000352E+00 0.  1.
       -3    1    3    3    0  502  0.37700084465E+03 -0.25391862729E+03 -0.44584472808E+03  0.63669603259E+03  0.10100000352E+00 0. -1.
</event>
<event>
 5   0  0.5843670E-05  0.2209912E+04  0.7818609E-02  0.8514314E-01
        1   -1    0    0  501    0  0.00000000000E+00  0.00000000000E+00  0.21812498196E+04  0.21812498196E+04  0.50400001928E-02 0. -1.
       -1   -1    0    0    0  501  0.00000000000E+00  0.00000000000E+00 -0.55973793003E+03  0.55973793005E+03  0.50400001928E-02 0.  1.
    10030    2    1    2    0    0  0.00000000000E+00  0.00000000000E+00  0.16215118895E+04  0.27409877496E+04  0.22099124498E+04 0.  0.
        2    1    3    3  502    0  0.85981263404E+03 -0.14696650516E+03  0.16520255064E+04  0.18681716177E+04  0.25500000920E-02 0. -1.
       -2    1    3    3    0  502 -0.85981263404E+03  0.14696650516E+03 -0.30513616920E+02  0.87281613190E+03  0.25500000920E-02 0.  1.
</event>
<event>
 5   0  0.1270613E-04  0.2005445E+04  0.7818609E-02  0.8604079E-01
        2   -1    0    0  501    0  0.00000000000E+00  0.00000000000E+00  0.83979998045E+03  0.83979998045E+03  0.25500000920E-02 0.  1.
       -2   -1    0    0    0  501  0.00000000000E+00  0.00000000000E+00 -0.11972516742E+04  0.11972516742E+04  0.25500000920E-02 0. -1.
    10030    2    1    2    0    0  0.00000000000E+00  0.00000000000E+00 -0.35745169376E+03  0.20370516547E+04  0.20054445219E+04 0.  0.
        2    1    3    3  502    0  0.14682641516E+03  0.61433973787E+03  0.61231672065E+03  0.87971761157E+03  0.25500000920E-02 0.  1.
       -2    1    3    3    0  502 -0.14682641516E+03 -0.61433973787E+03 -0.96976841442E+03  0.11573340431E+04  0.25500000920E-02 0. -1.
</event>
<event>
 5   0  0.1281432E-04  0.2313065E+04  0.7818609E-02  0.8472788E-01
        2   -1    0    0  501    0  0.00000000000E+00  0.00000000000E+00  0.68602105770E+03  0.68602105771E+03  0.25500000920E-02 0. -1.
       -2   -1    0    0    0  501  0.00000000000E+00  0.00000000000E+00 -0.19497460871E+04  0.19497460871E+04  0.25500000920E-02 0.  1.
    10030    2    1    2    0    0  0.00000000000E+00  0.00000000000E+00 -0.12637250294E+04  0.26357671448E+04  0.23130645239E+04 0.  0.
        4    1    3    3  502    0  0.53102504052E+03 -0.69057531494E+03  0.23497920470E+03  0.90227418161E+03  0.12699999809E+01 0. -1.
       -4    1    3    3    0  502 -0.53102504052E+03  0.69057531494E+03 -0.14987042341E+04  0.17334929632E+04  0.12699999809E+01 0.  1.
</event>
<event>
 5   0  0.1257524E-04  0.2299523E+04  0.7818609E-02  0.8478109E-01
       -2   -1    0    0    0  501  0.00000000000E+00  0.00000000000E+00  0.10398517658E+04  0.10398517658E+04  0.25500000920E-02 0. -1.
        2   -1    0    0  501    0  0.00000000000E+00  0.00000000000E+00 -0.12712882283E+04  0.12712882283E+04  0.25500000920E-02 0.  1.
    10030    2    1    2    0    0  0.00000000000E+00  0.00000000000E+00 -0.23143646256E+03  0.23111399941E+04  0.22995228279E+04 0.  0.
        3    1    3    3  502    0  0.67980201330E+03 -0.54563684519E+03 -0.86923980211E+03  0.12310272897E+04  0.10100000352E+00 0.  1.
       -3    1    3    3    0  502 -0.67980201330E+03  0.54563684519E+03  0.63780333956E+03  0.10801127044E+04  0.10100000352E+00 0. -1.
</event>
<event>
 5   0  0.1234988E-04  0.2217614E+04  0.7818609E-02  0.8511133E-01
        2   -1    0    0  501    0  0.00000000000E+00  0.00000000000E+00  0.69701196326E+03  0.69701196326E+03  0.25500000920E-02 0. -1.
       -2   -1    0    0    0  501  0.00000000000E+00  0.00000000000E+00 -0.17638900243E+04  0.17638900243E+04  0.25500000920E-02 0.  1.
    10030    2    1    2    0    0  0.00000000000E+00  0.00000000000E+00 -0.10668780611E+04  0.24609019876E+04  0.22176135361E+04 0.  0.
        5    1    3    3  502    0 -0.96032710569E+03 -0.25898965168E+03  0.10347644241E+02  0.99470244463E+03  0.46999998093E+01 0. -1.
       -5    1    3    3    0  502  0.96032710569E+03  0.25898965168E+03 -0.10772257053E+04  0.14661995430E+04  0.46999998093E+01 0.  1.
</event>
<event>
 5   0  0.5632156E-05  0.2151001E+04  0.7818609E-02  0.8539104E-01
       -1   -1    0    0    0  501  0.00000000000E+00  0.00000000000E+00  0.73434574123E+03  0.73434574125E+03  0.50400001928E-02 0.  1.
        1   -1    0    0  501    0  0.00000000000E+00  0.00000000000E+00 -0.15751456513E+04  0.15751456513E+04  0.50400001928E-02 0. -1.
    10030    2    1    2    0    0  0.00000000000E+00  0.00000000000E+00 -0.84079991006E+03  0.23094913925E+04  0.21510011631E+04 0.  0.
        4    1    3    3  502    0 -0.12462409500E+03 -0.23325875249E+03  0.69888931629E+03  0.74725410670E+03  0.12699999809E+01 0.  1.
       -4    1    3    3    0  502  0.12462409500E+03  0.23325875249E+03 -0.15396892263E+04  0.15622372858E+04  0.12699999809E+01 0. -1.
</event>
<event>
 5   0  0.5663790E-05  0.2275602E+04  0.7818609E-02  0.8487603E-01
       -1   -1    0    0    0  501  0.00000000000E+00  0.00000000000E+00  0.23088362420E+04  0.23088362420E+04  0.50400001928E-02 0.  1.
        1   -1    0    0  501    0  0.00000000000E+00  0.00000000000E+00 -0.56071159801E+03  0.56071159803E+03  0.50400001928E-02 0. -1.
    10030    2    1    2    0    0  0.00000000000E+00  0.00000000000E+00  0.17481246440E+04  0.28695478401E+04  0.22756021259E+04 0.  0.
        3    1    3    3  502    0  0.18569246394E+03  0.88765155463E+02  0.22851670390E+04  0.22944169957E+04  0.10100000352E+00 0.  1.
       -3    1    3    3    0  502 -0.18569246394E+03 -0.88765155463E+02 -0.53704239493E+03  0.57513084437E+03  0.10100000352E+00 0. -1.
</event>
<event>
 5   0  0.5642466E-05  0.2305626E+04  0.7818609E-02  0.8475706E-01
       -1   -1    0    0    0  501  0.00000000000E+00  0.00000000000E+00  0.87576806198E+03  0.87576806199E+03  0.50400001928E-02 0. -1.
        1   -1    0    0  501    0  0.00000000000E+00  0.00000000000E+00 -0.15174993297E+04  0.15174993297E+04  0.50400001928E-02 0.  1.
    10030    2    1    2    0    0  0.00000000000E+00  0.00000000000E+00 -0.64173126774E+03  0.23932673917E+04  0.23056256826E+04 0.  0.
        1    1    3    3  502    0 -0.30778147945E+03  0.34752374805E+03  0.77445862650E+03  0.90293319727E+03  0.50400001928E-02 0. -1.
       -1    1    3    3    0  502  0.30778147945E+03 -0.34752374805E+03 -0.14161898942E+04  0.14903341944E+04  0.50400001928E-02 0.  1.
</event>
<event>
 5   0  0.1281432E-04  0.2291818E+04  0.7818609E-02  0.8481154E-01
       -2   -1    0    0    0  501  0.00000000000E+00  0.00000000000E+00  0.14954449873E+04  0.14954449873E+04  0.25500000920E-02 0.  1.
        2   -1    0    0  501    0  0.00000000000E+00  0.00000000000E+00 -0.87807165351E+03  0.87807165351E+03  0.25500000920E-02 0. -1.
    10030    2    1    2    0    0  0.00000000000E+00  0.00000000000E+00  0.61737333376E+03  0.23735166408E+04  0.22918183634E+04 0.  0.
        4    1    3    3  502    0  0.29485006774E+03  0.69225699154E+03 -0.58638504733E+03  0.95394200107E+03  0.12699999809E+01 0. -1.
       -4    1    3    3    0  502 -0.29485006774E+03 -0.69225699154E+03  0.12037583811E+04  0.14195746397E+04  0.12699999809E+01 0.  1.
</event>
<event>
 5   0  0.1281432E-04  0.2274120E+04  0.7818609E-02  0.8488196E-01
        2   -1    0    0  501    0  0.00000000000E+00  0.00000000000E+00  0.26748912070E+04  0.26748912070E+04  0.25500000920E-02 0.  1.
       -2   -1    0    0    0  501  0.00000000000E+00  0.00000000000E+00 -0.48334885148E+03  0.48334885148E+03  0.25500000920E-02 0. -1.
    10030    2    1    2    0    0  0.00000000000E+00  0.00000000000E+00  0.21915423555E+04  0.31582400585E+04  0.22741201312E+04 0.  0.
        4    1    3    3  502    0 -0.61229071849E+03 -0.93084341902E+03  0.14110400747E+04  0.17978890678E+04  0.12699999809E+01 0.  1.
       -4    1    3    3    0  502  0.61229071849E+03  0.93084341902E+03  0.78050228084E+03  0.13603509907E+04  0.12699999809E+01 0. -1.
</event>
<event>
 5   0  0.5924654E-05  0.1828538E+04  0.7818609E-02  0.8691269E-01
        1   -1    0    0  501    0  0.00000000000E+00  0.00000000000E+00  0.14388180996E+04  0.14388180996E+04  0.50400001928E-02 0.  1.
       -1   -1    0    0    0  501  0.00000000000E+00  0.00000000000E+00 -0.58095429021E+03  0.58095429023E+03  0.50400001928E-02 0. -1.
    10030    2    1    2    0    0  0.00000000000E+00  0.00000000000E+00  0.85786380937E+03  0.20197723898E+04  0.18285377194E+04 0.  0.
        5    1    3    3  502    0 -0.42917957619E+03  0.52430165907E+03  0.11069500938E+04  0.12978628350E+04  0.46999998093E+01 0.  1.
       -5    1    3    3    0  502  0.42917957619E+03 -0.52430165907E+03 -0.24908628439E+03  0.72190955485E+03  0.46999998093E+01 0. -1.
</event>
<event>
 5   0  0.1270613E-04  0.2334501E+04  0.7818609E-02  0.8464441E-01
       -2   -1    0    0    0  501  0.00000000000E+00  0.00000000000E+00  0.24465144675E+04  0.24465144676E+04  0.25500000920E-02 0.  1.
        2   -1    0    0  501    0  0.00000000000E+00  0.00000000000E+00 -0.55690382686E+03  0.55690382687E+03  0.25500000920E-02 0. -1.
    10030    2    1    2    0    0  0.00000000000E+00  0.00000000000E+00  0.18896106407E+04  0.30034182944E+04  0.23345006057E+04 0.  0.
        2    1    3    3  502    0  0.21496134665E+03 -0.59298549356E+03  0.22083858037E+04  0.22966950242E+04  0.25500000920E-02 0.  1.
       -2    1    3    3    0  502 -0.21496134665E+03  0.59298549356E+03 -0.31877516302E+03  0.70672327023E+03  0.25500000920E-02 0. -1.
</event>
<event>
 5   0  0.5843670E-05  0.1899397E+04  0.7818609E-02  0.8655156E-01
       -1   -1    0    0    0  501  0.00000000000E+00  0.00000000000E+00  0.64358958087E+03  0.64358958089E+03  0.50400001928E-02 0.  1.
        1   -1    0    0  501    0  0.00000000000E+00  0.00000000000E+00 -0.14014015531E+04  0.14014015531E+04  0.50400001928E-02 0. -1.
    10030    2    1    2    0    0  0.00000000000E+00  0.00000000000E+00 -0.75781197218E+03  0.20449911340E+04  0.18993972077E+04 0.  0.
        2    1    3    3  502    0 -0.89603891981E+03 -0.14572791842E+03 -0.67922274788E+03  0.11337838918E+04  0.25500000920E-02 0. -1.
       -2    1    3    3    0  502  0.89603891981E+03  0.14572791842E+03 -0.78589224306E+02  0.91120724218E+03  0.25500000920E-02 0.  1.
</event>
<event>
 5   0  0.5663790E-05  0.2160383E+04  0.7818609E-02  0.8535101E-01
        1   -1    0    0  501    0  0.00000000000E+00  0.00000000000E+00  0.26357599875E+04  0.26357599875E+04  0.50400001928E-02 0.  1.
       -1   -1    0    0    0  501  0.00000000000E+00  0.00000000000E+00 -0.44268584430E+03  0.44268584433E+03  0.50400001928E-02 0. -1.
    10030    2    1    2    0    0  0.00000000000E+00  0.00000000000E+00  0.21930741432E+04  0.30784458318E+04  0.21603829619E+04 0.  0.
        3    1    3    3  502    0  0.39144919561E+03  0.52315680829E+03  0.23222359700E+04  0.24124065639E+04  0.10100000352E+00 0.  1.
       -3    1    3    3    0  502 -0.39144919561E+03 -0.52315680829E+03 -0.12916182678E+03  0.66603926799E+03  0.10100000352E+00 0. -1.
</event>
<event>
 5   0  0.1234988E-04  0.2272163E+04  0.7818609E-02  0.8488978E-01
        2   -1    0    0  501    0  0.00000000000E+00  0.00000000000E+00  0.21951681183E+04  0.21951681183E+04  0.25500000920E-02 0. -1.
       -2   -1    0    0    0  501  0.00000000000E+00  0.00000000000E+00 -0.58796465124E+03  0.58796465125E+03  0.25500000920E-02 0.  1.
    10030    2    1    2    0    0  0.00000000000E+00  0.00000000000E+00  0.16072034670E+04  0.27831327695E+04  0.22721630726E+04 0.  0.
        5    1    3    3  502    0 -0.19434077836E+03 -0.25415953586E+03 -0.53162904780E+03  0.62049733462E+03  0.46999998093E+01 0.  1.
       -5    1    3    3    0  502  0.19434077836E+03  0.25415953586E+03  0.21388325148E+04  0.21626354349E+04  0.46999998093E+01 0. -1.
</event>
<event>
 5   0  0.1237296E-04  0.2335001E+04  0.7818609E-02  0.8464247E-01
       -2   -1    0    0    0  501  0.00000000000E+00  0.00000000000E+00  0.11379258477E+04  0.11379258477E+04  0.25500000920E-02 0.  1.
        2   -1    0    0  501    0  0.00000000000E+00  0.00000000000E+00 -0.11978432993E+04  0.11978432993E+04  0.25500000920E-02 0. -1.
    10030    2    1    2    0    0  0.00000000000E+00  0.00000000000E+00 -0.59917451634E+02  0.23357691470E+04  0.23350005155E+04 0.  0.
        1    1    3    3  502    0 -0.15937206905E+03 -0.79537521381E+03 -0.86989914392E+03  0.11894308335E+04  0.50400001928E-02 0. -1.
       -1    1    3    3    0  502  0.15937206905E+03  0.79537521381E+03  0.80998169229E+03  0.11463383135E+04  0.50400001928E-02 0.  1.
</event>
<event>
 5   0  0.5632156E-05  0.2297358E+04  0.7818609E-02  0.8478963E-01
        1   -1    0    0  501    0  0.00000000000E+00  0.00000000000E+00  0.14199829729E+04  0.14199829730E+04  0.50400001928E-02 0. -1.
       -1   -1    0    0    0  501  0.00000000000E+00  0.00000000000E+00 -0.92921105421E+03  0.92921105423E+03  0.50400001928E-02 0.  1.
    10030    2    1    2    0    0  0.00000000000E+00  0.00000000000E+00  0.49077191873E+03  0.23491940272E+04  0.22973583746E+04 0.  0.
        4    1    3    3  502    0  0.66197891636E+03  0.22950439177E+03 -0.68541273922E+03  0.98014314645E+03  0.12699999809E+01 0.  1.
       -4    1    3    3    0  502 -0.66197891636E+03 -0.22950439177E+03  0.11761846579E+04  0.13690508807E+04  0.12699999809E+01 0. -1.
</event>
<event>
 5   0  0.5632156E-05  0.2154005E+04  0.7818609E-02  0.8537820E-01
       -1   -1    0    0    0  501  0.00000000000E+00  0.00000000000E+00  0.91824526417E+03  0.91824526418E+03  0.50400001928E-02 0. -1.
        1   -1    0    0  501    0  0.00000000000E+00  0.00000000000E+00 -0.12632081472E+04  0.12632081472E+04  0.50400001928E-02 0.  1.
    10030    2    1    2    0    0  0.00000000000E+00  0.00000000000E+00 -0.34496288307E+03  0.21814534114E+04  0.21540054771E+04 0.  0.
        4    1    3    3  502    0  0.64966078660E+03 -0.36177184552E+03  0.61654543378E+03  0.96595439369E+03  0.12699999809E+01 0. -1.
       -4    1    3    3    0  502 -0.64966078660E+03  0.36177184552E+03 -0.96150831685E+03  0.12154990177E+04  0.12699999809E+01 0.  1.
</event>
<event>
 5   0  0.5663790E-05  0.2294526E+04  0.7818609E-02  0.8480083E-01
       -1   -1    0    0    0  501  0.00000000000E+00  0.00000000000E+00  0.11789188476E+04  0.11789188477E+04  0.50400001928E-02 0. -1.
        1   -1    0    0  501    0  0.00000000000E+00  0.00000000000E+00 -0.11164567582E+04  0.11164567582E+04  0.50400001928E-02 0.  1.
    10030    2    1    2    0    0  0.00000000000E+00  0.00000000000E+00  0.62462089424E+02  0.22953756059E+04  0.22945255848E+04 0.  0.
        3    1    3    3  502    0 -0.99279521887E+03  0.51317061486E+03 -0.22814377193E+03  0.11406296583E+04  0.10100000352E+00 0.  1.
       -3    1    3    3    0  502  0.99279521887E+03 -0.51317061486E+03  0.29060586135E+03  0.11547459476E+04  0.10100000352E+00 0. -1.
</event>
<event>
 5   0  0.1281432E-04  0.2294149E+04  0.7818609E-02  0.8480232E-01
       -2   -1    0    0    0  501  0.00000000000E+00  0.00000000000E+00  0.67878608523E+03  0.67878608524E+03  0.25500000920E-02 0. -1.
        2   -1    0    0  501    0  0.00000000000E+00  0.00000000000E+00 -0.19384304619E+04  0.19384304619E+04  0.25500000920E-02 0.  1.
    10030    2    1    2    0    0  0.00000000000E+00  0.00000000000E+00 -0.12596443766E+04  0.26172165471E+04  0.22941487526E+04 0.  0.
        4    1    3    3  502    0 -0.67055624142E+03 -0.56419855348E+03 -0.14741945031E+04  0.17149975879E+04  0.12699999809E+01 0.  1.
       -4    1    3    3    0  502  0.67055624142E+03  0.56419855348E+03  0.21455012648E+03  0.90221895919E+03  0.12699999809E+01 0. -1.
</event>
<event>
 5   0  0.5924654E-05  0.2441855E+04  0.7818609E-02  0.8423998E-01
        1   -1    0    0  501    0  0.00000000000E+00  0.00000000000E+00  0.18459954529E+04  0.18459954529E+04  0.50400001928E-02 0.  1.
       -1   -1    0    0    0  501  0.00000000000E+00  0.00000000000E+00 -0.80751245445E+03  0.80751245446E+03  0.50400001928E-02 0. -1.
    10030    2    1    2    0    0  0.00000000000E+00  0.00000000000E+00  0.10384829984E+04  0.26535079073E+04  0.24418552939E+04 0.  0.
        5    1    3    3  502    0  0.40595301456E+03  0.17768304285E+03 -0.71702877657E+03  0.84292435614E+03  0.46999998093E+01 0. -1.
       -5    1    3    3    0  502 -0.40595301456E+03 -0.17768304285E+03  0.17555117750E+04  0.18105835512E+04  0.46999998093E+01 0.  1.
</event>
<event>
 5   0  0.1257524E-04  0.2232518E+04  0.7818609E-02  0.8505014E-01
        2   -1    0    0  501    0  0.00000000000E+00  0.00000000000E+00  0.27264779605E+04  0.27264779605E+04  0.25500000920E-02 0. -1.
       -2   -1    0    0    0  501  0.00000000000E+00  0.00000000000E+00 -0.45701241585E+03  0.45701241586E+03  0.25500000920E-02 0.  1.
    10030    2    1    2    0    0  0.00000000000E+00  0.00000000000E+00  0.22694655446E+04  0.31834903764E+04  0.22325181115E+04 0.  0.
        3    1    3    3  502    0  0.46699517442E+03  0.91051325555E+03  0.17707117217E+04  0.20451256424E+04  0.10100000352E+00 0. -1.
       -3    1    3    3    0  502 -0.46699517442E+03 -0.91051325555E+03  0.49875382290E+03  0.11383647340E+04  0.10100000352E+00 0.  1.
</event>
<event>
 5   0  0.1257524E-04  0.1588135E+04  0.7818609E-02  0.8827871E-01
        2   -1    0    0  501    0  0.00000000000E+00  0.00000000000E+00  0.63256057012E+03  0.63256057013E+03  0.25500000920E-02 0. -1.
       -2   -1    0    0    0  501  0.00000000000E+00  0.00000000000E+00 -0.99681036537E+03  0.99681036537E+03  0.25500000920E-02 0.  1.
    10030    2    1    2    0    0  0.00000000000E+00  0.00000000000E+00 -0.36424979524E+03  0.16293709355E+04  0.15881346706E+04 0.  0.
        3    1    3    3  502    0  0.23398527933E+03 -0.47569078118E+03 -0.78867089526E+03  0.95028028575E+03  0.10100000352E+00 0.  1.
       -3    1    3    3    0  502 -0.23398527933E+03  0.47569078118E+03  0.42442110002E+03  0.67909064975E+03  0.10100000352E+00 0. -1.
</event>
<event>
 5   0  0.4489500E-05  0.2311021E+04  0.7818609E-02  0.8473588E-01
        3   -1    0    0  501    0  0.00000000000E+00  0.00000000000E+00  0.10865414600E+04  0.10865414647E+04  0.10100000352E+00 0.  1.
       -3   -1    0    0    0  501  0.00000000000E+00  0.00000000000E+00 -0.12288575367E+04  0.12288575409E+04  0.10100000352E+00 0. -1.
    10030    2    1    2    0    0  0.00000000000E+00  0.00000000000E+00 -0.14231607673E+03  0.23153990055E+04  0.23110211356E+04 0.  0.
        2    1    3    3  502    0 -0.21243511142E+03 -0.84249017123E+03  0.69205026459E+03  0.11107888791E+04  0.25500000920E-02 0.  1.
       -2    1    3    3    0  502  0.21243511142E+03  0.84249017123E+03 -0.83436634132E+03  0.12046101264E+04  0.25500000920E-02 0. -1.
</event>
<event>
 5   0  0.5924654E-05  0.1774688E+04  0.7818609E-02  0.8719877E-01
        1   -1    0    0  501    0  0.00000000000E+00  0.00000000000E+00  0.14384048208E+04  0.14384048208E+04  0.50400001928E-02 0. -1.
       -1   -1    0    0    0  501  0.00000000000E+00  0.00000000000E+00 -0.54739747076E+03  0.54739747078E+03  0.50400001928E-02 0.  1.
    10030    2    1    2    0    0  0.00000000000E+00  0.00000000000E+00  0.89100735000E+03  0.19858022915E+04  0.17746877594E+04 0.  0.
        5    1    3    3  502    0  0.88133920908E+02 -0.31500319039E+03 -0.47745919305E+03  0.57877799630E+03  0.46999998093E+01 0.  1.
       -5    1    3    3    0  502 -0.88133920908E+02  0.31500319039E+03  0.13684665430E+04  0.14070242952E+04  0.46999998093E+01 0. -1.
</event>
<event>
 5   0  0.1257524E-04  0.2291435E+04  0.7818609E-02  0.8481306E-01
       -2   -1    0    0    0  501  0.00000000000E+00  0.00000000000E+00  0.60181503398E+03  0.60181503398E+03  0.25500000920E-02 0. -1.
        2   -1    0    0  501    0  0.00000000000E+00  0.00000000000E+00 -0.21811826030E+04  0.21811826030E+04  0.25500000920E-02 0.  1.
    10030    2    1    2    0    0  0.00000000000E+00  0.00000000000E+00 -0.15793675690E+04  0.27829976370E+04  0.22914349062E+04 0.  0.
        3    1    3    3  502    0  0.89326228140E+03  0.24520856061E+03  0.29217144345E+02  0.92676771269E+03  0.10100000352E+00 0. -1.
       -3    1    3    3    0  502 -0.89326228140E+03 -0.24520856061E+03 -0.16085847134E+04  0.18562299243E+04  0.10100000352E+00 0.  1.
</event>
<event>
 5   0  0.4489500E-05  0.2316327E+04  0.7818609E-02  0.8471511E-01
        3   -1    0    0  501    0  0.00000000000E+00  0.00000000000E+00  0.32609517992E+04  0.32609518007E+04  0.10100000352E+00 0.  1.
       -3   -1    0    0    0  501  0.00000000000E+00  0.00000000000E+00 -0.41133463442E+03  0.41133464682E+03  0.10100000352E+00 0. -1.
    10030    2    1    2    0    0  0.00000000000E+00  0.00000000000E+00  0.28496171648E+04  0.36722864476E+04  0.23163267833E+04 0.  0.
        4    1    3    3  502    0  0.94592549668E+02 -0.34291228227E+03  0.31721986849E+04  0.31920812479E+04  0.12699999809E+01 0.  1.
       -4    1    3    3    0  502 -0.94592549668E+02  0.34291228227E+03 -0.32258152012E+03  0.48020519969E+03  0.12699999809E+01 0. -1.
</event>
<event>
 5   0  0.1270613E-04  0.2355296E+04  0.7818609E-02  0.8456432E-01
       -2   -1    0    0    0  501  0.00000000000E+00  0.00000000000E+00  0.12657099006E+04  0.12657099007E+04  0.25500000920E-02 0. -1.
        2   -1    0    0  501    0  0.00000000000E+00  0.00000000000E+00 -0.10957133972E+04  0.10957133973E+04  0.25500000920E-02 0.  1.
    10030    2    1    2    0    0  0.00000000000E+00  0.00000000000E+00  0.16999650340E+03  0.23614232979E+04  0.23552964104E+04 0.  0.
        2    1    3    3  502    0 -0.52530542840E+03  0.95382792119E+03 -0.36463440443E+03  0.11483430434E+04  0.25500000920E-02 0.  1.
       -2    1    3    3    0  502  0.52530542840E+03 -0.95382792119E+03  0.53463090783E+03  0.12130802545E+04  0.25500000920E-02 0. -1.
</event>
<event>
 5   0  0.1237296E-04  0.2337674E+04  0.7818609E-02  0.8463213E-01
        2   -1    0    0  501    0  0.00000000000E+00  0.00000000000E+00  0.76997380659E+03  0.76997380659E+03  0.25500000920E-02 0. -1.
       -2   -1    0    0    0  501  0.00000000000E+00  0.00000000000E+00 -0.17743202017E+04  0.17743202017E+04  0.25500000920E-02 0.  1.
    10030    2    1    2    0    0  0.00000000000E+00  0.00000000000E+00 -0.10043463951E+04  0.25442940083E+04  0.23376741260E+04 0.  0.
        1    1    3    3  502    0 -0.87371707115E+03 -0.50884343507E+03 -0.11404144013E+04  0.15240892915E+04  0.50400001928E-02 0.  1.
       -1    1    3    3    0  502  0.87371707115E+03  0.50884343507E+03  0.13606800616E+03  0.10202047168E+04  0.50400001928E-02 0. -1.
</event>
<event>
 5   0  0.5642466E-05  0.2314059E+04  0.7818609E-02  0.8472398E-01
        1   -1    0    0  501    0  0.00000000000E+00  0.00000000000E+00  0.13684301452E+04  0.13684301452E+04  0.50400001928E-02 0. -1.
       -1   -1    0    0    0  501  0.00000000000E+00  0.00000000000E+00 -0.97828726861E+03  0.97828726862E+03  0.50400001928E-02 0.  1.
    10030    2    1    2    0    0  0.00000000000E+00  0.00000000000E+00  0.39014287662E+03  0.23467174139E+04  0.23140594539E+04 0.  0.
        1    1    3    3  502    0 -0.32760911220E+01  0.13118998391E+03 -0.97071567367E+03  0.97954604985E+03  0.50400001928E-02 0.  1.
       -1    1    3    3    0  502  0.32760911220E+01 -0.13118998391E+03  0.13608585503E+04  0.13671713640E+04  0.50400001928E-02 0. -1.
</event>
<event>
 5   0  0.1281432E-04  0.2261357E+04  0.7818609E-02  0.8493315E-01
        2   -1    0    0  501    0  0.00000000000E+00  0.00000000000E+00  0.19461524965E+04  0.19461524965E+04  0.25500000920E-02 0. -1.
       -2   -1    0    0    0  501  0.00000000000E+00  0.00000000000E+00 -0.65690319686E+03  0.65690319687E+03  0.25500000920E-02 0.  1.
    10030    2    1    2    0    0  0.00000000000E+00  0.00000000000E+00  0.12892492997E+04  0.26030556934E+04  0.22613569347E+04 0.  0.
        4    1    3    3  502    0  0.59752353489E+02  0.72825590780E+03 -0.34860163134E+03  0.80959972904E+03  0.12699999809E+01 0.  1.
       -4    1    3    3    0  502 -0.59752353489E+02 -0.72825590780E+03  0.16378509310E+04  0.17934559643E+04  0.12699999809E+01 0. -1.
</event>
<event>
 5   0  0.1281432E-04  0.2323335E+04  0.7818609E-02  0.8468777E-01
       -2   -1    0    0    0  501  0.00000000000E+00  0.00000000000E+00  0.97092244389E+03  0.97092244390E+03  0.25500000920E-02 0. -1.
        2   -1    0    0  501    0  0.00000000000E+00  0.00000000000E+00 -0.13898858000E+04  0.13898858000E+04  0.25500000920E-02 0.  1.
    10030    2    1    2    0    0  0.00000000000E+00  0.00000000000E+00 -0.41896335608E+03  0.23608082439E+04  0.23233349458E+04 0.  0.
        4    1    3    3  502    0 -0.28373514408E+03 -0.11264794635E+04 -0.21237205720E+03  0.11809170662E+04  0.12699999809E+01 0. -1.
       -4    1    3    3    0  502  0.28373514408E+03  0.11264794635E+04 -0.20659129889E+03  0.11798911777E+04  0.12699999809E+01 0.  1.
</event>
<event>
 5   0  0.1257524E-04  0.2272439E+04  0.7818609E-02  0.8488868E-01
        2   -1    0    0  501    0  0.00000000000E+00  0.00000000000E+00  0.26982969654E+04  0.26982969654E+04  0.25500000920E-02 0.  1.
       -2   -1    0    0    0  501  0.00000000000E+00  0.00000000000E+00 -0.47844792380E+03  0.47844792381E+03  0.25500000920E-02 0. -1.
    10030    2    1    2    0    0  0.00000000000E+00  0.00000000000E+00  0.22198490416E+04  0.31767448892E+04  0.22724388493E+04 0.  0.
        3    1    3    3  502    0  0.11524608252E+03 -0.36300701919E+02 -0.46944121097E+03  0.48474164382E+03  0.10100000352E+00 0. -1.
       -3    1    3    3    0  502 -0.11524608252E+03  0.36300701919E+02  0.26892902526E+04  0.26920032454E+04  0.10100000352E+00 0.  1.
</event>
<event>
 5   0  0.5632156E-05  0.2317164E+04  0.7818609E-02  0.8471184E-01
       -1   -1    0    0    0  501  0.00000000000E+00  0.00000000000E+00  0.76420070769E+03  0.76420070771E+03  0.50400001928E-02 0.  1.
        1   -1    0    0  501    0  0.00000000000E+00  0.00000000000E+00 -0.17564920675E+04  0.17564920676E+04  0.50400001928E-02 0. -1.
    10030    2    1    2    0    0  0.00000000000E+00  0.00000000000E+00 -0.99229135985E+03  0.25206927753E+04  0.23171641989E+04 0.  0.
        4    1    3    3  502    0 -0.72510144913E+03  0.85949259736E+03 -0.79959366069E+03  0.13798011710E+04  0.12699999809E+01 0. -1.
       -4    1    3    3    0  502  0.72510144913E+03 -0.85949259736E+03 -0.19269769916E+03  0.11408916042E+04  0.12699999809E+01 0.  1.
</event>
<event>
 5   0  0.5843670E-05  0.2282747E+04  0.7818609E-02  0.8484755E-01
        1   -1    0    0  501    0  0.00000000000E+00  0.00000000000E+00  0.72999033500E+03  0.72999033502E+03  0.50400001928E-02 0.  1.
       -1   -1    0    0    0  501  0.00000000000E+00  0.00000000000E+00 -0.17845892905E+04  0.17845892905E+04  0.50400001928E-02 0. -1.
    10030    2    1    2    0    0  0.00000000000E+00  0.00000000000E+00 -0.10545989555E+04  0.25145796255E+04  0.22827465335E+04 0.  0.
        2    1    3    3  502    0 -0.10268150108E+03  0.30966896715E+03 -0.17321322355E+04  0.17625891300E+04  0.25500000920E-02 0. -1.
       -2    1    3    3    0  502  0.10268150108E+03 -0.30966896715E+03  0.67753328000E+03  0.75199049554E+03  0.25500000920E-02 0.  1.
</event>
<event>
 5   0  0.1257524E-04  0.1456466E+04  0.7818609E-02  0.8913930E-01
        2   -1    0    0  501    0  0.00000000000E+00  0.00000000000E+00  0.11080412101E+04  0.11080412101E+04  0.25500000920E-02 0. -1.
       -2   -1    0    0    0  501  0.00000000000E+00  0.00000000000E+00 -0.47861330174E+03  0.47861330175E+03  0.25500000920E-02 0.  1.
    10030    2    1    2    0    0  0.00000000000E+00  0.00000000000E+00  0.62942790833E+03  0.15866545118E+04  0.14564659447E+04 0.  0.
        3    1    3    3  502    0 -0.21890241435E+03  0.69300329808E+03  0.36524333756E+03  0.81337232802E+03  0.10100000352E+00 0.  1.
       -3    1    3    3    0  502  0.21890241435E+03 -0.69300329808E+03  0.26418457077E+03  0.77328218381E+03  0.10100000352E+00 0. -1.
</event>
<event>
 5   0  0.1281432E-04  0.2179115E+04  0.7818609E-02  0.8527172E-01
        2   -1    0    0  501    0  0.00000000000E+00  0.00000000000E+00  0.98854445746E+03  0.98854445747E+03  0.25500000920E-02 0.  1.
       -2   -1    0    0    0  501  0.00000000000E+00  0.00000000000E+00 -0.12008919570E+04  0.12008919570E+04  0.25500000920E-02 0. -1.
    10030    2    1    2    0    0  0.00000000000E+00  0.00000000000E+00 -0.21234749950E+03  0.21894364144E+04  0.21791145799E+04 0.  0.
        4    1    3    3  502    0  0.96156263201E+03  0.32083762543E+03  0.29521070412E+03  0.10557890177E+04  0.12699999809E+01 0.  1.
       -4    1    3    3    0  502 -0.96156263201E+03 -0.32083762543E+03 -0.50755820363E+03  0.11336473967E+04  0.12699999809E+01 0. -1.
</event>
<event>
 5   0  0.1281432E-04  0.2273084E+04  0.7818609E-02  0.8488610E-01
       -2   -1    0    0    0  501  0.00000000000E+00  0.00000000000E+00  0.11503274320E+04  0.11503274320E+04  0.25500000920E-02 0. -1.
        2   -1    0    0  501    0  0.00000000000E+00  0.00000000000E+00 -0.11229222111E+04  0.11229222111E+04  0.25500000920E-02 0.  1.
    10030    2    1    2    0    0  0.00000000000E+00  0.00000000000E+00  0.27405220815E+02  0.22732496431E+04  0.22730844449E+04 0.  0.
        4    1    3    3  502    0  0.82109903167E+03 -0.76524045914E+03  0.19240535706E+03  0.11387791772E+04  0.12699999809E+01 0.  1.
       -4    1    3    3    0  502 -0.82109903167E+03  0.76524045914E+03 -0.16500013624E+03  0.11344704659E+04  0.12699999809E+01 0. -1.
</event>
<event>
 5   0  0.5663790E-05  0.2321671E+04  0.7818609E-02  0.8469425E-01
        1   -1    0    0  501    0  0.00000000000E+00  0.00000000000E+00  0.15052368503E+04  0.15052368503E+04  0.50400001928E-02 0. -1.
       -1   -1    0    0    0  501  0.00000000000E+00  0.00000000000E+00 -0.89523394456E+03  0.89523394458E+03  0.50400001928E-02 0.  1.
    10030    2    1    2    0    0  0.00000000000E+00  0.00000000000E+00  0.61000290570E+03  0.24004707948E+04  0.23216710559E+04 0.  0.
        3    1    3    3  502    0  0.21159326674E+03 -0.10381572789E+04  0.79543929665E+03  0.13248644954E+04  0.10100000352E+00 0. -1.
       -3    1    3    3    0  502 -0.21159326674E+03  0.10381572789E+04 -0.18543639095E+03  0.10756062995E+04  0.10100000352E+00 0.  1.
</event>
<event>
 5   0  0.5642466E-05  0.2258180E+04  0.7818609E-02  0.8494595E-01
        1   -1    0    0  501    0  0.00000000000E+00  0.00000000000E+00  0.99874681899E+03  0.99874681901E+03  0.50400001928E-02 0.  1.
       -1   -1    0    0    0  501  0.00000000000E+00  0.00000000000E+00 -0.12764439004E+04  0.12764439004E+04  0.50400001928E-02 0. -1.
    10030    2    1    2    0    0  0.00000000000E+00  0.00000000000E+00 -0.27769708139E+03  0.22751907194E+04  0.22581800505E+04 0.  0.
        1    1    3    3  502    0  0.93143141999E+03  0.12274444942E+03 -0.76983576024E+03  0.12146101382E+04  0.50400001928E-02 0. -1.
       -1    1    3    3    0  502 -0.93143141999E+03 -0.12274444942E+03  0.49213867885E+03  0.10605805812E+04  0.50400001928E-02 0.  1.
</event>
<event>
 5   0  0.5843670E-05  0.2301469E+04  0.7818609E-02  0.8477342E-01
       -1   -1    0    0    0  501  0.00000000000E+00  0.00000000000E+00  0.82012310566E+03  0.82012310568E+03  0.50400001928E-02 0. -1.
        1   -1    0    0  501    0  0.00000000000E+00  0.00000000000E+00 -0.16146226838E+04  0.16146226838E+04  0.50400001928E-02 0.  1.
    10030    2    1    2    0    0  0.00000000000E+00  0.00000000000E+00 -0.79449957810E+03  0.24347457895E+04  0.23014685485E+04 0.  0.
        2    1    3    3  502    0 -0.36702767051E+03 -0.53432720970E+03 -0.14030846118E+04  0.15455941594E+04  0.25500000920E-02 0.  1.
       -2    1    3    3    0  502  0.36702767051E+03  0.53432720970E+03  0.60858503366E+03  0.88915163001E+03  0.25500000920E-02 0. -1.
</event>
<event>
 5   0  0.1237296E-04  0.2275593E+04  0.7818609E-02  0.8487607E-01
        2   -1    0    0  501    0  0.00000000000E+00  0.00000000000E+00  0.28122623612E+04  0.28122623612E+04  0.25500000920E-02 0. -1.
       -2   -1    0    0    0  501  0.00000000000E+00  0.00000000000E+00 -0.46033436103E+03  0.46033436103E+03  0.25500000920E-02 0.  1.
    10030    2    1    2    0    0  0.00000000000E+00  0.00000000000E+00  0.23519280002E+04  0.32725967223E+04  0.22755931070E+04 0.  0.
        1    1    3    3  502    0  0.56186522494E+03 -0.63393899574E+03  0.83544403796E+02  0.85120552674E+03  0.50400001928E-02 0.  1.
       -1    1    3    3    0  502 -0.56186522494E+03  0.63393899574E+03  0.22683835964E+04  0.24213911955E+04  0.50400001928E-02 0. -1.
</event>
<event>
 5   0  0.1281432E-04  0.2275422E+04  0.7818609E-02  0.8487675E-01
        2   -1    0    0  501    0  0.00000000000E+00  0.00000000000E+00  0.71131680880E+03  0.71131680880E+03  0.25500000920E-02 0.  1.
       -2   -1    0    0    0  501  0.00000000000E+00  0.00000000000E+00 -0.18197048476E+04  0.18197048476E+04  0.25500000920E-02 0. -1.
    10030    2    1    2    0    0  0.00000000000E+00  0.00000000000E+00 -0.11083880388E+04  0.25310216564E+04  0.22754222862E+04 0.  0.
        4    1    3    3  502    0 -0.55467805160E+03 -0.37744446171E+03 -0.15762393355E+04  0.17130861386E+04  0.12699999809E+01 0. -1.
       -4    1    3    3    0  502  0.55467805160E+03  0.37744446171E+03  0.46785129668E+03  0.81793551782E+03  0.12699999809E+01 0.  1.
</event>
<event>
 5   0  0.5924654E-05  0.1280640E+04  0.7818609E-02  0.9045060E-01
       -1   -1    0    0    0  501  0.00000000000E+00  0.00000000000E+00  0.35709376882E+03  0.35709376885E+03  0.50400001928E-02 0.  1.
        1   -1    0    0  501    0  0.00000000000E+00  0.00000000000E+00 -0.11481850895E+04  0.11481850896E+04  0.50400001928E-02 0. -1.
    10030    2    1    2    0    0  0.00000000000E+00  0.00000000000E+00 -0.79109132073E+03  0.15052788584E+04  0.12806400602E+04 0.  0.
        5    1    3    3  502    0  0.10945502737E+03  0.21031016560E+03  0.30357897220E+03  0.38521818640E+03  0.46999998093E+01 0.  1.
       -5    1    3    3    0  502 -0.10945502737E+03 -0.21031016560E+03 -0.10946702929E+04  0.11200606720E+04  0.46999998093E+01 0. -1.
</event>
<event>
 5   0  0.1237296E-04  0.1875762E+04  0.7818609E-02  0.8667016E-01
        2   -1    0    0  501    0  0.00000000000E+00  0.00000000000E+00  0.19504039070E+04  0.19504039070E+04  0.25500000920E-02 0.  1.
       -2   -1    0    0    0  501  0.00000000000E+00  0.00000000000E+00 -0.45099399318E+03  0.45099399319E+03  0.25500000920E-02 0. -1.
    10030    2    1    2    0    0  0.00000000000E+00  0.00000000000E+00  0.14994099138E+04  0.24013979001E+04  0.18757616547E+04 0.  0.
        1    1    3    3  502    0 -0.17947290855E+03 -0.76923838133E+03  0.10235853895E+03  0.79650202934E+03  0.50400001928E-02 0. -1.
       -1    1    3    3    0  502  0.17947290855E+03  0.76923838133E+03  0.13970513748E+04  0.16048958708E+04  0.50400001928E-02 0.  1.
</event>
<event>
 5   0  0.5663790E-05  0.2301100E+04  0.7818609E-02  0.8477487E-01
       -1   -1    0    0    0  501  0.00000000000E+00  0.00000000000E+00  0.19122324508E+04  0.19122324508E+04  0.50400001928E-02 0.  1.
        1   -1    0    0  501    0  0.00000000000E+00  0.00000000000E+00 -0.69226199157E+03  0.69226199159E+03  0.50400001928E-02 0. -1.
    10030    2    1    2    0    0  0.00000000000E+00  0.00000000000E+00  0.12199704592E+04  0.26044944424E+04  0.23011004713E+04 0.  0.
        3    1    3    3  502    0 -0.10426876544E+03 -0.10437401967E+04  0.11450752742E+04  0.15528885882E+04  0.10100000352E+00 0. -1.
       -3    1    3    3    0  502  0.10426876544E+03  0.10437401967E+04  0.74895185023E+02  0.10516058542E+04  0.10100000352E+00 0.  1.
</event>
<event>
 5   0  0.5924654E-05  0.2035759E+04  0.7818609E-02  0.8590082E-01
        1   -1    0    0  501    0  0.00000000000E+00  0.00000000000E+00  0.12543952680E+04  0.12543952680E+04  0.50400001928E-02 0.  1.
       -1   -1    0    0    0  501  0.00000000000E+00  0.00000000000E+00 -0.82595853648E+03  0.82595853650E+03  0.50400001928E-02 0. -1.
    10030    2    1    2    0    0  0.00000000000E+00  0.00000000000E+00  0.42843673148E+03  0.20803538045E+04  0.20357588067E+04 0.  0.
        5    1    3    3  502    0  0.57602059781E+03 -0.48801946257E+03  0.91188423816E+03  0.11838571192E+04  0.46999998093E+01 0.  1.
       -5    1    3    3    0  502 -0.57602059781E+03  0.48801946257E+03 -0.48344750668E+03  0.89649668525E+03  0.46999998093E+01 0. -1.
</event>
<event>
 5   0  0.5924654E-05  0.2890430E+04  0.7818609E-02  0.8275731E-01
        1   -1    0    0  501    0  0.00000000000E+00  0.00000000000E+00  0.17791355342E+04  0.17791355343E+04  0.50400001928E-02 0. -1.
       -1   -1    0    0    0  501  0.00000000000E+00  0.00000000000E+00 -0.11739667776E+04  0.11739667777E+04  0.50400001928E-02 0.  1.
    10030    2    1    2    0    0  0.00000000000E+00  0.00000000000E+00  0.60516875660E+03  0.29531023119E+04  0.28904297329E+04 0.  0.
        5    1    3    3  502    0  0.71128484516E+02 -0.12325161092E+03  0.17719523900E+04  0.17776635180E+04  0.46999998093E+01 0. -1.
       -5    1    3    3    0  502 -0.71128484516E+02  0.12325161092E+03 -0.11667836334E+04  0.11754387939E+04  0.46999998093E+01 0.  1.
</event>
<event>
 5   0  0.1234988E-04  0.2255951E+04  0.7818609E-02  0.8495494E-01
       -2   -1    0    0    0  501  0.00000000000E+00  0.00000000000E+00  0.85382035610E+03  0.85382035611E+03  0.25500000920E-02 0. -1.
        2   -1    0    0  501    0  0.00000000000E+00  0.00000000000E+00 -0.14901603344E+04  0.14901603344E+04  0.25500000920E-02 0.  1.
    10030    2    1    2    0    0  0.00000000000E+00  0.00000000000E+00 -0.63633997825E+03  0.23439806905E+04  0.22559514422E+04 0.  0.
        5    1    3    3  502    0  0.97727115763E+02  0.61180395770E+03  0.66118779744E+03  0.90611592266E+03  0.46999998093E+01 0. -1.
       -5    1    3    3    0  502 -0.97727115763E+02 -0.61180395770E+03 -0.12975277757E+04  0.14378647678E+04  0.46999998093E+01 0.  1.
</event>
<event>
 5   0  0.1234988E-04  0.2208142E+04  0.7818609E-02  0.8515047E-01
       -2   -1    0    0    0  501  0.00000000000E+00  0.00000000000E+00  0.60485350344E+03  0.60485350344E+03  0.25500000920E-02 0.  1.
        2   -1    0    0  501    0  0.00000000000E+00  0.00000000000E+00 -0.20153195357E+04  0.20153195357E+04  0.25500000920E-02 0. -1.
    10030    2    1    2    0    0  0.00000000000E+00  0.00000000000E+00 -0.14104660323E+04  0.26201730392E+04  0.22081422796E+04 0.  0.
        5    1    3    3  502    0  0.43041081787E+03  0.60208131617E+03 -0.16773700171E+04  0.18333978422E+04  0.46999998093E+01 0. -1.
       -5    1    3    3    0  502 -0.43041081787E+03 -0.60208131617E+03  0.26690398485E+03  0.78677519696E+03  0.46999998093E+01 0.  1.
</event>
<event>
 5   0  0.1281432E-04  0.2310554E+04  0.7818609E-02  0.8473771E-01
        2   -1    0    0  501    0  0.00000000000E+00  0.00000000000E+00  0.26114702114E+04  0.26114702114E+04  0.25500000920E-02 0.  1.
       -2   -1    0    0    0  501  0.00000000000E+00  0.00000000000E+00 -0.51107797103E+03  0.51107797103E+03  0.25500000920E-02 0. -1.
    10030    2    1    2    0    0  0.00000000000E+00  0.00000000000E+00  0.21003922404E+04  0.31225481824E+04  0.23105539570E+04 0.  0.
        4    1    3    3  502    0 -0.11176572578E+04 -0.28810897637E+03  0.98264151464E+03  0.15158332650E+04  0.12699999809E+01 0.  1.
       -4    1    3    3    0  502  0.11176572578E+04  0.28810897637E+03  0.11177507257E+04  0.16067149174E+04  0.12699999809E+01 0. -1.
</event>
<event>
 5   0  0.5642466E-05  0.2287503E+04  0.7818609E-02  0.8482865E-01
        1   -1    0    0  501    0  0.00000000000E+00  0.00000000000E+00  0.10206690221E+04  0.10206690221E+04  0.50400001928E-02 0. -1.
       -1   -1    0    0    0  501  0.00000000000E+00  0.00000000000E+00 -0.12816765371E+04  0.12816765371E+04  0.50400001928E-02 0.  1.
    10030    2    1    2    0    0  0.00000000000E+00  0.00000000000E+00 -0.26100751499E+03  0.23023455592E+04  0.22875030385E+04 0.  0.
        1    1    3    3  502    0  0.69828866837E+03 -0.90257895271E+03 -0.53117241220E+02  0.11423997862E+04  0.50400001928E-02 0. -1.
       -1    1    3    3    0  502 -0.69828866837E+03  0.90257895271E+03 -0.20789027377E+03  0.11599457730E+04  0.50400001928E-02 0.  1.
</event>
<event>
 5   0  0.1234988E-04  0.2310752E+04  0.7818609E-02  0.8473694E-01
        2   -1    0    0  501    0  0.00000000000E+00  0.00000000000E+00  0.92394162429E+03  0.92394162429E+03  0.25500000920E-02 0.  1.
       -2   -1    0    0    0  501  0.00000000000E+00  0.00000000000E+00 -0.14447817259E+04  0.14447817259E+04  0.25500000920E-02 0. -1.
    10030    2    1    2    0    0  0.00000000000E+00  0.00000000000E+00 -0.52084010160E+03  0.23687233502E+04  0.23107522364E+04 0.  0.
        5    1    3    3  502    0 -0.68761288170E+03  0.58720761292E+03 -0.99766229658E+03  0.13464681221E+04  0.46999998093E+01 0. -1.
       -5    1    3    3    0  502  0.68761288170E+03 -0.58720761292E+03  0.47682219498E+03  0.10222552281E+04  0.46999998093E+01 0.  1.
</event>
<event>
 5   0  0.5924654E-05  0.2274983E+04  0.7818609E-02  0.8487851E-01
        1   -1    0    0  501    0  0.00000000000E+00  0.00000000000E+00  0.20484631076E+04  0.20484631076E+04  0.50400001928E-02 0.  1.
       -1   -1    0    0    0  501  0.00000000000E+00  0.00000000000E+00 -0.63163772807E+03  0.63163772809E+03  0.50400001928E-02 0. -1.
    10030    2    1    2    0    0  0.00000000000E+00  0.00000000000E+00  0.14168253796E+04  0.26801008357E+04  0.22749827106E+04 0.  0.
        5    1    3    3  502    0 -0.10566648188E+04  0.21811165143E+03  0.28405817371E+03  0.11157169748E+04  0.46999998093E+01 0. -1.
       -5    1    3    3    0  502  0.10566648188E+04 -0.21811165143E+03  0.11327672059E+04  0.15643838610E+04  0.46999998093E+01 0.  1.
</event>
<event>
 5   0  0.1257524E-04  0.1955396E+04  0.7818609E-02  0.8627763E-01
       -2   -1    0    0    0  501  0.00000000000E+00  0.00000000000E+00  0.62775691576E+03  0.62775691576E+03  0.25500000920E-02 0.  1.
        2   -1    0    0  501    0  0.00000000000E+00  0.00000000000E+00 -0.15227127341E+04  0.15227127341E+04  0.25500000920E-02 0. -1.
    10030    2    1    2    0    0  0.00000000000E+00  0.00000000000E+00 -0.89495581833E+03  0.21504696499E+04  0.19553960719E+04 0.  0.
        3    1    3    3  502    0  0.30634127713E+03 -0.58690570174E+03  0.34373175673E+03  0.74595898788E+03  0.10100000352E+00 0.  1.
       -3    1    3    3    0  502 -0.30634127713E+03  0.58690570174E+03 -0.12386875751E+04  0.14045106620E+04  0.10100000352E+00 0. -1.
</event>
<event>
 5   0  0.1234988E-04  0.2364705E+04  0.7818609E-02  0.8452837E-01
        2   -1    0    0  501    0  0.00000000000E+00  0.00000000000E+00  0.16979277200E+04  0.16979277200E+04  0.25500000920E-02 0.  1.
       -2   -1    0    0    0  501  0.00000000000E+00  0.00000000000E+00 -0.82333187271E+03  0.82333187271E+03  0.25500000920E-02 0. -1.
    10030    2    1    2    0    0  0.00000000000E+00  0.00000000000E+00  0.87459584730E+03  0.25212595927E+04  0.23647054865E+04 0.  0.
        5    1    3    3  502    0  0.86830383179E+03  0.54710932322E+03  0.10632387478E+04  0.14777614424E+04  0.46999998093E+01 0.  1.
       -5    1    3    3    0  502 -0.86830383179E+03 -0.54710932322E+03 -0.18864290046E+03  0.10434981503E+04  0.46999998093E+01 0. -1.
</event>
<event>
 5   0  0.5632156E-05  0.2048469E+04  0.7818609E-02  0.8584289E-01
       -1   -1    0    0    0  501  0.00000000000E+00  0.00000000000E+00  0.10200604576E+04  0.10200604576E+04  0.50400001928E-02 0.  1.
        1   -1    0    0  501    0  0.00000000000E+00  0.00000000000E+00 -0.10284251409E+04  0.10284251409E+04  0.50400001928E-02 0. -1.
    10030    2    1    2    0    0  0.00000000000E+00  0.00000000000E+00 -0.83646833260E+01  0.20484855985E+04  0.20484685204E+04 0.  0.
        4    1    3    3  502    0  0.98572556491E+02 -0.49484753502E+03 -0.89551663473E+03  0.10278824290E+04  0.12699999809E+01 0. -1.
       -4    1    3    3    0  502 -0.98572556491E+02  0.49484753502E+03  0.88715195141E+03  0.10206031695E+04  0.12699999809E+01 0.  1.
</event>
<event>
 5   0  0.1257524E-04  0.2390511E+04  0.7818609E-02  0.8443065E-01
       -2   -1    0    0    0  501  0.00000000000E+00  0.00000000000E+00  0.14605863679E+04  0.14605863679E+04  0.25500000920E-02 0.  1.
        2   -1    0    0  501    0  0.00000000000E+00  0.00000000000E+00 -0.97812462639E+03  0.97812462639E+03  0.25500000920E-02 0. -1.
    10030    2    1    2    0    0  0.00000000000E+00  0.00000000000E+00  0.48246174148E+03  0.24387109943E+04  0.23905108202E+04 0.  0.
        3    1    3    3  502    0 -0.24703289183E+03  0.13523782250E+03 -0.94379343136E+03  0.98491652924E+03  0.10100000352E+00 0. -1.
       -3    1    3    3    0  502  0.24703289183E+03 -0.13523782250E+03  0.14262551728E+04  0.14537944650E+04  0.10100000352E+00 0.  1.
</event>
<event>
 5   0  0.1270613E-04  0.2464129E+04  0.7818609E-02  0.8415877E-01
       -2   -1    0    0    0  501  0.00000000000E+00  0.00000000000E+00  0.10299108307E+04  0.10299108307E+04  0.25500000920E-02 0. -1.
        2   -1    0    0  501    0  0.00000000000E+00  0.00000000000E+00 -0.14738971186E+04  0.14738971186E+04  0.25500000920E-02 0.  1.
    10030    2    1    2    0    0  0.00000000000E+00  0.00000000000E+00 -0.44398628788E+03  0.25038079493E+04  0.24641287351E+04 0.  0.
        2    1    3    3  502    0 -0.26936690221E+03 -0.21046661487E+03  0.98076002109E+03  0.10386264694E+04  0.25500000920E-02 0. -1.
       -2    1    3    3    0  502  0.26936690221E+03  0.21046661487E+03 -0.14247463090E+04  0.14651814799E+04  0.25500000920E-02 0.  1.
</event>
<event>
 5   0  0.1281432E-04  0.1183430E+04  0.7818609E-02  0.9127485E-01
       -2   -1    0    0    0  501  0.00000000000E+00  0.00000000000E+00  0.66146218753E+03  0.66146218754E+03  0.25500000920E-02 0.  1.
        2   -1    0    0  501    0  0.00000000000E+00  0.00000000000E+00 -0.52932267876E+03  0.52932267876E+03  0.25500000920E-02 0. -1.
    10030    2    1    2    0    0  0.00000000000E+00  0.00000000000E+00  0.13213950878E+03  0.11907848663E+04  0.11834304999E+04 0.  0.
        4    1    3    3  502    0  0.69518321147E+02 -0.44964617613E+02  0.65560384385E+03  0.66081209643E+03  0.12699999809E+01 0.  1.
       -4    1    3    3    0  502 -0.69518321147E+02  0.44964617613E+02 -0.52346433507E+03  0.52997276987E+03  0.12699999809E+01 0. -1.
</event>
<event>
 5   0  0.1257524E-04  0.2280335E+04  0.7818609E-02  0.8485715E-01
        2   -1    0    0  501    0  0.00000000000E+00  0.00000000000E+00  0.10638152655E+04  0.10638152655E+04  0.25500000920E-02 0. -1.
       -2   -1    0    0    0  501  0.00000000000E+00  0.00000000000E+00 -0.12220002271E+04  0.12220002271E+04  0.25500000920E-02 0.  1.
    10030    2    1    2    0    0  0.00000000000E+00  0.00000000000E+00 -0.15818496153E+03  0.22858154926E+04  0.22803354981E+04 0.  0.
        3    1    3    3  502    0 -0.22595701230E+03  0.62473372004E+03 -0.10079441955E+04  0.12071869382E+04  0.10100000352E+00 0.  1.
       -3    1    3    3    0  502  0.22595701230E+03 -0.62473372004E+03  0.84975923397E+03  0.10786285544E+04  0.10100000352E+00 0. -1.
</event>
<event>
 5   0  0.1237296E-04  0.2275409E+04  0.7818609E-02  0.8487680E-01
       -2   -1    0    0    0  501  0.00000000000E+00  0.00000000000E+00  0.10422785500E+04  0.10422785500E+04  0.25500000920E-02 0. -1.
        2   -1    0    0  501    0  0.00000000000E+00  0.00000000000E+00 -0.12418673641E+04  0.12418673641E+04  0.25500000920E-02 0.  1.
    10030    2    1    2    0    0  0.00000000000E+00  0.00000000000E+00 -0.19958881412E+03  0.22841459141E+04  0.22754091637E+04 0.  0.
        1    1    3    3  502    0 -0.35728334776E+03  0.91418896818E+03 -0.67731099889E+03  0.11925363933E+04  0.50400001928E-02 0.  1.
       -1    1    3    3    0  502  0.35728334776E+03 -0.91418896818E+03  0.47772218477E+03  0.10916095208E+04  0.50400001928E-02 0. -1.
</event>
<event>
 5   0  0.1237296E-04  0.2287952E+04  0.7818609E-02  0.8482686E-01
       -2   -1    0    0    0  501  0.00000000000E+00  0.00000000000E+00  0.77014744951E+03  0.77014744952E+03  0.25500000920E-02 0.  1.
        2   -1    0    0  501    0  0.00000000000E+00  0.00000000000E+00 -0.16992611203E+04  0.16992611203E+04  0.25500000920E-02 0. -1.
    10030    2    1    2    0    0  0.00000000000E+00  0.00000000000E+00 -0.92911367076E+03  0.24694085698E+04  0.22879524627E+04 0.  0.
        1    1    3    3  502    0 -0.52850710959E+03 -0.50285704104E+03 -0.14156339843E+04  0.15925465601E+04  0.50400001928E-02 0. -1.
       -1    1    3    3    0  502  0.52850710959E+03  0.50285704104E+03  0.48652031350E+03  0.87686200971E+03  0.50400001928E-02 0.  1.
</event>
<event>
 5   0  0.5642466E-05  0.2291378E+04  0.7818609E-02  0.8481328E-01
       -1   -1    0    0    0  501  0.00000000000E+00  0.00000000000E+00  0.96963200365E+03  0.96963200367E+03  0.50400001928E-02 0.  1.
        1   -1    0    0  501    0  0.00000000000E+00  0.00000000000E+00 -0.13537133553E+04  0.13537133553E+04  0.50400001928E-02 0. -1.
    10030    2    1    2    0    0  0.00000000000E+00  0.00000000000E+00 -0.38408135165E+03  0.23233453590E+04  0.22913784437E+04 0.  0.
        1    1    3    3  502    0  0.12173688981E+03  0.77674645721E+03 -0.10370024928E+04  0.13013566380E+04  0.50400001928E-02 0. -1.
       -1    1    3    3    0  502 -0.12173688981E+03 -0.77674645721E+03  0.65292114119E+03  0.10219887210E+04  0.50400001928E-02 0.  1.
</event>
<event>
 5   0  0.5843670E-05  0.2294744E+04  0.7818609E-02  0.8479996E-01
        1   -1    0    0  501    0  0.00000000000E+00  0.00000000000E+00  0.15044759390E+04  0.15044759390E+04  0.50400001928E-02 0.  1.
       -1   -1    0    0    0  501  0.00000000000E+00  0.00000000000E+00 -0.87503069058E+03  0.87503069059E+03  0.50400001928E-02 0. -1.
    10030    2    1    2    0    0  0.00000000000E+00  0.00000000000E+00  0.62944524843E+03  0.23795066296E+04  0.22947440989E+04 0.  0.
        2    1    3    3  502    0 -0.60432940766E+03  0.96408454426E+03  0.46778803860E+03  0.12302433461E+04  0.25500000920E-02 0. -1.
       -2    1    3    3    0  502  0.60432940766E+03 -0.96408454426E+03  0.16165720983E+03  0.11492632836E+04  0.25500000920E-02 0.  1.
</event>
<event>
 5   0  0.1237296E-04  0.2250873E+04  0.7818609E-02  0.8497547E-01
       -2   -1    0    0    0  501  0.00000000000E+00  0.00000000000E+00  0.14779033048E+04  0.14779033048E+04  0.25500000920E-02 0.  1.
        2   -1    0    0  501    0  0.00000000000E+00  0.00000000000E+00 -0.85702962567E+03  0.85702962567E+03  0.25500000920E-02 0. -1.
    10030    2    1    2    0    0  0.00000000000E+00  0.00000000000E+00  0.62087367914E+03  0.23349329305E+04  0.22508726451E+04 0.  0.
        1    1    3    3  502    0 -0.93629049725E+03 -0.38074473140E+03 -0.20302355013E+03  0.10309340462E+04  0.50400001928E-02 0. -1.
       -1    1    3    3    0  502  0.93629049725E+03  0.38074473140E+03  0.82389722926E+03  0.13039988843E+04  0.50400001928E-02 0.  1.
</event>
<event>
 5   0  0.5663790E-05  0.2224468E+04  0.7818609E-02  0.8508312E-01
       -1   -1    0    0    0  501  0.00000000000E+00  0.00000000000E+00  0.11475937295E+04  0.11475937295E+04  0.50400001928E-02 0.  1.
        1   -1    0    0  501    0  0.00000000000E+00  0.00000000000E+00 -0.10779637924E+04  0.10779637924E+04  0.50400001928E-02 0. -1.
    10030    2    1    2    0    0  0.00000000000E+00  0.00000000000E+00  0.69629937168E+02  0.22255575219E+04  0.22244680162E+04 0.  0.
        3    1    3    3  502    0 -0.11410042376E+03  0.25653893560E+03 -0.10419246421E+04  0.10790913318E+04  0.10100000352E+00 0. -1.
       -3    1    3    3    0  502  0.11410042376E+03 -0.25653893560E+03  0.11115545793E+04  0.11464661902E+04  0.10100000352E+00 0.  1.
</event>
<event>
 5   0  0.1234988E-04  0.2282406E+04  0.7818609E-02  0.8484891E-01
       -2   -1    0    0    0  501  0.00000000000E+00  0.00000000000E+00  0.57207575407E+03  0.57207575407E+03  0.25500000920E-02 0. -1.
        2   -1    0    0  501    0  0.00000000000E+00  0.00000000000E+00 -0.22765247933E+04  0.22765247933E+04  0.25500000920E-02 0.  1.
    10030    2    1    2    0    0  0.00000000000E+00  0.00000000000E+00 -0.17044490393E+04  0.28486005474E+04  0.22824063072E+04 0.  0.
        5    1    3    3  502    0 -0.91624246856E+02  0.52230631978E+03 -0.21134065170E+04  0.21789236082E+04  0.46999998093E+01 0.  1.
       -5    1    3    3    0  502  0.91624246856E+02 -0.52230631978E+03  0.40895747774E+03  0.66967693920E+03  0.46999998093E+01 0. -1.
</event>
<event>
 5   0  0.5663790E-05  0.2101222E+04  0.7818609E-02  0.8560705E-01
        1   -1    0    0  501    0  0.00000000000E+00  0.00000000000E+00  0.16474481111E+04  0.16474481112E+04  0.50400001928E-02 0. -1.
       -1   -1    0    0    0  501  0.00000000000E+00  0.00000000000E+00 -0.66999608821E+03  0.66999608823E+03  0.50400001928E-02 0.  1.
    10030    2    1    2    0    0  0.00000000000E+00  0.00000000000E+00  0.97745202293E+03  0.23174441994E+04  0.21012223015E+04 0.  0.
        3    1    3    3  502    0  0.27719792122E+03 -0.49643979484E+03 -0.48563901094E+03  0.74775424879E+03  0.10100000352E+00 0.  1.
       -3    1    3    3    0  502 -0.27719792122E+03  0.49643979484E+03  0.14630910339E+04  0.15696899506E+04  0.10100000352E+00 0. -1.
</event>
<event>
 5   0  0.1270613E-04  0.2116808E+04  0.7818609E-02  0.8553875E-01
       -2   -1    0    0    0  501  0.00000000000E+00  0.00000000000E+00  0.56119000846E+03  0.56119000847E+03  0.25500000920E-02 0.  1.
        2   -1    0    0  501    0  0.00000000000E+00  0.00000000000E+00 -0.19961494613E+04  0.19961494613E+04  0.25500000920E-02 0. -1.
    10030    2    1    2    0    0  0.00000000000E+00  0.00000000000E+00 -0.14349594528E+04  0.25573394697E+04  0.21168081000E+04 0.  0.
        2    1    3    3  502    0  0.74149178752E+03  0.60815903609E+03 -0.17645139066E+03  0.97509106109E+03  0.25500000920E-02 0.  1.
       -2    1    3    3    0  502 -0.74149178752E+03 -0.60815903609E+03 -0.12585080621E+04  0.15822484086E+04  0.25500000920E-02 0. -1.
</event>
<event>
 5   0  0.5632156E-05  0.2271086E+04  0.7818609E-02  0.8489410E-01
       -1   -1    0    0    0  501  0.00000000000E+00  0.00000000000E+00  0.59910464847E+03  0.59910464849E+03  0.50400001928E-02 0. -1.
        1   -1    0    0  501    0  0.00000000000E+00  0.00000000000E+00 -0.21523076082E+04  0.21523076082E+04  0.50400001928E-02 0.  1.
    10030    2    1    2    0    0  0.00000000000E+00  0.00000000000E+00 -0.15532029597E+04  0.27514122567E+04  0.22710856373E+04 0.  0.
        4    1    3    3  502    0 -0.71629217879E+03  0.10292878891E+03 -0.18367730853E+04  0.19741848447E+04  0.12699999809E+01 0.  1.
       -4    1    3    3    0  502  0.71629217879E+03 -0.10292878891E+03  0.28357012561E+03  0.77722741203E+03  0.12699999809E+01 0. -1.
</event>
<event>
 5   0  0.5924654E-05  0.2345093E+04  0.7818609E-02  0.8460351E-01
        1   -1    0    0  501    0  0.00000000000E+00  0.00000000000E+00  0.22002851620E+04  0.22002851620E+04  0.50400001928E-02 0. -1.
       -1   -1    0    0    0  501  0.00000000000E+00  0.00000000000E+00 -0.62485786306E+03  0.62485786308E+03  0.50400001928E-02 0.  1.
    10030    2    1    2    0    0  0.00000000000E+00  0.00000000000E+00  0.15754272989E+04  0.28251430251E+04  0.23450931619E+04 0.  0.
        5    1    3    3  502    0 -0.43642181610E+03 -0.87389374274E+03  0.63360104478E+01  0.97684006377E+03  0.46999998093E+01 0.  1.
       -5    1    3    3    0  502  0.43642181610E+03  0.87389374274E+03  0.15690912885E+04  0.18483029613E+04  0.46999998093E+01 0. -1.
</event>
<event>
 5   0  0.5642466E-05  0.2174116E+04  0.7818609E-02  0.8529279E-01
        1   -1    0    0  501    0  0.00000000000E+00  0.00000000000E+00  0.98021138873E+03  0.98021138874E+03  0.50400001928E-02 0.  1.
       -1   -1    0    0    0  501  0.00000000000E+00  0.00000000000E+00 -0.12055512004E+04  0.12055512004E+04  0.50400001928E-02 0. -1.
    10030    2    1    2    0    0  0.00000000000E+00  0.00000000000E+00 -0.22533981163E+03  0.21857625891E+04  0.21741159273E+04 0.  0.
        1    1    3    3  502    0 -0.46846965700E+03  0.25079021250E+03 -0.10660830852E+04  0.11911728233E+04  0.50400001928E-02 0. -1.
       -1    1    3    3    0  502  0.46846965700E+03 -0.25079021250E+03  0.84074327360E+03  0.99458976585E+03  0.50400001928E-02 0.  1.
</event>
<event>
 5   0  0.5843670E-05  0.2146102E+04  0.7818609E-02  0.8541203E-01
        1   -1    0    0  501    0  0.00000000000E+00  0.00000000000E+00  0.28997312312E+04  0.28997312312E+04  0.50400001928E-02 0. -1.
       -1   -1    0    0    0  501  0.00000000000E+00  0.00000000000E+00 -0.39708449996E+03  0.39708449999E+03  0.50400001928E-02 0.  1.
    10030    2    1    2    0    0  0.00000000000E+00  0.00000000000E+00  0.25026467312E+04  0.32968157312E+04  0.21461018858E+04 0.  0.
        2    1    3    3  502    0 -0.37873610724E+03 -0.15481582381E+03 -0.27254819187E+03  0.49162129238E+03  0.25500000920E-02 0.  1.
       -2    1    3    3    0  502  0.37873610724E+03  0.15481582381E+03  0.27751949231E+04  0.28051944388E+04  0.25500000920E-02 0. -1.
</event>
<event>
 5   0  0.1257524E-04  0.2277493E+04  0.7818609E-02  0.8486848E-01
        2   -1    0    0  501    0  0.00000000000E+00  0.00000000000E+00  0.20035737982E+04  0.20035737982E+04  0.25500000920E-02 0. -1.
       -2   -1    0    0    0  501  0.00000000000E+00  0.00000000000E+00 -0.64721538021E+03  0.64721538021E+03  0.25500000920E-02 0.  1.
    10030    2    1    2    0    0  0.00000000000E+00  0.00000000000E+00  0.13563584180E+04  0.26507891784E+04  0.22774931636E+04 0.  0.
        3    1    3    3  502    0 -0.97454834012E+03  0.57515013107E+03  0.82632776403E+03  0.14011993878E+04  0.10100000352E+00 0.  1.
       -3    1    3    3    0  502  0.97454834012E+03 -0.57515013107E+03  0.53003065393E+03  0.12495897906E+04  0.10100000352E+00 0. -1.
</event>
<event>
 5   0  0.1237296E-04  0.2279372E+04  0.7818609E-02  0.8486099E-01
        2   -1    0    0  501    0  0.00000000000E+00  0.00000000000E+00  0.16394768404E+04  0.16394768404E+04  0.25500000920E-02 0.  1.
       -2   -1    0    0    0  501  0.00000000000E+00  0.00000000000E+00 -0.79225553840E+03  0.79225553840E+03  0.25500000920E-02 0. -1.
    10030    2    1    2    0    0  0.00000000000E+00  0.00000000000E+00  0.84722130195E+03  0.24317323788E+04  0.22793723758E+04 0.  0.
        1    1    3    3  502    0  0.40831162805E+03  0.80859854120E+03 -0.31423649933E+03  0.95879850019E+03  0.50400001928E-02 0. -1.
       -1    1    3    3    0  502 -0.40831162805E+03 -0.80859854120E+03  0.11614578013E+04  0.14729338786E+04  0.50400001928E-02 0.  1.
</event>
<event>
 5   0  0.5843670E-05  0.2308752E+04  0.7818609E-02  0.8474478E-01
       -1   -1    0    0    0  501  0.00000000000E+00  0.00000000000E+00  0.13084932872E+04  0.13084932872E+04  0.50400001928E-02 0. -1.
        1   -1    0    0  501    0  0.00000000000E+00  0.00000000000E+00 -0.10184113218E+04  0.10184113218E+04  0.50400001928E-02 0.  1.
    10030    2    1    2    0    0  0.00000000000E+00  0.00000000000E+00  0.29008196548E+03  0.23269046090E+04  0.23087523715E+04 0.  0.
        2    1    3    3  502    0 -0.10188564009E+04  0.93414266910E+02 -0.39375528400E+03  0.10962836378E+04  0.25500000920E-02 0.  1.
       -2    1    3    3    0  502  0.10188564009E+04 -0.93414266910E+02  0.68383724948E+03  0.12306209712E+04  0.25500000920E-02 0. -1.
</event>
<event>
 5   0  0.5632156E-05  0.1518001E+04  0.7818609E-02  0.8872570E-01
       -1   -1    0    0    0  501  0.00000000000E+00  0.00000000000E+00  0.84127177856E+03  0.84127177857E+03  0.50400001928E-02 0.  1.
        1   -1    0    0  501    0  0.00000000000E+00  0.00000000000E+00 -0.68477474079E+03  0.68477474081E+03  0.50400001928E-02 0. -1.
    10030    2    1    2    0    0  0.00000000000E+00  0.00000000000E+00  0.15649703776E+03  0.15260465194E+04  0.15180008750E+04 0.  0.
        4    1    3    3  502    0 -0.20885582625E+03  0.35068915255E+03  0.72154354882E+03  0.82899357273E+03  0.12699999809E+01 0.  1.
       -4    1    3    3    0  502  0.20885582625E+03 -0.35068915255E+03 -0.56504651106E+03  0.69705294665E+03  0.12699999809E+01 0. -1.
</event>
<event>
 5   0  0.5663790E-05  0.2327422E+04  0.7818609E-02  0.8467187E-01
        1   -1    0    0  501    0  0.00000000000E+00  0.00000000000E+00  0.10223249513E+04  0.10223249513E+04  0.50400001928E-02 0. -1.
       -1   -1    0    0    0  501  0.00000000000E+00  0.00000000000E+00 -0.13246500585E+04  0.13246500586E+04  0.50400001928E-02 0.  1.
    10030    2    1    2    0    0  0.00000000000E+00  0.00000000000E+00 -0.30232510729E+03  0.23469750098E+04  0.23274215833E+04 0.  0.
        3    1    3    3  502    0  0.82377973239E+02  0.33685663902E+03  0.96900941436E+03  0.10291927813E+04  0.10100000352E+00 0. -1.
       -3    1    3    3    0  502 -0.82377973239E+02 -0.33685663902E+03 -0.12713345216E+04  0.13177822285E+04  0.10100000352E+00 0.  1.
</event>
<event>
 5   0  0.5632156E-05  0.2269688E+04  0.7818609E-02  0.8489970E-01
        1   -1    0    0  501    0  0.00000000000E+00  0.00000000000E+00  0.90305822867E+03  0.90305822869E+03  0.50400001928E-02 0.  1.
       -1   -1    0    0    0  501  0.00000000000E+00  0.00000000000E+00 -0.14261215854E+04  0.14261215854E+04  0.50400001928E-02 0. -1.
    10030    2    1    2    0    0  0.00000000000E+00  0.00000000000E+00 -0.52306335671E+03  0.23291798141E+04  0.22696879370E+04 0.  0.
        4    1    3    3  502    0  0.22276638213E+03  0.36007019309E+02 -0.14028651760E+04  0.14208988991E+04  0.12699999809E+01 0. -1.
       -4    1    3    3    0  502 -0.22276638213E+03 -0.36007019309E+02  0.87980181929E+03  0.90828091501E+03  0.12699999809E+01 0.  1.
</event>
<event>
 5   0  0.1270613E-04  0.2285021E+04  0.7818609E-02  0.8483851E-01
       -2   -1    0    0    0  501  0.00000000000E+00  0.00000000000E+00  0.99643600538E+03  0.99643600539E+03  0.25500000920E-02 0.  1.
        2   -1    0    0  501    0  0.00000000000E+00  0.00000000000E+00 -0.13099987297E+04  0.13099987297E+04  0.25500000920E-02 0. -1.
    10030    2    1    2    0    0  0.00000000000E+00  0.00000000000E+00 -0.31356272435E+03  0.23064347351E+04  0.22850207013E+04 0.  0.
        2    1    3    3  502    0 -0.91220119762E+02 -0.71558718033E+03 -0.10510547495E+04  0.12747949676E+04  0.25500000920E-02 0. -1.
       -2    1    3    3    0  502  0.91220119762E+02  0.71558718033E+03  0.73749202513E+03  0.10316397676E+04  0.25500000920E-02 0.  1.
</event>
<event>
 5   0  0.1237296E-04  0.1680552E+04  0.7818609E-02  0.8772535E-01
       -2   -1    0    0    0  501  0.00000000000E+00  0.00000000000E+00  0.56931300155E+03  0.56931300156E+03  0.25500000920E-02 0. -1.
        2   -1    0    0  501    0  0.00000000000E+00  0.00000000000E+00 -0.12402034144E+04  0.12402034144E+04  0.25500000920E-02 0.  1.
    10030    2    1    2    0    0  0.00000000000E+00  0.00000000000E+00 -0.67089041286E+03  0.18095164160E+04  0.16805522050E+04 0.  0.
        1    1    3    3  502    0 -0.17429181786E+03 -0.48598616703E+03  0.37837987736E+03  0.64010274482E+03  0.50400001928E-02 0. -1.
       -1    1    3    3    0  502  0.17429181786E+03  0.48598616703E+03 -0.10492702902E+04  0.11694136712E+04  0.50400001928E-02 0.  1.
</event>
<event>
 5   0  0.5642466E-05  0.2273146E+04  0.7818609E-02  0.8488585E-01
        1   -1    0    0  501    0  0.00000000000E+00  0.00000000000E+00  0.85201157043E+03  0.85201157044E+03  0.50400001928E-02 0. -1.
       -1   -1    0    0    0  501  0.00000000000E+00  0.00000000000E+00 -0.15161744415E+04  0.15161744415E+04  0.50400001928E-02 0.  1.
    10030    2    1    2    0    0  0.00000000000E+00  0.00000000000E+00 -0.66416287109E+03  0.23681860120E+04  0.22731459847E+04 0.  0.
        1    1    3    3  502    0 -0.28867772190E+03 -0.10486926819E+04  0.11411046974E+02  0.10877597989E+04  0.50400001928E-02 0. -1.
       -1    1    3    3    0  502  0.28867772190E+03  0.10486926819E+04 -0.67557391806E+03  0.12804262130E+04  0.50400001928E-02 0.  1.
</event>
<event>
 5   0  0.1270613E-04  0.2129840E+04  0.7818609E-02  0.8548211E-01
        2   -1    0    0  501    0  0.00000000000E+00  0.00000000000E+00  0.11769147616E+04  0.11769147616E+04  0.25500000920E-02 0. -1.
       -2   -1    0    0    0  501  0.00000000000E+00  0.00000000000E+00 -0.96358279643E+03  0.96358279643E+03  0.25500000920E-02 0.  1.
    10030    2    1    2    0    0  0.00000000000E+00  0.00000000000E+00  0.21333196513E+03  0.21404975580E+04  0.21298401979E+04 0.  0.
        2    1    3    3  502    0 -0.34129190055E+03  0.49919584498E+03 -0.77429205941E+03  0.98244839371E+03  0.25500000920E-02 0.  1.
       -2    1    3    3    0  502  0.34129190055E+03 -0.49919584498E+03  0.98762402454E+03  0.11580491643E+04  0.25500000920E-02 0. -1.
</event>
<event>
 5   0  0.5642466E-05  0.2321597E+04  0.7818609E-02  0.8469454E-01
        1   -1    0    0  501    0  0.00000000000E+00  0.00000000000E+00  0.10363820937E+04  0.10363820938E+04  0.50400001928E-02 0.  1.
       -1   -1    0    0    0  501  0.00000000000E+00  0.00000000000E+00 -0.13001504264E+04  0.13001504264E+04  0.50400001928E-02 0. -1.
    10030    2    1    2    0    0  0.00000000000E+00  0.00000000000E+00 -0.26376833263E+03  0.23365325201E+04  0.23215965378E+04 0.  0.
        1    1    3    3  502    0  0.50885883363E+02 -0.83619593586E+03  0.67680227942E+03  0.10769746245E+04  0.50400001928E-02 0.  1.
       -1    1    3    3    0  502 -0.50885883363E+02  0.83619593586E+03 -0.94057061206E+03  0.12595578957E+04  0.50400001928E-02 0. -1.
</event>
<event>
 5   0  0.1237296E-04  0.2285513E+04  0.7818609E-02  0.8483655E-01
        2   -1    0    0  501    0  0.00000000000E+00  0.00000000000E+00  0.14137189768E+04  0.14137189768E+04  0.25500000920E-02 0.  1.
       -2   -1    0    0    0  501  0.00000000000E+00  0.00000000000E+00 -0.92372812941E+03  0.92372812941E+03  0.25500000920E-02 0. -1.
    10030    2    1    2    0    0  0.00000000000E+00  0.00000000000E+00  0.48999084743E+03  0.23374471063E+04  0.22855126217E+04 0.  0.
        1    1    3    3  502    0  0.46793304292E+03  0.45162915329E+03  0.12060080993E+04  0.13701772733E+04  0.50400001928E-02 0.  1.
       -1    1    3    3    0  502 -0.46793304292E+03 -0.45162915329E+03 -0.71601725184E+03  0.96726983294E+03  0.50400001928E-02 0. -1.
</event>
<event>
 5   0  0.5663790E-05  0.2310229E+04  0.7818609E-02  0.8473899E-01
       -1   -1    0    0    0  501  0.00000000000E+00  0.00000000000E+00  0.10161356071E+04  0.10161356072E+04  0.50400001928E-02 0.  1.
        1   -1    0    0  501    0  0.00000000000E+00  0.00000000000E+00 -0.13131018713E+04  0.13131018713E+04  0.50400001928E-02 0. -1.
    10030    2    1    2    0    0  0.00000000000E+00  0.00000000000E+00 -0.29696626417E+03  0.23292374785E+04  0.23102290512E+04 0.  0.
        3    1    3    3  502    0 -0.17185327324E+03 -0.84331318418E+03 -0.92526297936E+03  0.12636543298E+04  0.10100000352E+00 0. -1.
       -3    1    3    3    0  502  0.17185327324E+03  0.84331318418E+03  0.62829671519E+03  0.10655831486E+04  0.10100000352E+00 0.  1.
</event>
<event>
 5   0  0.1234988E-04  0.2234697E+04  0.7818609E-02  0.8504124E-01
        2   -1    0    0  501    0  0.00000000000E+00  0.00000000000E+00  0.15429149416E+04  0.15429149416E+04  0.25500000920E-02 0. -1.
       -2   -1    0    0    0  501  0.00000000000E+00  0.00000000000E+00 -0.80916170589E+03  0.80916170589E+03  0.25500000920E-02 0.  1.
    10030    2    1    2    0    0  0.00000000000E+00  0.00000000000E+00  0.73375323574E+03  0.23520766475E+04  0.22346970141E+04 0.  0.
        5    1    3    3  502    0 -0.80042705815E+03  0.55340824795E+03  0.94480964112E+03  0.13563301634E+04  0.46999998093E+01 0. -1.
       -5    1    3    3    0  502  0.80042705815E+03 -0.55340824795E+03 -0.21105640538E+03  0.99574648408E+03  0.46999998093E+01 0.  1.
</event>
<event>
 5   0  0.1237296E-04  0.2277236E+04  0.7818609E-02  0.8486951E-01
       -2   -1    0    0    0  501  0.00000000000E+00  0.00000000000E+00  0.69761064989E+03  0.69761064989E+03  0.25500000920E-02 0. -1.
        2   -1    0    0  501    0  0.00000000000E+00  0.00000000000E+00 -0.18584160490E+04  0.18584160490E+04  0.25500000920E-02 0.  1.
    10030    2    1    2    0    0  0.00000000000E+00  0.00000000000E+00 -0.11608053991E+04  0.25560266989E+04  0.22772358927E+04 0.  0.
        1    1    3    3  502    0 -0.34100192229E+03 -0.10058675665E+04 -0.10410060176E+04  0.14871938008E+04  0.50400001928E-02 0.  1.
       -1    1    3    3    0  502  0.34100192229E+03  0.10058675665E+04 -0.11979938151E+03  0.10688328981E+04  0.50400001928E-02 0. -1.
</event>
<event>
 5   0  0.5843670E-05  0.2065366E+04  0.7818609E-02  0.8576655E-01
       -1   -1    0    0    0  501  0.00000000000E+00  0.00000000000E+00  0.96360321133E+03  0.96360321134E+03  0.50400001928E-02 0. -1.
        1   -1    0    0  501    0  0.00000000000E+00  0.00000000000E+00 -0.11067148366E+04  0.11067148366E+04  0.50400001928E-02 0.  1.
    10030    2    1    2    0    0  0.00000000000E+00  0.00000000000E+00 -0.14311162525E+03  0.20703180479E+04  0.20653657987E+04 0.  0.
        2    1    3    3  502    0  0.58664788413E+03 -0.95656992015E+02  0.77493806706E+03  0.97664477056E+03  0.25500000920E-02 0. -1.
       -2    1    3    3    0  502 -0.58664788413E+03  0.95656992015E+02 -0.91804969231E+03  0.10936732774E+04  0.25500000920E-02 0.  1.
</event>
<event>
 5   0  0.1270613E-04  0.2229755E+04  0.7818609E-02  0.8506145E-01
        2   -1    0    0  501    0  0.00000000000E+00  0.00000000000E+00  0.13701001171E+04  0.13701001171E+04  0.25500000920E-02 0.  1.
       -2   -1    0    0    0  501  0.00000000000E+00  0.00000000000E+00 -0.90719786792E+03  0.90719786793E+03  0.25500000920E-02 0. -1.
    10030    2    1    2    0    0  0.00000000000E+00  0.00000000000E+00  0.46290224922E+03  0.22772979851E+04  0.22297550584E+04 0.  0.
        2    1    3    3  502    0 -0.48442416911E+03  0.84160445329E+03  0.79084019266E+03  0.12523549983E+04  0.25500000920E-02 0.  1.
       -2    1    3    3    0  502  0.48442416911E+03 -0.84160445329E+03 -0.32793794343E+03  0.10249429868E+04  0.25500000920E-02 0. -1.
</event>
<event>
 5   0  0.1237296E-04  0.2307520E+04  0.7818609E-02  0.8474962E-01
       -2   -1    0    0    0  501  0.00000000000E+00  0.00000000000E+00  0.62246757823E+03  0.62246757823E+03  0.25500000920E-02 0. -1.
        2   -1    0    0  501    0  0.00000000000E+00  0.00000000000E+00 -0.21385242111E+04  0.21385242111E+04  0.25500000920E-02 0.  1.
    10030    2    1    2    0    0  0.00000000000E+00  0.00000000000E+00 -0.15160566329E+04  0.27609917894E+04  0.23075198692E+04 0.  0.
        1    1    3    3  502    0 -0.83194967189E+03 -0.37813178339E+03  0.84679799906E+02  0.91776607625E+03  0.50400001928E-02 0. -1.
       -1    1    3    3    0  502  0.83194967189E+03  0.37813178339E+03 -0.16007364328E+04  0.18432257131E+04  0.50400001928E-02 0.  1.
</event>
<event>
 5   0  0.5843670E-05  0.1326408E+04  0.7818609E-02  0.9008882E-01
       -1   -1    0    0    0  501  0.00000000000E+00  0.00000000000E+00  0.77371990905E+03  0.77371990907E+03  0.50400001928E-02 0.  1.
        1   -1    0    0  501    0  0.00000000000E+00  0.00000000000E+00 -0.56847352417E+03  0.56847352419E+03  0.50400001928E-02 0. -1.
    10030    2    1    2    0    0  0.00000000000E+00  0.00000000000E+00  0.20524638489E+03  0.13421934333E+04  0.13264076047E+04 0.  0.
        2    1    3    3  502    0 -0.15279145898E+03  0.64376057559E+03  0.56624799734E+02  0.66406270530E+03  0.25500000920E-02 0.  1.
       -2    1    3    3    0  502  0.15279145898E+03 -0.64376057559E+03  0.14862158515E+03  0.67813072796E+03  0.25500000920E-02 0. -1.
</event>
<event>
 5   0  0.5632156E-05  0.2178607E+04  0.7818609E-02  0.8527386E-01
       -1   -1    0    0    0  501  0.00000000000E+00  0.00000000000E+00  0.68298736204E+03  0.68298736206E+03  0.50400001928E-02 0.  1.
        1   -1    0    0  501    0  0.00000000000E+00  0.00000000000E+00 -0.17373408044E+04  0.17373408044E+04  0.50400001928E-02 0. -1.
    10030    2    1    2    0    0  0.00000000000E+00  0.00000000000E+00 -0.10543534424E+04  0.24203281665E+04  0.21786067226E+04 0.  0.
        4    1    3    3  502    0  0.20387370294E+03  0.58224518944E+03 -0.15245658286E+04  0.16446508827E+04  0.12699999809E+01 0. -1.
       -4    1    3    3    0  502 -0.20387370294E+03 -0.58224518944E+03  0.47021238627E+03  0.77567728372E+03  0.12699999809E+01 0.  1.
</event>
<event>
 5   0  0.1234988E-04  0.2218156E+04  0.7818609E-02  0.8510909E-01
       -2   -1    0    0    0  501  0.00000000000E+00  0.00000000000E+00  0.10550044818E+04  0.10550044818E+04  0.25500000920E-02 0.  1.
        2   -1    0    0  501    0  0.00000000000E+00  0.00000000000E+00 -0.11659233703E+04  0.11659233703E+04  0.25500000920E-02 0. -1.
    10030    2    1    2    0    0  0.00000000000E+00  0.00000000000E+00 -0.11091888852E+03  0.22209278522E+04  0.22181563346E+04 0.  0.
        5    1    3    3  502    0  0.82911260836E+02 -0.62587969013E+02 -0.11610314549E+04  0.11656790554E+04  0.46999998093E+01 0. -1.
       -5    1    3    3    0  502 -0.82911260836E+02  0.62587969013E+02  0.10501125664E+04  0.10552487968E+04  0.46999998093E+01 0.  1.
</event>
<event>
 5   0  0.5663790E-05  0.2144707E+04  0.7818609E-02  0.8541801E-01
        1   -1    0    0  501    0  0.00000000000E+00  0.00000000000E+00  0.97390852896E+03  0.97390852897E+03  0.50400001928E-02 0.  1.
       -1   -1    0    0    0  501  0.00000000000E+00  0.00000000000E+00 -0.11807491872E+04  0.11807491872E+04  0.50400001928E-02 0. -1.
    10030    2    1    2    0    0  0.00000000000E+00  0.00000000000E+00 -0.20684065825E+03  0.21546577162E+04  0.21447066970E+04 0.  0.
        3    1    3    3  502    0  0.48040427905E+03 -0.32465395315E+03  0.80284787780E+03  0.99032983683E+03  0.10100000352E+00 0.  1.
       -3    1    3    3    0  502 -0.48040427905E+03  0.32465395315E+03 -0.10096885360E+04  0.11643278794E+04  0.10100000352E+00 0. -1.
</event>
<event>
 5   0  0.5642466E-05  0.2328130E+04  0.7818609E-02  0.8466912E-01
        1   -1    0    0  501    0  0.00000000000E+00  0.00000000000E+00  0.17248717229E+04  0.17248717229E+04  0.50400001928E-02 0.  1.
       -1   -1    0    0    0  501  0.00000000000E+00  0.00000000000E+00 -0.78559293081E+03  0.78559293082E+03  0.50400001928E-02 0. -1.
    10030    2    1    2    0    0  0.00000000000E+00  0.00000000000E+00  0.93927879213E+03  0.25104646538E+04  0.23281297491E+04 0.  0.
        1    1    3    3  502    0 -0.16176824954E+03  0.53273714074E+03  0.15719892679E+04  0.16676714562E+04  0.50400001928E-02 0.  1.
       -1    1    3    3    0  502  0.16176824954E+03 -0.53273714074E+03 -0.63271047572E+03  0.84279319753E+03  0.50400001928E-02 0. -1.
</event>
<event>
 5   0  0.1257524E-04  0.2294418E+04  0.7818609E-02  0.8480125E-01
        2   -1    0    0  501    0  0.00000000000E+00  0.00000000000E+00  0.72523144402E+03  0.72523144402E+03  0.25500000920E-02 0.  1.
       -2   -1    0    0    0  501  0.00000000000E+00  0.00000000000E+00 -0.18147147647E+04  0.18147147647E+04  0.25500000920E-02 0. -1.
    10030    2    1    2    0    0  0.00000000000E+00  0.00000000000E+00 -0.10894833207E+04  0.25399462088E+04  0.22944177556E+04 0.  0.
        3    1    3    3  502    0 -0.45471824877E+03  0.36548920099E+03  0.54875748072E+03  0.80092810204E+03  0.10100000352E+00 0.  1.
       -3    1    3    3    0  502  0.45471824877E+03 -0.36548920099E+03 -0.16382408014E+04  0.17390181067E+04  0.10100000352E+00 0. -1.
</event>
<event>
 5   0  0.1234988E-04  0.2555401E+04  0.7818609E-02  0.8383510E-01
       -2   -1    0    0    0  501  0.00000000000E+00  0.00000000000E+00  0.10685001372E+04  0.10685001372E+04  0.25500000920E-02 0.  1.
        2   -1    0    0  501    0  0.00000000000E+00  0.00000000000E+00 -0.15278595396E+04  0.15278595396E+04  0.25500000920E-02 0. -1.
    10030    2    1    2    0    0  0.00000000000E+00  0.00000000000E+00 -0.45935940243E+03  0.25963596768E+04  0.25554006556E+04 0.  0.
        5    1    3    3  502    0  0.25219975610E+02  0.33834164287E+03 -0.14812456419E+04  0.15196124033E+04  0.46999998093E+01 0. -1.
       -5    1    3    3    0  502 -0.25219975610E+02 -0.33834164287E+03  0.10218862395E+04  0.10767472735E+04  0.46999998093E+01 0.  1.
</event>
<event>
 5   0  0.5924654E-05  0.2586816E+04  0.7818609E-02  0.8372693E-01
       -1   -1    0    0    0  501  0.00000000000E+00  0.00000000000E+00  0.68727253088E+03  0.68727253090E+03  0.50400001928E-02 0.  1.
        1   -1    0    0  501    0  0.00000000000E+00  0.00000000000E+00 -0.24341205496E+04  0.24341205496E+04  0.50400001928E-02 0. -1.
    10030    2    1    2    0    0  0.00000000000E+00  0.00000000000E+00 -0.17468480187E+04  0.31213930805E+04  0.25868159506E+04 0.  0.
        5    1    3    3  502    0  0.14080635367E+03  0.10966944399E+04 -0.63690535477E+02  0.11075394793E+04  0.46999998093E+01 0.  1.
       -5    1    3    3    0  502 -0.14080635367E+03 -0.10966944399E+04 -0.16831574832E+04  0.20138536012E+04  0.46999998093E+01 0. -1.
</event>
<event>
 5   0  0.5843670E-05  0.2309034E+04  0.7818609E-02  0.8474367E-01
        1   -1    0    0  501    0  0.00000000000E+00  0.00000000000E+00  0.22093148802E+04  0.22093148802E+04  0.50400001928E-02 0. -1.
       -1   -1    0    0    0  501  0.00000000000E+00  0.00000000000E+00 -0.60331371104E+03  0.60331371106E+03  0.50400001928E-02 0.  1.
    10030    2    1    2    0    0  0.00000000000E+00  0.00000000000E+00  0.16060011691E+04  0.28126285912E+04  0.23090343949E+04 0.  0.
        2    1    3    3  502    0 -0.11747239190E+03 -0.18633791648E+03  0.21834807416E+04  0.21945636767E+04  0.25500000920E-02 0. -1.
       -2    1    3    3    0  502  0.11747239190E+03  0.18633791648E+03 -0.57747957248E+03  0.61806491457E+03  0.25500000920E-02 0.  1.
</event>
<event>
 5   0  0.1281432E-04  0.2322308E+04  0.7818609E-02  0.8469177E-01
       -2   -1    0    0    0  501  0.00000000000E+00  0.00000000000E+00  0.58601990025E+03  0.58601990025E+03  0.25500000920E-02 0.  1.
        2   -1    0    0  501    0  0.00000000000E+00  0.00000000000E+00 -0.23007393359E+04  0.23007393359E+04  0.25500000920E-02 0. -1.
    10030    2    1    2    0    0  0.00000000000E+00  0.00000000000E+00 -0.17147194356E+04  0.28867592361E+04  0.23223083655E+04 0.  0.
        4    1    3    3  502    0 -0.76021227537E+03  0.87099029052E+03 -0.99199268250E+03  0.15233508738E+04  0.12699999809E+01 0.  1.
       -4    1    3    3    0  502  0.76021227537E+03 -0.87099029052E+03 -0.72272675314E+03  0.13634083623E+04  0.12699999809E+01 0. -1.
</event>
<event>
 5   0  0.1234988E-04  0.2364538E+04  0.7818609E-02  0.8452900E-01
       -2   -1    0    0    0  501  0.00000000000E+00  0.00000000000E+00  0.10985594682E+04  0.10985594682E+04  0.25500000920E-02 0. -1.
        2   -1    0    0  501    0  0.00000000000E+00  0.00000000000E+00 -0.12723575631E+04  0.12723575631E+04  0.25500000920E-02 0.  1.
    10030    2    1    2    0    0  0.00000000000E+00  0.00000000000E+00 -0.17379809485E+03  0.23709170313E+04  0.23645383887E+04 0.  0.
        5    1    3    3  502    0 -0.97954289855E+03  0.65593671139E+03 -0.17647703910E+03  0.11920249556E+04  0.46999998093E+01 0. -1.
       -5    1    3    3    0  502  0.97954289855E+03 -0.65593671139E+03  0.26789442553E+01  0.11788920757E+04  0.46999998093E+01 0.  1.
</event>
<event>
 5   0  0.5642466E-05  0.1608921E+04  0.7818609E-02  0.8815086E-01
        1   -1    0    0  501    0  0.00000000000E+00  0.00000000000E+00  0.65476304046E+03  0.65476304048E+03  0.50400001928E-02 0. -1.
       -1   -1    0    0    0  501  0.00000000000E+00  0.00000000000E+00 -0.98838323955E+03  0.98838323957E+03  0.50400001928E-02 0.  1.
    10030    2    1    2    0    0  0.00000000000E+00  0.00000000000E+00 -0.33362019909E+03  0.16431462800E+04  0.16089211480E+04 0.  0.
        1    1    3    3  502    0 -0.25845605986E+03 -0.73712621529E+03  0.29641412318E+02  0.78168612978E+03  0.50400001928E-02 0. -1.
       -1    1    3    3    0  502  0.25845605986E+03  0.73712621529E+03 -0.36326161141E+03  0.86146015026E+03  0.50400001928E-02 0.  1.
</event>
<event>
 5   0  0.1270613E-04  0.1782895E+04  0.7818609E-02  0.8715449E-01
        2   -1    0    0  501    0  0.00000000000E+00  0.00000000000E+00  0.98053111929E+03  0.98053111930E+03  0.25500000920E-02 0.  1.
       -2   -1    0    0    0  501  0.00000000000E+00  0.00000000000E+00 -0.81045721281E+03  0.81045721281E+03  0.25500000920E-02 0. -1.
    10030    2    1    2    0    0  0.00000000000E+00  0.00000000000E+00  0.17007390648E+03  0.17909883321E+04  0.17828948573E+04 0.  0.
        2    1    3    3  502    0 -0.20443189531E+03  0.85507497781E+03 -0.63053093533E+02  0.88143139841E+03  0.25500000920E-02 0. -1.
       -2    1    3    3    0  502  0.20443189531E+03 -0.85507497781E+03  0.23312700002E+03  0.90955693370E+03  0.25500000920E-02 0.  1.
</event>
<event>
 5   0  0.5843670E-05  0.2320786E+04  0.7818609E-02  0.8469770E-01
       -1   -1    0    0    0  501  0.00000000000E+00  0.00000000000E+00  0.69745059306E+03  0.69745059308E+03  0.50400001928E-02 0. -1.
        1   -1    0    0  501    0  0.00000000000E+00  0.00000000000E+00 -0.19306198162E+04  0.19306198162E+04  0.50400001928E-02 0.  1.
    10030    2    1    2    0    0  0.00000000000E+00  0.00000000000E+00 -0.12331692231E+04  0.26280704093E+04  0.23207860184E+04 0.  0.
        2    1    3    3  502    0 -0.48056377012E+02 -0.42156253451E+03 -0.18396282440E+04  0.18879238496E+04  0.25500000920E-02 0.  1.
       -2    1    3    3    0  502  0.48056377012E+02  0.42156253451E+03  0.60645902082E+03  0.74014655969E+03  0.25500000920E-02 0. -1.
</event>
<event>
 5   0  0.1237296E-04  0.2325486E+04  0.7818609E-02  0.8467940E-01
        2   -1    0    0  501    0  0.00000000000E+00  0.00000000000E+00  0.25164593589E+04  0.25164593589E+04  0.25500000920E-02 0.  1.
       -2   -1    0    0    0  501  0.00000000000E+00  0.00000000000E+00 -0.53725129189E+03  0.53725129190E+03  0.25500000920E-02 0. -1.
    10030    2    1    2    0    0  0.00000000000E+00  0.00000000000E+00  0.19792080670E+04  0.30537106508E+04  0.23254857915E+04 0.  0.
        1    1    3    3  502    0  0.51934058097E+03 -0.60993800250E+03  0.20962643127E+04  0.22441174378E+04  0.50400001928E-02 0.  1.
       -1    1    3    3    0  502 -0.51934058097E+03  0.60993800250E+03 -0.11705624564E+03  0.80959321304E+03  0.50400001928E-02 0. -1.
</event>
<event>
 5   0  0.5642466E-05  0.2308924E+04  0.7818609E-02  0.8474411E-01
       -1   -1    0    0    0  501  0.00000000000E+00  0.00000000000E+00  0.12532026583E+04  0.12532026583E+04  0.50400001928E-02 0.  1.
        1   -1    0    0  501    0  0.00000000000E+00  0.00000000000E+00 -0.10635010993E+04  0.10635010993E+04  0.50400001928E-02 0. -1.
    10030    2    1    2    0    0  0.00000000000E+00  0.00000000000E+00  0.18970155903E+03  0.23167037577E+04  0.23089239094E+04 0.  0.
        1    1    3    3  502    0 -0.20038459893E+03  0.68598352683E+03  0.10045782825E+04  0.12328442368E+04  0.50400001928E-02 0.  1.
       -1    1    3    3    0  502  0.20038459893E+03 -0.68598352683E+03 -0.81487672343E+03  0.10838595209E+04  0.50400001928E-02 0. -1.
</event>
<event>
 5   0  0.5663790E-05  0.1823725E+04  0.7818609E-02  0.8693784E-01
       -1   -1    0    0    0  501  0.00000000000E+00  0.00000000000E+00  0.10737815978E+04  0.10737815979E+04  0.50400001928E-02 0.  1.
        1   -1    0    0  501    0  0.00000000000E+00  0.00000000000E+00 -0.77435937160E+03  0.77435937162E+03  0.50400001928E-02 0. -1.
    10030    2    1    2    0    0  0.00000000000E+00  0.00000000000E+00  0.29942222625E+03  0.18481409695E+04  0.18237245882E+04 0.  0.
        3    1    3    3  502    0  0.56991434404E+03  0.63781884472E+03  0.46997640771E+03  0.97595751558E+03  0.10100000352E+00 0.  1.
       -3    1    3    3    0  502 -0.56991434404E+03 -0.63781884472E+03 -0.17055418146E+03  0.87218345389E+03  0.10100000352E+00 0. -1.
</event>
<event>
 5   0  0.1281432E-04  0.1358289E+04  0.7818609E-02  0.8984577E-01
        2   -1    0    0  501    0  0.00000000000E+00  0.00000000000E+00  0.56660790393E+03  0.56660790394E+03  0.25500000920E-02 0.  1.
       -2   -1    0    0    0  501  0.00000000000E+00  0.00000000000E+00 -0.81403211840E+03  0.81403211840E+03  0.25500000920E-02 0. -1.
    10030    2    1    2    0    0  0.00000000000E+00  0.00000000000E+00 -0.24742421447E+03  0.13806400223E+04  0.13582886768E+04 0.  0.
        4    1    3    3  502    0  0.59982112328E+03  0.14342990066E+03  0.16535809074E+03  0.63851580044E+03  0.12699999809E+01 0.  1.
       -4    1    3    3    0  502 -0.59982112328E+03 -0.14342990066E+03 -0.41278230520E+03  0.74212422190E+03  0.12699999809E+01 0. -1.
</event>
<event>
 5   0  0.1237296E-04  0.2218401E+04  0.7818609E-02  0.8510808E-01
       -2   -1    0    0    0  501  0.00000000000E+00  0.00000000000E+00  0.65745004406E+03  0.65745004407E+03  0.25500000920E-02 0.  1.
        2   -1    0    0  501    0  0.00000000000E+00  0.00000000000E+00 -0.18713605656E+04  0.18713605656E+04  0.25500000920E-02 0. -1.
    10030    2    1    2    0    0  0.00000000000E+00  0.00000000000E+00 -0.12139105215E+04  0.25288106096E+04  0.22184013039E+04 0.  0.
        1    1    3    3  502    0 -0.32451259610E+03 -0.84490420151E+03  0.12397971593E+03  0.91353297956E+03  0.50400001928E-02 0.  1.
       -1    1    3    3    0  502  0.32451259610E+03  0.84490420151E+03 -0.13378902374E+04  0.16152776301E+04  0.50400001928E-02 0. -1.
</event>
<event>
 5   0  0.1234988E-04  0.2320319E+04  0.7818609E-02  0.8469953E-01
       -2   -1    0    0    0  501  0.00000000000E+00  0.00000000000E+00  0.72829749189E+03  0.72829749189E+03  0.25500000920E-02 0. -1.
        2   -1    0    0  501    0  0.00000000000E+00  0.00000000000E+00 -0.18481040066E+04  0.18481040066E+04  0.25500000920E-02 0.  1.
    10030    2    1    2    0    0  0.00000000000E+00  0.00000000000E+00 -0.11198065147E+04  0.25764014985E+04  0.23203185236E+04 0.  0.
        5    1    3    3  502    0 -0.99880720270E+03  0.15438636026E+03  0.72611858153E+02  0.10132845347E+04  0.46999998093E+01 0.  1.
       -5    1    3    3    0  502  0.99880720270E+03 -0.15438636026E+03 -0.11924183728E+04  0.15631169637E+04  0.46999998093E+01 0. -1.
</event>
<event>
 5   0  0.5632156E-05  0.2264854E+04  0.7818609E-02  0.8491909E-01
       -1   -1    0    0    0  501  0.00000000000E+00  0.00000000000E+00  0.87354926583E+03  0.87354926584E+03  0.50400001928E-02 0. -1.
        1   -1    0    0  501    0  0.00000000000E+00  0.00000000000E+00 -0.14680235959E+04  0.14680235959E+04  0.50400001928E-02 0.  1.
    10030    2    1    2    0    0  0.00000000000E+00  0.00000000000E+00 -0.59447433005E+03  0.23415728617E+04  0.22648540213E+04 0.  0.
        4    1    3    3  502    0  0.84468266003E+03 -0.61827304395E+03  0.14941415681E+03  0.10573913921E+04  0.12699999809E+01 0. -1.
       -4    1    3    3    0  502 -0.84468266003E+03  0.61827304395E+03 -0.74388848685E+03  0.12841814696E+04  0.12699999809E+01 0.  1.
</event>
<event>
 5   0  0.5924654E-05  0.2677486E+04  0.7818609E-02  0.8342347E-01
       -1   -1    0    0    0  501  0.00000000000E+00  0.00000000000E+00  0.10044692982E+04  0.10044692982E+04  0.50400001928E-02 0. -1.
        1   -1    0    0  501    0  0.00000000000E+00  0.00000000000E+00 -0.17842584495E+04  0.17842584495E+04  0.50400001928E-02 0.  1.
    10030    2    1    2    0    0  0.00000000000E+00  0.00000000000E+00 -0.77978915125E+03  0.27887277477E+04  0.26774860093E+04 0.  0.
        5    1    3    3  502    0  0.10118803399E+04 -0.40358334076E+03  0.42052638258E+03  0.11677524839E+04  0.46999998093E+01 0. -1.
       -5    1    3    3    0  502 -0.10118803399E+04  0.40358334076E+03 -0.12003155338E+04  0.16209752638E+04  0.46999998093E+01 0.  1.
</event>
<event>
 5   0  0.1270613E-04  0.2182044E+04  0.7818609E-02  0.8525939E-01
        2   -1    0    0  501    0  0.00000000000E+00  0.00000000000E+00  0.95588646904E+03  0.95588646904E+03  0.25500000920E-02 0.  1.
       -2   -1    0    0    0  501  0.00000000000E+00  0.00000000000E+00 -0.12452620405E+04  0.12452620405E+04  0.25500000920E-02 0. -1.
    10030    2    1    2    0    0  0.00000000000E+00  0.00000000000E+00 -0.28937557145E+03  0.22011485095E+04  0.21820441195E+04 0.  0.
        2    1    3    3  502    0 -0.79567746514E+02 -0.39347084443E+03 -0.11680543748E+04  0.12351118792E+04  0.25500000920E-02 0. -1.
       -2    1    3    3    0  502  0.79567746514E+02  0.39347084443E+03  0.87867880333E+03  0.96603663032E+03  0.25500000920E-02 0.  1.
</event>
<event>
 5   0  0.5632156E-05  0.2285215E+04  0.7818609E-02  0.8483773E-01
        1   -1    0    0  501    0  0.00000000000E+00  0.00000000000E+00  0.12063798672E+04  0.12063798672E+04  0.50400001928E-02 0. -1.
       -1   -1    0    0    0  501  0.00000000000E+00  0.00000000000E+00 -0.10822065692E+04  0.10822065692E+04  0.50400001928E-02 0.  1.
    10030    2    1    2    0    0  0.00000000000E+00  0.00000000000E+00  0.12417329800E+03  0.22885864365E+04  0.22852152785E+04 0.  0.
        4    1    3    3  502    0  0.54638749084E+03 -0.86546713846E+03  0.57075122211E+03  0.11718921573E+04  0.12699999809E+01 0. -1.
       -4    1    3    3    0  502 -0.54638749084E+03  0.86546713846E+03 -0.44657792411E+03  0.11166942792E+04  0.12699999809E+01 0.  1.
</event>
<event>
 5   0  0.1234988E-04  0.2331407E+04  0.7818609E-02  0.8465640E-01
        2   -1    0    0  501    0  0.00000000000E+00  0.00000000000E+00  0.23631947349E+04  0.23631947349E+04  0.25500000920E-02 0.  1.
       -2   -1    0    0    0  501  0.00000000000E+00  0.00000000000E+00 -0.57501179794E+03  0.57501179794E+03  0.25500000920E-02 0. -1.
    10030    2    1    2    0    0  0.00000000000E+00  0.00000000000E+00  0.17881829370E+04  0.29382065329E+04  0.23314071746E+04 0.  0.
        5    1    3    3  502    0  0.55213945508E+03  0.66305850178E+03  0.18818890419E+04  0.20702736560E+04  0.46999998093E+01 0.  1.
       -5    1    3    3    0  502 -0.55213945508E+03 -0.66305850178E+03 -0.93706104939E+02  0.86793287686E+03  0.46999998093E+01 0. -1.
</event>
<event>
 5   0  0.5924654E-05  0.2305346E+04  0.7818609E-02  0.8475816E-01
        1   -1    0    0  501    0  0.00000000000E+00  0.00000000000E+00  0.11075209953E+04  0.11075209954E+04  0.50400001928E-02 0.  1.
       -1   -1    0    0    0  501  0.00000000000E+00  0.00000000000E+00 -0.11996661381E+04  0.11996661381E+04  0.50400001928E-02 0. -1.
    10030    2    1    2    0    0  0.00000000000E+00  0.00000000000E+00 -0.92145142779E+02  0.23071871335E+04  0.23053463388E+04 0.  0.
        5    1    3    3  502    0  0.41224591317E+02 -0.72241284075E+03 -0.94403678718E+03  0.11894567352E+04  0.46999998093E+01 0. -1.
       -5    1    3    3    0  502 -0.41224591317E+02  0.72241284075E+03  0.85189164440E+03  0.11177303983E+04  0.46999998093E+01 0.  1.
</event>
<event>
 5   0  0.5642466E-05  0.2282221E+04  0.7818609E-02  0.8484964E-01
       -1   -1    0    0    0  501  0.00000000000E+00  0.00000000000E+00  0.62465819310E+03  0.62465819312E+03  0.50400001928E-02 0. -1.
        1   -1    0    0  501    0  0.00000000000E+00  0.00000000000E+00 -0.20845531236E+04  0.20845531236E+04  0.50400001928E-02 0.  1.
    10030    2    1    2    0    0  0.00000000000E+00  0.00000000000E+00 -0.14598949305E+04  0.27092113167E+04  0.22822210127E+04 0.  0.
        1    1    3    3  502    0  0.29738689166E+03 -0.15557164000E+03  0.56474281441E+03  0.65694440020E+03  0.50400001928E-02 0. -1.
       -1    1    3    3    0  502 -0.29738689166E+03  0.15557164000E+03 -0.20246377449E+04  0.20522669165E+04  0.50400001928E-02 0.  1.
</event>
<event>
 5   0  0.1270613E-04  0.2325476E+04  0.7818609E-02  0.8467944E-01
        2   -1    0    0  501    0  0.00000000000E+00  0.00000000000E+00  0.16112187217E+04  0.16112187217E+04  0.25500000920E-02 0.  1.
       -2   -1    0    0    0  501  0.00000000000E+00  0.00000000000E+00 -0.83909128977E+03  0.83909128977E+03  0.25500000920E-02 0. -1.
    10030    2    1    2    0    0  0.00000000000E+00  0.00000000000E+00  0.77212743193E+03  0.24503100115E+04  0.23254759472E+04 0.  0.
        2    1    3    3  502    0  0.58407280385E+03 -0.78926256789E+03  0.10422990970E+04  0.14319440802E+04  0.25500000920E-02 0.  1.
       -2    1    3    3    0  502 -0.58407280385E+03  0.78926256789E+03 -0.27017166509E+03  0.10183659312E+04  0.25500000920E-02 0. -1.
</event>
<event>
 5   0  0.5924654E-05  0.2263259E+04  0.7818609E-02  0.8492550E-01
        1   -1    0    0  501    0  0.00000000000E+00  0.00000000000E+00  0.12623977137E+04  0.12623977137E+04  0.50400001928E-02 0.  1.
       -1   -1    0    0    0  501  0.00000000000E+00  0.00000000000E+00 -0.10144073653E+04  0.10144073653E+04  0.50400001928E-02 0. -1.
    10030    2    1    2    0    0  0.00000000000E+00  0.00000000000E+00  0.24799034840E+03  0.22768050791E+04  0.22632591887E+04 0.  0.
        5    1    3    3  502    0  0.35821928621E+03  0.70417784871E+03 -0.69102411796E+03  0.10496303736E+04  0.46999998093E+01 0. -1.
       -5    1    3    3    0  502 -0.35821928621E+03 -0.70417784871E+03  0.93901446636E+03  0.12271747054E+04  0.46999998093E+01 0.  1.
</event>
<event>
 5   0  0.1237296E-04  0.2010181E+04  0.7818609E-02  0.8601876E-01
        2   -1    0    0  501    0  0.00000000000E+00  0.00000000000E+00  0.93515915810E+03  0.93515915811E+03  0.25500000920E-02 0.  1.
       -2   -1    0    0    0  501  0.00000000000E+00  0.00000000000E+00 -0.10802510090E+04  0.10802510090E+04  0.25500000920E-02 0. -1.
    10030    2    1    2    0    0  0.00000000000E+00  0.00000000000E+00 -0.14509185090E+03  0.20154101671E+04  0.20101807124E+04 0.  0.
        1    1    3    3  502    0  0.58147789234E+03  0.66888367447E+03 -0.54778824598E+03  0.10419183613E+04  0.50400001928E-02 0. -1.
       -1    1    3    3    0  502 -0.58147789234E+03 -0.66888367447E+03  0.40269639509E+03  0.97349180577E+03  0.50400001928E-02 0.  1.
</event>
<event>
 5   0  0.5642466E-05  0.2289857E+04  0.7818609E-02  0.8481931E-01
        1   -1    0    0  501    0  0.00000000000E+00  0.00000000000E+00  0.79166484593E+03  0.79166484595E+03  0.50400001928E-02 0.  1.
       -1   -1    0    0    0  501  0.00000000000E+00  0.00000000000E+00 -0.16558289611E+04  0.16558289611E+04  0.50400001928E-02 0. -1.
    10030    2    1    2    0    0  0.00000000000E+00  0.00000000000E+00 -0.86416411513E+03  0.24474938070E+04  0.22898572701E+04 0.  0.
        1    1    3    3  502    0 -0.69615682244E+03  0.55454942211E+03  0.33770788384E+03  0.95194852688E+03  0.50400001928E-02 0.  1.
       -1    1    3    3    0  502  0.69615682244E+03 -0.55454942211E+03 -0.12018719990E+04  0.14955452801E+04  0.50400001928E-02 0. -1.
</event>
<event>
 5   0  0.5843670E-05  0.2278399E+04  0.7818609E-02  0.8486487E-01
        1   -1    0    0  501    0  0.00000000000E+00  0.00000000000E+00  0.20360055517E+04  0.20360055517E+04  0.50400001928E-02 0. -1.
       -1   -1    0    0    0  501  0.00000000000E+00  0.00000000000E+00 -0.63741273134E+03  0.63741273136E+03  0.50400001928E-02 0.  1.
    10030    2    1    2    0    0  0.00000000000E+00  0.00000000000E+00  0.13985928204E+04  0.26734182831E+04  0.22783993151E+04 0.  0.
        2    1    3    3  502    0  0.23749968137E+03  0.37899657736E+03 -0.53008065593E+03  0.69356326755E+03  0.25500000920E-02 0.  1.
       -2    1    3    3    0  502 -0.23749968137E+03 -0.37899657736E+03  0.19286734763E+04  0.19798550155E+04  0.25500000920E-02 0. -1.
</event>
<event>
 5   0  0.1281432E-04  0.2318005E+04  0.7818609E-02  0.8470856E-01
        2   -1    0    0  501    0  0.00000000000E+00  0.00000000000E+00  0.68933697313E+03  0.68933697314E+03  0.25500000920E-02 0.  1.
       -2   -1    0    0    0  501  0.00000000000E+00  0.00000000000E+00 -0.19486646176E+04  0.19486646176E+04  0.25500000920E-02 0. -1.
    10030    2    1    2    0    0  0.00000000000E+00  0.00000000000E+00 -0.12593276444E+04  0.26380015907E+04  0.23180048051E+04 0.  0.
        4    1    3    3  502    0  0.22366456883E+03  0.24671640959E+03 -0.18930462351E+04  0.19221135470E+04  0.12699999809E+01 0. -1.
       -4    1    3    3    0  502 -0.22366456883E+03 -0.24671640959E+03  0.63371859070E+03  0.71588804376E+03  0.12699999809E+01 0.  1.
</event>
<event>
 5   0  0.1270613E-04  0.2290235E+04  0.7818609E-02  0.8481781E-01
       -2   -1    0    0    0  501  0.00000000000E+00  0.00000000000E+00  0.64996662859E+03  0.64996662860E+03  0.25500000920E-02 0. -1.
        2   -1    0    0  501    0  0.00000000000E+00  0.00000000000E+00 -0.20174788709E+04  0.20174788709E+04  0.25500000920E-02 0.  1.
    10030    2    1    2    0    0  0.00000000000E+00  0.00000000000E+00 -0.13675122423E+04  0.26674454995E+04  0.22902348701E+04 0.  0.
        2    1    3    3  502    0 -0.94291357502E+03 -0.53348155911E+03 -0.11158053173E+04  0.15552202705E+04  0.25500000920E-02 0.  1.
       -2    1    3    3    0  502  0.94291357502E+03  0.53348155911E+03 -0.25170692507E+03  0.11122252290E+04  0.25500000920E-02 0. -1.
</event>
<event>
 5   0  0.1281432E-04  0.2304540E+04  0.7818609E-02  0.8476133E-01
       -2   -1    0    0    0  501  0.00000000000E+00  0.00000000000E+00  0.96815244743E+03  0.96815244743E+03  0.25500000920E-02 0.  1.
        2   -1    0    0  501    0  0.00000000000E+00  0.00000000000E+00 -0.13714019421E+04  0.13714019421E+04  0.25500000920E-02 0. -1.
    10030    2    1    2    0    0  0.00000000000E+00  0.00000000000E+00 -0.40324949466E+03  0.23395543895E+04  0.23045399946E+04 0.  0.
        4    1    3    3  502    0 -0.54412563297E+03  0.48927689569E+03  0.70198882869E+03  0.10140288525E+04  0.12699999809E+01 0.  1.
       -4    1    3    3    0  502  0.54412563297E+03 -0.48927689569E+03 -0.11052383233E+04  0.13255255371E+04  0.12699999809E+01 0. -1.
</event>
<event>
 5   0  0.5843670E-05  0.2283648E+04  0.7818609E-02  0.8484397E-01
        1   -1    0    0  501    0  0.00000000000E+00  0.00000000000E+00  0.16451393352E+04  0.16451393352E+04  0.50400001928E-02 0. -1.
       -1   -1    0    0    0  501  0.00000000000E+00  0.00000000000E+00 -0.79249311616E+03  0.79249311617E+03  0.50400001928E-02 0.  1.
    10030    2    1    2    0    0  0.00000000000E+00  0.00000000000E+00  0.85264621900E+03  0.24376324513E+04  0.22836476070E+04 0.  0.
        2    1    3    3  502    0 -0.99250120261E+03 -0.40174772402E+03  0.84967926678E+03  0.13668996771E+04  0.25500000920E-02 0. -1.
       -2    1    3    3    0  502  0.99250120261E+03  0.40174772402E+03  0.29669522195E+01  0.10707327742E+04  0.25500000920E-02 0.  1.
</event>
<event>
 5   0  0.1237296E-04  0.2365103E+04  0.7818609E-02  0.8452685E-01
       -2   -1    0    0    0  501  0.00000000000E+00  0.00000000000E+00  0.10485545902E+04  0.10485545902E+04  0.25500000920E-02 0. -1.
        2   -1    0    0  501    0  0.00000000000E+00  0.00000000000E+00 -0.13336725987E+04  0.13336725987E+04  0.25500000920E-02 0.  1.
    10030    2    1    2    0    0  0.00000000000E+00  0.00000000000E+00 -0.28511800849E+03  0.23822271889E+04  0.23651034017E+04 0.  0.
        1    1    3    3  502    0 -0.19368439765E+03 -0.82294969253E+03 -0.97538809660E+03  0.12907911455E+04  0.50400001928E-02 0.  1.
       -1    1    3    3    0  502  0.19368439765E+03  0.82294969253E+03  0.69027008811E+03  0.10914360434E+04  0.50400001928E-02 0. -1.
</event>
<event>
 5   0  0.5632156E-05  0.2361213E+04  0.7818609E-02  0.8454169E-01
       -1   -1    0    0    0  501  0.00000000000E+00  0.00000000000E+00  0.18204044492E+04  0.18204044492E+04  0.50400001928E-02 0.  1.
        1   -1    0    0  501    0  0.00000000000E+00  0.00000000000E+00 -0.76567156090E+03  0.76567156092E+03  0.50400001928E-02 0. -1.
    10030    2    1    2    0    0  0.00000000000E+00  0.00000000000E+00  0.10547328883E+04  0.25860760101E+04  0.23612131764E+04 0.  0.
        4    1    3    3  502    0 -0.49929350574E+03 -0.93382060722E+03 -0.44377521754E+02  0.10598518334E+04  0.12699999809E+01 0. -1.
       -4    1    3    3    0  502  0.49929350574E+03  0.93382060722E+03  0.10991104100E+04  0.15262241767E+04  0.12699999809E+01 0.  1.
</event>
<event>
 5   0  0.5843670E-05  0.2239088E+04  0.7818609E-02  0.8502333E-01
       -1   -1    0    0    0  501  0.00000000000E+00  0.00000000000E+00  0.10719955914E+04  0.10719955914E+04  0.50400001928E-02 0. -1.
        1   -1    0    0  501    0  0.00000000000E+00  0.00000000000E+00 -0.11692015854E+04  0.11692015854E+04  0.50400001928E-02 0.  1.
    10030    2    1    2    0    0  0.00000000000E+00  0.00000000000E+00 -0.97205993943E+02  0.22411971768E+04  0.22390881582E+04 0.  0.
        2    1    3    3  502    0  0.79498981194E+03  0.77234704945E+03 -0.20639087490E+03  0.11274422199E+04  0.25500000920E-02 0.  1.
       -2    1    3    3    0  502 -0.79498981194E+03 -0.77234704945E+03  0.10918488096E+03  0.11137549569E+04  0.25500000920E-02 0. -1.
</event>
<event>
 5   0  0.5642466E-05  0.2328130E+04  0.7818609E-02  0.8466912E-01
        1   -1    0    0  501    0  0.00000000000E+00  0.00000000000E+00  0.15289613436E+04  0.15289613436E+04  0.50400001928E-02 0.  1.
       -1   -1    0    0    0  501  0.00000000000E+00  0.00000000000E+00 -0.88625363555E+03  0.88625363557E+03  0.50400001928E-02 0. -1.
    10030    2    1    2    0    0  0.00000000000E+00  0.00000000000E+00  0.64270770807E+03  0.24152149792E+04  0.23281301935E+04 0.  0.
        1    1    3    3  502    0  0.31755029704E+03  0.29227850014E+03 -0.80018779469E+03  0.90915643296E+03  0.50400001928E-02 0. -1.
       -1    1    3    3    0  502 -0.31755029704E+03 -0.29227850014E+03  0.14428955028E+04  0.15060585462E+04  0.50400001928E-02 0.  1.
</event>
<event>
 5   0  0.1237296E-04  0.2244931E+04  0.7818609E-02  0.8499956E-01
        2   -1    0    0  501    0  0.00000000000E+00  0.00000000000E+00  0.18951108468E+04  0.18951108468E+04  0.25500000920E-02 0. -1.
       -2   -1    0    0    0  501  0.00000000000E+00  0.00000000000E+00 -0.66483103621E+03  0.66483103621E+03  0.25500000920E-02 0.  1.
    10030    2    1    2    0    0  0.00000000000E+00  0.00000000000E+00  0.12302798106E+04  0.25599418830E+04  0.22449307411E+04 0.  0.
        1    1    3    3  502    0 -0.20147550425E+03  0.55825156611E+03  0.17015561471E+04  0.18020905947E+04  0.50400001928E-02 0. -1.
       -1    1    3    3    0  502  0.20147550425E+03 -0.55825156611E+03 -0.47127633646E+03  0.75785128833E+03  0.50400001928E-02 0.  1.
</event>
<event>
 5   0  0.5663790E-05  0.1188206E+04  0.7818609E-02  0.9123243E-01
        1   -1    0    0  501    0  0.00000000000E+00  0.00000000000E+00  0.10316457438E+04  0.10316457438E+04  0.50400001928E-02 0. -1.
       -1   -1    0    0    0  501  0.00000000000E+00  0.00000000000E+00 -0.34213141304E+03  0.34213141308E+03  0.50400001928E-02 0.  1.
    10030    2    1    2    0    0  0.00000000000E+00  0.00000000000E+00  0.68951433074E+03  0.13737771569E+04  0.11882060699E+04 0.  0.
        3    1    3    3  502    0  0.38949207979E+02 -0.27966155773E+03 -0.25959395787E+03  0.38355789763E+03  0.10100000352E+00 0.  1.
       -3    1    3    3    0  502 -0.38949207979E+02  0.27966155773E+03  0.94910828861E+03  0.99021925925E+03  0.10100000352E+00 0. -1.
</event>
<event>
 5   0  0.5924654E-05  0.2293266E+04  0.7818609E-02  0.8480581E-01
        1   -1    0    0  501    0  0.00000000000E+00  0.00000000000E+00  0.95466046357E+03  0.95466046358E+03  0.50400001928E-02 0. -1.
       -1   -1    0    0    0  501  0.00000000000E+00  0.00000000000E+00 -0.13772090034E+04  0.13772090034E+04  0.50400001928E-02 0.  1.
    10030    2    1    2    0    0  0.00000000000E+00  0.00000000000E+00 -0.42254853980E+03  0.23318694669E+04  0.22932657810E+04 0.  0.
        5    1    3    3  502    0 -0.21923156174E+03 -0.66587819285E+02 -0.13536849995E+04  0.13729463147E+04  0.46999998093E+01 0.  1.
       -5    1    3    3    0  502  0.21923156174E+03  0.66587819285E+02  0.93113645967E+03  0.95892315222E+03  0.46999998093E+01 0. -1.
</event>
<event>
 5   0  0.5663790E-05  0.2275844E+04  0.7818609E-02  0.8487507E-01
        1   -1    0    0  501    0  0.00000000000E+00  0.00000000000E+00  0.11238396121E+04  0.11238396121E+04  0.50400001928E-02 0.  1.
       -1   -1    0    0    0  501  0.00000000000E+00  0.00000000000E+00 -0.11521804675E+04  0.11521804675E+04  0.50400001928E-02 0. -1.
    10030    2    1    2    0    0  0.00000000000E+00  0.00000000000E+00 -0.28340855453E+02  0.22760200796E+04  0.22758436235E+04 0.  0.
        3    1    3    3  502    0 -0.16374755734E+02  0.94181364953E+03  0.62430287836E+03  0.11300598113E+04  0.10100000352E+00 0.  1.
       -3    1    3    3    0  502  0.16374755734E+02 -0.94181364953E+03 -0.65264373381E+03  0.11459602683E+04  0.10100000352E+00 0. -1.
</event>
<event>
 5   0  0.1270613E-04  0.2333318E+04  0.7818609E-02  0.8464899E-01
       -2   -1    0    0    0  501  0.00000000000E+00  0.00000000000E+00  0.62001565992E+03  0.62001565992E+03  0.25500000920E-02 0.  1.
        2   -1    0    0  501    0  0.00000000000E+00  0.00000000000E+00 -0.21952564220E+04  0.21952564220E+04  0.25500000920E-02 0. -1.
    10030    2    1    2    0    0  0.00000000000E+00  0.00000000000E+00 -0.15752407621E+04  0.28152720819E+04  0.23333181173E+04 0.  0.
        2    1    3    3  502    0  0.69197044514E+03 -0.41047158533E+03 -0.18069851603E+04  0.19780054067E+04  0.25500000920E-02 0. -1.
       -2    1    3    3    0  502 -0.69197044514E+03  0.41047158533E+03  0.23174439824E+03  0.83726667522E+03  0.25500000920E-02 0.  1.
</event>
<event>
 5   0  0.1270613E-04  0.2340767E+04  0.7818609E-02  0.8462019E-01
       -2   -1    0    0    0  501  0.00000000000E+00  0.00000000000E+00  0.12365255630E+04  0.12365255630E+04  0.25500000920E-02 0.  1.
        2   -1    0    0  501    0  0.00000000000E+00  0.00000000000E+00 -0.11077790007E+04  0.11077790007E+04  0.25500000920E-02 0. -1.
    10030    2    1    2    0    0  0.00000000000E+00  0.00000000000E+00  0.12874656230E+03  0.23443045638E+04  0.23407665860E+04 0.  0.
        2    1    3    3  502    0 -0.11349405091E+04 -0.25307238835E+03 -0.68724011299E+02  0.11648427287E+04  0.25500000920E-02 0. -1.
       -2    1    3    3    0  502  0.11349405091E+04  0.25307238835E+03  0.19747057359E+03  0.11794618350E+04  0.25500000920E-02 0.  1.
</event>
<event>
 5   0  0.1281432E-04  0.2317668E+04  0.7818609E-02  0.8470987E-01
        2   -1    0    0  501    0  0.00000000000E+00  0.00000000000E+00  0.20426120795E+04  0.20426120796E+04  0.25500000920E-02 0. -1.
       -2   -1    0    0    0  501  0.00000000000E+00  0.00000000000E+00 -0.65744080769E+03  0.65744080769E+03  0.25500000920E-02 0.  1.
    10030    2    1    2    0    0  0.00000000000E+00  0.00000000000E+00  0.13851712719E+04  0.27000528872E+04  0.23176682553E+04 0.  0.
        4    1    3    3  502    0 -0.82063474261E+03  0.27200377577E+03  0.15915656272E+04  0.18112178758E+04  0.12699999809E+01 0. -1.
       -4    1    3    3    0  502  0.82063474261E+03 -0.27200377577E+03 -0.20639435537E+03  0.88883501148E+03  0.12699999809E+01 0.  1.
</event>
<event>
 5   0  0.4489500E-05  0.2022196E+04  0.7818609E-02  0.8596313E-01
        3   -1    0    0  501    0  0.00000000000E+00  0.00000000000E+00  0.95190048054E+03  0.95190048590E+03  0.10100000352E+00 0.  1.
       -3   -1    0    0    0  501  0.00000000000E+00  0.00000000000E+00 -0.10739766095E+04  0.10739766142E+04  0.10100000352E+00 0. -1.
    10030    2    1    2    0    0  0.00000000000E+00  0.00000000000E+00 -0.12207612892E+03  0.20258771001E+04  0.20221956986E+04 0.  0.
        2    1    3    3  502    0 -0.23724324611E+03 -0.96100785057E+03  0.14548866870E+03  0.10004935779E+04  0.25500000920E-02 0.  1.
       -2    1    3    3    0  502  0.23724324611E+03  0.96100785057E+03 -0.26756479762E+03  0.10253835222E+04  0.25500000920E-02 0. -1.
</event>
<event>
 5   0  0.5663790E-05  0.2254584E+04  0.7818609E-02  0.8496046E-01
        1   -1    0    0  501    0  0.00000000000E+00  0.00000000000E+00  0.17869750273E+04  0.17869750273E+04  0.50400001928E-02 0. -1.
       -1   -1    0    0    0  501  0.00000000000E+00  0.00000000000E+00 -0.71113875181E+03  0.71113875182E+03  0.50400001928E-02 0.  1.
    10030    2    1    2    0    0  0.00000000000E+00  0.00000000000E+00  0.10758362755E+04  0.24981137792E+04  0.22545839443E+04 0.  0.
        3    1    3    3  502    0  0.77304097228E+03  0.62831120980E+03 -0.46731802490E+02  0.99727187504E+03  0.10100000352E+00 0. -1.
       -3    1    3    3    0  502 -0.77304097228E+03 -0.62831120980E+03  0.11225680780E+04  0.15008419041E+04  0.10100000352E+00 0.  1.
</event>
<event>
 5   0  0.5632156E-05  0.2339066E+04  0.7818609E-02  0.8462675E-01
       -1   -1    0    0    0  501  0.00000000000E+00  0.00000000000E+00  0.14496656158E+04  0.14496656158E+04  0.50400001928E-02 0. -1.
        1   -1    0    0  501    0  0.00000000000E+00  0.00000000000E+00 -0.94353327210E+03  0.94353327211E+03  0.50400001928E-02 0.  1.
    10030    2    1    2    0    0  0.00000000000E+00  0.00000000000E+00  0.50613234368E+03  0.23931988879E+04  0.23390662598E+04 0.  0.
        4    1    3    3  502    0 -0.13687710956E+03  0.56233815674E+03  0.12928766189E+04  0.14165066574E+04  0.12699999809E+01 0. -1.
       -4    1    3    3    0  502  0.13687710956E+03 -0.56233815674E+03 -0.78674427526E+03  0.97669223054E+03  0.12699999809E+01 0.  1.
</event>
<event>
 5   0  0.1234988E-04  0.2286882E+04  0.7818609E-02  0.8483111E-01
       -2   -1    0    0    0  501  0.00000000000E+00  0.00000000000E+00  0.68286524393E+03  0.68286524393E+03  0.25500000920E-02 0. -1.
        2   -1    0    0  501    0  0.00000000000E+00  0.00000000000E+00 -0.19146633090E+04  0.19146633090E+04  0.25500000920E-02 0.  1.
    10030    2    1    2    0    0  0.00000000000E+00  0.00000000000E+00 -0.12317980651E+04  0.25975285529E+04  0.22868817438E+04 0.  0.
        5    1    3    3  502    0 -0.93814758129E+03 -0.46836784320E+03 -0.11338534099E+04  0.15443882174E+04  0.46999998093E+01 0.  1.
       -5    1    3    3    0  502  0.93814758129E+03  0.46836784320E+03 -0.97944655130E+02  0.10531403355E+04  0.46999998093E+01 0. -1.
</event>
<event>
 5   0  0.5663790E-05  0.2452224E+04  0.7818609E-02  0.8420207E-01
        1   -1    0    0  501    0  0.00000000000E+00  0.00000000000E+00  0.10938231367E+04  0.10938231367E+04  0.50400001928E-02 0. -1.
       -1   -1    0    0    0  501  0.00000000000E+00  0.00000000000E+00 -0.13743996719E+04  0.13743996719E+04  0.50400001928E-02 0.  1.
    10030    2    1    2    0    0  0.00000000000E+00  0.00000000000E+00 -0.28057653515E+03  0.24682228086E+04  0.24522236115E+04 0.  0.
        3    1    3    3  502    0  0.56717285712E+02 -0.78580699449E+03  0.80533088139E+03  0.11266176467E+04  0.10100000352E+00 0. -1.
       -3    1    3    3    0  502 -0.56717285712E+02  0.78580699449E+03 -0.10859074165E+04  0.13416051620E+04  0.10100000352E+00 0.  1.
</event>
<event>
 5   0  0.5843670E-05  0.2227056E+04  0.7818609E-02  0.8507251E-01
        1   -1    0    0  501    0  0.00000000000E+00  0.00000000000E+00  0.80401900952E+03  0.80401900954E+03  0.50400001928E-02 0.  1.
       -1   -1    0    0    0  501  0.00000000000E+00  0.00000000000E+00 -0.15421830579E+04  0.15421830579E+04  0.50400001928E-02 0. -1.
    10030    2    1    2    0    0  0.00000000000E+00  0.00000000000E+00 -0.73816404836E+03  0.23462020674E+04  0.22270558994E+04 0.  0.
        2    1    3    3  502    0 -0.56321601147E+01  0.27327169249E+03  0.76812915916E+03  0.81531070415E+03  0.25500000920E-02 0.  1.
       -2    1    3    3    0  502  0.56321601147E+01 -0.27327169249E+03 -0.15062932075E+04  0.15308913633E+04  0.25500000920E-02 0. -1.
</event>
<event>
 5   0  0.1257524E-04  0.2345578E+04  0.7818609E-02  0.8460164E-01
       -2   -1    0    0    0  501  0.00000000000E+00  0.00000000000E+00  0.11850684211E+04  0.11850684211E+04  0.25500000920E-02 0.  1.
        2   -1    0    0  501    0  0.00000000000E+00  0.00000000000E+00 -0.11606368698E+04  0.11606368698E+04  0.25500000920E-02 0. -1.
    10030    2    1    2    0    0  0.00000000000E+00  0.00000000000E+00  0.24431551384E+02  0.23457052909E+04  0.23455780548E+04 0.  0.
        3    1    3    3  502    0 -0.44323802104E+03  0.10661462069E+04  0.21791216562E+03  0.11749950637E+04  0.10100000352E+00 0.  1.
       -3    1    3    3    0  502  0.44323802104E+03 -0.10661462069E+04 -0.19348061423E+03  0.11707102272E+04  0.10100000352E+00 0. -1.
</event>
<event>
 5   0  0.5663790E-05  0.1236370E+04  0.7818609E-02  0.9081605E-01
       -1   -1    0    0    0  501  0.00000000000E+00  0.00000000000E+00  0.87890455376E+03  0.87890455378E+03  0.50400001928E-02 0.  1.
        1   -1    0    0  501    0  0.00000000000E+00  0.00000000000E+00 -0.43480554851E+03  0.43480554854E+03  0.50400001928E-02 0. -1.
    10030    2    1    2    0    0  0.00000000000E+00  0.00000000000E+00  0.44409900525E+03  0.13137101023E+04  0.12363698098E+04 0.  0.
        3    1    3    3  502    0  0.11810527977E+03 -0.60514720442E+03  0.26957515153E+03  0.67292107164E+03  0.10100000352E+00 0.  1.
       -3    1    3    3    0  502 -0.11810527977E+03  0.60514720442E+03  0.17452385372E+03  0.64078903068E+03  0.10100000352E+00 0. -1.
</event>
<event>
 5   0  0.5663790E-05  0.2303148E+04  0.7818609E-02  0.8476681E-01
       -1   -1    0    0    0  501  0.00000000000E+00  0.00000000000E+00  0.18775264280E+04  0.18775264280E+04  0.50400001928E-02 0. -1.
        1   -1    0    0  501    0  0.00000000000E+00  0.00000000000E+00 -0.70631381395E+03  0.70631381396E+03  0.50400001928E-02 0.  1.
    10030    2    1    2    0    0  0.00000000000E+00  0.00000000000E+00  0.11712126141E+04  0.25838402420E+04  0.23031481517E+04 0.  0.
        3    1    3    3  502    0  0.85084632540E+03  0.54646733114E+03  0.12037134837E+04  0.15720980168E+04  0.10100000352E+00 0. -1.
       -3    1    3    3    0  502 -0.85084632540E+03 -0.54646733114E+03 -0.32500869629E+02  0.10117422252E+04  0.10100000352E+00 0.  1.
</event>
<event>
 5   0  0.5663790E-05  0.1735511E+04  0.7818609E-02  0.8741366E-01
        1   -1    0    0  501    0  0.00000000000E+00  0.00000000000E+00  0.10152655175E+04  0.10152655175E+04  0.50400001928E-02 0.  1.
       -1   -1    0    0    0  501  0.00000000000E+00  0.00000000000E+00 -0.74167791335E+03  0.74167791336E+03  0.50400001928E-02 0. -1.
    10030    2    1    2    0    0  0.00000000000E+00  0.00000000000E+00  0.27358760414E+03  0.17569434309E+04  0.17355114641E+04 0.  0.
        3    1    3    3  502    0 -0.11397205446E+03 -0.81103311106E+03 -0.15351512665E+03  0.83326540834E+03  0.10100000352E+00 0. -1.
       -3    1    3    3    0  502  0.11397205446E+03  0.81103311106E+03  0.42710273079E+03  0.92367802251E+03  0.10100000352E+00 0.  1.
</event>
<event>
 5   0  0.1234988E-04  0.2266903E+04  0.7818609E-02  0.8491086E-01
       -2   -1    0    0    0  501  0.00000000000E+00  0.00000000000E+00  0.48947813069E+03  0.48947813070E+03  0.25500000920E-02 0.  1.
        2   -1    0    0  501    0  0.00000000000E+00  0.00000000000E+00 -0.26246576274E+04  0.26246576274E+04  0.25500000920E-02 0. -1.
    10030    2    1    2    0    0  0.00000000000E+00  0.00000000000E+00 -0.21351794967E+04  0.31141357581E+04  0.22669031820E+04 0.  0.
        5    1    3    3  502    0  0.34672412325E+03  0.10698107276E+04 -0.12617581223E+04  0.16901976984E+04  0.46999998093E+01 0.  1.
       -5    1    3    3    0  502 -0.34672412325E+03 -0.10698107276E+04 -0.87342137438E+03  0.14239380597E+04  0.46999998093E+01 0. -1.
</event>
<event>
 5   0  0.5632156E-05  0.2189308E+04  0.7818609E-02  0.8522891E-01
        1   -1    0    0  501    0  0.00000000000E+00  0.00000000000E+00  0.16128493166E+04  0.16128493166E+04  0.50400001928E-02 0. -1.
       -1   -1    0    0    0  501  0.00000000000E+00  0.00000000000E+00 -0.74295071183E+03  0.74295071184E+03  0.50400001928E-02 0.  1.
    10030    2    1    2    0    0  0.00000000000E+00  0.00000000000E+00  0.86989860473E+03  0.23558000284E+04  0.21893081536E+04 0.  0.
        4    1    3    3  502    0  0.53994220922E+03 -0.42054441910E+03 -0.48434486376E+03  0.83844305572E+03  0.12699999809E+01 0.  1.
       -4    1    3    3    0  502 -0.53994220922E+03  0.42054441910E+03  0.13542434685E+04  0.15173569727E+04  0.12699999809E+01 0. -1.
</event>
<event>
 5   0  0.5632156E-05  0.2008784E+04  0.7818609E-02  0.8602525E-01
       -1   -1    0    0    0  501  0.00000000000E+00  0.00000000000E+00  0.46805846478E+03  0.46805846481E+03  0.50400001928E-02 0. -1.
        1   -1    0    0  501    0  0.00000000000E+00  0.00000000000E+00 -0.21552939017E+04  0.21552939017E+04  0.50400001928E-02 0.  1.
    10030    2    1    2    0    0  0.00000000000E+00  0.00000000000E+00 -0.16872354369E+04  0.26233523665E+04  0.20087842640E+04 0.  0.
        4    1    3    3  502    0 -0.37574531233E+03  0.82969933932E+03 -0.13964739586E+04  0.16672512298E+04  0.12699999809E+01 0. -1.
       -4    1    3    3    0  502  0.37574531233E+03 -0.82969933932E+03 -0.29076147833E+03  0.95610113669E+03  0.12699999809E+01 0.  1.
</event>
<event>
 5   0  0.1257524E-04  0.2342747E+04  0.7818609E-02  0.8461255E-01
        2   -1    0    0  501    0  0.00000000000E+00  0.00000000000E+00  0.14291247316E+04  0.14291247316E+04  0.25500000920E-02 0.  1.
       -2   -1    0    0    0  501  0.00000000000E+00  0.00000000000E+00 -0.96010961106E+03  0.96010961107E+03  0.25500000920E-02 0. -1.
    10030    2    1    2    0    0  0.00000000000E+00  0.00000000000E+00  0.46901512054E+03  0.23892343427E+04  0.23427474386E+04 0.  0.
        3    1    3    3  502    0 -0.56327246420E+03  0.25231888113E+03 -0.78082566615E+03  0.99530368121E+03  0.10100000352E+00 0. -1.
       -3    1    3    3    0  502  0.56327246420E+03 -0.25231888113E+03  0.12498407867E+04  0.13939306615E+04  0.10100000352E+00 0.  1.
</event>
<event>
 5   0  0.1281432E-04  0.2312281E+04  0.7818609E-02  0.8473095E-01
       -2   -1    0    0    0  501  0.00000000000E+00  0.00000000000E+00  0.81074409243E+03  0.81074409243E+03  0.25500000920E-02 0.  1.
        2   -1    0    0  501    0  0.00000000000E+00  0.00000000000E+00 -0.16486836742E+04  0.16486836742E+04  0.25500000920E-02 0. -1.
    10030    2    1    2    0    0  0.00000000000E+00  0.00000000000E+00 -0.83793958177E+03  0.24594277666E+04  0.23122807348E+04 0.  0.
        4    1    3    3  502    0  0.18196669404E+03  0.84694391923E+03 -0.12333527225E+04  0.15071783010E+04  0.12699999809E+01 0. -1.
       -4    1    3    3    0  502 -0.18196669404E+03 -0.84694391923E+03  0.39541314070E+03  0.95224946564E+03  0.12699999809E+01 0.  1.
</event>
<event>
 5   0  0.1281432E-04  0.2306285E+04  0.7818609E-02  0.8475447E-01
        2   -1    0    0  501    0  0.00000000000E+00  0.00000000000E+00  0.10270292802E+04  0.10270292802E+04  0.25500000920E-02 0. -1.
       -2   -1    0    0    0  501  0.00000000000E+00  0.00000000000E+00 -0.12947419083E+04  0.12947419083E+04  0.25500000920E-02 0.  1.
    10030    2    1    2    0    0  0.00000000000E+00  0.00000000000E+00 -0.26771262801E+03  0.23217711885E+04  0.23062851950E+04 0.  0.
        4    1    3    3  502    0  0.73768726619E+03 -0.33763749668E+03  0.69113065464E+03  0.10657601872E+04  0.12699999809E+01 0. -1.
       -4    1    3    3    0  502 -0.73768726619E+03  0.33763749668E+03 -0.95884328266E+03  0.12560110013E+04  0.12699999809E+01 0.  1.
</event>
<event>
 5   0  0.5924654E-05  0.2308117E+04  0.7818609E-02  0.8474728E-01
        1   -1    0    0  501    0  0.00000000000E+00  0.00000000000E+00  0.18374510485E+04  0.18374510485E+04  0.50400001928E-02 0.  1.
       -1   -1    0    0    0  501  0.00000000000E+00  0.00000000000E+00 -0.72483591271E+03  0.72483591272E+03  0.50400001928E-02 0. -1.
    10030    2    1    2    0    0  0.00000000000E+00  0.00000000000E+00  0.11126151358E+04  0.25622869613E+04  0.23081165550E+04 0.  0.
        5    1    3    3  502    0  0.53681028120E+03 -0.10176681178E+04  0.65569118536E+03  0.13242985677E+04  0.46999998093E+01 0.  1.
       -5    1    3    3    0  502 -0.53681028120E+03  0.10176681178E+04  0.45692395047E+03  0.12379883935E+04  0.46999998093E+01 0. -1.
</event>
<event>
 5   0  0.5663790E-05  0.2321554E+04  0.7818609E-02  0.8469471E-01
       -1   -1    0    0    0  501  0.00000000000E+00  0.00000000000E+00  0.10196795791E+04  0.10196795791E+04  0.50400001928E-02 0.  1.
        1   -1    0    0  501    0  0.00000000000E+00  0.00000000000E+00 -0.13213992046E+04  0.13213992047E+04  0.50400001928E-02 0. -1.
    10030    2    1    2    0    0  0.00000000000E+00  0.00000000000E+00 -0.30171962553E+03  0.23410787838E+04  0.23215544662E+04 0.  0.
        3    1    3    3  502    0  0.47508248904E+03  0.10204058311E+04 -0.43692201345E+03  0.12074072584E+04  0.10100000352E+00 0. -1.
       -3    1    3    3    0  502 -0.47508248904E+03 -0.10204058311E+04  0.13520238792E+03  0.11336715254E+04  0.10100000352E+00 0.  1.
</event>
<event>
 5   0  0.1281432E-04  0.2276107E+04  0.7818609E-02  0.8487402E-01
       -2   -1    0    0    0  501  0.00000000000E+00  0.00000000000E+00  0.11789428727E+04  0.11789428727E+04  0.25500000920E-02 0.  1.
        2   -1    0    0  501    0  0.00000000000E+00  0.00000000000E+00 -0.10985827332E+04  0.10985827332E+04  0.25500000920E-02 0. -1.
    10030    2    1    2    0    0  0.00000000000E+00  0.00000000000E+00  0.80360139525E+02  0.22775256059E+04  0.22761074521E+04 0.  0.
        4    1    3    3  502    0 -0.10263876678E+01 -0.22536843402E+03 -0.10760295025E+04  0.10993785006E+04  0.12699999809E+01 0. -1.
       -4    1    3    3    0  502  0.10263876678E+01  0.22536843402E+03  0.11563896420E+04  0.11781471052E+04  0.12699999809E+01 0.  1.
</event>
<event>
 5   0  0.1234988E-04  0.2319898E+04  0.7818609E-02  0.8470117E-01
        2   -1    0    0  501    0  0.00000000000E+00  0.00000000000E+00  0.18909026340E+04  0.18909026340E+04  0.25500000920E-02 0. -1.
       -2   -1    0    0    0  501  0.00000000000E+00  0.00000000000E+00 -0.71155543376E+03  0.71155543377E+03  0.25500000920E-02 0.  1.
    10030    2    1    2    0    0  0.00000000000E+00  0.00000000000E+00  0.11793472003E+04  0.26024580678E+04  0.23198983115E+04 0.  0.
        5    1    3    3  502    0 -0.24601964927E+03  0.56364813711E+02  0.18597144520E+04  0.18767691901E+04  0.46999998093E+01 0. -1.
       -5    1    3    3    0  502  0.24601964927E+03 -0.56364813711E+02 -0.68036725170E+03  0.72568887771E+03  0.46999998093E+01 0.  1.
</event>
<event>
 5   0  0.5924654E-05  0.2296427E+04  0.7818609E-02  0.8479331E-01
       -1   -1    0    0    0  501  0.00000000000E+00  0.00000000000E+00  0.55889471621E+03  0.55889471624E+03  0.50400001928E-02 0.  1.
        1   -1    0    0  501    0  0.00000000000E+00  0.00000000000E+00 -0.23589316963E+04  0.23589316963E+04  0.50400001928E-02 0. -1.
    10030    2    1    2    0    0  0.00000000000E+00  0.00000000000E+00 -0.18000369801E+04  0.29178264126E+04  0.22964271911E+04 0.  0.
        5    1    3    3  502    0  0.23659591453E+02  0.59534994141E+03  0.34708807247E+03  0.68956040276E+03  0.46999998093E+01 0.  1.
       -5    1    3    3    0  502 -0.23659591453E+02 -0.59534994141E+03 -0.21471250526E+04  0.22282660098E+04  0.46999998093E+01 0. -1.
</event>
<event>
 5   0  0.5663790E-05  0.2293906E+04  0.7818609E-02  0.8480328E-01
       -1   -1    0    0    0  501  0.00000000000E+00  0.00000000000E+00  0.22026913958E+04  0.22026913958E+04  0.50400001928E-02 0.  1.
        1   -1    0    0  501    0  0.00000000000E+00  0.00000000000E+00 -0.59722430450E+03  0.59722430452E+03  0.50400001928E-02 0. -1.
    10030    2    1    2    0    0  0.00000000000E+00  0.00000000000E+00  0.16054670913E+04  0.27999157003E+04  0.22939056972E+04 0.  0.
        3    1    3    3  502    0 -0.64149396007E+02 -0.10341352103E+04  0.14031218902E+04  0.17442195467E+04  0.10100000352E+00 0. -1.
       -3    1    3    3    0  502  0.64149396007E+02  0.10341352103E+04  0.20234520108E+03  0.10556961536E+04  0.10100000352E+00 0.  1.
</event>
<event>
 5   0  0.1270613E-04  0.2233613E+04  0.7818609E-02  0.8504567E-01
        2   -1    0    0  501    0  0.00000000000E+00  0.00000000000E+00  0.86592594254E+03  0.86592594254E+03  0.25500000920E-02 0.  1.
       -2   -1    0    0    0  501  0.00000000000E+00  0.00000000000E+00 -0.14403729998E+04  0.14403729998E+04  0.25500000920E-02 0. -1.
    10030    2    1    2    0    0  0.00000000000E+00  0.00000000000E+00 -0.57444705725E+03  0.23062989423E+04  0.22336126320E+04 0.  0.
        2    1    3    3  502    0  0.93541709347E+03  0.29068556710E+03  0.26665911408E+03  0.10151897955E+04  0.25500000920E-02 0.  1.
       -2    1    3    3    0  502 -0.93541709347E+03 -0.29068556710E+03 -0.84110617132E+03  0.12911091469E+04  0.25500000920E-02 0. -1.
</event>
<event>
 5   0  0.1234988E-04  0.2300263E+04  0.7818609E-02  0.8477817E-01
       -2   -1    0    0    0  501  0.00000000000E+00  0.00000000000E+00  0.89676713485E+03  0.89676713485E+03  0.25500000920E-02 0.  1.
        2   -1    0    0  501    0  0.00000000000E+00  0.00000000000E+00 -0.14750791281E+04  0.14750791281E+04  0.25500000920E-02 0. -1.
    10030    2    1    2    0    0  0.00000000000E+00  0.00000000000E+00 -0.57831199324E+03  0.23718462629E+04  0.23002630140E+04 0.  0.
        5    1    3    3  502    0  0.10721347028E+04  0.39159132177E+03 -0.14346566085E+03  0.11504003955E+04  0.46999998093E+01 0.  1.
       -5    1    3    3    0  502 -0.10721347028E+04 -0.39159132177E+03 -0.43484633239E+03  0.12214458674E+04  0.46999998093E+01 0. -1.
</event>
<event>
 5   0  0.1237296E-04  0.2292371E+04  0.7818609E-02  0.8480935E-01
        2   -1    0    0  501    0  0.00000000000E+00  0.00000000000E+00  0.26888981336E+04  0.26888981336E+04  0.25500000920E-02 0. -1.
       -2   -1    0    0    0  501  0.00000000000E+00  0.00000000000E+00 -0.48857961782E+03  0.48857961783E+03  0.25500000920E-02 0.  1.
    10030    2    1    2    0    0  0.00000000000E+00  0.00000000000E+00  0.22003185158E+04  0.31774777514E+04  0.22923706703E+04 0.  0.
        1    1    3    3  502    0  0.46766822294E+03  0.48271201597E+03 -0.18677224036E+03  0.69757316957E+03  0.50400001928E-02 0.  1.
       -1    1    3    3    0  502 -0.46766822294E+03 -0.48271201597E+03  0.23870907561E+04  0.24799045818E+04  0.50400001928E-02 0. -1.
</event>
<event>
 5   0  0.1281432E-04  0.2197647E+04  0.7818609E-02  0.8519408E-01
       -2   -1    0    0    0  501  0.00000000000E+00  0.00000000000E+00  0.68775545772E+03  0.68775545772E+03  0.25500000920E-02 0.  1.
        2   -1    0    0  501    0  0.00000000000E+00  0.00000000000E+00 -0.17555854961E+04  0.17555854961E+04  0.25500000920E-02 0. -1.
    10030    2    1    2    0    0  0.00000000000E+00  0.00000000000E+00 -0.10678300384E+04  0.24433409538E+04  0.21976473843E+04 0.  0.
        4    1    3    3  502    0  0.90528830535E+02 -0.21812236905E+03  0.65920533991E+03  0.70023291133E+03  0.12699999809E+01 0.  1.
       -4    1    3    3    0  502 -0.90528830535E+02  0.21812236905E+03 -0.17270353783E+04  0.17431080425E+04  0.12699999809E+01 0. -1.
</event>
<event>
 5   0  0.1234988E-04  0.2074214E+04  0.7818609E-02  0.8572688E-01
        2   -1    0    0  501    0  0.00000000000E+00  0.00000000000E+00  0.15981976668E+04  0.15981976668E+04  0.25500000920E-02 0. -1.
       -2   -1    0    0    0  501  0.00000000000E+00  0.00000000000E+00 -0.67300265261E+03  0.67300265262E+03  0.25500000920E-02 0.  1.
    10030    2    1    2    0    0  0.00000000000E+00  0.00000000000E+00  0.92519501418E+03  0.22712003194E+04  0.20742143276E+04 0.  0.
        5    1    3    3  502    0 -0.38988391815E+03  0.95213337630E+03  0.60537131331E+03  0.11937604252E+04  0.46999998093E+01 0. -1.
       -5    1    3    3    0  502  0.38988391815E+03 -0.95213337630E+03  0.31982370087E+03  0.10774398942E+04  0.46999998093E+01 0.  1.
</event>
<event>
 5   0  0.1257524E-04  0.1849176E+04  0.7818609E-02  0.8680577E-01
       -2   -1    0    0    0  501  0.00000000000E+00  0.00000000000E+00  0.49264369123E+03  0.49264369124E+03  0.25500000920E-02 0. -1.
        2   -1    0    0  501    0  0.00000000000E+00  0.00000000000E+00 -0.17352554615E+04  0.17352554615E+04  0.25500000920E-02 0.  1.
    10030    2    1    2    0    0  0.00000000000E+00  0.00000000000E+00 -0.12426117702E+04  0.22278991527E+04  0.18491756604E+04 0.  0.
        3    1    3    3  502    0  0.24002574339E+03  0.67833415184E+03 -0.13208339661E+04  0.15041116831E+04  0.10100000352E+00 0.  1.
       -3    1    3    3    0  502 -0.24002574339E+03 -0.67833415184E+03  0.78222195859E+02  0.72378746961E+03  0.10100000352E+00 0. -1.
</event>
<event>
 5   0  0.5843670E-05  0.2315557E+04  0.7818609E-02  0.8471812E-01
       -1   -1    0    0    0  501  0.00000000000E+00  0.00000000000E+00  0.53274442654E+03  0.53274442656E+03  0.50400001928E-02 0. -1.
        1   -1    0    0  501    0  0.00000000000E+00  0.00000000000E+00 -0.25161247492E+04  0.25161247492E+04  0.50400001928E-02 0.  1.
    10030    2    1    2    0    0  0.00000000000E+00  0.00000000000E+00 -0.19833803227E+04  0.30488691758E+04  0.23155573296E+04 0.  0.
        2    1    3    3  502    0  0.88954471418E+03  0.31321281736E+03 -0.10738918246E+03  0.94917042938E+03  0.25500000920E-02 0. -1.
       -2    1    3    3    0  502 -0.88954471418E+03 -0.31321281736E+03 -0.18759911402E+04  0.20996987464E+04  0.25500000920E-02 0.  1.
</event>
<event>
 5   0  0.1234988E-04  0.2347165E+04  0.7818609E-02  0.8459554E-01
        2   -1    0    0  501    0  0.00000000000E+00  0.00000000000E+00  0.10977064056E+04  0.10977064056E+04  0.25500000920E-02 0. -1.
       -2   -1    0    0    0  501  0.00000000000E+00  0.00000000000E+00 -0.12547028467E+04  0.12547028467E+04  0.25500000920E-02 0.  1.
    10030    2    1    2    0    0  0.00000000000E+00  0.00000000000E+00 -0.15699644109E+03  0.23524092523E+04  0.23471645463E+04 0.  0.
        5    1    3    3  502    0 -0.15021008708E+03 -0.48269796895E+02 -0.12440155819E+04  0.12539895938E+04  0.46999998093E+01 0.  1.
       -5    1    3    3    0  502  0.15021008708E+03  0.48269796895E+02  0.10870191408E+04  0.10984196584E+04  0.46999998093E+01 0. -1.
</event>
<event>
 5   0  0.5924654E-05  0.2464222E+04  0.7818609E-02  0.8415843E-01
       -1   -1    0    0    0  501  0.00000000000E+00  0.00000000000E+00  0.12116624345E+04  0.12116624345E+04  0.50400001928E-02 0. -1.
        1   -1    0    0  501    0  0.00000000000E+00  0.00000000000E+00 -0.12529050569E+04  0.12529050569E+04  0.50400001928E-02 0.  1.
    10030    2    1    2    0    0  0.00000000000E+00  0.00000000000E+00 -0.41242622411E+02  0.24645674914E+04  0.24642223857E+04 0.  0.
        5    1    3    3  502    0 -0.32992112479E+03  0.11332476449E+04  0.33295009047E+03  0.12263670030E+04  0.46999998093E+01 0. -1.
       -5    1    3    3    0  502  0.32992112479E+03 -0.11332476449E+04 -0.37419271288E+03  0.12382004885E+04  0.46999998093E+01 0.  1.
</event>
<event>
 5   0  0.5924654E-05  0.2335784E+04  0.7818609E-02  0.8463944E-01
       -1   -1    0    0    0  501  0.00000000000E+00  0.00000000000E+00  0.14805840078E+04  0.14805840078E+04  0.50400001928E-02 0. -1.
        1   -1    0    0  501    0  0.00000000000E+00  0.00000000000E+00 -0.92123921002E+03  0.92123921004E+03  0.50400001928E-02 0.  1.
    10030    2    1    2    0    0  0.00000000000E+00  0.00000000000E+00  0.55934479773E+03  0.24018232178E+04  0.23357842723E+04 0.  0.
        5    1    3    3  502    0 -0.40702599595E+03 -0.95372195031E+03  0.83216613960E+03  0.13295782391E+04  0.46999998093E+01 0. -1.
       -5    1    3    3    0  502  0.40702599595E+03  0.95372195031E+03 -0.27282134187E+03  0.10722449787E+04  0.46999998093E+01 0.  1.
</event>
<event>
 5   0  0.5924654E-05  0.2493167E+04  0.7818609E-02  0.8405424E-01
       -1   -1    0    0    0  501  0.00000000000E+00  0.00000000000E+00  0.15407816077E+04  0.15407816077E+04  0.50400001928E-02 0.  1.
        1   -1    0    0  501    0  0.00000000000E+00  0.00000000000E+00 -0.10085597232E+04  0.10085597233E+04  0.50400001928E-02 0. -1.
    10030    2    1    2    0    0  0.00000000000E+00  0.00000000000E+00  0.53222188449E+03  0.25493413310E+04  0.24931668792E+04 0.  0.
        5    1    3    3  502    0  0.21684061518E+02  0.11201797222E+04 -0.29271472552E+03  0.11580055307E+04  0.46999998093E+01 0.  1.
       -5    1    3    3    0  502 -0.21684061518E+02 -0.11201797222E+04  0.82493661002E+03  0.13913358003E+04  0.46999998093E+01 0. -1.
</event>
<event>
 5   0  0.5632156E-05  0.1175977E+04  0.7818609E-02  0.9134148E-01
       -1   -1    0    0    0  501  0.00000000000E+00  0.00000000000E+00  0.59356764822E+03  0.59356764824E+03  0.50400001928E-02 0. -1.
        1   -1    0    0  501    0  0.00000000000E+00  0.00000000000E+00 -0.58246162238E+03  0.58246162240E+03  0.50400001928E-02 0.  1.
    10030    2    1    2    0    0  0.00000000000E+00  0.00000000000E+00  0.11106025841E+02  0.11760292706E+04  0.11759768287E+04 0.  0.
        4    1    3    3  502    0  0.22688164799E+03  0.15979011707E+02  0.54779315659E+03  0.59313536930E+03  0.12699999809E+01 0. -1.
       -4    1    3    3    0  502 -0.22688164799E+03 -0.15979011707E+02 -0.53668713075E+03  0.58289390134E+03  0.12699999809E+01 0.  1.
</event>
<event>
 5   0  0.1257524E-04  0.2292573E+04  0.7818609E-02  0.8480855E-01
        2   -1    0    0  501    0  0.00000000000E+00  0.00000000000E+00  0.20079557141E+04  0.20079557141E+04  0.25500000920E-02 0. -1.
       -2   -1    0    0    0  501  0.00000000000E+00  0.00000000000E+00 -0.65438330285E+03  0.65438330286E+03  0.25500000920E-02 0.  1.
    10030    2    1    2    0    0  0.00000000000E+00  0.00000000000E+00  0.13535724112E+04  0.26623390169E+04  0.22925729582E+04 0.  0.
        3    1    3    3  502    0  0.67206054752E+03 -0.89016889874E+03  0.36974307350E+03  0.11750642529E+04  0.10100000352E+00 0.  1.
       -3    1    3    3    0  502 -0.67206054752E+03  0.89016889874E+03  0.98382933772E+03  0.14872747640E+04  0.10100000352E+00 0. -1.
</event>
<event>
 5   0  0.1234988E-04  0.2302928E+04  0.7818609E-02  0.8476767E-01
       -2   -1    0    0    0  501  0.00000000000E+00  0.00000000000E+00  0.43916947220E+03  0.43916947221E+03  0.25500000920E-02 0. -1.
        2   -1    0    0  501    0  0.00000000000E+00  0.00000000000E+00 -0.30190390935E+04  0.30190390935E+04  0.25500000920E-02 0.  1.
    10030    2    1    2    0    0  0.00000000000E+00  0.00000000000E+00 -0.25798696213E+04  0.34582085657E+04  0.23029284012E+04 0.  0.
        5    1    3    3  502    0 -0.51710017897E+03 -0.80591903675E+03 -0.22502319922E+04  0.24454987625E+04  0.46999998093E+01 0.  1.
       -5    1    3    3    0  502  0.51710017897E+03  0.80591903675E+03 -0.32963762909E+03  0.10127098032E+04  0.46999998093E+01 0. -1.
</event>
<event>
 5   0  0.5632156E-05  0.2268388E+04  0.7818609E-02  0.8490491E-01
       -1   -1    0    0    0  501  0.00000000000E+00  0.00000000000E+00  0.93892018907E+03  0.93892018909E+03  0.50400001928E-02 0.  1.
        1   -1    0    0  501    0  0.00000000000E+00  0.00000000000E+00 -0.13700801988E+04  0.13700801988E+04  0.50400001928E-02 0. -1.
    10030    2    1    2    0    0  0.00000000000E+00  0.00000000000E+00 -0.43116000974E+03  0.23090003879E+04  0.22683879380E+04 0.  0.
        4    1    3    3  502    0  0.26538653683E+03  0.74269106982E+02  0.90432148580E+03  0.94538081045E+03  0.12699999809E+01 0.  1.
       -4    1    3    3    0  502 -0.26538653683E+03 -0.74269106982E+02 -0.13354814955E+04  0.13636195775E+04  0.12699999809E+01 0. -1.
</event>
<event>
 5   0  0.1270613E-04  0.1864005E+04  0.7818609E-02  0.8672984E-01
       -2   -1    0    0    0  501  0.00000000000E+00  0.00000000000E+00  0.85752492785E+03  0.85752492785E+03  0.25500000920E-02 0.  1.
        2   -1    0    0  501    0  0.00000000000E+00  0.00000000000E+00 -0.10129491138E+04  0.10129491138E+04  0.25500000920E-02 0. -1.
    10030    2    1    2    0    0  0.00000000000E+00  0.00000000000E+00 -0.15542418593E+03  0.18704740416E+04  0.18640054890E+04 0.  0.
        2    1    3    3  502    0  0.25812204150E+03 -0.10163511749E+03  0.81513534981E+03  0.86104722515E+03  0.25500000920E-02 0.  1.
       -2    1    3    3    0  502 -0.25812204150E+03  0.10163511749E+03 -0.97055953574E+03  0.10094268165E+04  0.25500000920E-02 0. -1.
</event>
<event>
 5   0  0.1270613E-04  0.2271677E+04  0.7818609E-02  0.8489173E-01
       -2   -1    0    0    0  501  0.00000000000E+00  0.00000000000E+00  0.19662020707E+04  0.19662020707E+04  0.25500000920E-02 0. -1.
        2   -1    0    0  501    0  0.00000000000E+00  0.00000000000E+00 -0.65615276806E+03  0.65615276806E+03  0.25500000920E-02 0.  1.
    10030    2    1    2    0    0  0.00000000000E+00  0.00000000000E+00  0.13100493026E+04  0.26223548387E+04  0.22716768531E+04 0.  0.
        2    1    3    3  502    0  0.30774760737E+03 -0.81890696530E+03  0.14912949416E+04  0.17289528075E+04  0.25500000920E-02 0. -1.
       -2    1    3    3    0  502 -0.30774760737E+03  0.81890696530E+03 -0.18124563905E+03  0.89340203119E+03  0.25500000920E-02 0.  1.
</event>
<event>
 5   0  0.5632156E-05  0.2359790E+04  0.7818609E-02  0.8454713E-01
        1   -1    0    0  501    0  0.00000000000E+00  0.00000000000E+00  0.87198383623E+03  0.87198383625E+03  0.50400001928E-02 0. -1.
       -1   -1    0    0    0  501  0.00000000000E+00  0.00000000000E+00 -0.15965347644E+04  0.15965347644E+04  0.50400001928E-02 0.  1.
    10030    2    1    2    0    0  0.00000000000E+00  0.00000000000E+00 -0.72455092818E+03  0.24685186007E+04  0.23597902522E+04 0.  0.
        4    1    3    3  502    0 -0.46106838403E+03 -0.21570395049E+03 -0.14757630075E+04  0.15610862616E+04  0.12699999809E+01 0.  1.
       -4    1    3    3    0  502  0.46106838403E+03  0.21570395049E+03  0.75121207930E+03  0.90743233907E+03  0.12699999809E+01 0. -1.
</event>
<event>
 5   0  0.1234988E-04  0.2315226E+04  0.7818609E-02  0.8471942E-01
       -2   -1    0    0    0  501  0.00000000000E+00  0.00000000000E+00  0.77179227246E+03  0.77179227246E+03  0.25500000920E-02 0.  1.
        2   -1    0    0  501    0  0.00000000000E+00  0.00000000000E+00 -0.17363060999E+04  0.17363060999E+04  0.25500000920E-02 0. -1.
    10030    2    1    2    0    0  0.00000000000E+00  0.00000000000E+00 -0.96451382746E+03  0.25080983724E+04  0.23152258037E+04 0.  0.
        5    1    3    3  502    0 -0.87566821882E+03 -0.55365292984E+03 -0.10417288502E+04  0.14691996064E+04  0.46999998093E+01 0. -1.
       -5    1    3    3    0  502  0.87566821882E+03  0.55365292984E+03  0.77215022748E+02  0.10388987660E+04  0.46999998093E+01 0.  1.
</event>
<event>
 5   0  0.5663790E-05  0.1982585E+04  0.7818609E-02  0.8614806E-01
        1   -1    0    0  501    0  0.00000000000E+00  0.00000000000E+00  0.15451832624E+04  0.15451832624E+04  0.50400001928E-02 0.  1.
       -1   -1    0    0    0  501  0.00000000000E+00  0.00000000000E+00 -0.63595105238E+03  0.63595105240E+03  0.50400001928E-02 0. -1.
    10030    2    1    2    0    0  0.00000000000E+00  0.00000000000E+00  0.90923221000E+03  0.21811343148E+04  0.19825851022E+04 0.  0.
        3    1    3    3  502    0  0.75949956148E+03  0.15572347369E+03  0.11341929177E+04  0.13738569682E+04  0.10100000352E+00 0.  1.
       -3    1    3    3    0  502 -0.75949956148E+03 -0.15572347369E+03 -0.22496070772E+03  0.80727734662E+03  0.10100000352E+00 0. -1.
</event>
<event>
 5   0  0.1281432E-04  0.2222052E+04  0.7818609E-02  0.8509305E-01
       -2   -1    0    0    0  501  0.00000000000E+00  0.00000000000E+00  0.14417318145E+04  0.14417318145E+04  0.25500000920E-02 0. -1.
        2   -1    0    0  501    0  0.00000000000E+00  0.00000000000E+00 -0.85617756042E+03  0.85617756042E+03  0.25500000920E-02 0.  1.
    10030    2    1    2    0    0  0.00000000000E+00  0.00000000000E+00  0.58555425411E+03  0.22979093749E+04  0.22220516895E+04 0.  0.
        4    1    3    3  502    0 -0.57609562937E+03 -0.62902412167E+03 -0.44343897171E+03  0.96135178491E+03  0.12699999809E+01 0. -1.
       -4    1    3    3    0  502  0.57609562937E+03  0.62902412167E+03  0.10289932258E+04  0.13365575900E+04  0.12699999809E+01 0.  1.
</event>
<event>
 5   0  0.4489500E-05  0.2228196E+04  0.7818609E-02  0.8506783E-01
        3   -1    0    0  501    0  0.00000000000E+00  0.00000000000E+00  0.97447033385E+03  0.97447033908E+03  0.10100000352E+00 0. -1.
       -3   -1    0    0    0  501  0.00000000000E+00  0.00000000000E+00 -0.12737327332E+04  0.12737327372E+04  0.10100000352E+00 0.  1.
    10030    2    1    2    0    0  0.00000000000E+00  0.00000000000E+00 -0.29926239932E+03  0.22482030763E+04  0.22281963756E+04 0.  0.
        3    1    3    3  502    0 -0.30681573603E+03 -0.55111934144E+02  0.92957137150E+03  0.98044692160E+03  0.10100000352E+00 0. -1.
       -3    1    3    3    0  502  0.30681573603E+03  0.55111934144E+02 -0.12288337708E+04  0.12677561547E+04  0.10100000352E+00 0.  1.
</event>
<event>
 5   0  0.1234988E-04  0.2274690E+04  0.7818609E-02  0.8487968E-01
        2   -1    0    0  501    0  0.00000000000E+00  0.00000000000E+00  0.18694812925E+04  0.18694812925E+04  0.25500000920E-02 0.  1.
       -2   -1    0    0    0  501  0.00000000000E+00  0.00000000000E+00 -0.69193170120E+03  0.69193170121E+03  0.25500000920E-02 0. -1.
    10030    2    1    2    0    0  0.00000000000E+00  0.00000000000E+00  0.11775495913E+04  0.25614129937E+04  0.22746897556E+04 0.  0.
        5    1    3    3  502    0 -0.30357127367E+03  0.88460878506E+03 -0.13998280727E+03  0.94567726901E+03  0.46999998093E+01 0. -1.
       -5    1    3    3    0  502  0.30357127367E+03 -0.88460878506E+03  0.13175323986E+04  0.16157357247E+04  0.46999998093E+01 0.  1.
</event>
<event>
 5   0  0.5642466E-05  0.2281148E+04  0.7818609E-02  0.8485391E-01
        1   -1    0    0  501    0  0.00000000000E+00  0.00000000000E+00  0.19731503851E+04  0.19731503851E+04  0.50400001928E-02 0.  1.
       -1   -1    0    0    0  501  0.00000000000E+00  0.00000000000E+00 -0.65930581535E+03  0.65930581537E+03  0.50400001928E-02 0. -1.
    10030    2    1    2    0    0  0.00000000000E+00  0.00000000000E+00  0.13138445698E+04  0.26324562005E+04  0.22811484156E+04 0.  0.
        1    1    3    3  502    0 -0.48964143506E+03  0.38131850547E+03  0.17612493905E+04  0.18673917514E+04  0.50400001928E-02 0.  1.
       -1    1    3    3    0  502  0.48964143506E+03 -0.38131850547E+03 -0.44740482078E+03  0.76506444907E+03  0.50400001928E-02 0. -1.
</event>
<event>
 5   0  0.5642466E-05  0.1321863E+04  0.7818609E-02  0.9012405E-01
        1   -1    0    0  501    0  0.00000000000E+00  0.00000000000E+00  0.93096196833E+03  0.93096196834E+03  0.50400001928E-02 0.  1.
       -1   -1    0    0    0  501  0.00000000000E+00  0.00000000000E+00 -0.46922451019E+03  0.46922451022E+03  0.50400001928E-02 0. -1.
    10030    2    1    2    0    0  0.00000000000E+00  0.00000000000E+00  0.46173745814E+03  0.14001864786E+04  0.13218625853E+04 0.  0.
        1    1    3    3  502    0 -0.20012053524E+03  0.53403538512E+03 -0.12297264479E+03  0.58340748416E+03  0.50400001928E-02 0. -1.
       -1    1    3    3    0  502  0.20012053524E+03 -0.53403538512E+03  0.58471010293E+03  0.81677899439E+03  0.50400001928E-02 0.  1.
</event>
<event>
 5   0  0.5663790E-05  0.2311529E+04  0.7818609E-02  0.8473389E-01
       -1   -1    0    0    0  501  0.00000000000E+00  0.00000000000E+00  0.13135236727E+04  0.13135236727E+04  0.50400001928E-02 0.  1.
        1   -1    0    0  501    0  0.00000000000E+00  0.00000000000E+00 -0.10169524704E+04  0.10169524704E+04  0.50400001928E-02 0. -1.
    10030    2    1    2    0    0  0.00000000000E+00  0.00000000000E+00  0.29657120228E+03  0.23304761431E+04  0.23115286231E+04 0.  0.
        3    1    3    3  502    0  0.17072653190E+03 -0.40635848121E+03 -0.92888987608E+03  0.10281591200E+04  0.10100000352E+00 0. -1.
       -3    1    3    3    0  502 -0.17072653190E+03  0.40635848121E+03  0.12254610784E+04  0.13023170231E+04  0.10100000352E+00 0.  1.
</event>
<event>
 5   0  0.1281432E-04  0.2274797E+04  0.7818609E-02  0.8487925E-01
        2   -1    0    0  501    0  0.00000000000E+00  0.00000000000E+00  0.26661140128E+04  0.26661140128E+04  0.25500000920E-02 0. -1.
       -2   -1    0    0    0  501  0.00000000000E+00  0.00000000000E+00 -0.48522885003E+03  0.48522885004E+03  0.25500000920E-02 0.  1.
    10030    2    1    2    0    0  0.00000000000E+00  0.00000000000E+00  0.21808851628E+04  0.31513428628E+04  0.22747970780E+04 0.  0.
        4    1    3    3  502    0 -0.55373722842E+03  0.45528331179E+03 -0.13286353006E+03  0.72908308351E+03  0.12699999809E+01 0.  1.
       -4    1    3    3    0  502  0.55373722842E+03 -0.45528331179E+03  0.23137486928E+04  0.24222597793E+04  0.12699999809E+01 0. -1.
</event>
<event>
 5   0  0.1237296E-04  0.2814604E+04  0.7818609E-02  0.8298749E-01
       -2   -1    0    0    0  501  0.00000000000E+00  0.00000000000E+00  0.92279607845E+03  0.92279607845E+03  0.25500000920E-02 0.  1.
        2   -1    0    0  501    0  0.00000000000E+00  0.00000000000E+00 -0.21461936236E+04  0.21461936236E+04  0.25500000920E-02 0. -1.
    10030    2    1    2    0    0  0.00000000000E+00  0.00000000000E+00 -0.12233975451E+04  0.30689897020E+04  0.28146040996E+04 0.  0.
        1    1    3    3  502    0 -0.89568837180E+03 -0.67008617956E+03 -0.15428262898E+04  0.19056720883E+04  0.50400001928E-02 0. -1.
       -1    1    3    3    0  502  0.89568837180E+03  0.67008617956E+03  0.31942874473E+03  0.11633176137E+04  0.50400001928E-02 0.  1.
</event>
<event>
 5   0  0.1234988E-04  0.2408784E+04  0.7818609E-02  0.8436222E-01
        2   -1    0    0  501    0  0.00000000000E+00  0.00000000000E+00  0.20134698575E+04  0.20134698575E+04  0.25500000920E-02 0. -1.
       -2   -1    0    0    0  501  0.00000000000E+00  0.00000000000E+00 -0.72042786684E+03  0.72042786684E+03  0.25500000920E-02 0.  1.
    10030    2    1    2    0    0  0.00000000000E+00  0.00000000000E+00  0.12930419907E+04  0.27338977243E+04  0.24087837548E+04 0.  0.
        5    1    3    3  502    0  0.13111237786E+03 -0.62673585429E+03 -0.51123171185E+03  0.81937063645E+03  0.46999998093E+01 0.  1.
       -5    1    3    3    0  502 -0.13111237786E+03  0.62673585429E+03  0.18042737025E+04  0.19145270879E+04  0.46999998093E+01 0. -1.
</event>
<event>
 5   0  0.5843670E-05  0.2302230E+04  0.7818609E-02  0.8477042E-01
       -1   -1    0    0    0  501  0.00000000000E+00  0.00000000000E+00  0.11197919367E+04  0.11197919367E+04  0.50400001928E-02 0. -1.
        1   -1    0    0  501    0  0.00000000000E+00  0.00000000000E+00 -0.11833142196E+04  0.11833142196E+04  0.50400001928E-02 0.  1.
    10030    2    1    2    0    0  0.00000000000E+00  0.00000000000E+00 -0.63522282891E+02  0.23031061564E+04  0.23022299813E+04 0.  0.
        2    1    3    3  502    0  0.63749242172E+03  0.78290757911E+03 -0.58489548710E+03  0.11668091515E+04  0.25500000920E-02 0.  1.
       -2    1    3    3    0  502 -0.63749242172E+03 -0.78290757911E+03  0.52137320421E+03  0.11362970049E+04  0.25500000920E-02 0. -1.
</event>
<event>
 5   0  0.5924654E-05  0.2134461E+04  0.7818609E-02  0.8546213E-01
       -1   -1    0    0    0  501  0.00000000000E+00  0.00000000000E+00  0.70400714240E+03  0.70400714242E+03  0.50400001928E-02 0. -1.
        1   -1    0    0  501    0  0.00000000000E+00  0.00000000000E+00 -0.16178540241E+04  0.16178540241E+04  0.50400001928E-02 0.  1.
    10030    2    1    2    0    0  0.00000000000E+00  0.00000000000E+00 -0.91384688167E+03  0.23218611665E+04  0.21344608578E+04 0.  0.
        5    1    3    3  502    0  0.98627081303E+03  0.38042305126E+03 -0.29739548620E+03  0.10981429687E+04  0.46999998093E+01 0. -1.
       -5    1    3    3    0  502 -0.98627081303E+03 -0.38042305126E+03 -0.61645139547E+03  0.12237181978E+04  0.46999998093E+01 0.  1.
</event>
<event>
 5   0  0.1281432E-04  0.1665769E+04  0.7818609E-02  0.8781132E-01
        2   -1    0    0  501    0  0.00000000000E+00  0.00000000000E+00  0.12429481679E+04  0.12429481679E+04  0.25500000920E-02 0.  1.
       -2   -1    0    0    0  501  0.00000000000E+00  0.00000000000E+00 -0.55810550827E+03  0.55810550828E+03  0.25500000920E-02 0. -1.
    10030    2    1    2    0    0  0.00000000000E+00  0.00000000000E+00  0.68484265964E+03  0.18010536762E+04  0.16657685542E+04 0.  0.
        4    1    3    3  502    0  0.15515766866E+03  0.74033061181E+03 -0.34504629830E+02  0.75720241634E+03  0.12699999809E+01 0. -1.
       -4    1    3    3    0  502 -0.15515766866E+03 -0.74033061181E+03  0.71934728947E+03  0.10438512599E+04  0.12699999809E+01 0.  1.
</event>
<event>
 5   0  0.5663790E-05  0.2289987E+04  0.7818609E-02  0.8481880E-01
       -1   -1    0    0    0  501  0.00000000000E+00  0.00000000000E+00  0.55651472595E+03  0.55651472597E+03  0.50400001928E-02 0.  1.
        1   -1    0    0  501    0  0.00000000000E+00  0.00000000000E+00 -0.23557510225E+04  0.23557510226E+04  0.50400001928E-02 0. -1.
    10030    2    1    2    0    0  0.00000000000E+00  0.00000000000E+00 -0.17992362966E+04  0.29122657485E+04  0.22899870172E+04 0.  0.
        3    1    3    3  502    0  0.88264022007E+01 -0.76369943570E+03 -0.19844758948E+04  0.21263723382E+04  0.10100000352E+00 0. -1.
       -3    1    3    3    0  502 -0.88264022007E+01  0.76369943570E+03  0.18523959819E+03  0.78589341033E+03  0.10100000352E+00 0.  1.
</event>
<event>
 5   0  0.1281432E-04  0.1173131E+04  0.7818609E-02  0.9136705E-01
        2   -1    0    0  501    0  0.00000000000E+00  0.00000000000E+00  0.45127502837E+03  0.45127502838E+03  0.25500000920E-02 0. -1.
       -2   -1    0    0    0  501  0.00000000000E+00  0.00000000000E+00 -0.76241599823E+03  0.76241599824E+03  0.25500000920E-02 0.  1.
    10030    2    1    2    0    0  0.00000000000E+00  0.00000000000E+00 -0.31114096986E+03  0.12136910266E+04  0.11731313673E+04 0.  0.
        4    1    3    3  502    0  0.40218179956E+03  0.42695371250E+03 -0.15117923101E+03  0.60571977457E+03  0.12699999809E+01 0. -1.
       -4    1    3    3    0  502 -0.40218179956E+03 -0.42695371250E+03 -0.15996173885E+03  0.60797125205E+03  0.12699999809E+01 0.  1.
</event>
<event>
 5   0  0.5642466E-05  0.1927014E+04  0.7818609E-02  0.8641525E-01
       -1   -1    0    0    0  501  0.00000000000E+00  0.00000000000E+00  0.87438890503E+03  0.87438890504E+03  0.50400001928E-02 0. -1.
        1   -1    0    0  501    0  0.00000000000E+00  0.00000000000E+00 -0.10617079527E+04  0.10617079527E+04  0.50400001928E-02 0.  1.
    10030    2    1    2    0    0  0.00000000000E+00  0.00000000000E+00 -0.18731904764E+03  0.19360968577E+04  0.19270139120E+04 0.  0.
        1    1    3    3  502    0 -0.46653369842E+03  0.62909777097E+03  0.47017003230E+03  0.91349743103E+03  0.50400001928E-02 0. -1.
       -1    1    3    3    0  502  0.46653369842E+03 -0.62909777097E+03 -0.65748907994E+03  0.10225994267E+04  0.50400001928E-02 0.  1.
</event>
<event>
 5   0  0.5642466E-05  0.2148117E+04  0.7818609E-02  0.8540339E-01
        1   -1    0    0  501    0  0.00000000000E+00  0.00000000000E+00  0.26905100491E+04  0.26905100491E+04  0.50400001928E-02 0.  1.
       -1   -1    0    0    0  501  0.00000000000E+00  0.00000000000E+00 -0.42876693842E+03  0.42876693845E+03  0.50400001928E-02 0. -1.
    10030    2    1    2    0    0  0.00000000000E+00  0.00000000000E+00  0.22617431107E+04  0.31192769875E+04  0.21481170886E+04 0.  0.
        1    1    3    3  502    0  0.20679624721E+03  0.25089052888E+03  0.26173343678E+04  0.26374514096E+04  0.50400001928E-02 0.  1.
       -1    1    3    3    0  502 -0.20679624721E+03 -0.25089052888E+03 -0.35559125713E+03  0.48182557790E+03  0.50400001928E-02 0. -1.
</event>
<event>
 5   0  0.1281432E-04  0.2329998E+04  0.7818609E-02  0.8466186E-01
        2   -1    0    0  501    0  0.00000000000E+00  0.00000000000E+00  0.95765903816E+03  0.95765903816E+03  0.25500000920E-02 0.  1.
       -2   -1    0    0    0  501  0.00000000000E+00  0.00000000000E+00 -0.14172291857E+04  0.14172291857E+04  0.25500000920E-02 0. -1.
    10030    2    1    2    0    0  0.00000000000E+00  0.00000000000E+00 -0.45957014754E+03  0.23748882239E+04  0.23299977157E+04 0.  0.
        4    1    3    3  502    0 -0.31061465187E+03 -0.95733496598E+03  0.36824639771E+03  0.10717176500E+04  0.12699999809E+01 0.  1.
       -4    1    3    3    0  502  0.31061465187E+03  0.95733496598E+03 -0.82781654525E+03  0.13031705738E+04  0.12699999809E+01 0. -1.
</event>
<event>
 5   0  0.1237296E-04  0.2265867E+04  0.7818609E-02  0.8491502E-01
        2   -1    0    0  501    0  0.00000000000E+00  0.00000000000E+00  0.11045273732E+04  0.11045273732E+04  0.25500000920E-02 0.  1.
       -2   -1    0    0    0  501  0.00000000000E+00  0.00000000000E+00 -0.11620696607E+04  0.11620696607E+04  0.25500000920E-02 0. -1.
    10030    2    1    2    0    0  0.00000000000E+00  0.00000000000E+00 -0.57542287441E+02  0.22665970339E+04  0.22658665008E+04 0.  0.
        1    1    3    3  502    0  0.32665622414E+03 -0.31413963047E+03 -0.10674458154E+04  0.11596674373E+04  0.50400001928E-02 0. -1.
       -1    1    3    3    0  502 -0.32665622414E+03  0.31413963047E+03  0.10099035280E+04  0.11069295967E+04  0.50400001928E-02 0.  1.
</event>
<event>
 5   0  0.1270613E-04  0.1255717E+04  0.7818609E-02  0.9065438E-01
        2   -1    0    0  501    0  0.00000000000E+00  0.00000000000E+00  0.84264883075E+03  0.84264883075E+03  0.25500000920E-02 0.  1.
       -2   -1    0    0    0  501  0.00000000000E+00  0.00000000000E+00 -0.46781825884E+03  0.46781825885E+03  0.25500000920E-02 0. -1.
    10030    2    1    2    0    0  0.00000000000E+00  0.00000000000E+00  0.37483057190E+03  0.13104670896E+04  0.12557173389E+04 0.  0.
        2    1    3    3  502    0  0.39969438629E+03 -0.51457891637E+02  0.68986632214E+03  0.79894872143E+03  0.25500000920E-02 0.  1.
       -2    1    3    3    0  502 -0.39969438629E+03  0.51457891637E+02 -0.31503575023E+03  0.51151836817E+03  0.25500000920E-02 0. -1.
</event>
<event>
 5   0  0.1281432E-04  0.2296469E+04  0.7818609E-02  0.8479314E-01
        2   -1    0    0  501    0  0.00000000000E+00  0.00000000000E+00  0.11862896841E+04  0.11862896841E+04  0.25500000920E-02 0. -1.
       -2   -1    0    0    0  501  0.00000000000E+00  0.00000000000E+00 -0.11114004401E+04  0.11114004401E+04  0.25500000920E-02 0.  1.
    10030    2    1    2    0    0  0.00000000000E+00  0.00000000000E+00  0.74889244044E+02  0.22976901242E+04  0.22964693570E+04 0.  0.
        4    1    3    3  502    0 -0.43175739025E+03 -0.25044287957E+03 -0.99717721132E+03  0.11151233491E+04  0.12699999809E+01 0.  1.
       -4    1    3    3    0  502  0.43175739025E+03  0.25044287957E+03  0.10720664554E+04  0.11825667751E+04  0.12699999809E+01 0. -1.
</event>
<event>
 5   0  0.5642466E-05  0.1310393E+04  0.7818609E-02  0.9021364E-01
        1   -1    0    0  501    0  0.00000000000E+00  0.00000000000E+00  0.90362098799E+03  0.90362098801E+03  0.50400001928E-02 0.  1.
       -1   -1    0    0    0  501  0.00000000000E+00  0.00000000000E+00 -0.47506892947E+03  0.47506892950E+03  0.50400001928E-02 0. -1.
    10030    2    1    2    0    0  0.00000000000E+00  0.00000000000E+00  0.42855205852E+03  0.13786899175E+04  0.13103926975E+04 0.  0.
        1    1    3    3  502    0 -0.45122880638E+03  0.12534804675E+03  0.69637499106E+03  0.83920062961E+03  0.50400001928E-02 0.  1.
       -1    1    3    3    0  502  0.45122880638E+03 -0.12534804675E+03 -0.26782293254E+03  0.53948928790E+03  0.50400001928E-02 0. -1.
</event>
<event>
 5   0  0.5663790E-05  0.1457927E+04  0.7818609E-02  0.8912923E-01
       -1   -1    0    0    0  501  0.00000000000E+00  0.00000000000E+00  0.50076397148E+03  0.50076397151E+03  0.50400001928E-02 0. -1.
        1   -1    0    0  501    0  0.00000000000E+00  0.00000000000E+00 -0.10611539632E+04  0.10611539632E+04  0.50400001928E-02 0.  1.
    10030    2    1    2    0    0  0.00000000000E+00  0.00000000000E+00 -0.56038999169E+03  0.15619179347E+04  0.14579268472E+04 0.  0.
        3    1    3    3  502    0 -0.33444911796E+03  0.47896667195E+03  0.18693644232E+03  0.61336003212E+03  0.10100000352E+00 0. -1.
       -3    1    3    3    0  502  0.33444911796E+03 -0.47896667195E+03 -0.74732643401E+03  0.94855790256E+03  0.10100000352E+00 0.  1.
</event>
<event>
 5   0  0.1270613E-04  0.2287342E+04  0.7818609E-02  0.8482929E-01
        2   -1    0    0  501    0  0.00000000000E+00  0.00000000000E+00  0.10171140342E+04  0.10171140342E+04  0.25500000920E-02 0. -1.
       -2   -1    0    0    0  501  0.00000000000E+00  0.00000000000E+00 -0.12859753239E+04  0.12859753239E+04  0.25500000920E-02 0.  1.
    10030    2    1    2    0    0  0.00000000000E+00  0.00000000000E+00 -0.26886128964E+03  0.23030893581E+04  0.22873421690E+04 0.  0.
        2    1    3    3  502    0  0.31881641181E+03 -0.39328157907E+03 -0.11670000163E+04  0.12720862168E+04  0.25500000920E-02 0.  1.
       -2    1    3    3    0  502 -0.31881641181E+03  0.39328157907E+03  0.89813872671E+03  0.10310031413E+04  0.25500000920E-02 0. -1.
</event>
<event>
 5   0  0.5843670E-05  0.2378459E+04  0.7818609E-02  0.8447612E-01
       -1   -1    0    0    0  501  0.00000000000E+00  0.00000000000E+00  0.97998499525E+03  0.97998499527E+03  0.50400001928E-02 0.  1.
        1   -1    0    0  501    0  0.00000000000E+00  0.00000000000E+00 -0.14431515076E+04  0.14431515076E+04  0.50400001928E-02 0. -1.
    10030    2    1    2    0    0  0.00000000000E+00  0.00000000000E+00 -0.46316651238E+03  0.24231365029E+04  0.23784590166E+04 0.  0.
        2    1    3    3  502    0  0.99349375611E+03  0.65133960922E+03 -0.28732568258E+03  0.12222230475E+04  0.25500000920E-02 0. -1.
       -2    1    3    3    0  502 -0.99349375611E+03 -0.65133960922E+03 -0.17584082980E+03  0.12009134554E+04  0.25500000920E-02 0.  1.
</event>
<event>
 5   0  0.5632156E-05  0.2277143E+04  0.7818609E-02  0.8486988E-01
       -1   -1    0    0    0  501  0.00000000000E+00  0.00000000000E+00  0.85958240019E+03  0.85958240020E+03  0.50400001928E-02 0. -1.
        1   -1    0    0  501    0  0.00000000000E+00  0.00000000000E+00 -0.15081097522E+04  0.15081097522E+04  0.50400001928E-02 0.  1.
    10030    2    1    2    0    0  0.00000000000E+00  0.00000000000E+00 -0.64852735197E+03  0.23676921524E+04  0.22771425959E+04 0.  0.
        4    1    3    3  502    0 -0.10568353851E+03  0.11326770178E+04 -0.27530908386E+03  0.11704370728E+04  0.12699999809E+01 0. -1.
       -4    1    3    3    0  502  0.10568353851E+03 -0.11326770178E+04 -0.37321826811E+03  0.11972550795E+04  0.12699999809E+01 0.  1.
</event>
<event>
 5   0  0.5632156E-05  0.2202565E+04  0.7818609E-02  0.8517361E-01
        1   -1    0    0  501    0  0.00000000000E+00  0.00000000000E+00  0.11967819071E+04  0.11967819071E+04  0.50400001928E-02 0. -1.
       -1   -1    0    0    0  501  0.00000000000E+00  0.00000000000E+00 -0.10134038757E+04  0.10134038757E+04  0.50400001928E-02 0.  1.
    10030    2    1    2    0    0  0.00000000000E+00  0.00000000000E+00  0.18337803144E+03  0.22101857828E+04  0.22025652526E+04 0.  0.
        4    1    3    3  502    0 -0.98178939763E+02  0.16332414760E+03 -0.99673327262E+03  0.10147870274E+04  0.12699999809E+01 0.  1.
       -4    1    3    3    0  502  0.98178939763E+02 -0.16332414760E+03  0.11801113041E+04  0.11953987553E+04  0.12699999809E+01 0. -1.
</event>
<event>
 5   0  0.1270613E-04  0.2303413E+04  0.7818609E-02  0.8476576E-01
        2   -1    0    0  501    0  0.00000000000E+00  0.00000000000E+00  0.14426308061E+04  0.14426308061E+04  0.25500000920E-02 0.  1.
       -2   -1    0    0    0  501  0.00000000000E+00  0.00000000000E+00 -0.91945098968E+03  0.91945098968E+03  0.25500000920E-02 0. -1.
    10030    2    1    2    0    0  0.00000000000E+00  0.00000000000E+00  0.52317981644E+03  0.23620817958E+04  0.23034133997E+04 0.  0.
        2    1    3    3  502    0 -0.56463476642E+02 -0.75589931913E+03 -0.62759175729E+03  0.98409517766E+03  0.25500000920E-02 0. -1.
       -2    1    3    3    0  502  0.56463476642E+02  0.75589931913E+03  0.11507715737E+04  0.13779866181E+04  0.25500000920E-02 0.  1.
</event>
<event>
 5   0  0.5642466E-05  0.2279880E+04  0.7818609E-02  0.8485897E-01
       -1   -1    0    0    0  501  0.00000000000E+00  0.00000000000E+00  0.69032468662E+03  0.69032468664E+03  0.50400001928E-02 0.  1.
        1   -1    0    0  501    0  0.00000000000E+00  0.00000000000E+00 -0.18823945166E+04  0.18823945166E+04  0.50400001928E-02 0. -1.
    10030    2    1    2    0    0  0.00000000000E+00  0.00000000000E+00 -0.11920698300E+04  0.25727192032E+04  0.22798801765E+04 0.  0.
        1    1    3    3  502    0 -0.13015855022E+03 -0.35127548802E+03 -0.18109502272E+04  0.18492907943E+04  0.50400001928E-02 0. -1.
       -1    1    3    3    0  502  0.13015855022E+03  0.35127548802E+03  0.61888039722E+03  0.72342840888E+03  0.50400001928E-02 0.  1.
</event>
<event>
 5   0  0.1270613E-04  0.2372772E+04  0.7818609E-02  0.8449768E-01
        2   -1    0    0  501    0  0.00000000000E+00  0.00000000000E+00  0.27226684759E+04  0.27226684759E+04  0.25500000920E-02 0. -1.
       -2   -1    0    0    0  501  0.00000000000E+00  0.00000000000E+00 -0.51696038199E+03  0.51696038200E+03  0.25500000920E-02 0.  1.
    10030    2    1    2    0    0  0.00000000000E+00  0.00000000000E+00  0.22057080939E+04  0.32396288579E+04  0.23727719953E+04 0.  0.
        2    1    3    3  502    0 -0.76122794606E+03  0.90994204346E+03  0.10932745848E+04  0.16132922321E+04  0.25500000920E-02 0.  1.
       -2    1    3    3    0  502  0.76122794606E+03 -0.90994204346E+03  0.11124335092E+04  0.16263366259E+04  0.25500000920E-02 0. -1.
</event>
<event>
 5   0  0.1270613E-04  0.2263550E+04  0.7818609E-02  0.8492433E-01
       -2   -1    0    0    0  501  0.00000000000E+00  0.00000000000E+00  0.11803792850E+04  0.11803792850E+04  0.25500000920E-02 0.  1.
        2   -1    0    0  501    0  0.00000000000E+00  0.00000000000E+00 -0.10851717072E+04  0.10851717072E+04  0.25500000920E-02 0. -1.
    10030    2    1    2    0    0  0.00000000000E+00  0.00000000000E+00  0.95207577734E+02  0.22655509922E+04  0.22635496052E+04 0.  0.
        2    1    3    3  502    0  0.70991070695E+03 -0.73273030854E+03 -0.44277562033E+03  0.11121677782E+04  0.25500000920E-02 0.  1.
       -2    1    3    3    0  502 -0.70991070695E+03  0.73273030854E+03  0.53798319806E+03  0.11533832140E+04  0.25500000920E-02 0. -1.
</event>
<event>
 5   0  0.1270613E-04  0.1135641E+04  0.7818609E-02  0.9171133E-01
        2   -1    0    0  501    0  0.00000000000E+00  0.00000000000E+00  0.96562866398E+03  0.96562866399E+03  0.25500000920E-02 0. -1.
       -2   -1    0    0    0  501  0.00000000000E+00  0.00000000000E+00 -0.33389664414E+03  0.33389664415E+03  0.25500000920E-02 0.  1.
    10030    2    1    2    0    0  0.00000000000E+00  0.00000000000E+00  0.63173201984E+03  0.12995253081E+04  0.11356410884E+04 0.  0.
        2    1    3    3  502    0  0.13186808577E+03  0.37610447191E+03  0.77867733061E+03  0.87474690685E+03  0.25500000920E-02 0. -1.
       -2    1    3    3    0  502 -0.13186808577E+03 -0.37610447191E+03 -0.14694531076E+03  0.42477840129E+03  0.25500000920E-02 0.  1.
</event>
<event>
 5   0  0.1237296E-04  0.1489606E+04  0.7818609E-02  0.8891395E-01
        2   -1    0    0  501    0  0.00000000000E+00  0.00000000000E+00  0.67964620465E+03  0.67964620466E+03  0.25500000920E-02 0. -1.
       -2   -1    0    0    0  501  0.00000000000E+00  0.00000000000E+00 -0.81620607139E+03  0.81620607140E+03  0.25500000920E-02 0.  1.
    10030    2    1    2    0    0  0.00000000000E+00  0.00000000000E+00 -0.13655986674E+03  0.14958522761E+04  0.14896057984E+04 0.  0.
        1    1    3    3  502    0  0.58463175672E+03  0.42812939382E+03 -0.24117126803E+03  0.76370979394E+03  0.50400001928E-02 0.  1.
       -1    1    3    3    0  502 -0.58463175672E+03 -0.42812939382E+03  0.10461140129E+03  0.73214248212E+03  0.50400001928E-02 0. -1.
</event>
<event>
 5   0  0.5843670E-05  0.2289730E+04  0.7818609E-02  0.8481982E-01
       -1   -1    0    0    0  501  0.00000000000E+00  0.00000000000E+00  0.74353582492E+03  0.74353582494E+03  0.50400001928E-02 0. -1.
        1   -1    0    0  501    0  0.00000000000E+00  0.00000000000E+00 -0.17628143565E+04  0.17628143565E+04  0.50400001928E-02 0.  1.
    10030    2    1    2    0    0  0.00000000000E+00  0.00000000000E+00 -0.10192785316E+04  0.25063501815E+04  0.22897297891E+04 0.  0.
        2    1    3    3  502    0  0.93913393651E+03 -0.57684632675E+03 -0.84877508242E+03  0.13910943088E+04  0.25500000920E-02 0.  1.
       -2    1    3    3    0  502 -0.93913393651E+03  0.57684632675E+03 -0.17050344919E+03  0.11152558727E+04  0.25500000920E-02 0. -1.
</event>
<event>
 5   0  0.1281432E-04  0.2287299E+04  0.7818609E-02  0.8482946E-01
        2   -1    0    0  501    0  0.00000000000E+00  0.00000000000E+00  0.63633749792E+03  0.63633749793E+03  0.25500000920E-02 0.  1.
       -2   -1    0    0    0  501  0.00000000000E+00  0.00000000000E+00 -0.20554094242E+04  0.20554094242E+04  0.25500000920E-02 0. -1.
    10030    2    1    2    0    0  0.00000000000E+00  0.00000000000E+00 -0.14190719263E+04  0.26917469222E+04  0.22872989225E+04 0.  0.
        4    1    3    3  502    0  0.81804303911E+03  0.57849906941E+03 -0.60598260062E+02  0.10037576147E+04  0.12699999809E+01 0.  1.
       -4    1    3    3    0  502 -0.81804303911E+03 -0.57849906941E+03 -0.13584736662E+04  0.16879893074E+04  0.12699999809E+01 0. -1.
</event>
<event>
 5   0  0.1234988E-04  0.2238670E+04  0.7818609E-02  0.8502503E-01
        2   -1    0    0  501    0  0.00000000000E+00  0.00000000000E+00  0.16908399065E+04  0.16908399065E+04  0.25500000920E-02 0.  1.
       -2   -1    0    0    0  501  0.00000000000E+00  0.00000000000E+00 -0.74099897300E+03  0.74099897300E+03  0.25500000920E-02 0. -1.
    10030    2    1    2    0    0  0.00000000000E+00  0.00000000000E+00  0.94984093351E+03  0.24318388795E+04  0.22386698142E+04 0.  0.
        5    1    3    3  502    0 -0.72594802644E+03 -0.36428749919E+03  0.13115611227E+04  0.15426991242E+04  0.46999998093E+01 0.  1.
       -5    1    3    3    0  502  0.72594802644E+03  0.36428749919E+03 -0.36172018923E+03  0.88913975530E+03  0.46999998093E+01 0. -1.
</event>
<event>
 5   0  0.5663790E-05  0.2291559E+04  0.7818609E-02  0.8481257E-01
        1   -1    0    0  501    0  0.00000000000E+00  0.00000000000E+00  0.15529339487E+04  0.15529339487E+04  0.50400001928E-02 0. -1.
       -1   -1    0    0    0  501  0.00000000000E+00  0.00000000000E+00 -0.84537472499E+03  0.84537472500E+03  0.50400001928E-02 0.  1.
    10030    2    1    2    0    0  0.00000000000E+00  0.00000000000E+00  0.70755922374E+03  0.23983086737E+04  0.22915593903E+04 0.  0.
        3    1    3    3  502    0 -0.20487192518E+03 -0.64909095845E+03  0.13184093410E+04  0.14837435016E+04  0.10100000352E+00 0. -1.
       -3    1    3    3    0  502  0.20487192518E+03  0.64909095845E+03 -0.61085011725E+03  0.91456517209E+03  0.10100000352E+00 0.  1.
</event>
<event>
 5   0  0.1234988E-04  0.2283012E+04  0.7818609E-02  0.8484650E-01
        2   -1    0    0  501    0  0.00000000000E+00  0.00000000000E+00  0.90949129235E+03  0.90949129236E+03  0.25500000920E-02 0.  1.
       -2   -1    0    0    0  501  0.00000000000E+00  0.00000000000E+00 -0.14327084360E+04  0.14327084360E+04  0.25500000920E-02 0. -1.
    10030    2    1    2    0    0  0.00000000000E+00  0.00000000000E+00 -0.52321714360E+03  0.23421997283E+04  0.22830119115E+04 0.  0.
        5    1    3    3  502    0  0.51274672173E+03 -0.72344520615E+03 -0.99908518948E+03  0.13358426078E+04  0.46999998093E+01 0. -1.
       -5    1    3    3    0  502 -0.51274672173E+03  0.72344520615E+03  0.47586804588E+03  0.10063571205E+04  0.46999998093E+01 0.  1.
</event>
<event>
 5   0  0.5924654E-05  0.2179113E+04  0.7818609E-02  0.8527172E-01
       -1   -1    0    0    0  501  0.00000000000E+00  0.00000000000E+00  0.10142266918E+04  0.10142266918E+04  0.50400001928E-02 0.  1.
        1   -1    0    0  501    0  0.00000000000E+00  0.00000000000E+00 -0.11704814983E+04  0.11704814983E+04  0.50400001928E-02 0. -1.
    10030    2    1    2    0    0  0.00000000000E+00  0.00000000000E+00 -0.15625480649E+03  0.21847081902E+04  0.21791131939E+04 0.  0.
        5    1    3    3  502    0  0.86547979072E+02  0.44221768902E+03  0.91641984061E+03  0.10212220383E+04  0.46999998093E+01 0.  1.
       -5    1    3    3    0  502 -0.86547979072E+02 -0.44221768902E+03 -0.10726746471E+04  0.11634861519E+04  0.46999998093E+01 0. -1.
</event>
<event>
 5   0  0.1234988E-04  0.2332334E+04  0.7818609E-02  0.8465280E-01
       -2   -1    0    0    0  501  0.00000000000E+00  0.00000000000E+00  0.94596615785E+03  0.94596615786E+03  0.25500000920E-02 0.  1.
        2   -1    0    0  501    0  0.00000000000E+00  0.00000000000E+00 -0.14376262717E+04  0.14376262717E+04  0.25500000920E-02 0. -1.
    10030    2    1    2    0    0  0.00000000000E+00  0.00000000000E+00 -0.49166011380E+03  0.23835924295E+04  0.23323342819E+04 0.  0.
        5    1    3    3  502    0 -0.11580428044E+04 -0.12798891078E+03 -0.19494203248E+03  0.11812996166E+04  0.46999998093E+01 0.  1.
       -5    1    3    3    0  502  0.11580428044E+04  0.12798891078E+03 -0.29671808133E+03  0.12022928129E+04  0.46999998093E+01 0. -1.
</event>
<event>
 5   0  0.1270613E-04  0.2316306E+04  0.7818609E-02  0.8471519E-01
        2   -1    0    0  501    0  0.00000000000E+00  0.00000000000E+00  0.16868514083E+04  0.16868514083E+04  0.25500000920E-02 0. -1.
       -2   -1    0    0    0  501  0.00000000000E+00  0.00000000000E+00 -0.79516113936E+03  0.79516113936E+03  0.25500000920E-02 0.  1.
    10030    2    1    2    0    0  0.00000000000E+00  0.00000000000E+00  0.89169026894E+03  0.24820125477E+04  0.23163062731E+04 0.  0.
        2    1    3    3  502    0 -0.26514256204E+03  0.38143013212E+03 -0.69096088791E+03  0.83259622418E+03  0.25500000920E-02 0.  1.
       -2    1    3    3    0  502  0.26514256204E+03 -0.38143013212E+03  0.15826511568E+04  0.16494163235E+04  0.25500000920E-02 0. -1.
</event>
<event>
 5   0  0.5642466E-05  0.2216742E+04  0.7818609E-02  0.8511492E-01
       -1   -1    0    0    0  501  0.00000000000E+00  0.00000000000E+00  0.58629119618E+03  0.58629119620E+03  0.50400001928E-02 0.  1.
        1   -1    0    0  501    0  0.00000000000E+00  0.00000000000E+00 -0.20953511501E+04  0.20953511501E+04  0.50400001928E-02 0. -1.
    10030    2    1    2    0    0  0.00000000000E+00  0.00000000000E+00 -0.15090599539E+04  0.26816423463E+04  0.22167416920E+04 0.  0.
        1    1    3    3  502    0 -0.25186491196E+03  0.86916614045E+02 -0.20560337195E+04  0.20732257686E+04  0.50400001928E-02 0. -1.
       -1    1    3    3    0  502  0.25186491196E+03 -0.86916614045E+02  0.54697376565E+03  0.60841657769E+03  0.50400001928E-02 0.  1.
</event>
<event>
 5   0  0.5642466E-05  0.2422112E+04  0.7818609E-02  0.8431271E-01
       -1   -1    0    0    0  501  0.00000000000E+00  0.00000000000E+00  0.18843861340E+04  0.18843861341E+04  0.50400001928E-02 0. -1.
        1   -1    0    0  501    0  0.00000000000E+00  0.00000000000E+00 -0.77832091477E+03  0.77832091478E+03  0.50400001928E-02 0.  1.
    10030    2    1    2    0    0  0.00000000000E+00  0.00000000000E+00  0.11060652193E+04  0.26627070488E+04  0.24221124166E+04 0.  0.
        1    1    3    3  502    0  0.94569422994E+03 -0.29719411957E+03  0.13178356883E+04  0.16490460341E+04  0.50400001928E-02 0. -1.
       -1    1    3    3    0  502 -0.94569422994E+03  0.29719411957E+03 -0.21177046900E+03  0.10136610147E+04  0.50400001928E-02 0.  1.
</event>
<event>
 5   0  0.1281432E-04  0.1746771E+04  0.7818609E-02  0.8735130E-01
        2   -1    0    0  501    0  0.00000000000E+00  0.00000000000E+00  0.17463544479E+04  0.17463544479E+04  0.25500000920E-02 0.  1.
       -2   -1    0    0    0  501  0.00000000000E+00  0.00000000000E+00 -0.43679676531E+03  0.43679676532E+03  0.25500000920E-02 0. -1.
    10030    2    1    2    0    0  0.00000000000E+00  0.00000000000E+00  0.13095576825E+04  0.21831512132E+04  0.17467707050E+04 0.  0.
        4    1    3    3  502    0 -0.55739180158E+03  0.27264100356E+03 -0.11341059782E+03  0.63077913241E+03  0.12699999809E+01 0. -1.
       -4    1    3    3    0  502  0.55739180158E+03 -0.27264100356E+03  0.14229682804E+04  0.15523720808E+04  0.12699999809E+01 0.  1.
</event>
<event>
 5   0  0.1281432E-04  0.2276533E+04  0.7818609E-02  0.8487232E-01
       -2   -1    0    0    0  501  0.00000000000E+00  0.00000000000E+00  0.98148121726E+03  0.98148121727E+03  0.25500000920E-02 0. -1.
        2   -1    0    0  501    0  0.00000000000E+00  0.00000000000E+00 -0.13200975107E+04  0.13200975107E+04  0.25500000920E-02 0.  1.
    10030    2    1    2    0    0  0.00000000000E+00  0.00000000000E+00 -0.33861629342E+03  0.23015787280E+04  0.22765332519E+04 0.  0.
        4    1    3    3  502    0  0.37201684329E+02  0.21677759949E+03 -0.12984085529E+04  0.13169065555E+04  0.12699999809E+01 0.  1.
       -4    1    3    3    0  502 -0.37201684329E+02 -0.21677759949E+03  0.95979225944E+03  0.98467217242E+03  0.12699999809E+01 0. -1.
</event>
<event>
 5   0  0.1237296E-04  0.2331340E+04  0.7818609E-02  0.8465666E-01
        2   -1    0    0  501    0  0.00000000000E+00  0.00000000000E+00  0.10018676847E+04  0.10018676847E+04  0.25500000920E-02 0. -1.
       -2   -1    0    0    0  501  0.00000000000E+00  0.00000000000E+00 -0.13562532626E+04  0.13562532626E+04  0.25500000920E-02 0.  1.
    10030    2    1    2    0    0  0.00000000000E+00  0.00000000000E+00 -0.35438557790E+03  0.23581209473E+04  0.23313398003E+04 0.  0.
        1    1    3    3  502    0  0.28685707174E+03 -0.85395464120E+03  0.57107607035E+03  0.10666083569E+04  0.50400001928E-02 0. -1.
       -1    1    3    3    0  502 -0.28685707174E+03  0.85395464120E+03 -0.92546164825E+03  0.12915125904E+04  0.50400001928E-02 0.  1.
</event>
<event>
 5   0  0.1234988E-04  0.2278800E+04  0.7818609E-02  0.8486327E-01
       -2   -1    0    0    0  501  0.00000000000E+00  0.00000000000E+00  0.12879064829E+04  0.12879064829E+04  0.25500000920E-02 0.  1.
        2   -1    0    0  501    0  0.00000000000E+00  0.00000000000E+00 -0.10080179683E+04  0.10080179683E+04  0.25500000920E-02 0. -1.
    10030    2    1    2    0    0  0.00000000000E+00  0.00000000000E+00  0.27988851456E+03  0.22959244512E+04  0.22788004531E+04 0.  0.
        5    1    3    3  502    0 -0.27102444599E+03 -0.45889637159E+03 -0.87468368037E+03  0.10242723080E+04  0.46999998093E+01 0. -1.
       -5    1    3    3    0  502  0.27102444599E+03  0.45889637159E+03  0.11545721949E+04  0.12716521433E+04  0.46999998093E+01 0.  1.
</event>
<event>
 5   0  0.5663790E-05  0.2124995E+04  0.7818609E-02  0.8550312E-01
        1   -1    0    0  501    0  0.00000000000E+00  0.00000000000E+00  0.24868613315E+04  0.24868613315E+04  0.50400001928E-02 0. -1.
       -1   -1    0    0    0  501  0.00000000000E+00  0.00000000000E+00 -0.45394616998E+03  0.45394617001E+03  0.50400001928E-02 0.  1.
    10030    2    1    2    0    0  0.00000000000E+00  0.00000000000E+00  0.20329151615E+04  0.29408075015E+04  0.21249952252E+04 0.  0.
        3    1    3    3  502    0  0.37105711077E+03 -0.53889299044E+03  0.21749933439E+04  0.22712738917E+04  0.10100000352E+00 0. -1.
       -3    1    3    3    0  502 -0.37105711077E+03  0.53889299044E+03 -0.14207818242E+03  0.66953360985E+03  0.10100000352E+00 0.  1.
</event>
<event>
 5   0  0.5642466E-05  0.2265035E+04  0.7818609E-02  0.8491836E-01
        1   -1    0    0  501    0  0.00000000000E+00  0.00000000000E+00  0.25358939700E+04  0.25358939700E+04  0.50400001928E-02 0. -1.
       -1   -1    0    0    0  501  0.00000000000E+00  0.00000000000E+00 -0.50577683679E+03  0.50577683682E+03  0.50400001928E-02 0.  1.
    10030    2    1    2    0    0  0.00000000000E+00  0.00000000000E+00  0.20301171332E+04  0.30416708068E+04  0.22650354793E+04 0.  0.
        1    1    3    3  502    0  0.71202925783E+03  0.58354834604E+03  0.19008323163E+04  0.21120316832E+04  0.50400001928E-02 0. -1.
       -1    1    3    3    0  502 -0.71202925783E+03 -0.58354834604E+03  0.12928481686E+03  0.92963912357E+03  0.50400001928E-02 0.  1.
</event>
<event>
 5   0  0.1270613E-04  0.2278204E+04  0.7818609E-02  0.8486565E-01
        2   -1    0    0  501    0  0.00000000000E+00  0.00000000000E+00  0.11493898478E+04  0.11493898478E+04  0.25500000920E-02 0.  1.
       -2   -1    0    0    0  501  0.00000000000E+00  0.00000000000E+00 -0.11289058971E+04  0.11289058971E+04  0.25500000920E-02 0. -1.
    10030    2    1    2    0    0  0.00000000000E+00  0.00000000000E+00  0.20483950705E+02  0.22782957449E+04  0.22782036584E+04 0.  0.
        2    1    3    3  502    0 -0.74395185968E+03 -0.46189770204E+02  0.87164495581E+03  0.11468926686E+04  0.25500000920E-02 0.  1.
       -2    1    3    3    0  502  0.74395185968E+03  0.46189770204E+02 -0.85116100510E+03  0.11314030763E+04  0.25500000920E-02 0. -1.
</event>
<event>
 5   0  0.5924654E-05  0.2427878E+04  0.7818609E-02  0.8429140E-01
       -1   -1    0    0    0  501  0.00000000000E+00  0.00000000000E+00  0.11262817612E+04  0.11262817612E+04  0.50400001928E-02 0. -1.
        1   -1    0    0  501    0  0.00000000000E+00  0.00000000000E+00 -0.13084180752E+04  0.13084180753E+04  0.50400001928E-02 0.  1.
    10030    2    1    2    0    0  0.00000000000E+00  0.00000000000E+00 -0.18213631407E+03  0.24346998365E+04  0.24278776033E+04 0.  0.
        5    1    3    3  502    0 -0.86136252894E+03  0.15490488619E+01 -0.94885324737E+03  0.12815195593E+04  0.46999998093E+01 0.  1.
       -5    1    3    3    0  502  0.86136252894E+03 -0.15490488619E+01  0.76671693330E+03  0.11531802772E+04  0.46999998093E+01 0. -1.
</event>
<event>
 5   0  0.5642466E-05  0.2265874E+04  0.7818609E-02  0.8491499E-01
       -1   -1    0    0    0  501  0.00000000000E+00  0.00000000000E+00  0.12910971018E+04  0.12910971018E+04  0.50400001928E-02 0. -1.
        1   -1    0    0  501    0  0.00000000000E+00  0.00000000000E+00 -0.99415186883E+03  0.99415186884E+03  0.50400001928E-02 0.  1.
    10030    2    1    2    0    0  0.00000000000E+00  0.00000000000E+00  0.29694523300E+03  0.22852489707E+04  0.22658743095E+04 0.  0.
        1    1    3    3  502    0  0.12271725970E+03 -0.82044771485E+03 -0.62971594064E+03  0.10415066704E+04  0.50400001928E-02 0.  1.
       -1    1    3    3    0  502 -0.12271725970E+03  0.82044771485E+03  0.92666117364E+03  0.12437423002E+04  0.50400001928E-02 0. -1.
</event>
<event>
 5   0  0.5843670E-05  0.2328163E+04  0.7818609E-02  0.8466899E-01
        1   -1    0    0  501    0  0.00000000000E+00  0.00000000000E+00  0.14954307900E+04  0.14954307900E+04  0.50400001928E-02 0. -1.
       -1   -1    0    0    0  501  0.00000000000E+00  0.00000000000E+00 -0.90615073476E+03  0.90615073477E+03  0.50400001928E-02 0.  1.
    10030    2    1    2    0    0  0.00000000000E+00  0.00000000000E+00  0.58928005527E+03  0.24015815248E+04  0.23281629747E+04 0.  0.
        2    1    3    3  502    0 -0.66316642702E+03 -0.63243135666E+03 -0.44586025174E+03  0.10190929766E+04  0.25500000920E-02 0.  1.
       -2    1    3    3    0  502  0.66316642702E+03  0.63243135666E+03  0.10351403070E+04  0.13824885482E+04  0.25500000920E-02 0. -1.
</event>
<event>
 5   0  0.1270613E-04  0.1934236E+04  0.7818609E-02  0.8638000E-01
       -2   -1    0    0    0  501  0.00000000000E+00  0.00000000000E+00  0.67286253588E+03  0.67286253589E+03  0.25500000920E-02 0. -1.
        2   -1    0    0  501    0  0.00000000000E+00  0.00000000000E+00 -0.13900566986E+04  0.13900566986E+04  0.25500000920E-02 0.  1.
    10030    2    1    2    0    0  0.00000000000E+00  0.00000000000E+00 -0.71719416273E+03  0.20629192345E+04  0.19342358442E+04 0.  0.
        2    1    3    3  502    0 -0.12924861164E+03  0.65996108869E+03 -0.10998642921E+04  0.12891684542E+04  0.25500000920E-02 0.  1.
       -2    1    3    3    0  502  0.12924861164E+03 -0.65996108869E+03  0.38267012934E+03  0.77375078035E+03  0.25500000920E-02 0. -1.
</event>
<event>
 5   0  0.1257524E-04  0.2338915E+04  0.7818609E-02  0.8462734E-01
       -2   -1    0    0    0  501  0.00000000000E+00  0.00000000000E+00  0.12029993443E+04  0.12029993443E+04  0.25500000920E-02 0. -1.
        2   -1    0    0  501    0  0.00000000000E+00  0.00000000000E+00 -0.11368504110E+04  0.11368504110E+04  0.25500000920E-02 0.  1.
    10030    2    1    2    0    0  0.00000000000E+00  0.00000000000E+00  0.66148933258E+02  0.23398497553E+04  0.23389145337E+04 0.  0.
        3    1    3    3  502    0  0.56914662976E+03  0.94115006080E+03 -0.36449979767E+03  0.11586852186E+04  0.10100000352E+00 0.  1.
       -3    1    3    3    0  502 -0.56914662976E+03 -0.94115006080E+03  0.43064873093E+03  0.11811645367E+04  0.10100000352E+00 0. -1.
</event>
<event>
 5   0  0.5924654E-05  0.2195224E+04  0.7818609E-02  0.8520418E-01
       -1   -1    0    0    0  501  0.00000000000E+00  0.00000000000E+00  0.74088337006E+03  0.74088337008E+03  0.50400001928E-02 0.  1.
        1   -1    0    0  501    0  0.00000000000E+00  0.00000000000E+00 -0.16261029692E+04  0.16261029692E+04  0.50400001928E-02 0. -1.
    10030    2    1    2    0    0  0.00000000000E+00  0.00000000000E+00 -0.88521959915E+03  0.23669863393E+04  0.21952244969E+04 0.  0.
        5    1    3    3  502    0  0.21532212909E+03 -0.10758669868E+04 -0.47454411170E+03  0.11954361532E+04  0.46999998093E+01 0. -1.
       -5    1    3    3    0  502 -0.21532212909E+03  0.10758669868E+04 -0.41067548745E+03  0.11715501861E+04  0.46999998093E+01 0.  1.
</event>
<event>
 5   0  0.5642466E-05  0.2168917E+04  0.7818609E-02  0.8531478E-01
       -1   -1    0    0    0  501  0.00000000000E+00  0.00000000000E+00  0.98617676535E+03  0.98617676536E+03  0.50400001928E-02 0. -1.
        1   -1    0    0  501    0  0.00000000000E+00  0.00000000000E+00 -0.11925350104E+04  0.11925350104E+04  0.50400001928E-02 0.  1.
    10030    2    1    2    0    0  0.00000000000E+00  0.00000000000E+00 -0.20635824502E+03  0.21787117757E+04  0.21689170746E+04 0.  0.
        1    1    3    3  502    0 -0.20091602702E+02  0.10476422877E+04  0.17753282322E+03  0.10627680550E+04  0.50400001928E-02 0.  1.
       -1    1    3    3    0  502  0.20091602702E+02 -0.10476422877E+04 -0.38389106824E+03  0.11159437207E+04  0.50400001928E-02 0. -1.
</event>
<event>
 5   0  0.5663790E-05  0.2144162E+04  0.7818609E-02  0.8542036E-01
        1   -1    0    0  501    0  0.00000000000E+00  0.00000000000E+00  0.16562703786E+04  0.16562703786E+04  0.50400001928E-02 0. -1.
       -1   -1    0    0    0  501  0.00000000000E+00  0.00000000000E+00 -0.69394295312E+03  0.69394295313E+03  0.50400001928E-02 0.  1.
    10030    2    1    2    0    0  0.00000000000E+00  0.00000000000E+00  0.96232742544E+03  0.23502133317E+04  0.21441615216E+04 0.  0.
        3    1    3    3  502    0 -0.42875767377E+03 -0.93980799606E+03  0.79558356057E+03  0.13038502308E+04  0.10100000352E+00 0. -1.
       -3    1    3    3    0  502  0.42875767377E+03  0.93980799606E+03  0.16674386488E+03  0.10463631009E+04  0.10100000352E+00 0.  1.
</event>
<event>
 5   0  0.1234988E-04  0.2302798E+04  0.7818609E-02  0.8476819E-01
       -2   -1    0    0    0  501  0.00000000000E+00  0.00000000000E+00  0.74203132919E+03  0.74203132919E+03  0.25500000920E-02 0.  1.
        2   -1    0    0  501    0  0.00000000000E+00  0.00000000000E+00 -0.17866090854E+04  0.17866090854E+04  0.25500000920E-02 0. -1.
    10030    2    1    2    0    0  0.00000000000E+00  0.00000000000E+00 -0.10445777562E+04  0.25286404146E+04  0.23027982234E+04 0.  0.
        5    1    3    3  502    0 -0.54389308211E+03  0.34779817003E+03 -0.15691588008E+04  0.16967806823E+04  0.46999998093E+01 0. -1.
       -5    1    3    3    0  502  0.54389308211E+03 -0.34779817003E+03  0.52458104457E+03  0.83185973227E+03  0.46999998093E+01 0.  1.
</event>
<event>
 5   0  0.4489500E-05  0.2298014E+04  0.7818609E-02  0.8478705E-01
        3   -1    0    0  501    0  0.00000000000E+00  0.00000000000E+00  0.20246542337E+04  0.20246542362E+04  0.10100000352E+00 0. -1.
       -3   -1    0    0    0  501  0.00000000000E+00  0.00000000000E+00 -0.65207015898E+03  0.65207016680E+03  0.10100000352E+00 0.  1.
    10030    2    1    2    0    0  0.00000000000E+00  0.00000000000E+00  0.13725840747E+04  0.26767244030E+04  0.22980135960E+04 0.  0.
        2    1    3    3  502    0 -0.26732280366E+03  0.30020218725E+03 -0.56749610712E+03  0.69543847046E+03  0.25500000920E-02 0.  1.
       -2    1    3    3    0  502  0.26732280366E+03 -0.30020218725E+03  0.19400801819E+04  0.19812859326E+04  0.25500000920E-02 0. -1.
</event>
<event>
 5   0  0.1270613E-04  0.2291088E+04  0.7818609E-02  0.8481443E-01
        2   -1    0    0  501    0  0.00000000000E+00  0.00000000000E+00  0.78255004821E+03  0.78255004821E+03  0.25500000920E-02 0. -1.
       -2   -1    0    0    0  501  0.00000000000E+00  0.00000000000E+00 -0.16769170175E+04  0.16769170175E+04  0.25500000920E-02 0.  1.
    10030    2    1    2    0    0  0.00000000000E+00  0.00000000000E+00 -0.89436696929E+03  0.24594670657E+04  0.22910883814E+04 0.  0.
        2    1    3    3  502    0 -0.88447466493E+03 -0.21847154848E+03  0.29829239246E+03  0.95864675549E+03  0.25500000920E-02 0. -1.
       -2    1    3    3    0  502  0.88447466493E+03  0.21847154848E+03 -0.11926593618E+04  0.15008203102E+04  0.25500000920E-02 0.  1.
</event>
<event>
 5   0  0.1270613E-04  0.2296035E+04  0.7818609E-02  0.8479486E-01
        2   -1    0    0  501    0  0.00000000000E+00  0.00000000000E+00  0.14281232256E+04  0.14281232256E+04  0.25500000920E-02 0.  1.
       -2   -1    0    0    0  501  0.00000000000E+00  0.00000000000E+00 -0.92285046700E+03  0.92285046701E+03  0.25500000920E-02 0. -1.
    10030    2    1    2    0    0  0.00000000000E+00  0.00000000000E+00  0.50527275858E+03  0.23509736926E+04  0.22960350047E+04 0.  0.
        2    1    3    3  502    0 -0.11205102635E+04  0.20295111447E+03  0.10350884980E+03  0.11434362630E+04  0.25500000920E-02 0. -1.
       -2    1    3    3    0  502  0.11205102635E+04 -0.20295111447E+03  0.40176390878E+03  0.12075374296E+04  0.25500000920E-02 0.  1.
</event>
<event>
 5   0  0.1234988E-04  0.2284280E+04  0.7818609E-02  0.8484145E-01
       -2   -1    0    0    0  501  0.00000000000E+00  0.00000000000E+00  0.12226215695E+04  0.12226215695E+04  0.25500000920E-02 0. -1.
        2   -1    0    0  501    0  0.00000000000E+00  0.00000000000E+00 -0.10669565981E+04  0.10669565981E+04  0.25500000920E-02 0.  1.
    10030    2    1    2    0    0  0.00000000000E+00  0.00000000000E+00  0.15566497145E+03  0.22895781676E+04  0.22842803248E+04 0.  0.
        5    1    3    3  502    0  0.89854438538E+03 -0.56089896309E+03  0.50599108382E+03  0.11738989421E+04  0.46999998093E+01 0. -1.
       -5    1    3    3    0  502 -0.89854438538E+03  0.56089896309E+03 -0.35032611237E+03  0.11156792255E+04  0.46999998093E+01 0.  1.
</event>
<event>
 5   0  0.1237296E-04  0.2400542E+04  0.7818609E-02  0.8439301E-01
        2   -1    0    0  501    0  0.00000000000E+00  0.00000000000E+00  0.19342840748E+04  0.19342840748E+04  0.25500000920E-02 0. -1.
       -2   -1    0    0    0  501  0.00000000000E+00  0.00000000000E+00 -0.74479767610E+03  0.74479767610E+03  0.25500000920E-02 0.  1.
    10030    2    1    2    0    0  0.00000000000E+00  0.00000000000E+00  0.11894863987E+04  0.26790817509E+04  0.24005418420E+04 0.  0.
        1    1    3    3  502    0 -0.62091268554E+03 -0.69694858915E+03 -0.24738446940E+03  0.96564433137E+03  0.50400001928E-02 0.  1.
       -1    1    3    3    0  502  0.62091268554E+03  0.69694858915E+03  0.14368708681E+04  0.17134374195E+04  0.50400001928E-02 0. -1.
</event>
<event>
 5   0  0.1270613E-04  0.1276591E+04  0.7818609E-02  0.9048338E-01
       -2   -1    0    0    0  501  0.00000000000E+00  0.00000000000E+00  0.68184018993E+03  0.68184018993E+03  0.25500000920E-02 0.  1.
        2   -1    0    0  501    0  0.00000000000E+00  0.00000000000E+00 -0.59753136455E+03  0.59753136455E+03  0.25500000920E-02 0. -1.
    10030    2    1    2    0    0  0.00000000000E+00  0.00000000000E+00  0.84308825381E+02  0.12793715545E+04  0.12765906142E+04 0.  0.
        2    1    3    3  502    0 -0.39868895171E+03  0.24215750855E+03  0.47879580659E+03  0.66845984440E+03  0.25500000920E-02 0.  1.
       -2    1    3    3    0  502  0.39868895171E+03 -0.24215750855E+03 -0.39448698121E+03  0.61091171008E+03  0.25500000920E-02 0. -1.
</event>
<event>
 5   0  0.1237296E-04  0.2315070E+04  0.7818609E-02  0.8472003E-01
       -2   -1    0    0    0  501  0.00000000000E+00  0.00000000000E+00  0.19676094071E+04  0.19676094071E+04  0.25500000920E-02 0.  1.
        2   -1    0    0  501    0  0.00000000000E+00  0.00000000000E+00 -0.68097204294E+03  0.68097204295E+03  0.25500000920E-02 0. -1.
    10030    2    1    2    0    0  0.00000000000E+00  0.00000000000E+00  0.12866373641E+04  0.26485814500E+04  0.23150697593E+04 0.  0.
        1    1    3    3  502    0 -0.33725725432E+03 -0.55158684069E+02  0.19085810759E+04  0.19389344134E+04  0.50400001928E-02 0.  1.
       -1    1    3    3    0  502  0.33725725432E+03  0.55158684069E+02 -0.62194371176E+03  0.70964703667E+03  0.50400001928E-02 0. -1.
</event>
<event>
 5   0  0.5632156E-05  0.2233956E+04  0.7818609E-02  0.8504426E-01
       -1   -1    0    0    0  501  0.00000000000E+00  0.00000000000E+00  0.14949448347E+04  0.14949448347E+04  0.50400001928E-02 0.  1.
        1   -1    0    0  501    0  0.00000000000E+00  0.00000000000E+00 -0.83457244942E+03  0.83457244944E+03  0.50400001928E-02 0. -1.
    10030    2    1    2    0    0  0.00000000000E+00  0.00000000000E+00  0.66037238527E+03  0.23295172841E+04  0.22339559284E+04 0.  0.
        4    1    3    3  502    0 -0.97952830112E+02  0.65974377575E+03 -0.60412172280E+03  0.89990070309E+03  0.12699999809E+01 0. -1.
       -4    1    3    3    0  502  0.97952830112E+02 -0.65974377575E+03  0.12644941081E+04  0.14296165810E+04  0.12699999809E+01 0.  1.
</event>
<event>
 5   0  0.5632156E-05  0.2286284E+04  0.7818609E-02  0.8483349E-01
       -1   -1    0    0    0  501  0.00000000000E+00  0.00000000000E+00  0.13530811028E+04  0.13530811028E+04  0.50400001928E-02 0.  1.
        1   -1    0    0  501    0  0.00000000000E+00  0.00000000000E+00 -0.96577588272E+03  0.96577588273E+03  0.50400001928E-02 0. -1.
    10030    2    1    2    0    0  0.00000000000E+00  0.00000000000E+00  0.38730522012E+03  0.23188569856E+04  0.22862835314E+04 0.  0.
        4    1    3    3  502    0  0.76458622963E+03 -0.34022074724E+03 -0.59617795751E+03  0.10275076785E+04  0.12699999809E+01 0. -1.
       -4    1    3    3    0  502 -0.76458622963E+03  0.34022074724E+03  0.98348317763E+03  0.12913493071E+04  0.12699999809E+01 0.  1.
</event>
<event>
 5   0  0.5632156E-05  0.2247999E+04  0.7818609E-02  0.8498711E-01
        1   -1    0    0  501    0  0.00000000000E+00  0.00000000000E+00  0.83977719638E+03  0.83977719639E+03  0.50400001928E-02 0.  1.
       -1   -1    0    0    0  501  0.00000000000E+00  0.00000000000E+00 -0.15044164510E+04  0.15044164510E+04  0.50400001928E-02 0. -1.
    10030    2    1    2    0    0  0.00000000000E+00  0.00000000000E+00 -0.66463925464E+03  0.23441936474E+04  0.22479987806E+04 0.  0.
        4    1    3    3  502    0  0.26398852700E+03 -0.52742057303E+03  0.66544730146E+03  0.88920421005E+03  0.12699999809E+01 0.  1.
       -4    1    3    3    0  502 -0.26398852700E+03  0.52742057303E+03 -0.13300865561E+04  0.14549894374E+04  0.12699999809E+01 0. -1.
</event>
<event>
 5   0  0.1281432E-04  0.2223333E+04  0.7818609E-02  0.8508779E-01
       -2   -1    0    0    0  501  0.00000000000E+00  0.00000000000E+00  0.11210102151E+04  0.11210102151E+04  0.25500000920E-02 0.  1.
        2   -1    0    0  501    0  0.00000000000E+00  0.00000000000E+00 -0.11024003104E+04  0.11024003104E+04  0.25500000920E-02 0. -1.
    10030    2    1    2    0    0  0.00000000000E+00  0.00000000000E+00  0.18609904739E+02  0.22234105255E+04  0.22233326419E+04 0.  0.
        4    1    3    3  502    0  0.87509383442E+03  0.60757146789E+03  0.32691344648E+03  0.11143636399E+04  0.12699999809E+01 0.  1.
       -4    1    3    3    0  502 -0.87509383442E+03 -0.60757146789E+03 -0.30830354174E+03  0.11090468856E+04  0.12699999809E+01 0. -1.
</event>
<event>
 5   0  0.5924654E-05  0.2360270E+04  0.7818609E-02  0.8454529E-01
        1   -1    0    0  501    0  0.00000000000E+00  0.00000000000E+00  0.81338550211E+03  0.81338550212E+03  0.50400001928E-02 0.  1.
       -1   -1    0    0    0  501  0.00000000000E+00  0.00000000000E+00 -0.17122497801E+04  0.17122497802E+04  0.50400001928E-02 0. -1.
    10030    2    1    2    0    0  0.00000000000E+00  0.00000000000E+00 -0.89886427804E+03  0.25256352823E+04  0.23602704482E+04 0.  0.
        5    1    3    3  502    0  0.84805250849E+03 -0.61021387362E+03 -0.10366446147E+04  0.14718043946E+04  0.46999998093E+01 0. -1.
       -5    1    3    3    0  502 -0.84805250849E+03  0.61021387362E+03  0.13778033665E+03  0.10538308877E+04  0.46999998093E+01 0.  1.
</event>
<event>
 5   0  0.5843670E-05  0.1198546E+04  0.7818609E-02  0.9114130E-01
       -1   -1    0    0    0  501  0.00000000000E+00  0.00000000000E+00  0.60383292530E+03  0.60383292532E+03  0.50400001928E-02 0.  1.
        1   -1    0    0  501    0  0.00000000000E+00  0.00000000000E+00 -0.59474792864E+03  0.59474792866E+03  0.50400001928E-02 0. -1.
    10030    2    1    2    0    0  0.00000000000E+00  0.00000000000E+00  0.90849966626E+01  0.11985808540E+04  0.11985464223E+04 0.  0.
        2    1    3    3  502    0 -0.16900201050E+03 -0.78790263760E+02 -0.56499892502E+03  0.59497341999E+03  0.25500000920E-02 0. -1.
       -2    1    3    3    0  502  0.16900201050E+03  0.78790263760E+02  0.57408392169E+03  0.60360743398E+03  0.25500000920E-02 0.  1.
</event>
<event>
 5   0  0.5632156E-05  0.2388350E+04  0.7818609E-02  0.8443878E-01
        1   -1    0    0  501    0  0.00000000000E+00  0.00000000000E+00  0.13805260497E+04  0.13805260497E+04  0.50400001928E-02 0. -1.
       -1   -1    0    0    0  501  0.00000000000E+00  0.00000000000E+00 -0.10329789746E+04  0.10329789746E+04  0.50400001928E-02 0.  1.
    10030    2    1    2    0    0  0.00000000000E+00  0.00000000000E+00  0.34754707510E+03  0.24135050242E+04  0.23883503790E+04 0.  0.
        4    1    3    3  502    0 -0.28217043026E+03  0.18046249974E+03 -0.98453881822E+03  0.10399544043E+04  0.12699999809E+01 0.  1.
       -4    1    3    3    0  502  0.28217043026E+03 -0.18046249974E+03  0.13320858933E+04  0.13735506200E+04  0.12699999809E+01 0. -1.
</event>
<event>
 5   0  0.5632156E-05  0.1587335E+04  0.7818609E-02  0.8828367E-01
       -1   -1    0    0    0  501  0.00000000000E+00  0.00000000000E+00  0.13329757803E+04  0.13329757803E+04  0.50400001928E-02 0. -1.
        1   -1    0    0  501    0  0.00000000000E+00  0.00000000000E+00 -0.47255751295E+03  0.47255751298E+03  0.50400001928E-02 0.  1.
    10030    2    1    2    0    0  0.00000000000E+00  0.00000000000E+00  0.86041826737E+03  0.18055332933E+04  0.15873345200E+04 0.  0.
        4    1    3    3  502    0  0.81199291428E+02  0.16786180469E+03 -0.44728628479E+03  0.48460039606E+03  0.12699999809E+01 0.  1.
       -4    1    3    3    0  502 -0.81199291428E+02 -0.16786180469E+03  0.13077045522E+04  0.13209328973E+04  0.12699999809E+01 0. -1.
</event>
<event>
 5   0  0.1257524E-04  0.2306499E+04  0.7818609E-02  0.8475363E-01
        2   -1    0    0  501    0  0.00000000000E+00  0.00000000000E+00  0.22888517590E+04  0.22888517590E+04  0.25500000920E-02 0.  1.
       -2   -1    0    0    0  501  0.00000000000E+00  0.00000000000E+00 -0.58107057078E+03  0.58107057079E+03  0.25500000920E-02 0. -1.
    10030    2    1    2    0    0  0.00000000000E+00  0.00000000000E+00  0.17077811882E+04  0.28699223298E+04  0.23064989903E+04 0.  0.
        3    1    3    3  502    0 -0.82477105385E+03  0.31079090420E+03 -0.71524984008E+02  0.88428169208E+03  0.10100000352E+00 0. -1.
       -3    1    3    3    0  502  0.82477105385E+03 -0.31079090420E+03  0.17793061722E+04  0.19856406377E+04  0.10100000352E+00 0.  1.
</event>
<event>
 5   0  0.5843670E-05  0.2226483E+04  0.7818609E-02  0.8507485E-01
       -1   -1    0    0    0  501  0.00000000000E+00  0.00000000000E+00  0.17775489240E+04  0.17775489240E+04  0.50400001928E-02 0.  1.
        1   -1    0    0  501    0  0.00000000000E+00  0.00000000000E+00 -0.69719975067E+03  0.69719975069E+03  0.50400001928E-02 0. -1.
    10030    2    1    2    0    0  0.00000000000E+00  0.00000000000E+00  0.10803491733E+04  0.24747486747E+04  0.22264830264E+04 0.  0.
        2    1    3    3  502    0 -0.87607601582E+03 -0.37510333783E+03  0.11797444645E+04  0.15165779574E+04  0.25500000920E-02 0.  1.
       -2    1    3    3    0  502  0.87607601582E+03  0.37510333783E+03 -0.99395291115E+02  0.95817071728E+03  0.25500000920E-02 0. -1.
</event>
<event>
 5   0  0.1257524E-04  0.2202726E+04  0.7818609E-02  0.8517295E-01
        2   -1    0    0  501    0  0.00000000000E+00  0.00000000000E+00  0.13042827488E+04  0.13042827488E+04  0.25500000920E-02 0.  1.
       -2   -1    0    0    0  501  0.00000000000E+00  0.00000000000E+00 -0.93001300149E+03  0.93001300150E+03  0.25500000920E-02 0. -1.
    10030    2    1    2    0    0  0.00000000000E+00  0.00000000000E+00  0.37426974731E+03  0.22342957503E+04  0.22027255063E+04 0.  0.
        3    1    3    3  502    0 -0.68035992795E+03 -0.17700489937E+03 -0.67282488937E+03  0.97309491208E+03  0.10100000352E+00 0. -1.
       -3    1    3    3    0  502  0.68035992795E+03  0.17700489937E+03  0.10470946367E+04  0.12612008382E+04  0.10100000352E+00 0.  1.
</event>
<event>
 5   0  0.5924654E-05  0.2276651E+04  0.7818609E-02  0.8487185E-01
       -1   -1    0    0    0  501  0.00000000000E+00  0.00000000000E+00  0.16832335700E+04  0.16832335700E+04  0.50400001928E-02 0. -1.
        1   -1    0    0  501    0  0.00000000000E+00  0.00000000000E+00 -0.76981887610E+03  0.76981887612E+03  0.50400001928E-02 0.  1.
    10030    2    1    2    0    0  0.00000000000E+00  0.00000000000E+00  0.91341469391E+03  0.24530524461E+04  0.22766510274E+04 0.  0.
        5    1    3    3  502    0 -0.10510564583E+04 -0.19461337940E+03  0.87839955710E+03  0.13835468614E+04  0.46999998093E+01 0. -1.
       -5    1    3    3    0  502  0.10510564583E+04  0.19461337940E+03  0.35015136814E+02  0.10695055847E+04  0.46999998093E+01 0.  1.
</event>
<event>
 5   0  0.1257524E-04  0.2304328E+04  0.7818609E-02  0.8476217E-01
       -2   -1    0    0    0  501  0.00000000000E+00  0.00000000000E+00  0.84012518978E+03  0.84012518978E+03  0.25500000920E-02 0.  1.
        2   -1    0    0  501    0  0.00000000000E+00  0.00000000000E+00 -0.15800999578E+04  0.15800999578E+04  0.25500000920E-02 0. -1.
    10030    2    1    2    0    0  0.00000000000E+00  0.00000000000E+00 -0.73997476801E+03  0.24202251476E+04  0.23043279080E+04 0.  0.
        3    1    3    3  502    0  0.32523526716E+03  0.10480261936E+04 -0.11184657726E+01  0.10973322845E+04  0.10100000352E+00 0.  1.
       -3    1    3    3    0  502 -0.32523526716E+03 -0.10480261936E+04 -0.73885630224E+03  0.13228928630E+04  0.10100000352E+00 0. -1.
</event>
<event>
 5   0  0.5642466E-05  0.2277004E+04  0.7818609E-02  0.8487044E-01
        1   -1    0    0  501    0  0.00000000000E+00  0.00000000000E+00  0.76736249393E+03  0.76736249394E+03  0.50400001928E-02 0.  1.
       -1   -1    0    0    0  501  0.00000000000E+00  0.00000000000E+00 -0.16891450913E+04  0.16891450913E+04  0.50400001928E-02 0. -1.
    10030    2    1    2    0    0  0.00000000000E+00  0.00000000000E+00 -0.92178259733E+03  0.24565075852E+04  0.22770038119E+04 0.  0.
        1    1    3    3  502    0 -0.13018551373E+03  0.32184037275E+03  0.70886309913E+03  0.78931387093E+03  0.50400001928E-02 0.  1.
       -1    1    3    3    0  502  0.13018551373E+03 -0.32184037275E+03 -0.16306456965E+04  0.16671937143E+04  0.50400001928E-02 0. -1.
</event>
<event>
 5   0  0.5924654E-05  0.2419989E+04  0.7818609E-02  0.8432058E-01
       -1   -1    0    0    0  501  0.00000000000E+00  0.00000000000E+00  0.14453937971E+04  0.14453937971E+04  0.50400001928E-02 0. -1.
        1   -1    0    0  501    0  0.00000000000E+00  0.00000000000E+00 -0.10129323667E+04  0.10129323667E+04  0.50400001928E-02 0.  1.
    10030    2    1    2    0    0  0.00000000000E+00  0.00000000000E+00  0.43246143039E+03  0.24583261638E+04  0.24199885617E+04 0.  0.
        5    1    3    3  502    0  0.13994882037E+03  0.58017758845E+03 -0.85299908519E+03  0.10410673541E+04  0.46999998093E+01 0.  1.
       -5    1    3    3    0  502 -0.13994882037E+03 -0.58017758845E+03  0.12854605156E+04  0.14172588097E+04  0.46999998093E+01 0. -1.
</event>
<event>
 5   0  0.1234988E-04  0.2269584E+04  0.7818609E-02  0.8490011E-01
       -2   -1    0    0    0  501  0.00000000000E+00  0.00000000000E+00  0.17556740658E+04  0.17556740659E+04  0.25500000920E-02 0. -1.
        2   -1    0    0  501    0  0.00000000000E+00  0.00000000000E+00 -0.73348069182E+03  0.73348069183E+03  0.25500000920E-02 0.  1.
    10030    2    1    2    0    0  0.00000000000E+00  0.00000000000E+00  0.10221933740E+04  0.24891547577E+04  0.22695841279E+04 0.  0.
        5    1    3    3  502    0  0.23864008943E+02  0.62979718854E+02  0.17534695109E+04  0.17547687459E+04  0.46999998093E+01 0. -1.
       -5    1    3    3    0  502 -0.23864008943E+02 -0.62979718854E+02 -0.73127613689E+03  0.73438601177E+03  0.46999998093E+01 0.  1.
</event>
<event>
 5   0  0.5642466E-05  0.2422214E+04  0.7818609E-02  0.8431233E-01
       -1   -1    0    0    0  501  0.00000000000E+00  0.00000000000E+00  0.62257008074E+03  0.62257008076E+03  0.50400001928E-02 0. -1.
        1   -1    0    0  501    0  0.00000000000E+00  0.00000000000E+00 -0.23560085303E+04  0.23560085303E+04  0.50400001928E-02 0.  1.
    10030    2    1    2    0    0  0.00000000000E+00  0.00000000000E+00 -0.17334384496E+04  0.29785786111E+04  0.24222142110E+04 0.  0.
        1    1    3    3  502    0  0.16841510951E+03  0.11976241985E+04 -0.78785526806E+03  0.14433929796E+04  0.50400001928E-02 0.  1.
       -1    1    3    3    0  502 -0.16841510951E+03 -0.11976241985E+04 -0.94558318154E+03  0.15351856315E+04  0.50400001928E-02 0. -1.
</event>
<event>
 5   0  0.5843670E-05  0.2237766E+04  0.7818609E-02  0.8502872E-01
        1   -1    0    0  501    0  0.00000000000E+00  0.00000000000E+00  0.26387057157E+04  0.26387057157E+04  0.50400001928E-02 0. -1.
       -1   -1    0    0    0  501  0.00000000000E+00  0.00000000000E+00 -0.47443664101E+03  0.47443664104E+03  0.50400001928E-02 0.  1.
    10030    2    1    2    0    0  0.00000000000E+00  0.00000000000E+00  0.21642690747E+04  0.31131423568E+04  0.22377655609E+04 0.  0.
        2    1    3    3  502    0  0.61426423717E+02 -0.34343027926E+03 -0.39683223704E+03  0.52838753449E+03  0.25500000920E-02 0.  1.
       -2    1    3    3    0  502 -0.61426423717E+02  0.34343027926E+03  0.25611013118E+04  0.25847548223E+04  0.25500000920E-02 0. -1.
</event>
<event>
 5   0  0.1270613E-04  0.2188908E+04  0.7818609E-02  0.8523059E-01
       -2   -1    0    0    0  501  0.00000000000E+00  0.00000000000E+00  0.11056460717E+04  0.11056460717E+04  0.25500000920E-02 0.  1.
        2   -1    0    0  501    0  0.00000000000E+00  0.00000000000E+00 -0.10833750407E+04  0.10833750407E+04  0.25500000920E-02 0. -1.
    10030    2    1    2    0    0  0.00000000000E+00  0.00000000000E+00  0.22271030930E+02  0.21890211124E+04  0.21889078171E+04 0.  0.
        2    1    3    3  502    0  0.16777458616E+02  0.10942571933E+04 -0.10745294293E+01  0.10943863316E+04  0.25500000920E-02 0.  1.
       -2    1    3    3    0  502 -0.16777458616E+02 -0.10942571933E+04  0.23345560359E+02  0.10946347808E+04  0.25500000920E-02 0. -1.
</event>
<event>
 5   0  0.1270613E-04  0.2365644E+04  0.7818609E-02  0.8452479E-01
        2   -1    0    0  501    0  0.00000000000E+00  0.00000000000E+00  0.11523220076E+04  0.11523220076E+04  0.25500000920E-02 0. -1.
       -2   -1    0    0    0  501  0.00000000000E+00  0.00000000000E+00 -0.12141291086E+04  0.12141291086E+04  0.25500000920E-02 0.  1.
    10030    2    1    2    0    0  0.00000000000E+00  0.00000000000E+00 -0.61807101055E+02  0.23664511162E+04  0.23656438379E+04 0.  0.
        2    1    3    3  502    0  0.33050534273E+03  0.71720062539E+03 -0.91180451811E+03  0.12062329783E+04  0.25500000920E-02 0.  1.
       -2    1    3    3    0  502 -0.33050534273E+03 -0.71720062539E+03  0.84999741705E+03  0.11602181380E+04  0.25500000920E-02 0. -1.
</event>
<event>
 5   0  0.1281432E-04  0.2272984E+04  0.7818609E-02  0.8488650E-01
       -2   -1    0    0    0  501  0.00000000000E+00  0.00000000000E+00  0.81926158579E+03  0.81926158579E+03  0.25500000920E-02 0. -1.
        2   -1    0    0  501    0  0.00000000000E+00  0.00000000000E+00 -0.15765587707E+04  0.15765587707E+04  0.25500000920E-02 0.  1.
    10030    2    1    2    0    0  0.00000000000E+00  0.00000000000E+00 -0.75729718495E+03  0.23958203565E+04  0.22729839758E+04 0.  0.
        4    1    3    3  502    0 -0.51440350552E+03 -0.81448360623E+03 -0.10142436514E+04  0.13988160382E+04  0.12699999809E+01 0.  1.
       -4    1    3    3    0  502  0.51440350552E+03  0.81448360623E+03  0.25694646646E+03  0.99700431836E+03  0.12699999809E+01 0. -1.
</event>
<event>
 5   0  0.1237296E-04  0.2835182E+04  0.7818609E-02  0.8292428E-01
        2   -1    0    0  501    0  0.00000000000E+00  0.00000000000E+00  0.18967774805E+04  0.18967774805E+04  0.25500000920E-02 0. -1.
       -2   -1    0    0    0  501  0.00000000000E+00  0.00000000000E+00 -0.10594623933E+04  0.10594623933E+04  0.25500000920E-02 0.  1.
    10030    2    1    2    0    0  0.00000000000E+00  0.00000000000E+00  0.83731508718E+03  0.29562398737E+04  0.28351821169E+04 0.  0.
        1    1    3    3  502    0 -0.82825627856E+03 -0.10652517106E+04  0.87171538716E+03  0.16064424628E+04  0.50400001928E-02 0. -1.
       -1    1    3    3    0  502  0.82825627856E+03  0.10652517106E+04 -0.34400299978E+02  0.13497974110E+04  0.50400001928E-02 0.  1.
</event>
<event>
 5   0  0.1234988E-04  0.2276908E+04  0.7818609E-02  0.8487082E-01
       -2   -1    0    0    0  501  0.00000000000E+00  0.00000000000E+00  0.10439199202E+04  0.10439199202E+04  0.25500000920E-02 0.  1.
        2   -1    0    0  501    0  0.00000000000E+00  0.00000000000E+00 -0.12415483811E+04  0.12415483811E+04  0.25500000920E-02 0. -1.
    10030    2    1    2    0    0  0.00000000000E+00  0.00000000000E+00 -0.19762846092E+03  0.22854683013E+04  0.22769076282E+04 0.  0.
        5    1    3    3  502    0  0.55440486159E+03  0.74047867099E+02  0.89648187854E+03  0.10566691468E+04  0.46999998093E+01 0.  1.
       -5    1    3    3    0  502 -0.55440486159E+03 -0.74047867099E+02 -0.10941103395E+04  0.12287991545E+04  0.46999998093E+01 0. -1.
</event>
<event>
 5   0  0.1270613E-04  0.1438201E+04  0.7818609E-02  0.8926622E-01
       -2   -1    0    0    0  501  0.00000000000E+00  0.00000000000E+00  0.43909351116E+03  0.43909351116E+03  0.25500000920E-02 0.  1.
        2   -1    0    0  501    0  0.00000000000E+00  0.00000000000E+00 -0.11776662817E+04  0.11776662817E+04  0.25500000920E-02 0. -1.
    10030    2    1    2    0    0  0.00000000000E+00  0.00000000000E+00 -0.73857277055E+03  0.16167597929E+04  0.14382011300E+04 0.  0.
        2    1    3    3  502    0 -0.55895955411E+03  0.45223484432E+03 -0.38321342851E+03  0.81474208763E+03  0.25500000920E-02 0. -1.
       -2    1    3    3    0  502  0.55895955411E+03 -0.45223484432E+03 -0.35535934204E+03  0.80201770525E+03  0.25500000920E-02 0.  1.
</event>
<event>
 5   0  0.1237296E-04  0.2165479E+04  0.7818609E-02  0.8532935E-01
       -2   -1    0    0    0  501  0.00000000000E+00  0.00000000000E+00  0.87637104312E+03  0.87637104313E+03  0.25500000920E-02 0. -1.
        2   -1    0    0  501    0  0.00000000000E+00  0.00000000000E+00 -0.13377040666E+04  0.13377040666E+04  0.25500000920E-02 0.  1.
    10030    2    1    2    0    0  0.00000000000E+00  0.00000000000E+00 -0.46133302352E+03  0.22140751098E+04  0.21654792618E+04 0.  0.
        1    1    3    3  502    0 -0.27290633315E+03  0.23943531175E+03  0.81228258872E+03  0.88972475471E+03  0.50400001928E-02 0. -1.
       -1    1    3    3    0  502  0.27290633315E+03 -0.23943531175E+03 -0.12736156122E+04  0.13243503551E+04  0.50400001928E-02 0.  1.
</event>
<event>
 5   0  0.4489500E-05  0.2268552E+04  0.7818609E-02  0.8490425E-01
       -3   -1    0    0    0  501  0.00000000000E+00  0.00000000000E+00  0.11275481258E+04  0.11275481303E+04  0.10100000352E+00 0.  1.
        3   -1    0    0  501    0  0.00000000000E+00  0.00000000000E+00 -0.11410442635E+04  0.11410442680E+04  0.10100000352E+00 0. -1.
    10030    2    1    2    0    0  0.00000000000E+00  0.00000000000E+00 -0.13496137732E+02  0.22685923983E+04  0.22685522528E+04 0.  0.
        4    1    3    3  502    0  0.65924992578E+02 -0.30773870067E+03 -0.10965065450E+04  0.11407793076E+04  0.12699999809E+01 0. -1.
       -4    1    3    3    0  502 -0.65924992578E+02  0.30773870067E+03  0.10830104072E+04  0.11278130907E+04  0.12699999809E+01 0.  1.
</event>
<event>
 5   0  0.4489500E-05  0.2297509E+04  0.7818609E-02  0.8478904E-01
        3   -1    0    0  501    0  0.00000000000E+00  0.00000000000E+00  0.13251337103E+04  0.13251337141E+04  0.10100000352E+00 0. -1.
       -3   -1    0    0    0  501  0.00000000000E+00  0.00000000000E+00 -0.99585183507E+03  0.99585184019E+03  0.10100000352E+00 0.  1.
    10030    2    1    2    0    0  0.00000000000E+00  0.00000000000E+00  0.32928187520E+03  0.23209855543E+04  0.22975089532E+04 0.  0.
        4    1    3    3  502    0  0.19837137756E+03  0.10351198819E+04  0.62626853812E+03  0.12259846117E+04  0.12699999809E+01 0. -1.
       -4    1    3    3    0  502 -0.19837137756E+03 -0.10351198819E+04 -0.29698666292E+03  0.10950009426E+04  0.12699999809E+01 0.  1.
</event>
<event>
 5   0  0.5663790E-05  0.2324304E+04  0.7818609E-02  0.8468400E-01
        1   -1    0    0  501    0  0.00000000000E+00  0.00000000000E+00  0.10222547292E+04  0.10222547292E+04  0.50400001928E-02 0. -1.
       -1   -1    0    0    0  501  0.00000000000E+00  0.00000000000E+00 -0.13211943405E+04  0.13211943405E+04  0.50400001928E-02 0.  1.
    10030    2    1    2    0    0  0.00000000000E+00  0.00000000000E+00 -0.29893961132E+03  0.23434490697E+04  0.23243039068E+04 0.  0.
        3    1    3    3  502    0 -0.10305314299E+04  0.45078124768E+03  0.14516730849E+03  0.11341394618E+04  0.10100000352E+00 0. -1.
       -3    1    3    3    0  502  0.10305314299E+04 -0.45078124768E+03 -0.44410691981E+03  0.12093096079E+04  0.10100000352E+00 0.  1.
</event>
<event>
 5   0  0.1234988E-04  0.2303796E+04  0.7818609E-02  0.8476426E-01
       -2   -1    0    0    0  501  0.00000000000E+00  0.00000000000E+00  0.92202982808E+03  0.92202982809E+03  0.25500000920E-02 0. -1.
        2   -1    0    0  501    0  0.00000000000E+00  0.00000000000E+00 -0.14390743388E+04  0.14390743388E+04  0.25500000920E-02 0.  1.
    10030    2    1    2    0    0  0.00000000000E+00  0.00000000000E+00 -0.51704451075E+03  0.23611041669E+04  0.23037964018E+04 0.  0.
        5    1    3    3  502    0 -0.31558484234E+03  0.50336700387E+03 -0.12699217089E+04  0.14020325852E+04  0.46999998093E+01 0.  1.
       -5    1    3    3    0  502  0.31558484234E+03 -0.50336700387E+03  0.75287719816E+03  0.95907158169E+03  0.46999998093E+01 0. -1.
</event>
<event>
 5   0  0.5632156E-05  0.2304221E+04  0.7818609E-02  0.8476259E-01
        1   -1    0    0  501    0  0.00000000000E+00  0.00000000000E+00  0.10813807280E+04  0.10813807280E+04  0.50400001928E-02 0. -1.
       -1   -1    0    0    0  501  0.00000000000E+00  0.00000000000E+00 -0.12274665077E+04  0.12274665077E+04  0.50400001928E-02 0.  1.
    10030    2    1    2    0    0  0.00000000000E+00  0.00000000000E+00 -0.14608577971E+03  0.23088472357E+04  0.23042210186E+04 0.  0.
        4    1    3    3  502    0 -0.43034797331E+03  0.10190758153E+04  0.24953842157E+03  0.11340131976E+04  0.12699999809E+01 0.  1.
       -4    1    3    3    0  502  0.43034797331E+03 -0.10190758153E+04 -0.39562420128E+03  0.11748340381E+04  0.12699999809E+01 0. -1.
</event>
<event>
 5   0  0.1237296E-04  0.2333463E+04  0.7818609E-02  0.8464843E-01
       -2   -1    0    0    0  501  0.00000000000E+00  0.00000000000E+00  0.80720588066E+03  0.80720588066E+03  0.25500000920E-02 0.  1.
        2   -1    0    0  501    0  0.00000000000E+00  0.00000000000E+00 -0.16863875417E+04  0.16863875417E+04  0.25500000920E-02 0. -1.
    10030    2    1    2    0    0  0.00000000000E+00  0.00000000000E+00 -0.87918166108E+03  0.24935934224E+04  0.23334626123E+04 0.  0.
        1    1    3    3  502    0  0.60031952288E+02 -0.11142499100E+04 -0.75465649424E+02  0.11184148432E+04  0.50400001928E-02 0.  1.
       -1    1    3    3    0  502 -0.60031952288E+02  0.11142499100E+04 -0.80371601165E+03  0.13751785792E+04  0.50400001928E-02 0. -1.
</event>
<event>
 5   0  0.1270613E-04  0.2210525E+04  0.7818609E-02  0.8514060E-01
       -2   -1    0    0    0  501  0.00000000000E+00  0.00000000000E+00  0.85418062538E+03  0.85418062538E+03  0.25500000920E-02 0.  1.
        2   -1    0    0  501    0  0.00000000000E+00  0.00000000000E+00 -0.14301491825E+04  0.14301491825E+04  0.25500000920E-02 0. -1.
    10030    2    1    2    0    0  0.00000000000E+00  0.00000000000E+00 -0.57596855712E+03  0.22843298079E+04  0.22105254788E+04 0.  0.
        2    1    3    3  502    0 -0.23956458237E+03 -0.10574087344E+04 -0.66103398857E+02  0.10862200882E+04  0.25500000920E-02 0.  1.
       -2    1    3    3    0  502  0.23956458237E+03  0.10574087344E+04 -0.50986515826E+03  0.11981097197E+04  0.25500000920E-02 0. -1.
</event>
<event>
 5   0  0.5924654E-05  0.2248823E+04  0.7818609E-02  0.8498377E-01
       -1   -1    0    0    0  501  0.00000000000E+00  0.00000000000E+00  0.92673578770E+03  0.92673578771E+03  0.50400001928E-02 0.  1.
        1   -1    0    0  501    0  0.00000000000E+00  0.00000000000E+00 -0.13642517622E+04  0.13642517622E+04  0.50400001928E-02 0. -1.
    10030    2    1    2    0    0  0.00000000000E+00  0.00000000000E+00 -0.43751597448E+03  0.22909875499E+04  0.22488227422E+04 0.  0.
        5    1    3    3  502    0 -0.69148103813E+03  0.44303964836E+03  0.56365817381E+03  0.99607368353E+03  0.46999998093E+01 0.  1.
       -5    1    3    3    0  502  0.69148103813E+03 -0.44303964836E+03 -0.10011741483E+04  0.12949138664E+04  0.46999998093E+01 0. -1.
</event>
<event>
 5   0  0.1281432E-04  0.2307169E+04  0.7818609E-02  0.8475100E-01
       -2   -1    0    0    0  501  0.00000000000E+00  0.00000000000E+00  0.10475473516E+04  0.10475473516E+04  0.25500000920E-02 0. -1.
        2   -1    0    0  501    0  0.00000000000E+00  0.00000000000E+00 -0.12703553836E+04  0.12703553836E+04  0.25500000920E-02 0.  1.
    10030    2    1    2    0    0  0.00000000000E+00  0.00000000000E+00 -0.22280803198E+03  0.23179027353E+04  0.23071691899E+04 0.  0.
        4    1    3    3  502    0  0.30433694127E+03  0.42787580510E+03  0.92053433322E+03  0.10597564578E+04  0.12699999809E+01 0. -1.
       -4    1    3    3    0  502 -0.30433694127E+03 -0.42787580510E+03 -0.11433423652E+04  0.12581462774E+04  0.12699999809E+01 0.  1.
</event>
<event>
 5   0  0.1234988E-04  0.2332585E+04  0.7818609E-02  0.8465183E-01
        2   -1    0    0  501    0  0.00000000000E+00  0.00000000000E+00  0.28235357327E+04  0.28235357327E+04  0.25500000920E-02 0. -1.
       -2   -1    0    0    0  501  0.00000000000E+00  0.00000000000E+00 -0.48174990610E+03  0.48174990610E+03  0.25500000920E-02 0.  1.
    10030    2    1    2    0    0  0.00000000000E+00  0.00000000000E+00  0.23417858266E+04  0.33052856389E+04  0.23325848959E+04 0.  0.
        5    1    3    3  502    0  0.41870566514E+03  0.10679770284E+04  0.87255817144E+03  0.14412734715E+04  0.46999998093E+01 0.  1.
       -5    1    3    3    0  502 -0.41870566514E+03 -0.10679770284E+04  0.14692276552E+04  0.18640121673E+04  0.46999998093E+01 0. -1.
</event>
<event>
 5   0  0.5632156E-05  0.2323504E+04  0.7818609E-02  0.8468711E-01
       -1   -1    0    0    0  501  0.00000000000E+00  0.00000000000E+00  0.17658840743E+04  0.17658840744E+04  0.50400001928E-02 0.  1.
        1   -1    0    0  501    0  0.00000000000E+00  0.00000000000E+00 -0.76430165273E+03  0.76430165274E+03  0.50400001928E-02 0. -1.
    10030    2    1    2    0    0  0.00000000000E+00  0.00000000000E+00  0.10015824216E+04  0.25301857271E+04  0.23235043504E+04 0.  0.
        4    1    3    3  502    0  0.10574606690E+04  0.41864159257E+03  0.75890430548E+03  0.13672677891E+04  0.12699999809E+01 0.  1.
       -4    1    3    3    0  502 -0.10574606690E+04 -0.41864159257E+03  0.24267811614E+03  0.11629179379E+04  0.12699999809E+01 0. -1.
</event>
<event>
 5   0  0.1237296E-04  0.1775746E+04  0.7818609E-02  0.8719305E-01
       -2   -1    0    0    0  501  0.00000000000E+00  0.00000000000E+00  0.47241411920E+03  0.47241411921E+03  0.25500000920E-02 0.  1.
        2   -1    0    0  501    0  0.00000000000E+00  0.00000000000E+00 -0.16687027157E+04  0.16687027157E+04  0.25500000920E-02 0. -1.
    10030    2    1    2    0    0  0.00000000000E+00  0.00000000000E+00 -0.11962885965E+04  0.21411168349E+04  0.17757462923E+04 0.  0.
        1    1    3    3  502    0  0.43568879920E+03  0.23891164004E+03  0.28906213167E+03  0.57485686696E+03  0.50400001928E-02 0.  1.
       -1    1    3    3    0  502 -0.43568879920E+03 -0.23891164004E+03 -0.14853507282E+04  0.15662599679E+04  0.50400001928E-02 0. -1.
</event>
<event>
 5   0  0.5924654E-05  0.2200934E+04  0.7818609E-02  0.8518040E-01
       -1   -1    0    0    0  501  0.00000000000E+00  0.00000000000E+00  0.10447618184E+04  0.10447618184E+04  0.50400001928E-02 0.  1.
        1   -1    0    0  501    0  0.00000000000E+00  0.00000000000E+00 -0.11591419605E+04  0.11591419605E+04  0.50400001928E-02 0. -1.
    10030    2    1    2    0    0  0.00000000000E+00  0.00000000000E+00 -0.11438014213E+03  0.22039037789E+04  0.22009336769E+04 0.  0.
        5    1    3    3  502    0  0.98148413696E+03 -0.48449044395E+03  0.56819057237E+02  0.10960349432E+04  0.46999998093E+01 0.  1.
       -5    1    3    3    0  502 -0.98148413696E+03  0.48449044395E+03 -0.17119919937E+03  0.11078688358E+04  0.46999998093E+01 0. -1.
</event>
<event>
 5   0  0.5663790E-05  0.2325795E+04  0.7818609E-02  0.8467819E-01
        1   -1    0    0  501    0  0.00000000000E+00  0.00000000000E+00  0.15604761738E+04  0.15604761738E+04  0.50400001928E-02 0. -1.
       -1   -1    0    0    0  501  0.00000000000E+00  0.00000000000E+00 -0.86661426363E+03  0.86661426365E+03  0.50400001928E-02 0.  1.
    10030    2    1    2    0    0  0.00000000000E+00  0.00000000000E+00  0.69386191018E+03  0.24270904375E+04  0.23257952707E+04 0.  0.
        3    1    3    3  502    0 -0.54698294169E+03 -0.71957744637E+03  0.11104729307E+04  0.14318282648E+04  0.10100000352E+00 0. -1.
       -3    1    3    3    0  502  0.54698294169E+03  0.71957744637E+03 -0.41661102049E+03  0.99526217271E+03  0.10100000352E+00 0.  1.
</event>
<event>
 5   0  0.5663790E-05  0.2342095E+04  0.7818609E-02  0.8461506E-01
        1   -1    0    0  501    0  0.00000000000E+00  0.00000000000E+00  0.26225542546E+04  0.26225542546E+04  0.50400001928E-02 0.  1.
       -1   -1    0    0    0  501  0.00000000000E+00  0.00000000000E+00 -0.52290715736E+03  0.52290715738E+03  0.50400001928E-02 0. -1.
    10030    2    1    2    0    0  0.00000000000E+00  0.00000000000E+00  0.20996470972E+04  0.31454614120E+04  0.23420951222E+04 0.  0.
        3    1    3    3  502    0  0.41779046981E+03 -0.79345644676E+03  0.20613088357E+04  0.22479137296E+04  0.10100000352E+00 0.  1.
       -3    1    3    3    0  502 -0.41779046981E+03  0.79345644676E+03  0.38338261538E+02  0.89754768234E+03  0.10100000352E+00 0. -1.
</event>
<event>
 5   0  0.5632156E-05  0.2237691E+04  0.7818609E-02  0.8502902E-01
        1   -1    0    0  501    0  0.00000000000E+00  0.00000000000E+00  0.15216719007E+04  0.15216719007E+04  0.50400001928E-02 0.  1.
       -1   -1    0    0    0  501  0.00000000000E+00  0.00000000000E+00 -0.82265747217E+03  0.82265747219E+03  0.50400001928E-02 0. -1.
    10030    2    1    2    0    0  0.00000000000E+00  0.00000000000E+00  0.69901442854E+03  0.23443293729E+04  0.22376905589E+04 0.  0.
        4    1    3    3  502    0 -0.45871034290E+03 -0.94444610061E+03  0.75447668424E+03  0.12929154248E+04  0.12699999809E+01 0.  1.
       -4    1    3    3    0  502  0.45871034290E+03  0.94444610061E+03 -0.55462255700E+02  0.10514139481E+04  0.12699999809E+01 0. -1.
</event>
<event>
 5   0  0.1257524E-04  0.2296971E+04  0.7818609E-02  0.8479116E-01
       -2   -1    0    0    0  501  0.00000000000E+00  0.00000000000E+00  0.11169689091E+04  0.11169689091E+04  0.25500000920E-02 0.  1.
        2   -1    0    0  501    0  0.00000000000E+00  0.00000000000E+00 -0.11808916869E+04  0.11808916869E+04  0.25500000920E-02 0. -1.
    10030    2    1    2    0    0  0.00000000000E+00  0.00000000000E+00 -0.63922777807E+02  0.22978605960E+04  0.22969713096E+04 0.  0.
        3    1    3    3  502    0 -0.39658306424E+03 -0.57146906437E+03 -0.94618842512E+03  0.11743626205E+04  0.10100000352E+00 0. -1.
       -3    1    3    3    0  502  0.39658306424E+03  0.57146906437E+03  0.88226564732E+03  0.11234979755E+04  0.10100000352E+00 0.  1.
</event>
<event>
 5   0  0.5924654E-05  0.2317914E+04  0.7818609E-02  0.8470891E-01
        1   -1    0    0  501    0  0.00000000000E+00  0.00000000000E+00  0.17615310663E+04  0.17615310663E+04  0.50400001928E-02 0. -1.
       -1   -1    0    0    0  501  0.00000000000E+00  0.00000000000E+00 -0.76250764157E+03  0.76250764158E+03  0.50400001928E-02 0.  1.
    10030    2    1    2    0    0  0.00000000000E+00  0.00000000000E+00  0.99902342470E+03  0.25240387079E+04  0.23179136299E+04 0.  0.
        5    1    3    3  502    0 -0.27594992155E+03 -0.33816082642E+03  0.16686043901E+04  0.17247503600E+04  0.46999998093E+01 0. -1.
       -5    1    3    3    0  502  0.27594992155E+03  0.33816082642E+03 -0.66958096541E+03  0.79928834782E+03  0.46999998093E+01 0.  1.
</event>
<event>
 5   0  0.1257524E-04  0.2218081E+04  0.7818609E-02  0.8510940E-01
       -2   -1    0    0    0  501  0.00000000000E+00  0.00000000000E+00  0.49246185214E+03  0.49246185215E+03  0.25500000920E-02 0.  1.
        2   -1    0    0  501    0  0.00000000000E+00  0.00000000000E+00 -0.24975954838E+04  0.24975954838E+04  0.25500000920E-02 0. -1.
    10030    2    1    2    0    0  0.00000000000E+00  0.00000000000E+00 -0.20051336317E+04  0.29900573360E+04  0.22180807000E+04 0.  0.
        3    1    3    3  502    0  0.80471582148E+03 -0.24787543033E+03 -0.19755484815E+04  0.21475105577E+04  0.10100000352E+00 0. -1.
       -3    1    3    3    0  502 -0.80471582148E+03  0.24787543033E+03 -0.29585150163E+02  0.84254677830E+03  0.10100000352E+00 0.  1.
</event>
<event>
 5   0  0.1234988E-04  0.2372704E+04  0.7818609E-02  0.8449794E-01
       -2   -1    0    0    0  501  0.00000000000E+00  0.00000000000E+00  0.62117854295E+03  0.62117854296E+03  0.25500000920E-02 0.  1.
        2   -1    0    0  501    0  0.00000000000E+00  0.00000000000E+00 -0.22657437954E+04  0.22657437954E+04  0.25500000920E-02 0. -1.
    10030    2    1    2    0    0  0.00000000000E+00  0.00000000000E+00 -0.16445652524E+04  0.28869223384E+04  0.23727043048E+04 0.  0.
        5    1    3    3  502    0 -0.61335324223E+03 -0.44973252860E+03 -0.19300665860E+04  0.20745217915E+04  0.46999998093E+01 0. -1.
       -5    1    3    3    0  502  0.61335324223E+03  0.44973252860E+03  0.28550133357E+03  0.81240054684E+03  0.46999998093E+01 0.  1.
</event>
<event>
 5   0  0.5843670E-05  0.1401184E+04  0.7818609E-02  0.8952962E-01
       -1   -1    0    0    0  501  0.00000000000E+00  0.00000000000E+00  0.26762157688E+03  0.26762157693E+03  0.50400001928E-02 0. -1.
        1   -1    0    0  501    0  0.00000000000E+00  0.00000000000E+00 -0.18340411788E+04  0.18340411788E+04  0.50400001928E-02 0.  1.
    10030    2    1    2    0    0  0.00000000000E+00  0.00000000000E+00 -0.15664196019E+04  0.21016627557E+04  0.14011837744E+04 0.  0.
        2    1    3    3  502    0  0.13991034216E+03 -0.92136983691E+02 -0.18035573307E+04  0.18113208365E+04  0.25500000920E-02 0.  1.
       -2    1    3    3    0  502 -0.13991034216E+03  0.92136983691E+02  0.23713772882E+03  0.29034191919E+03  0.25500000920E-02 0. -1.
</event>
<event>
 5   0  0.5632156E-05  0.2328690E+04  0.7818609E-02  0.8466694E-01
       -1   -1    0    0    0  501  0.00000000000E+00  0.00000000000E+00  0.79483696433E+03  0.79483696434E+03  0.50400001928E-02 0.  1.
        1   -1    0    0  501    0  0.00000000000E+00  0.00000000000E+00 -0.17056312238E+04  0.17056312238E+04  0.50400001928E-02 0. -1.
    10030    2    1    2    0    0  0.00000000000E+00  0.00000000000E+00 -0.91079425948E+03  0.25004681882E+04  0.23286895407E+04 0.  0.
        4    1    3    3  502    0  0.59872888922E+03  0.15625159090E+03  0.60366862666E+03  0.86446993363E+03  0.12699999809E+01 0.  1.
       -4    1    3    3    0  502 -0.59872888922E+03 -0.15625159090E+03 -0.15144628861E+04  0.16359982545E+04  0.12699999809E+01 0. -1.
</event>
<event>
 5   0  0.1270613E-04  0.1866678E+04  0.7818609E-02  0.8671623E-01
       -2   -1    0    0    0  501  0.00000000000E+00  0.00000000000E+00  0.15649403362E+04  0.15649403362E+04  0.25500000920E-02 0. -1.
        2   -1    0    0  501    0  0.00000000000E+00  0.00000000000E+00 -0.55664844623E+03  0.55664844624E+03  0.25500000920E-02 0.  1.
    10030    2    1    2    0    0  0.00000000000E+00  0.00000000000E+00  0.10082918900E+04  0.21215887825E+04  0.18666779118E+04 0.  0.
        2    1    3    3  502    0  0.35884818577E+03  0.23680677419E+03 -0.43739672249E+03  0.61332321136E+03  0.25500000920E-02 0.  1.
       -2    1    3    3    0  502 -0.35884818577E+03 -0.23680677419E+03  0.14456886125E+04  0.15082655711E+04  0.25500000920E-02 0. -1.
</event>
<event>
 5   0  0.1257524E-04  0.1154163E+04  0.7818609E-02  0.9153951E-01
        2   -1    0    0  501    0  0.00000000000E+00  0.00000000000E+00  0.12448683894E+04  0.12448683894E+04  0.25500000920E-02 0.  1.
       -2   -1    0    0    0  501  0.00000000000E+00  0.00000000000E+00 -0.26751689762E+03  0.26751689763E+03  0.25500000920E-02 0. -1.
    10030    2    1    2    0    0  0.00000000000E+00  0.00000000000E+00  0.97735149181E+03  0.15123852871E+04  0.11541634711E+04 0.  0.
        3    1    3    3  502    0 -0.26188403735E+03 -0.90070498554E+02  0.11521019393E+04  0.11849197578E+04  0.10100000352E+00 0.  1.
       -3    1    3    3    0  502  0.26188403735E+03  0.90070498554E+02 -0.17475044751E+03  0.32746552923E+03  0.10100000352E+00 0. -1.
</event>
<event>
 5   0  0.5642466E-05  0.2518804E+04  0.7818609E-02  0.8396317E-01
        1   -1    0    0  501    0  0.00000000000E+00  0.00000000000E+00  0.15084697925E+04  0.15084697925E+04  0.50400001928E-02 0.  1.
       -1   -1    0    0    0  501  0.00000000000E+00  0.00000000000E+00 -0.10514584569E+04  0.10514584569E+04  0.50400001928E-02 0. -1.
    10030    2    1    2    0    0  0.00000000000E+00  0.00000000000E+00  0.45701133554E+03  0.25599282494E+04  0.25188039386E+04 0.  0.
        1    1    3    3  502    0 -0.75490005502E+03  0.31277699505E+03  0.12024787400E+04  0.14538427225E+04  0.50400001928E-02 0.  1.
       -1    1    3    3    0  502  0.75490005502E+03 -0.31277699505E+03 -0.74546740444E+03  0.11060855269E+04  0.50400001928E-02 0. -1.
</event>
<event>
 5   0  0.1234988E-04  0.1983134E+04  0.7818609E-02  0.8614547E-01
        2   -1    0    0  501    0  0.00000000000E+00  0.00000000000E+00  0.14819436364E+04  0.14819436364E+04  0.25500000920E-02 0. -1.
       -2   -1    0    0    0  501  0.00000000000E+00  0.00000000000E+00 -0.66345629693E+03  0.66345629693E+03  0.25500000920E-02 0.  1.
    10030    2    1    2    0    0  0.00000000000E+00  0.00000000000E+00  0.81848733950E+03  0.21453999334E+04  0.19831337194E+04 0.  0.
        5    1    3    3  502    0 -0.68532504873E+03 -0.50135499781E+03 -0.14466191409E+03  0.86138052894E+03  0.46999998093E+01 0.  1.
       -5    1    3    3    0  502  0.68532504873E+03  0.50135499781E+03  0.96314925359E+03  0.12840194044E+04  0.46999998093E+01 0. -1.
</event>
<event>
 5   0  0.5632156E-05  0.1257244E+04  0.7818609E-02  0.9064176E-01
        1   -1    0    0  501    0  0.00000000000E+00  0.00000000000E+00  0.86545161375E+03  0.86545161376E+03  0.50400001928E-02 0.  1.
       -1   -1    0    0    0  501  0.00000000000E+00  0.00000000000E+00 -0.45660015025E+03  0.45660015028E+03  0.50400001928E-02 0. -1.
    10030    2    1    2    0    0  0.00000000000E+00  0.00000000000E+00  0.40885146349E+03  0.13220517640E+04  0.12572435514E+04 0.  0.
        4    1    3    3  502    0 -0.23889094371E+03  0.52050106084E+03  0.47696431178E+03  0.74530987175E+03  0.12699999809E+01 0.  1.
       -4    1    3    3    0  502  0.23889094371E+03 -0.52050106084E+03 -0.68112848288E+02  0.57674189229E+03  0.12699999809E+01 0. -1.
</event>
<event>
 5   0  0.5924654E-05  0.2482662E+04  0.7818609E-02  0.8409188E-01
        1   -1    0    0  501    0  0.00000000000E+00  0.00000000000E+00  0.19840028002E+04  0.19840028002E+04  0.50400001928E-02 0. -1.
       -1   -1    0    0    0  501  0.00000000000E+00  0.00000000000E+00 -0.77666375109E+03  0.77666375111E+03  0.50400001928E-02 0.  1.
    10030    2    1    2    0    0  0.00000000000E+00  0.00000000000E+00  0.12073390491E+04  0.27606665513E+04  0.24826623266E+04 0.  0.
        5    1    3    3  502    0 -0.17703757206E+03 -0.89434828957E+03 -0.33308871509E+03  0.97065511233E+03  0.46999998093E+01 0.  1.
       -5    1    3    3    0  502  0.17703757206E+03  0.89434828957E+03  0.15404277642E+04  0.17900114389E+04  0.46999998093E+01 0. -1.
</event>
<event>
 5   0  0.1270613E-04  0.2366229E+04  0.7818609E-02  0.8452256E-01
        2   -1    0    0  501    0  0.00000000000E+00  0.00000000000E+00  0.23271237010E+04  0.23271237010E+04  0.25500000920E-02 0.  1.
       -2   -1    0    0    0  501  0.00000000000E+00  0.00000000000E+00 -0.60149773480E+03  0.60149773480E+03  0.25500000920E-02 0. -1.
    10030    2    1    2    0    0  0.00000000000E+00  0.00000000000E+00  0.17256259662E+04  0.29286214358E+04  0.23662287588E+04 0.  0.
        2    1    3    3  502    0  0.59223831749E+03 -0.86390590756E+03  0.15437365508E+04  0.18655299998E+04  0.25500000920E-02 0.  1.
       -2    1    3    3    0  502 -0.59223831749E+03  0.86390590756E+03  0.18188941535E+03  0.10630914360E+04  0.25500000920E-02 0. -1.
</event>
<event>
 5   0  0.5642466E-05  0.2273543E+04  0.7818609E-02  0.8488426E-01
        1   -1    0    0  501    0  0.00000000000E+00  0.00000000000E+00  0.16837710667E+04  0.16837710667E+04  0.50400001928E-02 0. -1.
       -1   -1    0    0    0  501  0.00000000000E+00  0.00000000000E+00 -0.76747347254E+03  0.76747347256E+03  0.50400001928E-02 0.  1.
    10030    2    1    2    0    0  0.00000000000E+00  0.00000000000E+00  0.91629759413E+03  0.24512445392E+04  0.22735431621E+04 0.  0.
        1    1    3    3  502    0  0.75633771742E+03 -0.72843139566E+03  0.92760147496E+03  0.14011079678E+04  0.50400001928E-02 0. -1.
       -1    1    3    3    0  502 -0.75633771742E+03  0.72843139566E+03 -0.11303880833E+02  0.10501365715E+04  0.50400001928E-02 0.  1.
</event>
<event>
 5   0  0.5843670E-05  0.2196140E+04  0.7818609E-02  0.8520037E-01
       -1   -1    0    0    0  501  0.00000000000E+00  0.00000000000E+00  0.55577368168E+03  0.55577368171E+03  0.50400001928E-02 0. -1.
        1   -1    0    0  501    0  0.00000000000E+00  0.00000000000E+00 -0.21695116997E+04  0.21695116997E+04  0.50400001928E-02 0.  1.
    10030    2    1    2    0    0  0.00000000000E+00  0.00000000000E+00 -0.16137380180E+04  0.27252853814E+04  0.21961397996E+04 0.  0.
        2    1    3    3  502    0 -0.10387113997E+04 -0.29595859379E+03 -0.10527031511E+04  0.15082097950E+04  0.25500000920E-02 0. -1.
       -2    1    3    3    0  502  0.10387113997E+04  0.29595859379E+03 -0.56103486682E+03  0.12170755864E+04  0.25500000920E-02 0.  1.
</event>
<event>
 5   0  0.1234988E-04  0.2304715E+04  0.7818609E-02  0.8476064E-01
        2   -1    0    0  501    0  0.00000000000E+00  0.00000000000E+00  0.10067257249E+04  0.10067257249E+04  0.25500000920E-02 0.  1.
       -2   -1    0    0    0  501  0.00000000000E+00  0.00000000000E+00 -0.13190567445E+04  0.13190567445E+04  0.25500000920E-02 0. -1.
    10030    2    1    2    0    0  0.00000000000E+00  0.00000000000E+00 -0.31233101958E+03  0.23257824694E+04  0.23047154768E+04 0.  0.
        5    1    3    3  502    0 -0.90153611501E+03 -0.61477079508E+03  0.21761971933E+03  0.11126953444E+04  0.46999998093E+01 0.  1.
       -5    1    3    3    0  502  0.90153611501E+03  0.61477079508E+03 -0.52995073891E+03  0.12130871250E+04  0.46999998093E+01 0. -1.
</event>
<event>
 5   0  0.1281432E-04  0.2331645E+04  0.7818609E-02  0.8465547E-01
        2   -1    0    0  501    0  0.00000000000E+00  0.00000000000E+00  0.18757070513E+04  0.18757070513E+04  0.25500000920E-02 0.  1.
       -2   -1    0    0    0  501  0.00000000000E+00  0.00000000000E+00 -0.72460271304E+03  0.72460271304E+03  0.25500000920E-02 0. -1.
    10030    2    1    2    0    0  0.00000000000E+00  0.00000000000E+00  0.11511043383E+04  0.26003097644E+04  0.23316452717E+04 0.  0.
        4    1    3    3  502    0  0.22979188173E+02  0.48266709363E+03  0.17587663802E+04  0.18239397905E+04  0.12699999809E+01 0.  1.
       -4    1    3    3    0  502 -0.22979188173E+02 -0.48266709363E+03 -0.60766204186E+03  0.77636997391E+03  0.12699999809E+01 0. -1.
</event>
<event>
 5   0  0.5843670E-05  0.1601874E+04  0.7818609E-02  0.8819398E-01
       -1   -1    0    0    0  501  0.00000000000E+00  0.00000000000E+00  0.30874565386E+03  0.30874565390E+03  0.50400001928E-02 0. -1.
        1   -1    0    0  501    0  0.00000000000E+00  0.00000000000E+00 -0.20777621505E+04  0.20777621506E+04  0.50400001928E-02 0.  1.
    10030    2    1    2    0    0  0.00000000000E+00  0.00000000000E+00 -0.17690164967E+04  0.23865078045E+04  0.16018739448E+04 0.  0.
        2    1    3    3  502    0  0.63004973742E+03  0.11131093929E+03 -0.16023294491E+04  0.17253441570E+04  0.25500000920E-02 0.  1.
       -2    1    3    3    0  502 -0.63004973742E+03 -0.11131093929E+03 -0.16668704762E+03  0.66116364743E+03  0.25500000920E-02 0. -1.
</event>
<event>
 5   0  0.5663790E-05  0.2313771E+04  0.7818609E-02  0.8472511E-01
        1   -1    0    0  501    0  0.00000000000E+00  0.00000000000E+00  0.15608070294E+04  0.15608070294E+04  0.50400001928E-02 0.  1.
       -1   -1    0    0    0  501  0.00000000000E+00  0.00000000000E+00 -0.85749483928E+03  0.85749483929E+03  0.50400001928E-02 0. -1.
    10030    2    1    2    0    0  0.00000000000E+00  0.00000000000E+00  0.70331219012E+03  0.24183018687E+04  0.23137709246E+04 0.  0.
        3    1    3    3  502    0  0.53603765766E+03  0.10128859785E+04  0.51727500994E+03  0.12573177093E+04  0.10100000352E+00 0. -1.
       -3    1    3    3    0  502 -0.53603765766E+03 -0.10128859785E+04  0.18603718017E+03  0.11609841594E+04  0.10100000352E+00 0.  1.
</event>
<event>
 5   0  0.5843670E-05  0.2292839E+04  0.7818609E-02  0.8480750E-01
       -1   -1    0    0    0  501  0.00000000000E+00  0.00000000000E+00  0.85828064373E+03  0.85828064374E+03  0.50400001928E-02 0. -1.
        1   -1    0    0  501    0  0.00000000000E+00  0.00000000000E+00 -0.15312913618E+04  0.15312913618E+04  0.50400001928E-02 0.  1.
    10030    2    1    2    0    0  0.00000000000E+00  0.00000000000E+00 -0.67301071807E+03  0.23895720056E+04  0.22928390574E+04 0.  0.
        2    1    3    3  502    0 -0.10227729586E+04 -0.29768369377E+03  0.10516357246E+03  0.10703922101E+04  0.25500000920E-02 0.  1.
       -2    1    3    3    0  502  0.10227729586E+04  0.29768369377E+03 -0.77817429053E+03  0.13191797955E+04  0.25500000920E-02 0. -1.
</event>
<event>
 5   0  0.1257524E-04  0.2291711E+04  0.7818609E-02  0.8481197E-01
        2   -1    0    0  501    0  0.00000000000E+00  0.00000000000E+00  0.10689322947E+04  0.10689322947E+04  0.25500000920E-02 0. -1.
       -2   -1    0    0    0  501  0.00000000000E+00  0.00000000000E+00 -0.12283138292E+04  0.12283138292E+04  0.25500000920E-02 0.  1.
    10030    2    1    2    0    0  0.00000000000E+00  0.00000000000E+00 -0.15938153454E+03  0.22972461239E+04  0.22917105577E+04 0.  0.
        3    1    3    3  502    0 -0.10887419979E+03  0.36899002953E+02  0.10631372520E+04  0.10693343512E+04  0.10100000352E+00 0. -1.
       -3    1    3    3    0  502  0.10887419979E+03 -0.36899002953E+02 -0.12225187866E+04  0.12279117727E+04  0.10100000352E+00 0.  1.
</event>
<event>
 5   0  0.5924654E-05  0.2332478E+04  0.7818609E-02  0.8465225E-01
       -1   -1    0    0    0  501  0.00000000000E+00  0.00000000000E+00  0.21953884398E+04  0.21953884398E+04  0.50400001928E-02 0.  1.
        1   -1    0    0  501    0  0.00000000000E+00  0.00000000000E+00 -0.61953188995E+03  0.61953188997E+03  0.50400001928E-02 0. -1.
    10030    2    1    2    0    0  0.00000000000E+00  0.00000000000E+00  0.15758565498E+04  0.28149203298E+04  0.23324777807E+04 0.  0.
        5    1    3    3  502    0 -0.26029638990E+03 -0.10461807323E+04  0.25113306244E+03  0.11069499719E+04  0.46999998093E+01 0.  1.
       -5    1    3    3    0  502  0.26029638990E+03  0.10461807323E+04  0.13247234874E+04  0.17079703579E+04  0.46999998093E+01 0. -1.
</event>
<event>
 5   0  0.5632156E-05  0.2293209E+04  0.7818609E-02  0.8480603E-01
       -1   -1    0    0    0  501  0.00000000000E+00  0.00000000000E+00  0.88826271528E+03  0.88826271529E+03  0.50400001928E-02 0. -1.
        1   -1    0    0  501    0  0.00000000000E+00  0.00000000000E+00 -0.14800825145E+04  0.14800825145E+04  0.50400001928E-02 0.  1.
    10030    2    1    2    0    0  0.00000000000E+00  0.00000000000E+00 -0.59181979924E+03  0.23683452298E+04  0.22932092039E+04 0.  0.
        4    1    3    3  502    0 -0.10400058781E+03 -0.65415127533E+03 -0.12625082954E+04  0.14257134432E+04  0.12699999809E+01 0.  1.
       -4    1    3    3    0  502  0.10400058781E+03  0.65415127533E+03  0.67068849618E+03  0.94263178659E+03  0.12699999809E+01 0. -1.
</event>
<event>
 5   0  0.5663790E-05  0.2299154E+04  0.7818609E-02  0.8478255E-01
       -1   -1    0    0    0  501  0.00000000000E+00  0.00000000000E+00  0.17736725981E+04  0.17736725981E+04  0.50400001928E-02 0. -1.
        1   -1    0    0  501    0  0.00000000000E+00  0.00000000000E+00 -0.74507937569E+03  0.74507937571E+03  0.50400001928E-02 0.  1.
    10030    2    1    2    0    0  0.00000000000E+00  0.00000000000E+00  0.10285932224E+04  0.25187519738E+04  0.22991536461E+04 0.  0.
        3    1    3    3  502    0 -0.23260180802E+03 -0.23267368160E+03 -0.69240263430E+03  0.76659119574E+03  0.10100000352E+00 0.  1.
       -3    1    3    3    0  502  0.23260180802E+03  0.23267368160E+03  0.17209958567E+04  0.17521607780E+04  0.10100000352E+00 0. -1.
</event>
<event>
 5   0  0.1237296E-04  0.2215191E+04  0.7818609E-02  0.8512132E-01
        2   -1    0    0  501    0  0.00000000000E+00  0.00000000000E+00  0.18812033040E+04  0.18812033040E+04  0.25500000920E-02 0.  1.
       -2   -1    0    0    0  501  0.00000000000E+00  0.00000000000E+00 -0.65211849110E+03  0.65211849111E+03  0.25500000920E-02 0. -1.
    10030    2    1    2    0    0  0.00000000000E+00  0.00000000000E+00  0.12290848129E+04  0.25333217951E+04  0.22151907007E+04 0.  0.
        1    1    3    3  502    0  0.10213024242E+03 -0.12796455132E+03 -0.63820345588E+03  0.65886961072E+03  0.50400001928E-02 0. -1.
       -1    1    3    3    0  502 -0.10213024242E+03  0.12796455132E+03  0.18672882688E+04  0.18744521844E+04  0.50400001928E-02 0.  1.
</event>
<event>
 5   0  0.5642466E-05  0.2282996E+04  0.7818609E-02  0.8484656E-01
       -1   -1    0    0    0  501  0.00000000000E+00  0.00000000000E+00  0.11526155227E+04  0.11526155227E+04  0.50400001928E-02 0. -1.
        1   -1    0    0  501    0  0.00000000000E+00  0.00000000000E+00 -0.11304874418E+04  0.11304874418E+04  0.50400001928E-02 0.  1.
    10030    2    1    2    0    0  0.00000000000E+00  0.00000000000E+00  0.22128080854E+02  0.22831029645E+04  0.22829957281E+04 0.  0.
        1    1    3    3  502    0  0.38747850871E+02  0.11213126989E+04  0.22124957501E+03  0.11435886232E+04  0.50400001928E-02 0.  1.
       -1    1    3    3    0  502 -0.38747850871E+02 -0.11213126989E+04 -0.19912149415E+03  0.11395143413E+04  0.50400001928E-02 0. -1.
</event>
<event>
 5   0  0.1257524E-04  0.2282378E+04  0.7818609E-02  0.8484902E-01
        2   -1    0    0  501    0  0.00000000000E+00  0.00000000000E+00  0.81126749384E+03  0.81126749384E+03  0.25500000920E-02 0. -1.
       -2   -1    0    0    0  501  0.00000000000E+00  0.00000000000E+00 -0.16052810218E+04  0.16052810218E+04  0.25500000920E-02 0.  1.
    10030    2    1    2    0    0  0.00000000000E+00  0.00000000000E+00 -0.79401352791E+03  0.24165485156E+04  0.22823779805E+04 0.  0.
        3    1    3    3  502    0 -0.55133807287E+03  0.13105644879E+03  0.65175898422E+03  0.86367774492E+03  0.10100000352E+00 0. -1.
       -3    1    3    3    0  502  0.55133807287E+03 -0.13105644879E+03 -0.14457725121E+04  0.15528707707E+04  0.10100000352E+00 0.  1.
</event>
<event>
 5   0  0.1257524E-04  0.2327266E+04  0.7818609E-02  0.8467247E-01
       -2   -1    0    0    0  501  0.00000000000E+00  0.00000000000E+00  0.87843135194E+03  0.87843135195E+03  0.25500000920E-02 0. -1.
        2   -1    0    0  501    0  0.00000000000E+00  0.00000000000E+00 -0.15414317408E+04  0.15414317408E+04  0.25500000920E-02 0.  1.
    10030    2    1    2    0    0  0.00000000000E+00  0.00000000000E+00 -0.66300038884E+03  0.24198630927E+04  0.23272661799E+04 0.  0.
        3    1    3    3  502    0 -0.61530528670E+03  0.74010860730E+03  0.34849292552E+03  0.10236252614E+04  0.10100000352E+00 0. -1.
       -3    1    3    3    0  502  0.61530528670E+03 -0.74010860730E+03 -0.10114933144E+04  0.13962378313E+04  0.10100000352E+00 0.  1.
</event>
<event>
 5   0  0.1281432E-04  0.2269036E+04  0.7818609E-02  0.8490231E-01
       -2   -1    0    0    0  501  0.00000000000E+00  0.00000000000E+00  0.46231574830E+03  0.46231574831E+03  0.25500000920E-02 0.  1.
        2   -1    0    0  501    0  0.00000000000E+00  0.00000000000E+00 -0.27840940947E+04  0.27840940947E+04  0.25500000920E-02 0. -1.
    10030    2    1    2    0    0  0.00000000000E+00  0.00000000000E+00 -0.23217783464E+04  0.32464098430E+04  0.22690355174E+04 0.  0.
        4    1    3    3  502    0  0.56780765738E+03 -0.60188513416E+03 -0.50371880941E+02  0.82898141704E+03  0.12699999809E+01 0.  1.
       -4    1    3    3    0  502 -0.56780765738E+03  0.60188513416E+03 -0.22714064655E+04  0.24174284260E+04  0.12699999809E+01 0. -1.
</event>
<event>
 5   0  0.5663790E-05  0.2370853E+04  0.7818609E-02  0.8450497E-01
        1   -1    0    0  501    0  0.00000000000E+00  0.00000000000E+00  0.68853768578E+03  0.68853768580E+03  0.50400001928E-02 0. -1.
       -1   -1    0    0    0  501  0.00000000000E+00  0.00000000000E+00 -0.20408997881E+04  0.20408997881E+04  0.50400001928E-02 0.  1.
    10030    2    1    2    0    0  0.00000000000E+00  0.00000000000E+00 -0.13523621023E+04  0.27294374739E+04  0.23708533629E+04 0.  0.
        3    1    3    3  502    0 -0.89061736045E+02  0.11457933368E+04 -0.34160161250E+03  0.11989437165E+04  0.10100000352E+00 0. -1.
       -3    1    3    3    0  502  0.89061736045E+02 -0.11457933368E+04 -0.10107604898E+04  0.15304937574E+04  0.10100000352E+00 0.  1.
</event>
<event>
 5   0  0.1281432E-04  0.2412319E+04  0.7818609E-02  0.8434906E-01
        2   -1    0    0  501    0  0.00000000000E+00  0.00000000000E+00  0.18636435727E+04  0.18636435727E+04  0.25500000920E-02 0. -1.
       -2   -1    0    0    0  501  0.00000000000E+00  0.00000000000E+00 -0.78063248456E+03  0.78063248456E+03  0.25500000920E-02 0.  1.
    10030    2    1    2    0    0  0.00000000000E+00  0.00000000000E+00  0.10830110881E+04  0.26442760573E+04  0.24123189777E+04 0.  0.
        4    1    3    3  502    0  0.10523888927E+04 -0.32497095877E+03  0.26132992029E+01  0.11014249624E+04  0.12699999809E+01 0. -1.
       -4    1    3    3    0  502 -0.10523888927E+04  0.32497095877E+03  0.10803977889E+04  0.15428510948E+04  0.12699999809E+01 0.  1.
</event>
<event>
 5   0  0.5924654E-05  0.1316818E+04  0.7818609E-02  0.9016333E-01
       -1   -1    0    0    0  501  0.00000000000E+00  0.00000000000E+00  0.18876619792E+03  0.18876619798E+03  0.50400001928E-02 0.  1.
        1   -1    0    0  501    0  0.00000000000E+00  0.00000000000E+00 -0.22965051522E+04  0.22965051522E+04  0.50400001928E-02 0. -1.
    10030    2    1    2    0    0  0.00000000000E+00  0.00000000000E+00 -0.21077389543E+04  0.24852713502E+04  0.13168182049E+04 0.  0.
        5    1    3    3  502    0 -0.49339261546E+03 -0.25427677606E+03 -0.38556384584E+03  0.67585096068E+03  0.46999998093E+01 0. -1.
       -5    1    3    3    0  502  0.49339261546E+03  0.25427677606E+03 -0.17221751084E+04  0.18094203895E+04  0.46999998093E+01 0.  1.
</event>
<event>
 5   0  0.1237296E-04  0.2172501E+04  0.7818609E-02  0.8529962E-01
        2   -1    0    0  501    0  0.00000000000E+00  0.00000000000E+00  0.13504384400E+04  0.13504384400E+04  0.25500000920E-02 0. -1.
       -2   -1    0    0    0  501  0.00000000000E+00  0.00000000000E+00 -0.87374603517E+03  0.87374603517E+03  0.25500000920E-02 0.  1.
    10030    2    1    2    0    0  0.00000000000E+00  0.00000000000E+00  0.47669240484E+03  0.22241844752E+04  0.21725010773E+04 0.  0.
        1    1    3    3  502    0 -0.39018730335E+03  0.48792894938E+03  0.11480912936E+04  0.13070709276E+04  0.50400001928E-02 0. -1.
       -1    1    3    3    0  502  0.39018730335E+03 -0.48792894938E+03 -0.67139888874E+03  0.91711354759E+03  0.50400001928E-02 0.  1.
</event>
<event>
 5   0  0.5843670E-05  0.2188324E+04  0.7818609E-02  0.8523304E-01
        1   -1    0    0  501    0  0.00000000000E+00  0.00000000000E+00  0.87929094449E+03  0.87929094451E+03  0.50400001928E-02 0.  1.
       -1   -1    0    0    0  501  0.00000000000E+00  0.00000000000E+00 -0.13615405319E+04  0.13615405319E+04  0.50400001928E-02 0. -1.
    10030    2    1    2    0    0  0.00000000000E+00  0.00000000000E+00 -0.48224958738E+03  0.22408314764E+04  0.21883237971E+04 0.  0.
        2    1    3    3  502    0 -0.63919562580E+03  0.73426001927E+03  0.27034116150E+03  0.10103430940E+04  0.25500000920E-02 0.  1.
       -2    1    3    3    0  502  0.63919562580E+03 -0.73426001927E+03 -0.75259074889E+03  0.12304883824E+04  0.25500000920E-02 0. -1.
</event>
<event>
 5   0  0.1234988E-04  0.2284404E+04  0.7818609E-02  0.8484096E-01
       -2   -1    0    0    0  501  0.00000000000E+00  0.00000000000E+00  0.82178029182E+03  0.82178029183E+03  0.25500000920E-02 0.  1.
        2   -1    0    0  501    0  0.00000000000E+00  0.00000000000E+00 -0.15875595094E+04  0.15875595094E+04  0.25500000920E-02 0. -1.
    10030    2    1    2    0    0  0.00000000000E+00  0.00000000000E+00 -0.76577921762E+03  0.24093398013E+04  0.22844037445E+04 0.  0.
        5    1    3    3  502    0 -0.10582544927E+03 -0.10905489263E+04 -0.72319218930E+03  0.13128309179E+04  0.46999998093E+01 0.  1.
       -5    1    3    3    0  502  0.10582544927E+03  0.10905489263E+04 -0.42587028326E+02  0.10965088834E+04  0.46999998093E+01 0. -1.
</event>
<event>
 5   0  0.5663790E-05  0.2245010E+04  0.7818609E-02  0.8499924E-01
       -1   -1    0    0    0  501  0.00000000000E+00  0.00000000000E+00  0.12772545453E+04  0.12772545453E+04  0.50400001928E-02 0. -1.
        1   -1    0    0  501    0  0.00000000000E+00  0.00000000000E+00 -0.98650446450E+03  0.98650446451E+03  0.50400001928E-02 0.  1.
    10030    2    1    2    0    0  0.00000000000E+00  0.00000000000E+00  0.29075008078E+03  0.22637590098E+04  0.22450098541E+04 0.  0.
        3    1    3    3  502    0 -0.10574455488E+04 -0.30678415105E+03  0.36562471218E+03  0.11601676794E+04  0.10100000352E+00 0. -1.
       -3    1    3    3    0  502  0.10574455488E+04  0.30678415105E+03 -0.74874631397E+02  0.11035913304E+04  0.10100000352E+00 0.  1.
</event>
<event>
 5   0  0.5663790E-05  0.1282802E+04  0.7818609E-02  0.9043316E-01
       -1   -1    0    0    0  501  0.00000000000E+00  0.00000000000E+00  0.92086409008E+03  0.92086409009E+03  0.50400001928E-02 0. -1.
        1   -1    0    0  501    0  0.00000000000E+00  0.00000000000E+00 -0.44674904165E+03  0.44674904168E+03  0.50400001928E-02 0.  1.
    10030    2    1    2    0    0  0.00000000000E+00  0.00000000000E+00  0.47411504843E+03  0.13676131318E+04  0.12828018549E+04 0.  0.
        3    1    3    3  502    0 -0.39391389161E+03  0.10901294294E+02  0.77658725345E+03  0.87084715343E+03  0.10100000352E+00 0. -1.
       -3    1    3    3    0  502  0.39391389161E+03 -0.10901294294E+02 -0.30247220502E+03  0.49676597834E+03  0.10100000352E+00 0.  1.
</event>
<event>
 5   0  0.4489500E-05  0.2236361E+04  0.7818609E-02  0.8503445E-01
       -3   -1    0    0    0  501  0.00000000000E+00  0.00000000000E+00  0.90043425679E+03  0.90043426245E+03  0.10100000352E+00 0.  1.
        3   -1    0    0  501    0  0.00000000000E+00  0.00000000000E+00 -0.13885826322E+04  0.13885826358E+04  0.10100000352E+00 0. -1.
    10030    2    1    2    0    0  0.00000000000E+00  0.00000000000E+00 -0.48814837538E+03  0.22890168983E+04  0.22363607769E+04 0.  0.
        2    1    3    3  502    0 -0.10217958811E+04 -0.40466829467E+03 -0.33054636106E+02  0.10995070988E+04  0.25500000920E-02 0. -1.
       -2    1    3    3    0  502  0.10217958811E+04  0.40466829467E+03 -0.45509373927E+03  0.11895097994E+04  0.25500000920E-02 0.  1.
</event>
<event>
 5   0  0.5642466E-05  0.2526360E+04  0.7818609E-02  0.8393654E-01
        1   -1    0    0  501    0  0.00000000000E+00  0.00000000000E+00  0.61188022414E+03  0.61188022416E+03  0.50400001928E-02 0.  1.
       -1   -1    0    0    0  501  0.00000000000E+00  0.00000000000E+00 -0.26077385074E+04  0.26077385074E+04  0.50400001928E-02 0. -1.
    10030    2    1    2    0    0  0.00000000000E+00  0.00000000000E+00 -0.19958582832E+04  0.32196187315E+04  0.25263599288E+04 0.  0.
        1    1    3    3  502    0 -0.85225572135E+02 -0.81392312949E+01  0.60817856389E+03  0.61417490247E+03  0.50400001928E-02 0.  1.
       -1    1    3    3    0  502  0.85225572135E+02  0.81392312949E+01 -0.26040368471E+04  0.26054438291E+04  0.50400001928E-02 0. -1.
</event>
<event>
 5   0  0.5843670E-05  0.2358441E+04  0.7818609E-02  0.8455229E-01
       -1   -1    0    0    0  501  0.00000000000E+00  0.00000000000E+00  0.17023103612E+04  0.17023103612E+04  0.50400001928E-02 0. -1.
        1   -1    0    0  501    0  0.00000000000E+00  0.00000000000E+00 -0.81686675274E+03  0.81686675276E+03  0.50400001928E-02 0.  1.
    10030    2    1    2    0    0  0.00000000000E+00  0.00000000000E+00  0.88544360841E+03  0.25191771139E+04  0.23584407874E+04 0.  0.
        2    1    3    3  502    0  0.10357217588E+04  0.10678413212E+03 -0.14857463620E+03  0.10517589244E+04  0.25500000920E-02 0.  1.
       -2    1    3    3    0  502 -0.10357217588E+04 -0.10678413212E+03  0.10340182446E+04  0.14674181895E+04  0.25500000920E-02 0. -1.
</event>
<event>
 5   0  0.5924654E-05  0.1249400E+04  0.7818609E-02  0.9070683E-01
       -1   -1    0    0    0  501  0.00000000000E+00  0.00000000000E+00  0.37079445370E+03  0.37079445373E+03  0.50400001928E-02 0. -1.
        1   -1    0    0  501    0  0.00000000000E+00  0.00000000000E+00 -0.10524704393E+04  0.10524704393E+04  0.50400001928E-02 0.  1.
    10030    2    1    2    0    0  0.00000000000E+00  0.00000000000E+00 -0.68167598562E+03  0.14232648931E+04  0.12494001787E+04 0.  0.
        5    1    3    3  502    0  0.39588163580E+03  0.87397661872E+02  0.20055301339E+03  0.45233198211E+03  0.46999998093E+01 0. -1.
       -5    1    3    3    0  502 -0.39588163580E+03 -0.87397661872E+02 -0.88222899901E+03  0.97093291095E+03  0.46999998093E+01 0.  1.
</event>
<event>
 5   0  0.1234988E-04  0.2314817E+04  0.7818609E-02  0.8472102E-01
        2   -1    0    0  501    0  0.00000000000E+00  0.00000000000E+00  0.16619850637E+04  0.16619850638E+04  0.25500000920E-02 0. -1.
       -2   -1    0    0    0  501  0.00000000000E+00  0.00000000000E+00 -0.80602081840E+03  0.80602081840E+03  0.25500000920E-02 0.  1.
    10030    2    1    2    0    0  0.00000000000E+00  0.00000000000E+00  0.85596424535E+03  0.24680058822E+04  0.23148171083E+04 0.  0.
        5    1    3    3  502    0 -0.10533851634E+04 -0.18304981363E+03  0.90053446939E+03  0.13978955459E+04  0.46999998093E+01 0. -1.
       -5    1    3    3    0  502  0.10533851634E+04  0.18304981363E+03 -0.44570224039E+02  0.10701103362E+04  0.46999998093E+01 0.  1.
</event>
<event>
 5   0  0.5924654E-05  0.2324411E+04  0.7818609E-02  0.8468358E-01
        1   -1    0    0  501    0  0.00000000000E+00  0.00000000000E+00  0.17293803976E+04  0.17293803976E+04  0.50400001928E-02 0.  1.
       -1   -1    0    0    0  501  0.00000000000E+00  0.00000000000E+00 -0.78104362859E+03  0.78104362861E+03  0.50400001928E-02 0. -1.
    10030    2    1    2    0    0  0.00000000000E+00  0.00000000000E+00  0.94833676901E+03  0.25104240262E+04  0.23244109284E+04 0.  0.
        5    1    3    3  502    0  0.58825774303E+03  0.69719417044E+03  0.12519164570E+04  0.15490138117E+04  0.46999998093E+01 0.  1.
       -5    1    3    3    0  502 -0.58825774303E+03 -0.69719417044E+03 -0.30357968802E+03  0.96141021449E+03  0.46999998093E+01 0. -1.
</event>
<event>
 5   0  0.1237296E-04  0.2266381E+04  0.7818609E-02  0.8491296E-01
        2   -1    0    0  501    0  0.00000000000E+00  0.00000000000E+00  0.18192489341E+04  0.18192489341E+04  0.25500000920E-02 0. -1.
       -2   -1    0    0    0  501  0.00000000000E+00  0.00000000000E+00 -0.70585204462E+03  0.70585204463E+03  0.25500000920E-02 0.  1.
    10030    2    1    2    0    0  0.00000000000E+00  0.00000000000E+00  0.11133968895E+04  0.25251009787E+04  0.22663808857E+04 0.  0.
        1    1    3    3  502    0 -0.63450728074E+02 -0.51140462734E+03 -0.56774893540E+03  0.76674607363E+03  0.50400001928E-02 0.  1.
       -1    1    3    3    0  502  0.63450728074E+02  0.51140462734E+03  0.16811458249E+04  0.17583549051E+04  0.50400001928E-02 0. -1.
</event>
<event>
 5   0  0.5642466E-05  0.2239344E+04  0.7818609E-02  0.8502229E-01
        1   -1    0    0  501    0  0.00000000000E+00  0.00000000000E+00  0.10473996402E+04  0.10473996402E+04  0.50400001928E-02 0.  1.
       -1   -1    0    0    0  501  0.00000000000E+00  0.00000000000E+00 -0.11969307870E+04  0.11969307870E+04  0.50400001928E-02 0. -1.
    10030    2    1    2    0    0  0.00000000000E+00  0.00000000000E+00 -0.14953114677E+03  0.22443304273E+04  0.22393435428E+04 0.  0.
        1    1    3    3  502    0  0.95309037053E+03 -0.56977668691E+02 -0.66090741248E+03  0.11612176011E+04  0.50400001928E-02 0. -1.
       -1    1    3    3    0  502 -0.95309037053E+03  0.56977668691E+02  0.51137626570E+03  0.10831128262E+04  0.50400001928E-02 0.  1.
</event>
<event>
 5   0  0.1281432E-04  0.2209631E+04  0.7818609E-02  0.8514430E-01
        2   -1    0    0  501    0  0.00000000000E+00  0.00000000000E+00  0.20679539492E+04  0.20679539492E+04  0.25500000920E-02 0. -1.
       -2   -1    0    0    0  501  0.00000000000E+00  0.00000000000E+00 -0.59025373166E+03  0.59025373166E+03  0.25500000920E-02 0.  1.
    10030    2    1    2    0    0  0.00000000000E+00  0.00000000000E+00  0.14777002175E+04  0.26582076809E+04  0.22096312230E+04 0.  0.
        4    1    3    3  502    0  0.36770497645E+03  0.88419208526E+03  0.75978333316E+02  0.96061278014E+03  0.12699999809E+01 0.  1.
       -4    1    3    3    0  502 -0.36770497645E+03 -0.88419208526E+03  0.14017218842E+04  0.16975949007E+04  0.12699999809E+01 0. -1.
</event>
<event>
 5   0  0.1257524E-04  0.2767710E+04  0.7818609E-02  0.8313364E-01
       -2   -1    0    0    0  501  0.00000000000E+00  0.00000000000E+00  0.15785360659E+04  0.15785360659E+04  0.25500000920E-02 0.  1.
        2   -1    0    0  501    0  0.00000000000E+00  0.00000000000E+00 -0.12131838356E+04  0.12131838356E+04  0.25500000920E-02 0. -1.
    10030    2    1    2    0    0  0.00000000000E+00  0.00000000000E+00  0.36535223028E+03  0.27917199015E+04  0.27677098396E+04 0.  0.
        3    1    3    3  502    0 -0.97894566370E+03  0.51748368633E+03  0.10198949216E+04  0.15054267300E+04  0.10100000352E+00 0.  1.
       -3    1    3    3    0  502  0.97894566370E+03 -0.51748368633E+03 -0.65454269135E+03  0.12862931715E+04  0.10100000352E+00 0. -1.
</event>
<event>
 5   0  0.5663790E-05  0.2259356E+04  0.7818609E-02  0.8494121E-01
        1   -1    0    0  501    0  0.00000000000E+00  0.00000000000E+00  0.14814596546E+04  0.14814596546E+04  0.50400001928E-02 0.  1.
       -1   -1    0    0    0  501  0.00000000000E+00  0.00000000000E+00 -0.86142907215E+03  0.86142907216E+03  0.50400001928E-02 0. -1.
    10030    2    1    2    0    0  0.00000000000E+00  0.00000000000E+00  0.62003058247E+03  0.23428887268E+04  0.22593560284E+04 0.  0.
        3    1    3    3  502    0 -0.49108041319E+03  0.10127654626E+04  0.20991365291E+03  0.11449531022E+04  0.10100000352E+00 0. -1.
       -3    1    3    3    0  502  0.49108041319E+03 -0.10127654626E+04  0.41011692956E+03  0.11979356245E+04  0.10100000352E+00 0.  1.
</event>
<event>
 5   0  0.5924654E-05  0.2272349E+04  0.7818609E-02  0.8488904E-01
        1   -1    0    0  501    0  0.00000000000E+00  0.00000000000E+00  0.12462209116E+04  0.12462209116E+04  0.50400001928E-02 0. -1.
       -1   -1    0    0    0  501  0.00000000000E+00  0.00000000000E+00 -0.10358456560E+04  0.10358456560E+04  0.50400001928E-02 0.  1.
    10030    2    1    2    0    0  0.00000000000E+00  0.00000000000E+00  0.21037525557E+03  0.22820665676E+04  0.22723490204E+04 0.  0.
        5    1    3    3  502    0  0.62734511938E+03  0.31878694770E+02 -0.84558812694E+03  0.10533847922E+04  0.46999998093E+01 0.  1.
       -5    1    3    3    0  502 -0.62734511938E+03 -0.31878694770E+02  0.10559633825E+04  0.12286817754E+04  0.46999998093E+01 0. -1.
</event>
<event>
 5   0  0.4489500E-05  0.2353254E+04  0.7818609E-02  0.8457215E-01
       -3   -1    0    0    0  501  0.00000000000E+00  0.00000000000E+00  0.95308227412E+03  0.95308227947E+03  0.10100000352E+00 0.  1.
        3   -1    0    0  501    0  0.00000000000E+00  0.00000000000E+00 -0.14526044695E+04  0.14526044731E+04  0.10100000352E+00 0. -1.
    10030    2    1    2    0    0  0.00000000000E+00  0.00000000000E+00 -0.49952219542E+03  0.24056867525E+04  0.23532544120E+04 0.  0.
        1    1    3    3  502    0  0.10154915000E+04 -0.77221259148E+02 -0.85218333889E+03  0.13279316822E+04  0.50400001928E-02 0. -1.
       -1    1    3    3    0  502 -0.10154915000E+04  0.77221259148E+02  0.35266114347E+03  0.10777550703E+04  0.50400001928E-02 0.  1.
</event>
<event>
 5   0  0.5843670E-05  0.2280160E+04  0.7818609E-02  0.8485785E-01
        1   -1    0    0  501    0  0.00000000000E+00  0.00000000000E+00  0.91563083999E+03  0.91563084001E+03  0.50400001928E-02 0. -1.
       -1   -1    0    0    0  501  0.00000000000E+00  0.00000000000E+00 -0.14195483931E+04  0.14195483931E+04  0.50400001928E-02 0.  1.
    10030    2    1    2    0    0  0.00000000000E+00  0.00000000000E+00 -0.50391755314E+03  0.23351792331E+04  0.22801598958E+04 0.  0.
        2    1    3    3  502    0  0.17439333268E+03  0.11090255762E+04 -0.48593547378E+02  0.11237046303E+04  0.25500000920E-02 0.  1.
       -2    1    3    3    0  502 -0.17439333268E+03 -0.11090255762E+04 -0.45532400576E+03  0.12114746029E+04  0.25500000920E-02 0. -1.
</event>
<event>
 5   0  0.1257524E-04  0.2362910E+04  0.7818609E-02  0.8453521E-01
        2   -1    0    0  501    0  0.00000000000E+00  0.00000000000E+00  0.12359837591E+04  0.12359837591E+04  0.25500000920E-02 0.  1.
       -2   -1    0    0    0  501  0.00000000000E+00  0.00000000000E+00 -0.11293319900E+04  0.11293319900E+04  0.25500000920E-02 0. -1.
    10030    2    1    2    0    0  0.00000000000E+00  0.00000000000E+00  0.10665176911E+03  0.23653157491E+04  0.23629100688E+04 0.  0.
        3    1    3    3  502    0  0.18960291558E+03 -0.87393290580E+03  0.82620521094E+03  0.12175068995E+04  0.10100000352E+00 0.  1.
       -3    1    3    3    0  502 -0.18960291558E+03  0.87393290580E+03 -0.71955344183E+03  0.11478088496E+04  0.10100000352E+00 0. -1.
</event>
<event>
 5   0  0.1270613E-04  0.2308876E+04  0.7818609E-02  0.8474430E-01
       -2   -1    0    0    0  501  0.00000000000E+00  0.00000000000E+00  0.75988852185E+03  0.75988852185E+03  0.25500000920E-02 0.  1.
        2   -1    0    0  501    0  0.00000000000E+00  0.00000000000E+00 -0.17538449943E+04  0.17538449943E+04  0.25500000920E-02 0. -1.
    10030    2    1    2    0    0  0.00000000000E+00  0.00000000000E+00 -0.99395647248E+03  0.25137335162E+04  0.23088756400E+04 0.  0.
        2    1    3    3  502    0  0.99326618117E+03  0.31604537799E+02  0.14264276175E+03  0.10039539387E+04  0.25500000920E-02 0.  1.
       -2    1    3    3    0  502 -0.99326618117E+03 -0.31604537799E+02 -0.11365992342E+04  0.15097795775E+04  0.25500000920E-02 0. -1.
</event>
<event>
 5   0  0.1257524E-04  0.2259967E+04  0.7818609E-02  0.8493875E-01
        2   -1    0    0  501    0  0.00000000000E+00  0.00000000000E+00  0.15524670616E+04  0.15524670616E+04  0.25500000920E-02 0. -1.
       -2   -1    0    0    0  501  0.00000000000E+00  0.00000000000E+00 -0.82247308647E+03  0.82247308648E+03  0.25500000920E-02 0.  1.
    10030    2    1    2    0    0  0.00000000000E+00  0.00000000000E+00  0.72999397516E+03  0.23749401481E+04  0.22599667040E+04 0.  0.
        3    1    3    3  502    0 -0.18502987867E+03  0.96123554130E+03  0.95820816209E+03  0.13698075463E+04  0.10100000352E+00 0. -1.
       -3    1    3    3    0  502  0.18502987867E+03 -0.96123554130E+03 -0.22821418693E+03  0.10051326018E+04  0.10100000352E+00 0.  1.
</event>
<event>
 5   0  0.1270613E-04  0.2246699E+04  0.7818609E-02  0.8499238E-01
       -2   -1    0    0    0  501  0.00000000000E+00  0.00000000000E+00  0.78733075537E+03  0.78733075538E+03  0.25500000920E-02 0. -1.
        2   -1    0    0  501    0  0.00000000000E+00  0.00000000000E+00 -0.16027752693E+04  0.16027752693E+04  0.25500000920E-02 0.  1.
    10030    2    1    2    0    0  0.00000000000E+00  0.00000000000E+00 -0.81544451389E+03  0.23901060246E+04  0.22466991463E+04 0.  0.
        2    1    3    3  502    0  0.10987999156E+04  0.22462212561E+03 -0.47582324739E+03  0.12182873703E+04  0.25500000920E-02 0. -1.
       -2    1    3    3    0  502 -0.10987999156E+04 -0.22462212561E+03 -0.33962126650E+03  0.11718186543E+04  0.25500000920E-02 0.  1.
</event>
<event>
 5   0  0.1257524E-04  0.2278066E+04  0.7818609E-02  0.8486620E-01
       -2   -1    0    0    0  501  0.00000000000E+00  0.00000000000E+00  0.76752487379E+03  0.76752487379E+03  0.25500000920E-02 0. -1.
        2   -1    0    0  501    0  0.00000000000E+00  0.00000000000E+00 -0.16903633612E+04  0.16903633612E+04  0.25500000920E-02 0.  1.
    10030    2    1    2    0    0  0.00000000000E+00  0.00000000000E+00 -0.92283848743E+03  0.24578882350E+04  0.22780657809E+04 0.  0.
        3    1    3    3  502    0 -0.31397288468E+02  0.49609411671E+03  0.64431996258E+03  0.81378337826E+03  0.10100000352E+00 0. -1.
       -3    1    3    3    0  502  0.31397288468E+02 -0.49609411671E+03 -0.15671584500E+04  0.16441048567E+04  0.10100000352E+00 0.  1.
</event>
<event>
 5   0  0.1234988E-04  0.2295561E+04  0.7818609E-02  0.8479673E-01
        2   -1    0    0  501    0  0.00000000000E+00  0.00000000000E+00  0.13225777953E+04  0.13225777953E+04  0.25500000920E-02 0.  1.
       -2   -1    0    0    0  501  0.00000000000E+00  0.00000000000E+00 -0.99608497407E+03  0.99608497408E+03  0.25500000920E-02 0. -1.
    10030    2    1    2    0    0  0.00000000000E+00  0.00000000000E+00  0.32649282118E+03  0.23186627693E+04  0.22955608194E+04 0.  0.
        5    1    3    3  502    0  0.11473023966E+04  0.12980347416E+01  0.19633744166E+03  0.11639909601E+04  0.46999998093E+01 0. -1.
       -5    1    3    3    0  502 -0.11473023966E+04 -0.12980347416E+01  0.13015537952E+03  0.11546718092E+04  0.46999998093E+01 0.  1.
</event>
<event>
 5   0  0.1281432E-04  0.2316554E+04  0.7818609E-02  0.8471423E-01
        2   -1    0    0  501    0  0.00000000000E+00  0.00000000000E+00  0.12453548364E+04  0.12453548365E+04  0.25500000920E-02 0.  1.
       -2   -1    0    0    0  501  0.00000000000E+00  0.00000000000E+00 -0.10772879943E+04  0.10772879943E+04  0.25500000920E-02 0. -1.
    10030    2    1    2    0    0  0.00000000000E+00  0.00000000000E+00  0.16806684220E+03  0.23226428307E+04  0.23165541771E+04 0.  0.
        4    1    3    3  502    0 -0.60793444214E+03 -0.30215781780E+03  0.10249671538E+04  0.12294075451E+04  0.12699999809E+01 0.  1.
       -4    1    3    3    0  502  0.60793444214E+03  0.30215781780E+03 -0.85690031157E+03  0.10932352856E+04  0.12699999809E+01 0. -1.
</event>
<event>
 5   0  0.1281432E-04  0.2263097E+04  0.7818609E-02  0.8492615E-01
       -2   -1    0    0    0  501  0.00000000000E+00  0.00000000000E+00  0.55385282639E+03  0.55385282640E+03  0.25500000920E-02 0.  1.
        2   -1    0    0  501    0  0.00000000000E+00  0.00000000000E+00 -0.23118093075E+04  0.23118093075E+04  0.25500000920E-02 0. -1.
    10030    2    1    2    0    0  0.00000000000E+00  0.00000000000E+00 -0.17579564811E+04  0.28656621339E+04  0.22630970983E+04 0.  0.
        4    1    3    3  502    0 -0.86445597263E+03 -0.47395774863E+03 -0.15822701253E+04  0.18642694114E+04  0.12699999809E+01 0. -1.
       -4    1    3    3    0  502  0.86445597263E+03  0.47395774863E+03 -0.17568635583E+03  0.10013927225E+04  0.12699999809E+01 0.  1.
</event>
<event>
 5   0  0.5642466E-05  0.2293901E+04  0.7818609E-02  0.8480330E-01
        1   -1    0    0  501    0  0.00000000000E+00  0.00000000000E+00  0.10805306760E+04  0.10805306760E+04  0.50400001928E-02 0.  1.
       -1   -1    0    0    0  501  0.00000000000E+00  0.00000000000E+00 -0.12174530616E+04  0.12174530616E+04  0.50400001928E-02 0. -1.
    10030    2    1    2    0    0  0.00000000000E+00  0.00000000000E+00 -0.13692238560E+03  0.22979837375E+04  0.22939009391E+04 0.  0.
        1    1    3    3  502    0  0.10601657557E+04 -0.23070826274E+02 -0.50628791206E+03  0.11750792069E+04  0.50400001928E-02 0. -1.
       -1    1    3    3    0  502 -0.10601657557E+04  0.23070826274E+02  0.36936552646E+03  0.11229045306E+04  0.50400001928E-02 0.  1.
</event>
<event>
 5   0  0.1270613E-04  0.2660288E+04  0.7818609E-02  0.8348006E-01
       -2   -1    0    0    0  501  0.00000000000E+00  0.00000000000E+00  0.76141887303E+03  0.76141887303E+03  0.25500000920E-02 0. -1.
        2   -1    0    0  501    0  0.00000000000E+00  0.00000000000E+00 -0.23236663592E+04  0.23236663592E+04  0.25500000920E-02 0.  1.
    10030    2    1    2    0    0  0.00000000000E+00  0.00000000000E+00 -0.15622474862E+04  0.30850852322E+04  0.26602882705E+04 0.  0.
        2    1    3    3  502    0 -0.11072574999E+02 -0.78695745092E+03  0.46241901258E+03  0.91282855711E+03  0.25500000920E-02 0. -1.
       -2    1    3    3    0  502  0.11072574999E+02  0.78695745092E+03 -0.20246664987E+04  0.21722566751E+04  0.25500000920E-02 0.  1.
</event>
<event>
 5   0  0.5924654E-05  0.2286772E+04  0.7818609E-02  0.8483155E-01
        1   -1    0    0  501    0  0.00000000000E+00  0.00000000000E+00  0.21607801426E+04  0.21607801426E+04  0.50400001928E-02 0.  1.
       -1   -1    0    0    0  501  0.00000000000E+00  0.00000000000E+00 -0.60502760914E+03  0.60502760916E+03  0.50400001928E-02 0. -1.
    10030    2    1    2    0    0  0.00000000000E+00  0.00000000000E+00  0.15557525335E+04  0.27658077518E+04  0.22867720862E+04 0.  0.
        5    1    3    3  502    0  0.60578091270E+02  0.11146649194E+04  0.10769923915E+04  0.15511551466E+04  0.46999998093E+01 0.  1.
       -5    1    3    3    0  502 -0.60578091270E+02 -0.11146649194E+04  0.47876014200E+03  0.12146526052E+04  0.46999998093E+01 0. -1.
</event>
<event>
 5   0  0.5632156E-05  0.2192335E+04  0.7818609E-02  0.8521625E-01
        1   -1    0    0  501    0  0.00000000000E+00  0.00000000000E+00  0.15822919508E+04  0.15822919508E+04  0.50400001928E-02 0.  1.
       -1   -1    0    0    0  501  0.00000000000E+00  0.00000000000E+00 -0.75939395917E+03  0.75939395919E+03  0.50400001928E-02 0. -1.
    10030    2    1    2    0    0  0.00000000000E+00  0.00000000000E+00  0.82289799158E+03  0.23416859100E+04  0.21923347820E+04 0.  0.
        4    1    3    3  502    0  0.62175813665E+03  0.87637809633E+03  0.17998475414E+03  0.10895034983E+04  0.12699999809E+01 0. -1.
       -4    1    3    3    0  502 -0.62175813665E+03 -0.87637809633E+03  0.64291323744E+03  0.12521824116E+04  0.12699999809E+01 0.  1.
</event>
<event>
 5   0  0.5924654E-05  0.2264607E+04  0.7818609E-02  0.8492008E-01
        1   -1    0    0  501    0  0.00000000000E+00  0.00000000000E+00  0.23381040657E+04  0.23381040657E+04  0.50400001928E-02 0. -1.
       -1   -1    0    0    0  501  0.00000000000E+00  0.00000000000E+00 -0.54835502133E+03  0.54835502135E+03  0.50400001928E-02 0.  1.
    10030    2    1    2    0    0  0.00000000000E+00  0.00000000000E+00  0.17897490444E+04  0.28864590871E+04  0.22646069017E+04 0.  0.
        5    1    3    3  502    0 -0.75331312574E+03  0.13857216286E+02  0.19722033105E+04  0.21112272913E+04  0.46999998093E+01 0. -1.
       -5    1    3    3    0  502  0.75331312574E+03 -0.13857216286E+02 -0.18245426610E+03  0.77523179571E+03  0.46999998093E+01 0.  1.
</event>
<event>
 5   0  0.1237296E-04  0.2228927E+04  0.7818609E-02  0.8506484E-01
        2   -1    0    0  501    0  0.00000000000E+00  0.00000000000E+00  0.23397691380E+04  0.23397691380E+04  0.25500000920E-02 0. -1.
       -2   -1    0    0    0  501  0.00000000000E+00  0.00000000000E+00 -0.53083393934E+03  0.53083393934E+03  0.25500000920E-02 0.  1.
    10030    2    1    2    0    0  0.00000000000E+00  0.00000000000E+00  0.18089351986E+04  0.28706030773E+04  0.22289269783E+04 0.  0.
        1    1    3    3  502    0  0.96937431496E+03  0.30153125488E+03  0.31229053768E+03  0.10621360742E+04  0.50400001928E-02 0.  1.
       -1    1    3    3    0  502 -0.96937431496E+03 -0.30153125488E+03  0.14966446609E+04  0.18084670031E+04  0.50400001928E-02 0. -1.
</event>
<event>
 5   0  0.1257524E-04  0.2304577E+04  0.7818609E-02  0.8476119E-01
       -2   -1    0    0    0  501  0.00000000000E+00  0.00000000000E+00  0.16698826715E+04  0.16698826715E+04  0.25500000920E-02 0.  1.
        2   -1    0    0  501    0  0.00000000000E+00  0.00000000000E+00 -0.79512686417E+03  0.79512686417E+03  0.25500000920E-02 0. -1.
    10030    2    1    2    0    0  0.00000000000E+00  0.00000000000E+00  0.87475580730E+03  0.24650095356E+04  0.23045768133E+04 0.  0.
        3    1    3    3  502    0  0.34762185191E+03  0.35862596884E+03  0.15480867830E+04  0.16266610696E+04  0.10100000352E+00 0.  1.
       -3    1    3    3    0  502 -0.34762185191E+03 -0.35862596884E+03 -0.67333097571E+03  0.83834846603E+03  0.10100000352E+00 0. -1.
</event>
<event>
 5   0  0.1234988E-04  0.2312179E+04  0.7818609E-02  0.8473135E-01
        2   -1    0    0  501    0  0.00000000000E+00  0.00000000000E+00  0.14199445732E+04  0.14199445732E+04  0.25500000920E-02 0. -1.
       -2   -1    0    0    0  501  0.00000000000E+00  0.00000000000E+00 -0.94126424120E+03  0.94126424121E+03  0.25500000920E-02 0.  1.
    10030    2    1    2    0    0  0.00000000000E+00  0.00000000000E+00  0.47868033200E+03  0.23612088144E+04  0.23121791031E+04 0.  0.
        5    1    3    3  502    0  0.87830492559E+03  0.39970324588E+03 -0.41082242488E+03  0.10487990188E+04  0.46999998093E+01 0.  1.
       -5    1    3    3    0  502 -0.87830492559E+03 -0.39970324588E+03  0.88950275688E+03  0.13124097956E+04  0.46999998093E+01 0. -1.
</event>
<event>
 5   0  0.5924654E-05  0.1700928E+04  0.7818609E-02  0.8760836E-01
        1   -1    0    0  501    0  0.00000000000E+00  0.00000000000E+00  0.80223991518E+03  0.80223991520E+03  0.50400001928E-02 0.  1.
       -1   -1    0    0    0  501  0.00000000000E+00  0.00000000000E+00 -0.90158647184E+03  0.90158647186E+03  0.50400001928E-02 0. -1.
    10030    2    1    2    0    0  0.00000000000E+00  0.00000000000E+00 -0.99346556660E+02  0.17038263871E+04  0.17009275760E+04 0.  0.
        5    1    3    3  502    0 -0.41122110534E+03  0.67596031373E+03  0.26269373646E+03  0.83369972555E+03  0.46999998093E+01 0.  1.
       -5    1    3    3    0  502  0.41122110534E+03 -0.67596031373E+03 -0.36204029312E+03  0.87012666150E+03  0.46999998093E+01 0. -1.
</event>
<event>
 5   0  0.1257524E-04  0.2161418E+04  0.7818609E-02  0.8534660E-01
        2   -1    0    0  501    0  0.00000000000E+00  0.00000000000E+00  0.15024357119E+04  0.15024357119E+04  0.25500000920E-02 0. -1.
       -2   -1    0    0    0  501  0.00000000000E+00  0.00000000000E+00 -0.77735914725E+03  0.77735914726E+03  0.25500000920E-02 0.  1.
    10030    2    1    2    0    0  0.00000000000E+00  0.00000000000E+00  0.72507656466E+03  0.22797948592E+04  0.21614181861E+04 0.  0.
        3    1    3    3  502    0  0.10577814548E+04 -0.11291065813E+03  0.56344795548E+03  0.12037956768E+04  0.10100000352E+00 0.  1.
       -3    1    3    3    0  502 -0.10577814548E+04  0.11291065813E+03  0.16162860917E+03  0.10759991823E+04  0.10100000352E+00 0. -1.
</event>
<event>
 5   0  0.1281432E-04  0.2304143E+04  0.7818609E-02  0.8476289E-01
        2   -1    0    0  501    0  0.00000000000E+00  0.00000000000E+00  0.12151313646E+04  0.12151313646E+04  0.25500000920E-02 0.  1.
       -2   -1    0    0    0  501  0.00000000000E+00  0.00000000000E+00 -0.10922846080E+04  0.10922846080E+04  0.25500000920E-02 0. -1.
    10030    2    1    2    0    0  0.00000000000E+00  0.00000000000E+00  0.12284675652E+03  0.23074159726E+04  0.23041434732E+04 0.  0.
        4    1    3    3  502    0 -0.29489655592E+03 -0.54864602069E+03 -0.90912348945E+03  0.11020361004E+04  0.12699999809E+01 0. -1.
       -4    1    3    3    0  502  0.29489655592E+03  0.54864602069E+03  0.10319702460E+04  0.12053798722E+04  0.12699999809E+01 0.  1.
</event>
<event>
 5   0  0.1234988E-04  0.2282791E+04  0.7818609E-02  0.8484737E-01
        2   -1    0    0  501    0  0.00000000000E+00  0.00000000000E+00  0.18007966293E+04  0.18007966293E+04  0.25500000920E-02 0. -1.
       -2   -1    0    0    0  501  0.00000000000E+00  0.00000000000E+00 -0.72344848708E+03  0.72344848708E+03  0.25500000920E-02 0.  1.
    10030    2    1    2    0    0  0.00000000000E+00  0.00000000000E+00  0.10773481422E+04  0.25242451164E+04  0.22827909208E+04 0.  0.
        5    1    3    3  502    0  0.67957442783E+03 -0.72746449270E+03  0.11560625633E+04  0.15256240465E+04  0.46999998093E+01 0. -1.
       -5    1    3    3    0  502 -0.67957442783E+03  0.72746449270E+03 -0.78714421053E+02  0.99862106986E+03  0.46999998093E+01 0.  1.
</event>
<event>
 5   0  0.5924654E-05  0.2342217E+04  0.7818609E-02  0.8461459E-01
       -1   -1    0    0    0  501  0.00000000000E+00  0.00000000000E+00  0.97844334791E+03  0.97844334792E+03  0.50400001928E-02 0. -1.
        1   -1    0    0  501    0  0.00000000000E+00  0.00000000000E+00 -0.14017109155E+04  0.14017109155E+04  0.50400001928E-02 0.  1.
    10030    2    1    2    0    0  0.00000000000E+00  0.00000000000E+00 -0.42326756760E+03  0.23801542634E+04  0.23422166603E+04 0.  0.
        5    1    3    3  502    0  0.26983653533E+03  0.56383268139E+02  0.94499420709E+03  0.98439167518E+03  0.46999998093E+01 0. -1.
       -5    1    3    3    0  502 -0.26983653533E+03 -0.56383268139E+02 -0.13682617747E+04  0.13957625883E+04  0.46999998093E+01 0.  1.
</event>
<event>
 5   0  0.1257524E-04  0.2330932E+04  0.7818609E-02  0.8465824E-01
        2   -1    0    0  501    0  0.00000000000E+00  0.00000000000E+00  0.12205287648E+04  0.12205287648E+04  0.25500000920E-02 0.  1.
       -2   -1    0    0    0  501  0.00000000000E+00  0.00000000000E+00 -0.11128873186E+04  0.11128873186E+04  0.25500000920E-02 0. -1.
    10030    2    1    2    0    0  0.00000000000E+00  0.00000000000E+00  0.10764144624E+03  0.23334160834E+04  0.23309319890E+04 0.  0.
        3    1    3    3  502    0 -0.47208568661E+03  0.70297961988E+03 -0.74782337864E+03  0.11297278687E+04  0.10100000352E+00 0. -1.
       -3    1    3    3    0  502  0.47208568661E+03 -0.70297961988E+03  0.85546482488E+03  0.12036882147E+04  0.10100000352E+00 0.  1.
</event>
<event>
 5   0  0.1237296E-04  0.1888723E+04  0.7818609E-02  0.8660490E-01
       -2   -1    0    0    0  501  0.00000000000E+00  0.00000000000E+00  0.52494512677E+03  0.52494512677E+03  0.25500000920E-02 0.  1.
        2   -1    0    0  501    0  0.00000000000E+00  0.00000000000E+00 -0.16988806160E+04  0.16988806160E+04  0.25500000920E-02 0. -1.
    10030    2    1    2    0    0  0.00000000000E+00  0.00000000000E+00 -0.11739354892E+04  0.22238257428E+04  0.18887234846E+04 0.  0.
        1    1    3    3  502    0  0.14264314595E+03  0.81051435373E+03 -0.11323299140E+04  0.13998041359E+04  0.50400001928E-02 0. -1.
       -1    1    3    3    0  502 -0.14264314595E+03 -0.81051435373E+03 -0.41605575224E+02  0.82402160688E+03  0.50400001928E-02 0.  1.
</event>
<event>
 5   0  0.1281432E-04  0.2181439E+04  0.7818609E-02  0.8526193E-01
       -2   -1    0    0    0  501  0.00000000000E+00  0.00000000000E+00  0.51041662845E+03  0.51041662846E+03  0.25500000920E-02 0.  1.
        2   -1    0    0  501    0  0.00000000000E+00  0.00000000000E+00 -0.23307808366E+04  0.23307808366E+04  0.25500000920E-02 0. -1.
    10030    2    1    2    0    0  0.00000000000E+00  0.00000000000E+00 -0.18203642082E+04  0.28411974651E+04  0.21814392463E+04 0.  0.
        4    1    3    3  502    0 -0.18873180723E+03  0.62303434406E+03  0.22964133007E+03  0.69031025077E+03  0.12699999809E+01 0.  1.
       -4    1    3    3    0  502  0.18873180723E+03 -0.62303434406E+03 -0.20500055382E+04  0.21508872143E+04  0.12699999809E+01 0. -1.
</event>
<event>
 5   0  0.1237296E-04  0.2274217E+04  0.7818609E-02  0.8488157E-01
        2   -1    0    0  501    0  0.00000000000E+00  0.00000000000E+00  0.21889704967E+04  0.21889704967E+04  0.25500000920E-02 0.  1.
       -2   -1    0    0    0  501  0.00000000000E+00  0.00000000000E+00 -0.59069578013E+03  0.59069578014E+03  0.25500000920E-02 0. -1.
    10030    2    1    2    0    0  0.00000000000E+00  0.00000000000E+00  0.15982747166E+04  0.27796662768E+04  0.22742169072E+04 0.  0.
        1    1    3    3  502    0 -0.49613769625E+03 -0.25614452653E+02  0.20493087853E+04  0.21086666904E+04  0.50400001928E-02 0.  1.
       -1    1    3    3    0  502  0.49613769625E+03  0.25614452653E+02 -0.45103406871E+03  0.67099958643E+03  0.50400001928E-02 0. -1.
</event>
<event>
 5   0  0.1257524E-04  0.2213102E+04  0.7818609E-02  0.8512995E-01
        2   -1    0    0  501    0  0.00000000000E+00  0.00000000000E+00  0.14073516403E+04  0.14073516403E+04  0.25500000920E-02 0. -1.
       -2   -1    0    0    0  501  0.00000000000E+00  0.00000000000E+00 -0.87004182181E+03  0.87004182181E+03  0.25500000920E-02 0.  1.
    10030    2    1    2    0    0  0.00000000000E+00  0.00000000000E+00  0.53730981848E+03  0.22773934621E+04  0.22131017013E+04 0.  0.
        3    1    3    3  502    0 -0.97385886229E+03  0.36065015180E+03 -0.12452475857E+03  0.10459330960E+04  0.10100000352E+00 0.  1.
       -3    1    3    3    0  502  0.97385886229E+03 -0.36065015180E+03  0.66183457704E+03  0.12314603661E+04  0.10100000352E+00 0. -1.
</event>
<event>
 5   0  0.1270613E-04  0.1326569E+04  0.7818609E-02  0.9008757E-01
       -2   -1    0    0    0  501  0.00000000000E+00  0.00000000000E+00  0.18343908196E+03  0.18343908198E+03  0.25500000920E-02 0.  1.
        2   -1    0    0  501    0  0.00000000000E+00  0.00000000000E+00 -0.23983238508E+04  0.23983238508E+04  0.25500000920E-02 0. -1.
    10030    2    1    2    0    0  0.00000000000E+00  0.00000000000E+00 -0.22148847688E+04  0.25817629328E+04  0.13265689963E+04 0.  0.
        2    1    3    3  502    0  0.92719056227E+02 -0.62724766731E+03 -0.72850919751E+03  0.96579610187E+03  0.25500000920E-02 0.  1.
       -2    1    3    3    0  502 -0.92719056227E+02  0.62724766731E+03 -0.14863755713E+04  0.16159668309E+04  0.25500000920E-02 0. -1.
</event>
<event>
 5   0  0.1237296E-04  0.2221858E+04  0.7818609E-02  0.8509385E-01
        2   -1    0    0  501    0  0.00000000000E+00  0.00000000000E+00  0.30394454922E+04  0.30394454922E+04  0.25500000920E-02 0.  1.
       -2   -1    0    0    0  501  0.00000000000E+00  0.00000000000E+00 -0.40604886993E+03  0.40604886994E+03  0.25500000920E-02 0. -1.
    10030    2    1    2    0    0  0.00000000000E+00  0.00000000000E+00  0.26333966223E+04  0.34454943622E+04  0.22218581479E+04 0.  0.
        1    1    3    3  502    0 -0.75062934617E+03  0.71157139767E+03  0.68796497103E+03  0.12422053255E+04  0.50400001928E-02 0. -1.
       -1    1    3    3    0  502  0.75062934617E+03 -0.71157139767E+03  0.19454316513E+04  0.22032890367E+04  0.50400001928E-02 0.  1.
</event>
<event>
 5   0  0.1270613E-04  0.2272466E+04  0.7818609E-02  0.8488857E-01
       -2   -1    0    0    0  501  0.00000000000E+00  0.00000000000E+00  0.69511999555E+03  0.69511999556E+03  0.25500000920E-02 0.  1.
        2   -1    0    0  501    0  0.00000000000E+00  0.00000000000E+00 -0.18572693755E+04  0.18572693755E+04  0.25500000920E-02 0. -1.
    10030    2    1    2    0    0  0.00000000000E+00  0.00000000000E+00 -0.11621493800E+04  0.25523893711E+04  0.22724656918E+04 0.  0.
        2    1    3    3  502    0 -0.59212896340E+03  0.65668198109E+03  0.22038935437E+03  0.91127350511E+03  0.25500000920E-02 0.  1.
       -2    1    3    3    0  502  0.59212896340E+03 -0.65668198109E+03 -0.13825387343E+04  0.16411158660E+04  0.25500000920E-02 0. -1.
</event>
<event>
 5   0  0.5642466E-05  0.1566096E+04  0.7818609E-02  0.8841652E-01
       -1   -1    0    0    0  501  0.00000000000E+00  0.00000000000E+00  0.42394102629E+03  0.42394102632E+03  0.50400001928E-02 0.  1.
        1   -1    0    0  501    0  0.00000000000E+00  0.00000000000E+00 -0.14463425952E+04  0.14463425952E+04  0.50400001928E-02 0. -1.
    10030    2    1    2    0    0  0.00000000000E+00  0.00000000000E+00 -0.10224015689E+04  0.18702836216E+04  0.15660957368E+04 0.  0.
        1    1    3    3  502    0 -0.55379869569E+03  0.54064811208E+03 -0.65336264388E+03  0.10128554294E+04  0.50400001928E-02 0. -1.
       -1    1    3    3    0  502  0.55379869569E+03 -0.54064811208E+03 -0.36903892506E+03  0.85742819214E+03  0.50400001928E-02 0.  1.
</event>
<event>
 5   0  0.5843670E-05  0.2374336E+04  0.7818609E-02  0.8449175E-01
        1   -1    0    0  501    0  0.00000000000E+00  0.00000000000E+00  0.21385438296E+04  0.21385438296E+04  0.50400001928E-02 0. -1.
       -1   -1    0    0    0  501  0.00000000000E+00  0.00000000000E+00 -0.65903137962E+03  0.65903137963E+03  0.50400001928E-02 0.  1.
    10030    2    1    2    0    0  0.00000000000E+00  0.00000000000E+00  0.14795124499E+04  0.27975752092E+04  0.23743356885E+04 0.  0.
        2    1    3    3  502    0 -0.66436610794E+03 -0.24348675661E+03 -0.38342481203E+03  0.80478737100E+03  0.25500000920E-02 0.  1.
       -2    1    3    3    0  502  0.66436610794E+03  0.24348675661E+03  0.18629372620E+04  0.19927878382E+04  0.25500000920E-02 0. -1.
</event>
<event>
 5   0  0.5632156E-05  0.2287535E+04  0.7818609E-02  0.8482852E-01
        1   -1    0    0  501    0  0.00000000000E+00  0.00000000000E+00  0.13337775487E+04  0.13337775487E+04  0.50400001928E-02 0. -1.
       -1   -1    0    0    0  501  0.00000000000E+00  0.00000000000E+00 -0.98082612298E+03  0.98082612300E+03  0.50400001928E-02 0.  1.
    10030    2    1    2    0    0  0.00000000000E+00  0.00000000000E+00  0.35295142571E+03  0.23146036717E+04  0.22875347971E+04 0.  0.
        4    1    3    3  502    0 -0.96549982136E+03  0.31325268203E+03 -0.35691022282E+03  0.10759663879E+04  0.12699999809E+01 0.  1.
       -4    1    3    3    0  502  0.96549982136E+03 -0.31325268203E+03  0.70986164854E+03  0.12386372838E+04  0.12699999809E+01 0. -1.
</event>
<event>
 5   0  0.5924654E-05  0.2268425E+04  0.7818609E-02  0.8490476E-01
       -1   -1    0    0    0  501  0.00000000000E+00  0.00000000000E+00  0.96292597963E+03  0.96292597964E+03  0.50400001928E-02 0.  1.
        1   -1    0    0  501    0  0.00000000000E+00  0.00000000000E+00 -0.13359679915E+04  0.13359679915E+04  0.50400001928E-02 0. -1.
    10030    2    1    2    0    0  0.00000000000E+00  0.00000000000E+00 -0.37304201185E+03  0.22988939711E+04  0.22684252573E+04 0.  0.
        5    1    3    3  502    0  0.75487050408E+02  0.42273076564E+03  0.87734892877E+03  0.97681258582E+03  0.46999998093E+01 0.  1.
       -5    1    3    3    0  502 -0.75487050408E+02 -0.42273076564E+03 -0.12503909406E+04  0.13220813853E+04  0.46999998093E+01 0. -1.
</event>
<event>
 5   0  0.1257524E-04  0.2389152E+04  0.7818609E-02  0.8443576E-01
        2   -1    0    0  501    0  0.00000000000E+00  0.00000000000E+00  0.21007750562E+04  0.21007750562E+04  0.25500000920E-02 0. -1.
       -2   -1    0    0    0  501  0.00000000000E+00  0.00000000000E+00 -0.67927866878E+03  0.67927866879E+03  0.25500000920E-02 0.  1.
    10030    2    1    2    0    0  0.00000000000E+00  0.00000000000E+00  0.14214963874E+04  0.27800537250E+04  0.23891518860E+04 0.  0.
        3    1    3    3  502    0  0.36064327446E+03  0.28141667669E+02  0.20355108914E+04  0.20674041995E+04  0.10100000352E+00 0. -1.
       -3    1    3    3    0  502 -0.36064327446E+03 -0.28141667669E+02 -0.61401450399E+03  0.71264952549E+03  0.10100000352E+00 0.  1.
</event>
<event>
 5   0  0.4489500E-05  0.2373427E+04  0.7818609E-02  0.8449520E-01
       -3   -1    0    0    0  501  0.00000000000E+00  0.00000000000E+00  0.70093395874E+03  0.70093396601E+03  0.10100000352E+00 0. -1.
        3   -1    0    0  501    0  0.00000000000E+00  0.00000000000E+00 -0.20091599159E+04  0.20091599185E+04  0.10100000352E+00 0.  1.
    10030    2    1    2    0    0  0.00000000000E+00  0.00000000000E+00 -0.13082259572E+04  0.27100938845E+04  0.23734265751E+04 0.  0.
        3    1    3    3  502    0  0.71892132139E+03  0.50972630194E+03 -0.15615914918E+04  0.17931081302E+04  0.10100000352E+00 0.  1.
       -3    1    3    3    0  502 -0.71892132139E+03 -0.50972630194E+03  0.25336553457E+03  0.91698575428E+03  0.10100000352E+00 0. -1.
</event>
<event>
 5   0  0.1257524E-04  0.2299092E+04  0.7818609E-02  0.8478279E-01
        2   -1    0    0  501    0  0.00000000000E+00  0.00000000000E+00  0.16199870740E+04  0.16199870740E+04  0.25500000920E-02 0. -1.
       -2   -1    0    0    0  501  0.00000000000E+00  0.00000000000E+00 -0.81572007851E+03  0.81572007851E+03  0.25500000920E-02 0.  1.
    10030    2    1    2    0    0  0.00000000000E+00  0.00000000000E+00  0.80426699547E+03  0.24357071525E+04  0.22990919800E+04 0.  0.
        3    1    3    3  502    0 -0.38455879861E+03 -0.78560533309E+03  0.11923757419E+04  0.14787904277E+04  0.10100000352E+00 0. -1.
       -3    1    3    3    0  502  0.38455879861E+03  0.78560533309E+03 -0.38810874643E+03  0.95691672481E+03  0.10100000352E+00 0.  1.
</event>
<event>
 5   0  0.5663790E-05  0.2343944E+04  0.7818609E-02  0.8460794E-01
        1   -1    0    0  501    0  0.00000000000E+00  0.00000000000E+00  0.92342251008E+03  0.92342251010E+03  0.50400001928E-02 0. -1.
       -1   -1    0    0    0  501  0.00000000000E+00  0.00000000000E+00 -0.14874207497E+04  0.14874207497E+04  0.50400001928E-02 0.  1.
    10030    2    1    2    0    0  0.00000000000E+00  0.00000000000E+00 -0.56399823958E+03  0.24108432598E+04  0.23439435166E+04 0.  0.
        3    1    3    3  502    0  0.73707038774E+03 -0.74591090253E+03 -0.82025364609E+03  0.13313421368E+04  0.10100000352E+00 0.  1.
       -3    1    3    3    0  502 -0.73707038774E+03  0.74591090253E+03  0.25625540651E+03  0.10795011230E+04  0.10100000352E+00 0. -1.
</event>
<event>
 5   0  0.5632156E-05  0.2372362E+04  0.7818609E-02  0.8449924E-01
       -1   -1    0    0    0  501  0.00000000000E+00  0.00000000000E+00  0.12450700659E+04  0.12450700659E+04  0.50400001928E-02 0.  1.
        1   -1    0    0  501    0  0.00000000000E+00  0.00000000000E+00 -0.11300773252E+04  0.11300773252E+04  0.50400001928E-02 0. -1.
    10030    2    1    2    0    0  0.00000000000E+00  0.00000000000E+00  0.11499274069E+03  0.23751473911E+04  0.23723620716E+04 0.  0.
        4    1    3    3  502    0 -0.57805916502E+03  0.87783365809E+02  0.10907766545E+04  0.12375999517E+04  0.12699999809E+01 0.  1.
       -4    1    3    3    0  502  0.57805916502E+03 -0.87783365809E+02 -0.97578391379E+03  0.11375474394E+04  0.12699999809E+01 0. -1.
</event>
<event>
 5   0  0.5924654E-05  0.2317508E+04  0.7818609E-02  0.8471050E-01
       -1   -1    0    0    0  501  0.00000000000E+00  0.00000000000E+00  0.10851295673E+04  0.10851295673E+04  0.50400001928E-02 0. -1.
        1   -1    0    0  501    0  0.00000000000E+00  0.00000000000E+00 -0.12373738335E+04  0.12373738335E+04  0.50400001928E-02 0.  1.
    10030    2    1    2    0    0  0.00000000000E+00  0.00000000000E+00 -0.15224426620E+03  0.23225034008E+04  0.23175080863E+04 0.  0.
        5    1    3    3  502    0  0.44894377979E+03  0.99792350569E+03  0.30586477754E+03  0.11362117728E+04  0.46999998093E+01 0. -1.
       -5    1    3    3    0  502 -0.44894377979E+03 -0.99792350569E+03 -0.45810904374E+03  0.11862916280E+04  0.46999998093E+01 0.  1.
</event>
<event>
 5   0  0.1281432E-04  0.2248905E+04  0.7818609E-02  0.8498344E-01
       -2   -1    0    0    0  501  0.00000000000E+00  0.00000000000E+00  0.65144383883E+03  0.65144383884E+03  0.25500000920E-02 0. -1.
        2   -1    0    0  501    0  0.00000000000E+00  0.00000000000E+00 -0.19409086890E+04  0.19409086890E+04  0.25500000920E-02 0.  1.
    10030    2    1    2    0    0  0.00000000000E+00  0.00000000000E+00 -0.12894648501E+04  0.25923525278E+04  0.22489046286E+04 0.  0.
        4    1    3    3  502    0  0.77583177781E+03 -0.32763758616E+03  0.21412365318E+03  0.86897174124E+03  0.12699999809E+01 0. -1.
       -4    1    3    3    0  502 -0.77583177781E+03  0.32763758616E+03 -0.15035885033E+04  0.17233807866E+04  0.12699999809E+01 0.  1.
</event>
<event>
 5   0  0.1281432E-04  0.2281262E+04  0.7818609E-02  0.8485346E-01
       -2   -1    0    0    0  501  0.00000000000E+00  0.00000000000E+00  0.67148349170E+03  0.67148349170E+03  0.25500000920E-02 0.  1.
        2   -1    0    0  501    0  0.00000000000E+00  0.00000000000E+00 -0.19375591938E+04  0.19375591938E+04  0.25500000920E-02 0. -1.
    10030    2    1    2    0    0  0.00000000000E+00  0.00000000000E+00 -0.12660757021E+04  0.26090426855E+04  0.22812619427E+04 0.  0.
        4    1    3    3  502    0  0.82349380007E+03 -0.68642885553E+03 -0.10785035413E+04  0.15206900125E+04  0.12699999809E+01 0. -1.
       -4    1    3    3    0  502 -0.82349380007E+03  0.68642885553E+03 -0.18757216075E+03  0.10883526730E+04  0.12699999809E+01 0.  1.
</event>
<event>
 5   0  0.1257524E-04  0.2263373E+04  0.7818609E-02  0.8492504E-01
       -2   -1    0    0    0  501  0.00000000000E+00  0.00000000000E+00  0.59006237365E+03  0.59006237365E+03  0.25500000920E-02 0.  1.
        2   -1    0    0  501    0  0.00000000000E+00  0.00000000000E+00 -0.21704733501E+04  0.21704733501E+04  0.25500000920E-02 0. -1.
    10030    2    1    2    0    0  0.00000000000E+00  0.00000000000E+00 -0.15804109765E+04  0.27605357238E+04  0.22633732851E+04 0.  0.
        3    1    3    3  502    0  0.26166614238E+03  0.28890617337E+03 -0.20860162692E+04  0.21221215405E+04  0.10100000352E+00 0. -1.
       -3    1    3    3    0  502 -0.26166614238E+03 -0.28890617337E+03  0.50560529277E+03  0.63841418323E+03  0.10100000352E+00 0.  1.
</event>
<event>
 5   0  0.5642466E-05  0.2324682E+04  0.7818609E-02  0.8468253E-01
        1   -1    0    0  501    0  0.00000000000E+00  0.00000000000E+00  0.14481643615E+04  0.14481643615E+04  0.50400001928E-02 0. -1.
       -1   -1    0    0    0  501  0.00000000000E+00  0.00000000000E+00 -0.93293025761E+03  0.93293025762E+03  0.50400001928E-02 0.  1.
    10030    2    1    2    0    0  0.00000000000E+00  0.00000000000E+00  0.51523410384E+03  0.23810946191E+04  0.23246817854E+04 0.  0.
        1    1    3    3  502    0 -0.47682307881E+03  0.95048392632E+03  0.73832069897E+03  0.12945645589E+04  0.50400001928E-02 0. -1.
       -1    1    3    3    0  502  0.47682307881E+03 -0.95048392632E+03 -0.22308659513E+03  0.10865300602E+04  0.50400001928E-02 0.  1.
</event>
<event>
 5   0  0.1281432E-04  0.2335795E+04  0.7818609E-02  0.8463940E-01
       -2   -1    0    0    0  501  0.00000000000E+00  0.00000000000E+00  0.10030674780E+04  0.10030674780E+04  0.25500000920E-02 0.  1.
        2   -1    0    0  501    0  0.00000000000E+00  0.00000000000E+00 -0.13598130802E+04  0.13598130802E+04  0.25500000920E-02 0. -1.
    10030    2    1    2    0    0  0.00000000000E+00  0.00000000000E+00 -0.35674560217E+03  0.23628805582E+04  0.23357947486E+04 0.  0.
        4    1    3    3  502    0  0.11510759665E+04 -0.14248776222E+03 -0.31672134136E+03  0.12023280185E+04  0.12699999809E+01 0. -1.
       -4    1    3    3    0  502 -0.11510759665E+04  0.14248776222E+03 -0.40024260810E+02  0.11605525397E+04  0.12699999809E+01 0.  1.
</event>
<event>
 5   0  0.5632156E-05  0.2268405E+04  0.7818609E-02  0.8490484E-01
       -1   -1    0    0    0  501  0.00000000000E+00  0.00000000000E+00  0.93586347069E+03  0.93586347071E+03  0.50400001928E-02 0. -1.
        1   -1    0    0  501    0  0.00000000000E+00  0.00000000000E+00 -0.13745758476E+04  0.13745758476E+04  0.50400001928E-02 0.  1.
    10030    2    1    2    0    0  0.00000000000E+00  0.00000000000E+00 -0.43871237694E+03  0.23104393184E+04  0.22684050110E+04 0.  0.
        4    1    3    3  502    0  0.43971257972E+03  0.16180089423E+03 -0.12713984498E+04  0.13549842483E+04  0.12699999809E+01 0.  1.
       -4    1    3    3    0  502 -0.43971257972E+03 -0.16180089423E+03  0.83268607283E+03  0.95545507007E+03  0.12699999809E+01 0. -1.
</event>
<event>
 5   0  0.1237296E-04  0.2293244E+04  0.7818609E-02  0.8480590E-01
        2   -1    0    0  501    0  0.00000000000E+00  0.00000000000E+00  0.11720014776E+04  0.11720014776E+04  0.25500000920E-02 0. -1.
       -2   -1    0    0    0  501  0.00000000000E+00  0.00000000000E+00 -0.11217920918E+04  0.11217920919E+04  0.25500000920E-02 0.  1.
    10030    2    1    2    0    0  0.00000000000E+00  0.00000000000E+00  0.50209385727E+02  0.22937935694E+04  0.22932439811E+04 0.  0.
        1    1    3    3  502    0 -0.26548850205E+03  0.10549922683E+04  0.38747477310E+03  0.11548287884E+04  0.50400001928E-02 0. -1.
       -1    1    3    3    0  502  0.26548850205E+03 -0.10549922683E+04 -0.33726538737E+03  0.11389647810E+04  0.50400001928E-02 0.  1.
</event>
<event>
 5   0  0.1234988E-04  0.2235146E+04  0.7818609E-02  0.8503940E-01
        2   -1    0    0  501    0  0.00000000000E+00  0.00000000000E+00  0.24935375107E+04  0.24935375107E+04  0.25500000920E-02 0. -1.
       -2   -1    0    0    0  501  0.00000000000E+00  0.00000000000E+00 -0.50088266405E+03  0.50088266406E+03  0.25500000920E-02 0.  1.
    10030    2    1    2    0    0  0.00000000000E+00  0.00000000000E+00  0.19926548467E+04  0.29944201748E+04  0.22351462693E+04 0.  0.
        5    1    3    3  502    0  0.56853601057E+03 -0.83208529222E+03  0.34917096290E+03  0.10665559433E+04  0.46999998093E+01 0.  1.
       -5    1    3    3    0  502 -0.56853601057E+03  0.83208529222E+03  0.16434838838E+04  0.19278642315E+04  0.46999998093E+01 0. -1.
</event>
<event>
 5   0  0.5632156E-05  0.2308749E+04  0.7818609E-02  0.8474479E-01
        1   -1    0    0  501    0  0.00000000000E+00  0.00000000000E+00  0.15962169315E+04  0.15962169315E+04  0.50400001928E-02 0. -1.
       -1   -1    0    0    0  501  0.00000000000E+00  0.00000000000E+00 -0.83483690693E+03  0.83483690694E+03  0.50400001928E-02 0.  1.
    10030    2    1    2    0    0  0.00000000000E+00  0.00000000000E+00  0.76138002454E+03  0.24310538384E+04  0.23087492769E+04 0.  0.
        4    1    3    3  502    0 -0.33375836552E+03  0.10405839416E+04 -0.10996086158E+02  0.10928550283E+04  0.12699999809E+01 0.  1.
       -4    1    3    3    0  502  0.33375836552E+03 -0.10405839416E+04  0.77237611070E+03  0.13381988101E+04  0.12699999809E+01 0. -1.
</event>
<event>
 5   0  0.5642466E-05  0.2276741E+04  0.7818609E-02  0.8487149E-01
       -1   -1    0    0    0  501  0.00000000000E+00  0.00000000000E+00  0.76793900672E+03  0.76793900674E+03  0.50400001928E-02 0. -1.
        1   -1    0    0  501    0  0.00000000000E+00  0.00000000000E+00 -0.16874869348E+04  0.16874869348E+04  0.50400001928E-02 0.  1.
    10030    2    1    2    0    0  0.00000000000E+00  0.00000000000E+00 -0.91954792806E+03  0.24554259415E+04  0.22767406884E+04 0.  0.
        1    1    3    3  502    0 -0.52893057875E+03 -0.18591499018E+03 -0.15282643350E+04  0.16278586604E+04  0.50400001928E-02 0.  1.
       -1    1    3    3    0  502  0.52893057875E+03  0.18591499018E+03  0.60871640691E+03  0.82756728112E+03  0.50400001928E-02 0. -1.
</event>
<event>
 5   0  0.5632156E-05  0.2282825E+04  0.7818609E-02  0.8484724E-01
        1   -1    0    0  501    0  0.00000000000E+00  0.00000000000E+00  0.12761313253E+04  0.12761313253E+04  0.50400001928E-02 0.  1.
       -1   -1    0    0    0  501  0.00000000000E+00  0.00000000000E+00 -0.10209159120E+04  0.10209159121E+04  0.50400001928E-02 0. -1.
    10030    2    1    2    0    0  0.00000000000E+00  0.00000000000E+00  0.25521541321E+03  0.22970472373E+04  0.22828252459E+04 0.  0.
        4    1    3    3  502    0 -0.68533868853E+03 -0.35579458210E+03  0.97340507813E+03  0.12424966647E+04  0.12699999809E+01 0.  1.
       -4    1    3    3    0  502  0.68533868853E+03  0.35579458210E+03 -0.71818966491E+03  0.10545505727E+04  0.12699999809E+01 0. -1.
</event>
<event>
 5   0  0.1281432E-04  0.2348511E+04  0.7818609E-02  0.8459036E-01
       -2   -1    0    0    0  501  0.00000000000E+00  0.00000000000E+00  0.87329904224E+03  0.87329904224E+03  0.25500000920E-02 0.  1.
        2   -1    0    0  501    0  0.00000000000E+00  0.00000000000E+00 -0.15789269633E+04  0.15789269633E+04  0.25500000920E-02 0. -1.
    10030    2    1    2    0    0  0.00000000000E+00  0.00000000000E+00 -0.70562792109E+03  0.24522260056E+04  0.23485105108E+04 0.  0.
        4    1    3    3  502    0  0.14875208534E+03 -0.41536272755E+03 -0.14890910682E+04  0.15530766886E+04  0.12699999809E+01 0. -1.
       -4    1    3    3    0  502 -0.14875208534E+03  0.41536272755E+03  0.78346314715E+03  0.89914931695E+03  0.12699999809E+01 0.  1.
</event>
<event>
 5   0  0.5642466E-05  0.2279490E+04  0.7818609E-02  0.8486052E-01
        1   -1    0    0  501    0  0.00000000000E+00  0.00000000000E+00  0.11827430943E+04  0.11827430943E+04  0.50400001928E-02 0. -1.
       -1   -1    0    0    0  501  0.00000000000E+00  0.00000000000E+00 -0.10983101045E+04  0.10983101045E+04  0.50400001928E-02 0.  1.
    10030    2    1    2    0    0  0.00000000000E+00  0.00000000000E+00  0.84432989753E+02  0.22810531988E+04  0.22794900233E+04 0.  0.
        1    1    3    3  502    0 -0.80270379096E+03  0.25771076658E+02 -0.76705383911E+03  0.11105715270E+04  0.50400001928E-02 0.  1.
       -1    1    3    3    0  502  0.80270379096E+03 -0.25771076658E+02  0.85148682886E+03  0.11704816719E+04  0.50400001928E-02 0. -1.
</event>
<event>
 5   0  0.1237296E-04  0.2331989E+04  0.7818609E-02  0.8465414E-01
       -2   -1    0    0    0  501  0.00000000000E+00  0.00000000000E+00  0.90197102659E+03  0.90197102659E+03  0.25500000920E-02 0. -1.
        2   -1    0    0  501    0  0.00000000000E+00  0.00000000000E+00 -0.15073026552E+04  0.15073026552E+04  0.25500000920E-02 0.  1.
    10030    2    1    2    0    0  0.00000000000E+00  0.00000000000E+00 -0.60533162866E+03  0.24092736818E+04  0.23319891281E+04 0.  0.
        1    1    3    3  502    0 -0.84843295894E+03  0.39341641022E+03 -0.10221121576E+04  0.13853982173E+04  0.50400001928E-02 0.  1.
       -1    1    3    3    0  502  0.84843295894E+03 -0.39341641022E+03  0.41678052893E+03  0.10238754646E+04  0.50400001928E-02 0. -1.
</event>
<event>
 5   0  0.4489500E-05  0.2384135E+04  0.7818609E-02  0.8445467E-01
        3   -1    0    0  501    0  0.00000000000E+00  0.00000000000E+00  0.18262658390E+04  0.18262658418E+04  0.10100000352E+00 0.  1.
       -3   -1    0    0    0  501  0.00000000000E+00  0.00000000000E+00 -0.77810379035E+03  0.77810379691E+03  0.10100000352E+00 0. -1.
    10030    2    1    2    0    0  0.00000000000E+00  0.00000000000E+00  0.10481620487E+04  0.26043696387E+04  0.23841345463E+04 0.  0.
        4    1    3    3  502    0 -0.12140694150E+03 -0.88712441244E+03 -0.33556585237E+03  0.95620888030E+03  0.12699999809E+01 0. -1.
       -4    1    3    3    0  502  0.12140694150E+03  0.88712441244E+03  0.13837279010E+04  0.16481607584E+04  0.12699999809E+01 0.  1.
</event>
<event>
 5   0  0.5924654E-05  0.2354936E+04  0.7818609E-02  0.8456570E-01
       -1   -1    0    0    0  501  0.00000000000E+00  0.00000000000E+00  0.15191630190E+04  0.15191630190E+04  0.50400001928E-02 0.  1.
        1   -1    0    0  501    0  0.00000000000E+00  0.00000000000E+00 -0.91262815281E+03  0.91262815282E+03  0.50400001928E-02 0. -1.
    10030    2    1    2    0    0  0.00000000000E+00  0.00000000000E+00  0.60653486619E+03  0.24317911718E+04  0.23549360415E+04 0.  0.
        5    1    3    3  502    0 -0.64718891615E+03  0.37934319734E+03 -0.63390518720E+03  0.98214694975E+03  0.46999998093E+01 0. -1.
       -5    1    3    3    0  502  0.64718891615E+03 -0.37934319734E+03  0.12404400534E+04  0.14496442221E+04  0.46999998093E+01 0.  1.
</event>
<event>
 5   0  0.1257524E-04  0.2377599E+04  0.7818609E-02  0.8447938E-01
       -2   -1    0    0    0  501  0.00000000000E+00  0.00000000000E+00  0.93521385944E+03  0.93521385944E+03  0.25500000920E-02 0. -1.
        2   -1    0    0  501    0  0.00000000000E+00  0.00000000000E+00 -0.15111455842E+04  0.15111455842E+04  0.25500000920E-02 0.  1.
    10030    2    1    2    0    0  0.00000000000E+00  0.00000000000E+00 -0.57593172471E+03  0.24463594436E+04  0.23775990360E+04 0.  0.
        3    1    3    3  502    0 -0.26148670129E+03 -0.25746460992E+03  0.87547890127E+03  0.94927690221E+03  0.10100000352E+00 0. -1.
       -3    1    3    3    0  502  0.26148670129E+03  0.25746460992E+03 -0.14514106260E+04  0.14970825414E+04  0.10100000352E+00 0.  1.
</event>
<event>
 5   0  0.5642466E-05  0.1216151E+04  0.7818609E-02  0.9098836E-01
        1   -1    0    0  501    0  0.00000000000E+00  0.00000000000E+00  0.88001741232E+03  0.88001741233E+03  0.50400001928E-02 0.  1.
       -1   -1    0    0    0  501  0.00000000000E+00  0.00000000000E+00 -0.42016876390E+03  0.42016876393E+03  0.50400001928E-02 0. -1.
    10030    2    1    2    0    0  0.00000000000E+00  0.00000000000E+00  0.45984864842E+03  0.13001861763E+04  0.12161510241E+04 0.  0.
        1    1    3    3  502    0 -0.51684087903E+03 -0.28178118899E+03  0.66976283889E+02  0.59246177542E+03  0.50400001928E-02 0. -1.
       -1    1    3    3    0  502  0.51684087903E+03  0.28178118899E+03  0.39287236453E+03  0.70772440084E+03  0.50400001928E-02 0.  1.
</event>
<event>
 5   0  0.5924654E-05  0.2300152E+04  0.7818609E-02  0.8477861E-01
       -1   -1    0    0    0  501  0.00000000000E+00  0.00000000000E+00  0.72373830077E+03  0.72373830079E+03  0.50400001928E-02 0.  1.
        1   -1    0    0  501    0  0.00000000000E+00  0.00000000000E+00 -0.18275597335E+04  0.18275597335E+04  0.50400001928E-02 0. -1.
    10030    2    1    2    0    0  0.00000000000E+00  0.00000000000E+00 -0.11038214327E+04  0.25512980343E+04  0.23001521481E+04 0.  0.
        5    1    3    3  502    0 -0.26040837007E+02 -0.11223655573E+04 -0.27512404847E+03  0.11558970116E+04  0.46999998093E+01 0.  1.
       -5    1    3    3    0  502  0.26040837007E+02  0.11223655573E+04 -0.82869738423E+03  0.13954010227E+04  0.46999998093E+01 0. -1.
</event>
<event>
 5   0  0.4489500E-05  0.1295732E+04  0.7818609E-02  0.9032957E-01
       -3   -1    0    0    0  501  0.00000000000E+00  0.00000000000E+00  0.13825286682E+04  0.13825286719E+04  0.10100000352E+00 0.  1.
        3   -1    0    0  501    0  0.00000000000E+00  0.00000000000E+00 -0.30359598779E+03  0.30359600459E+03  0.10100000352E+00 0. -1.
    10030    2    1    2    0    0  0.00000000000E+00  0.00000000000E+00  0.10789326804E+04  0.16861246764E+04  0.12957317221E+04 0.  0.
        5    1    3    3  502    0 -0.33656290558E+03  0.36568819757E+03 -0.13226596758E+01  0.49701739072E+03  0.46999998093E+01 0. -1.
       -5    1    3    3    0  502  0.33656290558E+03 -0.36568819757E+03  0.10802553401E+04  0.11891072857E+04  0.46999998093E+01 0.  1.
</event>
<event>
 5   0  0.1234988E-04  0.2348267E+04  0.7818609E-02  0.8459130E-01
       -2   -1    0    0    0  501  0.00000000000E+00  0.00000000000E+00  0.13395026849E+04  0.13395026849E+04  0.25500000920E-02 0.  1.
        2   -1    0    0  501    0  0.00000000000E+00  0.00000000000E+00 -0.10291801634E+04  0.10291801634E+04  0.25500000920E-02 0. -1.
    10030    2    1    2    0    0  0.00000000000E+00  0.00000000000E+00  0.31032252151E+03  0.23686828484E+04  0.23482670991E+04 0.  0.
        5    1    3    3  502    0  0.85037966793E+03 -0.16879498376E+03 -0.64351175065E+03  0.10797068071E+04  0.46999998093E+01 0. -1.
       -5    1    3    3    0  502 -0.85037966793E+03  0.16879498376E+03  0.95383427216E+03  0.12889760412E+04  0.46999998093E+01 0.  1.
</event>
<event>
 5   0  0.5642466E-05  0.2271406E+04  0.7818609E-02  0.8489281E-01
        1   -1    0    0  501    0  0.00000000000E+00  0.00000000000E+00  0.23554483552E+04  0.23554483552E+04  0.50400001928E-02 0. -1.
       -1   -1    0    0    0  501  0.00000000000E+00  0.00000000000E+00 -0.54759045628E+03  0.54759045631E+03  0.50400001928E-02 0.  1.
    10030    2    1    2    0    0  0.00000000000E+00  0.00000000000E+00  0.18078578989E+04  0.29030388115E+04  0.22714057670E+04 0.  0.
        1    1    3    3  502    0  0.15429144066E+03 -0.36419807338E+03 -0.45671634342E+03  0.60418201205E+03  0.50400001928E-02 0.  1.
       -1    1    3    3    0  502 -0.15429144066E+03  0.36419807338E+03  0.22645742423E+04  0.22988567994E+04  0.50400001928E-02 0. -1.
</event>
<event>
 5   0  0.5924654E-05  0.2464969E+04  0.7818609E-02  0.8415573E-01
        1   -1    0    0  501    0  0.00000000000E+00  0.00000000000E+00  0.16205152573E+04  0.16205152573E+04  0.50400001928E-02 0.  1.
       -1   -1    0    0    0  501  0.00000000000E+00  0.00000000000E+00 -0.93736764375E+03  0.93736764377E+03  0.50400001928E-02 0. -1.
    10030    2    1    2    0    0  0.00000000000E+00  0.00000000000E+00  0.68314761355E+03  0.25578829011E+04  0.24649694265E+04 0.  0.
        5    1    3    3  502    0  0.63910615942E+03 -0.49413197133E+03 -0.62430285896E+03  0.10209795482E+04  0.46999998093E+01 0. -1.
       -5    1    3    3    0  502 -0.63910615942E+03  0.49413197133E+03  0.13074504725E+04  0.15369033529E+04  0.46999998093E+01 0.  1.
</event>
<event>
 5   0  0.5663790E-05  0.2300043E+04  0.7818609E-02  0.8477904E-01
       -1   -1    0    0    0  501  0.00000000000E+00  0.00000000000E+00  0.82621749703E+03  0.82621749704E+03  0.50400001928E-02 0.  1.
        1   -1    0    0  501    0  0.00000000000E+00  0.00000000000E+00 -0.16007278627E+04  0.16007278628E+04  0.50400001928E-02 0. -1.
    10030    2    1    2    0    0  0.00000000000E+00  0.00000000000E+00 -0.77451036572E+03  0.24269453598E+04  0.23000429285E+04 0.  0.
        3    1    3    3  502    0  0.71398948463E+03 -0.82538239569E+03 -0.76991001480E+03  0.13355892049E+04  0.10100000352E+00 0. -1.
       -3    1    3    3    0  502 -0.71398948463E+03  0.82538239569E+03 -0.46003509208E+01  0.10913561548E+04  0.10100000352E+00 0.  1.
</event>
<event>
 5   0  0.1281432E-04  0.2400075E+04  0.7818609E-02  0.8439475E-01
       -2   -1    0    0    0  501  0.00000000000E+00  0.00000000000E+00  0.93107395907E+03  0.93107395908E+03  0.25500000920E-02 0.  1.
        2   -1    0    0  501    0  0.00000000000E+00  0.00000000000E+00 -0.15466982125E+04  0.15466982125E+04  0.25500000920E-02 0. -1.
    10030    2    1    2    0    0  0.00000000000E+00  0.00000000000E+00 -0.61562425340E+03  0.24777721716E+04  0.24000753556E+04 0.  0.
        4    1    3    3  502    0 -0.90300051641E+03 -0.63389247073E+03  0.17955002015E+03  0.11177966809E+04  0.12699999809E+01 0.  1.
       -4    1    3    3    0  502  0.90300051641E+03  0.63389247073E+03 -0.79517427356E+03  0.13599754907E+04  0.12699999809E+01 0. -1.
</event>
<event>
 5   0  0.5843670E-05  0.2128190E+04  0.7818609E-02  0.8548926E-01
        1   -1    0    0  501    0  0.00000000000E+00  0.00000000000E+00  0.10197728024E+04  0.10197728024E+04  0.50400001928E-02 0.  1.
       -1   -1    0    0    0  501  0.00000000000E+00  0.00000000000E+00 -0.11103431708E+04  0.11103431708E+04  0.50400001928E-02 0. -1.
    10030    2    1    2    0    0  0.00000000000E+00  0.00000000000E+00 -0.90570368448E+02  0.21301159732E+04  0.21281896221E+04 0.  0.
        2    1    3    3  502    0  0.20938975523E+03  0.61398497855E+03  0.79896876169E+03  0.10291611660E+04  0.25500000920E-02 0.  1.
       -2    1    3    3    0  502 -0.20938975523E+03 -0.61398497855E+03 -0.88953913014E+03  0.11009548072E+04  0.25500000920E-02 0. -1.
</event>
<event>
 5   0  0.4489500E-05  0.2284183E+04  0.7818609E-02  0.8484184E-01
        3   -1    0    0  501    0  0.00000000000E+00  0.00000000000E+00  0.15986628883E+04  0.15986628915E+04  0.10100000352E+00 0. -1.
       -3   -1    0    0    0  501  0.00000000000E+00  0.00000000000E+00 -0.81591479715E+03  0.81591480340E+03  0.10100000352E+00 0.  1.
    10030    2    1    2    0    0  0.00000000000E+00  0.00000000000E+00  0.78274809114E+03  0.24145776949E+04  0.22841827577E+04 0.  0.
        2    1    3    3  502    0 -0.42059795175E+03  0.50417233587E+03  0.13792153383E+04  0.15275232669E+04  0.25500000920E-02 0. -1.
       -2    1    3    3    0  502  0.42059795175E+03 -0.50417233587E+03 -0.59646724720E+03  0.88705442802E+03  0.25500000920E-02 0.  1.
</event>
<event>
 5   0  0.1237296E-04  0.2099548E+04  0.7818609E-02  0.8561443E-01
       -2   -1    0    0    0  501  0.00000000000E+00  0.00000000000E+00  0.54578416549E+03  0.54578416550E+03  0.25500000920E-02 0. -1.
        2   -1    0    0  501    0  0.00000000000E+00  0.00000000000E+00 -0.20191593249E+04  0.20191593249E+04  0.25500000920E-02 0.  1.
    10030    2    1    2    0    0  0.00000000000E+00  0.00000000000E+00 -0.14733751594E+04  0.25649434904E+04  0.20995477486E+04 0.  0.
        1    1    3    3  502    0 -0.10385689828E+04  0.15277601741E+03 -0.74608277189E+03  0.12878686059E+04  0.50400001928E-02 0. -1.
       -1    1    3    3    0  502  0.10385689828E+04 -0.15277601741E+03 -0.72729238747E+03  0.12770748844E+04  0.50400001928E-02 0.  1.
</event>
<event>
 5   0  0.1281432E-04  0.2264683E+04  0.7818609E-02  0.8491978E-01
        2   -1    0    0  501    0  0.00000000000E+00  0.00000000000E+00  0.14888608881E+04  0.14888608881E+04  0.25500000920E-02 0.  1.
       -2   -1    0    0    0  501  0.00000000000E+00  0.00000000000E+00 -0.86119349330E+03  0.86119349330E+03  0.25500000920E-02 0. -1.
    10030    2    1    2    0    0  0.00000000000E+00  0.00000000000E+00  0.62766739481E+03  0.23500543814E+04  0.22646830324E+04 0.  0.
        4    1    3    3  502    0  0.51896592249E+03  0.10006900759E+04  0.20260421610E+03  0.11453193170E+04  0.12699999809E+01 0. -1.
       -4    1    3    3    0  502 -0.51896592249E+03 -0.10006900759E+04  0.42506317871E+03  0.12047350644E+04  0.12699999809E+01 0.  1.
</event>
<event>
 5   0  0.1281432E-04  0.2341910E+04  0.7818609E-02  0.8461578E-01
        2   -1    0    0  501    0  0.00000000000E+00  0.00000000000E+00  0.13856479999E+04  0.13856479999E+04  0.25500000920E-02 0. -1.
       -2   -1    0    0    0  501  0.00000000000E+00  0.00000000000E+00 -0.98952645543E+03  0.98952645543E+03  0.25500000920E-02 0.  1.
    10030    2    1    2    0    0  0.00000000000E+00  0.00000000000E+00  0.39612154448E+03  0.23751744553E+04  0.23419097795E+04 0.  0.
        4    1    3    3  502    0 -0.79353550674E+03  0.39664113530E+03  0.97318806269E+03  0.13168596770E+04  0.12699999809E+01 0. -1.
       -4    1    3    3    0  502  0.79353550674E+03 -0.39664113530E+03 -0.57706651822E+03  0.10583147783E+04  0.12699999809E+01 0.  1.
</event>
<event>
 5   0  0.1270613E-04  0.2217733E+04  0.7818609E-02  0.8511083E-01
        2   -1    0    0  501    0  0.00000000000E+00  0.00000000000E+00  0.25568973813E+04  0.25568973813E+04  0.25500000920E-02 0. -1.
       -2   -1    0    0    0  501  0.00000000000E+00  0.00000000000E+00 -0.48088949545E+03  0.48088949545E+03  0.25500000920E-02 0.  1.
    10030    2    1    2    0    0  0.00000000000E+00  0.00000000000E+00  0.20760078858E+04  0.30377868767E+04  0.22177331594E+04 0.  0.
        2    1    3    3  502    0  0.37407867230E+03 -0.10326313515E+04  0.12471923955E+04  0.16618517481E+04  0.25500000920E-02 0.  1.
       -2    1    3    3    0  502 -0.37407867230E+03  0.10326313515E+04  0.82881549031E+03  0.13759351286E+04  0.25500000920E-02 0. -1.
</event>
<event>
 5   0  0.1257524E-04  0.2243578E+04  0.7818609E-02  0.8500506E-01
        2   -1    0    0  501    0  0.00000000000E+00  0.00000000000E+00  0.12567387709E+04  0.12567387709E+04  0.25500000920E-02 0. -1.
       -2   -1    0    0    0  501  0.00000000000E+00  0.00000000000E+00 -0.10013300817E+04  0.10013300817E+04  0.25500000920E-02 0.  1.
    10030    2    1    2    0    0  0.00000000000E+00  0.00000000000E+00  0.25540868919E+03  0.22580688526E+04  0.22435778000E+04 0.  0.
        3    1    3    3  502    0 -0.12131434245E+03 -0.47460873590E+03 -0.88799157367E+03  0.10141497261E+04  0.10100000352E+00 0.  1.
       -3    1    3    3    0  502  0.12131434245E+03  0.47460873590E+03  0.11434002629E+04  0.12439191265E+04  0.10100000352E+00 0. -1.
</event>
<event>
 5   0  0.5663790E-05  0.2170328E+04  0.7818609E-02  0.8530881E-01
        1   -1    0    0  501    0  0.00000000000E+00  0.00000000000E+00  0.99253692345E+03  0.99253692346E+03  0.50400001928E-02 0. -1.
       -1   -1    0    0    0  501  0.00000000000E+00  0.00000000000E+00 -0.11864353060E+04  0.11864353061E+04  0.50400001928E-02 0.  1.
    10030    2    1    2    0    0  0.00000000000E+00  0.00000000000E+00 -0.19389838259E+03  0.21789722295E+04  0.21703279462E+04 0.  0.
        3    1    3    3  502    0  0.18523107157E+03 -0.23823624893E+03  0.94956217991E+03  0.99636108108E+03  0.10100000352E+00 0. -1.
       -3    1    3    3    0  502 -0.18523107157E+03  0.23823624893E+03 -0.11434605625E+04  0.11826111484E+04  0.10100000352E+00 0.  1.
</event>
<event>
 5   0  0.5632156E-05  0.2374471E+04  0.7818609E-02  0.8449124E-01
        1   -1    0    0  501    0  0.00000000000E+00  0.00000000000E+00  0.19870676272E+04  0.19870676272E+04  0.50400001928E-02 0. -1.
       -1   -1    0    0    0  501  0.00000000000E+00  0.00000000000E+00 -0.70935084643E+03  0.70935084645E+03  0.50400001928E-02 0.  1.
    10030    2    1    2    0    0  0.00000000000E+00  0.00000000000E+00  0.12777167808E+04  0.26964184736E+04  0.23744709754E+04 0.  0.
        4    1    3    3  502    0  0.53144695220E+02 -0.62703068881E+01 -0.70797982969E+03  0.71000051234E+03  0.12699999809E+01 0.  1.
       -4    1    3    3    0  502 -0.53144695220E+02  0.62703068881E+01  0.19856966104E+04  0.19864179613E+04  0.12699999809E+01 0. -1.
</event>
<event>
 5   0  0.1257524E-04  0.2259714E+04  0.7818609E-02  0.8493977E-01
        2   -1    0    0  501    0  0.00000000000E+00  0.00000000000E+00  0.17583220071E+04  0.17583220071E+04  0.25500000920E-02 0. -1.
       -2   -1    0    0    0  501  0.00000000000E+00  0.00000000000E+00 -0.72602004397E+03  0.72602004398E+03  0.25500000920E-02 0.  1.
    10030    2    1    2    0    0  0.00000000000E+00  0.00000000000E+00  0.10323019631E+04  0.24843420511E+04  0.22597141597E+04 0.  0.
        3    1    3    3  502    0  0.28161260951E+03  0.90152777396E+03  0.11978878759E+04  0.15254485774E+04  0.10100000352E+00 0. -1.
       -3    1    3    3    0  502 -0.28161260951E+03 -0.90152777396E+03 -0.16558591276E+03  0.95889347362E+03  0.10100000352E+00 0.  1.
</event>
<event>
 5   0  0.1270613E-04  0.2285958E+04  0.7818609E-02  0.8483478E-01
       -2   -1    0    0    0  501  0.00000000000E+00  0.00000000000E+00  0.82426757852E+03  0.82426757853E+03  0.25500000920E-02 0. -1.
        2   -1    0    0  501    0  0.00000000000E+00  0.00000000000E+00 -0.15849241140E+04  0.15849241140E+04  0.25500000920E-02 0.  1.
    10030    2    1    2    0    0  0.00000000000E+00  0.00000000000E+00 -0.76065653546E+03  0.24091916925E+04  0.22859584962E+04 0.  0.
        2    1    3    3  502    0  0.12918127427E+02  0.38181397902E+03 -0.15156442469E+04  0.15630503113E+04  0.25500000920E-02 0.  1.
       -2    1    3    3    0  502 -0.12918127427E+02 -0.38181397902E+03  0.75498771141E+03  0.84614138120E+03  0.25500000920E-02 0. -1.
</event>
<event>
 5   0  0.5642466E-05  0.2324952E+04  0.7818609E-02  0.8468147E-01
        1   -1    0    0  501    0  0.00000000000E+00  0.00000000000E+00  0.24888784553E+04  0.24888784553E+04  0.50400001928E-02 0.  1.
       -1   -1    0    0    0  501  0.00000000000E+00  0.00000000000E+00 -0.54295572695E+03  0.54295572697E+03  0.50400001928E-02 0. -1.
    10030    2    1    2    0    0  0.00000000000E+00  0.00000000000E+00  0.19459227283E+04  0.30318341822E+04  0.23249523101E+04 0.  0.
        1    1    3    3  502    0  0.93071526435E+03 -0.64592305102E+03  0.63315078139E+03  0.12978163981E+04  0.50400001928E-02 0. -1.
       -1    1    3    3    0  502 -0.93071526435E+03  0.64592305102E+03  0.13127719469E+04  0.17340177842E+04  0.50400001928E-02 0.  1.
</event>
<event>
 5   0  0.1237296E-04  0.2106382E+04  0.7818609E-02  0.8558437E-01
        2   -1    0    0  501    0  0.00000000000E+00  0.00000000000E+00  0.15998367808E+04  0.15998367808E+04  0.25500000920E-02 0.  1.
       -2   -1    0    0    0  501  0.00000000000E+00  0.00000000000E+00 -0.69332766414E+03  0.69332766415E+03  0.25500000920E-02 0. -1.
    10030    2    1    2    0    0  0.00000000000E+00  0.00000000000E+00  0.90650911668E+03  0.22931644450E+04  0.21063818251E+04 0.  0.
        1    1    3    3  502    0  0.84031877130E+03  0.31355155921E+03 -0.14774992338E+03  0.90899959162E+03  0.50400001928E-02 0. -1.
       -1    1    3    3    0  502 -0.84031877130E+03 -0.31355155921E+03  0.10542590401E+04  0.13841648534E+04  0.50400001928E-02 0.  1.
</event>
<event>
 5   0  0.5843670E-05  0.2258349E+04  0.7818609E-02  0.8494527E-01
       -1   -1    0    0    0  501  0.00000000000E+00  0.00000000000E+00  0.11301489361E+04  0.11301489361E+04  0.50400001928E-02 0.  1.
        1   -1    0    0  501    0  0.00000000000E+00  0.00000000000E+00 -0.11282007100E+04  0.11282007100E+04  0.50400001928E-02 0. -1.
    10030    2    1    2    0    0  0.00000000000E+00  0.00000000000E+00  0.19482261366E+01  0.22583496461E+04  0.22583488058E+04 0.  0.
        2    1    3    3  502    0 -0.20802708570E+03 -0.85714557530E+03 -0.70405169951E+03  0.11285666136E+04  0.25500000920E-02 0. -1.
       -2    1    3    3    0  502  0.20802708570E+03  0.85714557530E+03  0.70599992565E+03  0.11297830326E+04  0.25500000920E-02 0.  1.
</event>
<event>
 5   0  0.1234988E-04  0.2318677E+04  0.7818609E-02  0.8470593E-01
       -2   -1    0    0    0  501  0.00000000000E+00  0.00000000000E+00  0.90996519055E+03  0.90996519055E+03  0.25500000920E-02 0.  1.
        2   -1    0    0  501    0  0.00000000000E+00  0.00000000000E+00 -0.14770522390E+04  0.14770522390E+04  0.25500000920E-02 0. -1.
    10030    2    1    2    0    0  0.00000000000E+00  0.00000000000E+00 -0.56708704842E+03  0.23870174295E+04  0.23186773144E+04 0.  0.
        5    1    3    3  502    0 -0.33252058647E+03  0.34226352536E+03 -0.13712495403E+04  0.14519165448E+04  0.46999998093E+01 0. -1.
       -5    1    3    3    0  502  0.33252058647E+03 -0.34226352536E+03  0.80416249190E+03  0.93510088472E+03  0.46999998093E+01 0.  1.
</event>
<event>
 5   0  0.5843670E-05  0.2311396E+04  0.7818609E-02  0.8473441E-01
        1   -1    0    0  501    0  0.00000000000E+00  0.00000000000E+00  0.75403260444E+03  0.75403260445E+03  0.50400001928E-02 0.  1.
       -1   -1    0    0    0  501  0.00000000000E+00  0.00000000000E+00 -0.17713269297E+04  0.17713269297E+04  0.50400001928E-02 0. -1.
    10030    2    1    2    0    0  0.00000000000E+00  0.00000000000E+00 -0.10172943252E+04  0.25253595341E+04  0.23113963382E+04 0.  0.
        2    1    3    3  502    0 -0.11101933655E+03 -0.80546623670E+03 -0.14059761943E+04  0.16241521513E+04  0.25500000920E-02 0. -1.
       -2    1    3    3    0  502  0.11101933655E+03  0.80546623670E+03  0.38868186908E+03  0.90120738285E+03  0.25500000920E-02 0.  1.
</event>
<event>
 5   0  0.5642466E-05  0.2257082E+04  0.7818609E-02  0.8495038E-01
       -1   -1    0    0    0  501  0.00000000000E+00  0.00000000000E+00  0.11012986114E+04  0.11012986114E+04  0.50400001928E-02 0.  1.
        1   -1    0    0  501    0  0.00000000000E+00  0.00000000000E+00 -0.11564569945E+04  0.11564569945E+04  0.50400001928E-02 0. -1.
    10030    2    1    2    0    0  0.00000000000E+00  0.00000000000E+00 -0.55158383099E+02  0.22577556059E+04  0.22570817284E+04 0.  0.
        1    1    3    3  502    0  0.65753723440E+02  0.46202338306E+03  0.10002563347E+04  0.11037671375E+04  0.50400001928E-02 0.  1.
       -1    1    3    3    0  502 -0.65753723440E+02 -0.46202338306E+03 -0.10554147178E+04  0.11539884684E+04  0.50400001928E-02 0. -1.
</event>
<event>
 5   0  0.5924654E-05  0.2411041E+04  0.7818609E-02  0.8435381E-01
       -1   -1    0    0    0  501  0.00000000000E+00  0.00000000000E+00  0.84327419172E+03  0.84327419173E+03  0.50400001928E-02 0.  1.
        1   -1    0    0  501    0  0.00000000000E+00  0.00000000000E+00 -0.17233778473E+04  0.17233778473E+04  0.50400001928E-02 0. -1.
    10030    2    1    2    0    0  0.00000000000E+00  0.00000000000E+00 -0.88010365559E+03  0.25666520390E+04  0.24110413196E+04 0.  0.
        5    1    3    3  502    0 -0.33069400768E+03 -0.11233710788E+04 -0.13533109038E+03  0.11788374364E+04  0.46999998093E+01 0.  1.
       -5    1    3    3    0  502  0.33069400768E+03  0.11233710788E+04 -0.74477256521E+03  0.13878146026E+04  0.46999998093E+01 0. -1.
</event>
<event>
 5   0  0.1237296E-04  0.2280641E+04  0.7818609E-02  0.8485593E-01
       -2   -1    0    0    0  501  0.00000000000E+00  0.00000000000E+00  0.16997886309E+04  0.16997886310E+04  0.25500000920E-02 0. -1.
        2   -1    0    0  501    0  0.00000000000E+00  0.00000000000E+00 -0.76499588338E+03  0.76499588339E+03  0.25500000920E-02 0.  1.
    10030    2    1    2    0    0  0.00000000000E+00  0.00000000000E+00  0.93479274756E+03  0.24647845143E+04  0.22806414057E+04 0.  0.
        1    1    3    3  502    0  0.28474481903E+02 -0.98631950932E+03  0.10851179253E+04  0.14666689751E+04  0.50400001928E-02 0. -1.
       -1    1    3    3    0  502 -0.28474481903E+02  0.98631950932E+03 -0.15032517778E+03  0.99811553924E+03  0.50400001928E-02 0.  1.
</event>
<event>
 5   0  0.5663790E-05  0.2295383E+04  0.7818609E-02  0.8479744E-01
       -1   -1    0    0    0  501  0.00000000000E+00  0.00000000000E+00  0.11688597058E+04  0.11688597058E+04  0.50400001928E-02 0. -1.
        1   -1    0    0  501    0  0.00000000000E+00  0.00000000000E+00 -0.11269065870E+04  0.11269065870E+04  0.50400001928E-02 0.  1.
    10030    2    1    2    0    0  0.00000000000E+00  0.00000000000E+00  0.41953118815E+02  0.22957662928E+04  0.22953829325E+04 0.  0.
        3    1    3    3  502    0  0.75949123655E+03 -0.85290199688E+03  0.13469223629E+03  0.11499612008E+04  0.10100000352E+00 0. -1.
       -3    1    3    3    0  502 -0.75949123655E+03  0.85290199688E+03 -0.92739117475E+02  0.11458050920E+04  0.10100000352E+00 0.  1.
</event>
<event>
 5   0  0.1270613E-04  0.2203958E+04  0.7818609E-02  0.8516782E-01
        2   -1    0    0  501    0  0.00000000000E+00  0.00000000000E+00  0.15380900272E+04  0.15380900272E+04  0.25500000920E-02 0. -1.
       -2   -1    0    0    0  501  0.00000000000E+00  0.00000000000E+00 -0.78952335023E+03  0.78952335024E+03  0.25500000920E-02 0.  1.
    10030    2    1    2    0    0  0.00000000000E+00  0.00000000000E+00  0.74856667694E+03  0.23276133774E+04  0.22039582494E+04 0.  0.
        2    1    3    3  502    0 -0.95230915835E+03  0.28497170888E+03  0.87663506779E+03  0.13253643461E+04  0.25500000920E-02 0. -1.
       -2    1    3    3    0  502  0.95230915835E+03 -0.28497170888E+03 -0.12806839085E+03  0.10022490313E+04  0.25500000920E-02 0.  1.
</event>
<event>
 5   0  0.5632156E-05  0.2588111E+04  0.7818609E-02  0.8372251E-01
       -1   -1    0    0    0  501  0.00000000000E+00  0.00000000000E+00  0.16878384918E+04  0.16878384919E+04  0.50400001928E-02 0. -1.
        1   -1    0    0  501    0  0.00000000000E+00  0.00000000000E+00 -0.99214466127E+03  0.99214466128E+03  0.50400001928E-02 0.  1.
    10030    2    1    2    0    0  0.00000000000E+00  0.00000000000E+00  0.69569383058E+03  0.26799831531E+04  0.25881112409E+04 0.  0.
        4    1    3    3  502    0  0.52454797709E+03 -0.64170222757E+00  0.15728136714E+04  0.16579793273E+04  0.12699999809E+01 0. -1.
       -4    1    3    3    0  502 -0.52454797709E+03  0.64170222757E+00 -0.87711984077E+03  0.10220038258E+04  0.12699999809E+01 0.  1.
</event>
<event>
 5   0  0.5924654E-05  0.2279901E+04  0.7818609E-02  0.8485888E-01
       -1   -1    0    0    0  501  0.00000000000E+00  0.00000000000E+00  0.94190685623E+03  0.94190685624E+03  0.50400001928E-02 0. -1.
        1   -1    0    0  501    0  0.00000000000E+00  0.00000000000E+00 -0.13796348516E+04  0.13796348516E+04  0.50400001928E-02 0.  1.
    10030    2    1    2    0    0  0.00000000000E+00  0.00000000000E+00 -0.43772799540E+03  0.23215417079E+04  0.22799013363E+04 0.  0.
        5    1    3    3  502    0  0.43461038381E+03  0.92699281418E+03 -0.72928108225E+03  0.12570102825E+04  0.46999998093E+01 0.  1.
       -5    1    3    3    0  502 -0.43461038381E+03 -0.92699281418E+03  0.29155308686E+03  0.10645314254E+04  0.46999998093E+01 0. -1.
</event>
<event>
 5   0  0.1234988E-04  0.2094912E+04  0.7818609E-02  0.8563488E-01
        2   -1    0    0  501    0  0.00000000000E+00  0.00000000000E+00  0.50427113988E+03  0.50427113989E+03  0.25500000920E-02 0. -1.
       -2   -1    0    0    0  501  0.00000000000E+00  0.00000000000E+00 -0.21757416784E+04  0.21757416784E+04  0.25500000920E-02 0.  1.
    10030    2    1    2    0    0  0.00000000000E+00  0.00000000000E+00 -0.16714705385E+04  0.26800128183E+04  0.20949116796E+04 0.  0.
        5    1    3    3  502    0  0.35293427465E+03 -0.75828076408E+03 -0.29079002892E+02  0.83691098560E+03  0.46999998093E+01 0. -1.
       -5    1    3    3    0  502 -0.35293427465E+03  0.75828076408E+03 -0.16423915357E+04  0.18431018327E+04  0.46999998093E+01 0.  1.
</event>
<event>
 5   0  0.5924654E-05  0.2344066E+04  0.7818609E-02  0.8460747E-01
       -1   -1    0    0    0  501  0.00000000000E+00  0.00000000000E+00  0.81823769507E+03  0.81823769508E+03  0.50400001928E-02 0. -1.
        1   -1    0    0  501    0  0.00000000000E+00  0.00000000000E+00 -0.16788042958E+04  0.16788042958E+04  0.50400001928E-02 0.  1.
    10030    2    1    2    0    0  0.00000000000E+00  0.00000000000E+00 -0.86056660073E+03  0.24970419909E+04  0.23440656625E+04 0.  0.
        5    1    3    3  502    0 -0.27812324646E+03 -0.60213355108E+03 -0.14596372976E+04  0.16032718060E+04  0.46999998093E+01 0.  1.
       -5    1    3    3    0  502  0.27812324646E+03  0.60213355108E+03  0.59907069683E+03  0.89377018487E+03  0.46999998093E+01 0. -1.
</event>
<event>
 5   0  0.5843670E-05  0.2122276E+04  0.7818609E-02  0.8551493E-01
       -1   -1    0    0    0  501  0.00000000000E+00  0.00000000000E+00  0.75422104577E+03  0.75422104579E+03  0.50400001928E-02 0.  1.
        1   -1    0    0  501    0  0.00000000000E+00  0.00000000000E+00 -0.14929500162E+04  0.14929500162E+04  0.50400001928E-02 0. -1.
    10030    2    1    2    0    0  0.00000000000E+00  0.00000000000E+00 -0.73872897047E+03  0.22471710620E+04  0.21222764406E+04 0.  0.
        2    1    3    3  502    0 -0.61939829287E+03  0.91007185001E+02  0.53784005865E+03  0.82535354947E+03  0.25500000920E-02 0.  1.
       -2    1    3    3    0  502  0.61939829287E+03 -0.91007185001E+02 -0.12765690291E+04  0.14218175126E+04  0.25500000920E-02 0. -1.
</event>
<event>
 5   0  0.1237296E-04  0.2218072E+04  0.7818609E-02  0.8510944E-01
       -2   -1    0    0    0  501  0.00000000000E+00  0.00000000000E+00  0.77791593491E+03  0.77791593492E+03  0.25500000920E-02 0.  1.
        2   -1    0    0  501    0  0.00000000000E+00  0.00000000000E+00 -0.15810976795E+04  0.15810976795E+04  0.25500000920E-02 0. -1.
    10030    2    1    2    0    0  0.00000000000E+00  0.00000000000E+00 -0.80318174457E+03  0.23590136144E+04  0.22180722076E+04 0.  0.
        1    1    3    3  502    0  0.10827530555E+04  0.20663683376E+03 -0.53144812097E+03  0.12237197659E+04  0.50400001928E-02 0.  1.
       -1    1    3    3    0  502 -0.10827530555E+04 -0.20663683376E+03 -0.27173362360E+03  0.11352938485E+04  0.50400001928E-02 0. -1.
</event>
<event>
 5   0  0.5632156E-05  0.1377798E+04  0.7818609E-02  0.8970048E-01
       -1   -1    0    0    0  501  0.00000000000E+00  0.00000000000E+00  0.55211423201E+03  0.55211423204E+03  0.50400001928E-02 0.  1.
        1   -1    0    0  501    0  0.00000000000E+00  0.00000000000E+00 -0.85957228854E+03  0.85957228856E+03  0.50400001928E-02 0. -1.
    10030    2    1    2    0    0  0.00000000000E+00  0.00000000000E+00 -0.30745805653E+03  0.14116865206E+04  0.13777983800E+04 0.  0.
        4    1    3    3  502    0  0.34635332470E+03 -0.48393992211E+03  0.20182493933E+03  0.62840543662E+03  0.12699999809E+01 0. -1.
       -4    1    3    3    0  502 -0.34635332470E+03  0.48393992211E+03 -0.50928299586E+03  0.78328108397E+03  0.12699999809E+01 0.  1.
</event>
<event>
 5   0  0.1237296E-04  0.2222136E+04  0.7818609E-02  0.8509271E-01
       -2   -1    0    0    0  501  0.00000000000E+00  0.00000000000E+00  0.98958350826E+03  0.98958350827E+03  0.25500000920E-02 0. -1.
        2   -1    0    0  501    0  0.00000000000E+00  0.00000000000E+00 -0.12474660286E+04  0.12474660286E+04  0.25500000920E-02 0.  1.
    10030    2    1    2    0    0  0.00000000000E+00  0.00000000000E+00 -0.25788252036E+03  0.22370495369E+04  0.22221357376E+04 0.  0.
        1    1    3    3  502    0  0.10120043563E+04 -0.41188636163E+03  0.74076821003E+02  0.10951212570E+04  0.50400001928E-02 0. -1.
       -1    1    3    3    0  502 -0.10120043563E+04  0.41188636163E+03 -0.33195934137E+03  0.11419282799E+04  0.50400001928E-02 0.  1.
</event>
<event>
 5   0  0.1237296E-04  0.2124069E+04  0.7818609E-02  0.8550714E-01
        2   -1    0    0  501    0  0.00000000000E+00  0.00000000000E+00  0.96930924649E+03  0.96930924650E+03  0.25500000920E-02 0. -1.
       -2   -1    0    0    0  501  0.00000000000E+00  0.00000000000E+00 -0.11636301185E+04  0.11636301185E+04  0.25500000920E-02 0.  1.
    10030    2    1    2    0    0  0.00000000000E+00  0.00000000000E+00 -0.19432087196E+03  0.21329393649E+04  0.21240691451E+04 0.  0.
        1    1    3    3  502    0 -0.66147370557E+02  0.12988440136E+03  0.95921749675E+03  0.97022865266E+03  0.50400001928E-02 0. -1.
       -1    1    3    3    0  502  0.66147370557E+02 -0.12988440136E+03 -0.11535383687E+04  0.11627107123E+04  0.50400001928E-02 0.  1.
</event>
<event>
 5   0  0.5632156E-05  0.2255296E+04  0.7818609E-02  0.8495759E-01
       -1   -1    0    0    0  501  0.00000000000E+00  0.00000000000E+00  0.94620806173E+03  0.94620806174E+03  0.50400001928E-02 0.  1.
        1   -1    0    0  501    0  0.00000000000E+00  0.00000000000E+00 -0.13438800443E+04  0.13438800443E+04  0.50400001928E-02 0. -1.
    10030    2    1    2    0    0  0.00000000000E+00  0.00000000000E+00 -0.39767198254E+03  0.22900881060E+04  0.22552961064E+04 0.  0.
        4    1    3    3  502    0 -0.44048806451E+03 -0.85565026052E+03  0.39795636347E+03  0.10414115341E+04  0.12699999809E+01 0.  1.
       -4    1    3    3    0  502  0.44048806451E+03  0.85565026052E+03 -0.79562834600E+03  0.12486765719E+04  0.12699999809E+01 0. -1.
</event>
<event>
 5   0  0.5663790E-05  0.2319188E+04  0.7818609E-02  0.8470394E-01
       -1   -1    0    0    0  501  0.00000000000E+00  0.00000000000E+00  0.13639261920E+04  0.13639261920E+04  0.50400001928E-02 0. -1.
        1   -1    0    0  501    0  0.00000000000E+00  0.00000000000E+00 -0.98587358634E+03  0.98587358636E+03  0.50400001928E-02 0.  1.
    10030    2    1    2    0    0  0.00000000000E+00  0.00000000000E+00  0.37805260566E+03  0.23497997784E+04  0.23191884843E+04 0.  0.
        3    1    3    3  502    0  0.42820573776E+03  0.10771384880E+04  0.15586325626E+03  0.11695643809E+04  0.10100000352E+00 0. -1.
       -3    1    3    3    0  502 -0.42820573776E+03 -0.10771384880E+04  0.22218934940E+03  0.11802353975E+04  0.10100000352E+00 0.  1.
</event>
<event>
 5   0  0.1281432E-04  0.1621962E+04  0.7818609E-02  0.8807168E-01
       -2   -1    0    0    0  501  0.00000000000E+00  0.00000000000E+00  0.15210616546E+04  0.15210616546E+04  0.25500000920E-02 0. -1.
        2   -1    0    0  501    0  0.00000000000E+00  0.00000000000E+00 -0.43238879595E+03  0.43238879596E+03  0.25500000920E-02 0.  1.
    10030    2    1    2    0    0  0.00000000000E+00  0.00000000000E+00  0.10886728587E+04  0.19534504506E+04  0.16219617966E+04 0.  0.
        4    1    3    3  502    0 -0.17835084120E+03 -0.22685121953E+03  0.14571367077E+04  0.14854357934E+04  0.12699999809E+01 0. -1.
       -4    1    3    3    0  502  0.17835084120E+03  0.22685121953E+03 -0.36846384908E+03  0.46801465718E+03  0.12699999809E+01 0.  1.
</event>
<event>
 5   0  0.5632156E-05  0.2253824E+04  0.7818609E-02  0.8496353E-01
        1   -1    0    0  501    0  0.00000000000E+00  0.00000000000E+00  0.16986240617E+04  0.16986240617E+04  0.50400001928E-02 0.  1.
       -1   -1    0    0    0  501  0.00000000000E+00  0.00000000000E+00 -0.74762344417E+03  0.74762344419E+03  0.50400001928E-02 0. -1.
    10030    2    1    2    0    0  0.00000000000E+00  0.00000000000E+00  0.95100061757E+03  0.24462475059E+04  0.22538244576E+04 0.  0.
        4    1    3    3  502    0 -0.41560765017E+02  0.54525470511E+03  0.15449674913E+04  0.16388886944E+04  0.12699999809E+01 0.  1.
       -4    1    3    3    0  502  0.41560765017E+02 -0.54525470511E+03 -0.59396687370E+03  0.80735881155E+03  0.12699999809E+01 0. -1.
</event>
<event>
 5   0  0.5642466E-05  0.2285250E+04  0.7818609E-02  0.8483760E-01
        1   -1    0    0  501    0  0.00000000000E+00  0.00000000000E+00  0.14912969060E+04  0.14912969060E+04  0.50400001928E-02 0.  1.
       -1   -1    0    0    0  501  0.00000000000E+00  0.00000000000E+00 -0.87547407465E+03  0.87547407467E+03  0.50400001928E-02 0. -1.
    10030    2    1    2    0    0  0.00000000000E+00  0.00000000000E+00  0.61582283137E+03  0.23667709807E+04  0.22852499022E+04 0.  0.
        1    1    3    3  502    0  0.60861130435E+03 -0.33478124667E+03 -0.63170437898E+03  0.93890181880E+03  0.50400001928E-02 0. -1.
       -1    1    3    3    0  502 -0.60861130435E+03  0.33478124667E+03  0.12475272104E+04  0.14278691619E+04  0.50400001928E-02 0.  1.
</event>
<event>
 5   0  0.5924654E-05  0.2476091E+04  0.7818609E-02  0.8411553E-01
        1   -1    0    0  501    0  0.00000000000E+00  0.00000000000E+00  0.15834818716E+04  0.15834818716E+04  0.50400001928E-02 0.  1.
       -1   -1    0    0    0  501  0.00000000000E+00  0.00000000000E+00 -0.96796583282E+03  0.96796583283E+03  0.50400001928E-02 0. -1.
    10030    2    1    2    0    0  0.00000000000E+00  0.00000000000E+00  0.61551603875E+03  0.25514477044E+04  0.24760907484E+04 0.  0.
        5    1    3    3  502    0 -0.24682609315E+02  0.34649501291E+03  0.15322266055E+04  0.15711169549E+04  0.46999998093E+01 0.  1.
       -5    1    3    3    0  502  0.24682609315E+02 -0.34649501291E+03 -0.91671056680E+03  0.98033074952E+03  0.46999998093E+01 0. -1.
</event>
<event>
 5   0  0.1281432E-04  0.2141899E+04  0.7818609E-02  0.8543008E-01
       -2   -1    0    0    0  501  0.00000000000E+00  0.00000000000E+00  0.61169717007E+03  0.61169717008E+03  0.25500000920E-02 0. -1.
        2   -1    0    0  501    0  0.00000000000E+00  0.00000000000E+00 -0.18750012786E+04  0.18750012786E+04  0.25500000920E-02 0.  1.
    10030    2    1    2    0    0  0.00000000000E+00  0.00000000000E+00 -0.12633041086E+04  0.24866984487E+04  0.21418991349E+04 0.  0.
        4    1    3    3  502    0 -0.74293797747E+03 -0.71823250336E+03 -0.95820823223E+03  0.14092478123E+04  0.12699999809E+01 0. -1.
       -4    1    3    3    0  502  0.74293797747E+03  0.71823250336E+03 -0.30509587633E+03  0.10774506364E+04  0.12699999809E+01 0.  1.
</event>
<event>
 5   0  0.1270613E-04  0.2314901E+04  0.7818609E-02  0.8472069E-01
        2   -1    0    0  501    0  0.00000000000E+00  0.00000000000E+00  0.11590394674E+04  0.11590394674E+04  0.25500000920E-02 0.  1.
       -2   -1    0    0    0  501  0.00000000000E+00  0.00000000000E+00 -0.11558639822E+04  0.11558639822E+04  0.25500000920E-02 0. -1.
    10030    2    1    2    0    0  0.00000000000E+00  0.00000000000E+00  0.31754851494E+01  0.23149034496E+04  0.23149012716E+04 0.  0.
        2    1    3    3  502    0  0.25817430647E+03  0.43838973979E+02  0.11290266713E+04  0.11589982971E+04  0.25500000920E-02 0.  1.
       -2    1    3    3    0  502 -0.25817430647E+03 -0.43838973979E+02 -0.11258511862E+04  0.11559051525E+04  0.25500000920E-02 0. -1.
</event>
<event>
 5   0  0.5924654E-05  0.2304886E+04  0.7818609E-02  0.8475997E-01
        1   -1    0    0  501    0  0.00000000000E+00  0.00000000000E+00  0.12591791340E+04  0.12591791340E+04  0.50400001928E-02 0. -1.
       -1   -1    0    0    0  501  0.00000000000E+00  0.00000000000E+00 -0.10547545011E+04  0.10547545012E+04  0.50400001928E-02 0.  1.
    10030    2    1    2    0    0  0.00000000000E+00  0.00000000000E+00  0.20442463284E+03  0.23139336352E+04  0.23048859923E+04 0.  0.
        5    1    3    3  502    0  0.44908818760E+03 -0.38902909489E+03 -0.88912473209E+03  0.10693870750E+04  0.46999998093E+01 0.  1.
       -5    1    3    3    0  502 -0.44908818760E+03  0.38902909489E+03  0.10935493649E+04  0.12445465602E+04  0.46999998093E+01 0. -1.
</event>
<event>
 5   0  0.5642466E-05  0.1654012E+04  0.7818609E-02  0.8788037E-01
        1   -1    0    0  501    0  0.00000000000E+00  0.00000000000E+00  0.13545267084E+04  0.13545267084E+04  0.50400001928E-02 0.  1.
       -1   -1    0    0    0  501  0.00000000000E+00  0.00000000000E+00 -0.50492807899E+03  0.50492807901E+03  0.50400001928E-02 0. -1.
    10030    2    1    2    0    0  0.00000000000E+00  0.00000000000E+00  0.84959862943E+03  0.18594547874E+04  0.16540115705E+04 0.  0.
        1    1    3    3  502    0  0.13323630669E+03  0.19119775041E+03  0.13168505770E+04  0.13373122056E+04  0.50400001928E-02 0.  1.
       -1    1    3    3    0  502 -0.13323630669E+03 -0.19119775041E+03 -0.46725194758E+03  0.52214258179E+03  0.50400001928E-02 0. -1.
</event>
<event>
 5   0  0.1257524E-04  0.1918276E+04  0.7818609E-02  0.8645812E-01
        2   -1    0    0  501    0  0.00000000000E+00  0.00000000000E+00  0.13318194865E+04  0.13318194865E+04  0.25500000920E-02 0. -1.
       -2   -1    0    0    0  501  0.00000000000E+00  0.00000000000E+00 -0.69074358299E+03  0.69074358299E+03  0.25500000920E-02 0.  1.
    10030    2    1    2    0    0  0.00000000000E+00  0.00000000000E+00  0.64107590354E+03  0.20225630695E+04  0.19182760636E+04 0.  0.
        3    1    3    3  502    0 -0.21604286505E+03 -0.23260569596E+03  0.12748202725E+04  0.13137528941E+04  0.10100000352E+00 0. -1.
       -3    1    3    3    0  502  0.21604286505E+03  0.23260569596E+03 -0.63374436899E+03  0.70881017541E+03  0.10100000352E+00 0.  1.
</event>
<event>
 5   0  0.1281432E-04  0.2284780E+04  0.7818609E-02  0.8483946E-01
        2   -1    0    0  501    0  0.00000000000E+00  0.00000000000E+00  0.17214911310E+04  0.17214911310E+04  0.25500000920E-02 0.  1.
       -2   -1    0    0    0  501  0.00000000000E+00  0.00000000000E+00 -0.75809587921E+03  0.75809587921E+03  0.25500000920E-02 0. -1.
    10030    2    1    2    0    0  0.00000000000E+00  0.00000000000E+00  0.96339525182E+03  0.24795870102E+04  0.22847803680E+04 0.  0.
        4    1    3    3  502    0  0.90932563764E+03  0.57535058099E+03  0.65386094060E+02  0.10780437656E+04  0.12699999809E+01 0. -1.
       -4    1    3    3    0  502 -0.90932563764E+03 -0.57535058099E+03  0.89800915776E+03  0.14015432447E+04  0.12699999809E+01 0.  1.
</event>
<event>
 5   0  0.1281432E-04  0.2287925E+04  0.7818609E-02  0.8482697E-01
       -2   -1    0    0    0  501  0.00000000000E+00  0.00000000000E+00  0.89462300759E+03  0.89462300759E+03  0.25500000920E-02 0.  1.
        2   -1    0    0  501    0  0.00000000000E+00  0.00000000000E+00 -0.14627957628E+04  0.14627957628E+04  0.25500000920E-02 0. -1.
    10030    2    1    2    0    0  0.00000000000E+00  0.00000000000E+00 -0.56817275521E+03  0.23574187704E+04  0.22879254750E+04 0.  0.
        4    1    3    3  502    0 -0.78214129798E+03 -0.76787686687E+03 -0.62155427331E+03  0.12600441342E+04  0.12699999809E+01 0. -1.
       -4    1    3    3    0  502  0.78214129798E+03  0.76787686687E+03  0.53381518094E+02  0.10973746361E+04  0.12699999809E+01 0.  1.
</event>
<event>
 5   0  0.5663790E-05  0.2276522E+04  0.7818609E-02  0.8487236E-01
       -1   -1    0    0    0  501  0.00000000000E+00  0.00000000000E+00  0.83082400905E+03  0.83082400907E+03  0.50400001928E-02 0.  1.
        1   -1    0    0  501    0  0.00000000000E+00  0.00000000000E+00 -0.15594610606E+04  0.15594610607E+04  0.50400001928E-02 0. -1.
    10030    2    1    2    0    0  0.00000000000E+00  0.00000000000E+00 -0.72863705159E+03  0.23902850697E+04  0.22765216365E+04 0.  0.
        3    1    3    3  502    0  0.52740449050E+03  0.59751903330E+03 -0.12176130076E+04  0.14552545956E+04  0.10100000352E+00 0. -1.
       -3    1    3    3    0  502 -0.52740449050E+03 -0.59751903330E+03  0.48897595596E+03  0.93503047408E+03  0.10100000352E+00 0.  1.
</event>
<event>
 5   0  0.5663790E-05  0.1910461E+04  0.7818609E-02  0.8649667E-01
       -1   -1    0    0    0  501  0.00000000000E+00  0.00000000000E+00  0.56025796114E+03  0.56025796116E+03  0.50400001928E-02 0. -1.
        1   -1    0    0  501    0  0.00000000000E+00  0.00000000000E+00 -0.16286523637E+04  0.16286523637E+04  0.50400001928E-02 0.  1.
    10030    2    1    2    0    0  0.00000000000E+00  0.00000000000E+00 -0.10683944025E+04  0.21889103248E+04  0.19104611513E+04 0.  0.
        3    1    3    3  502    0 -0.60585711558E+02  0.64217327662E+03 -0.13414494708E+04  0.14884703016E+04  0.10100000352E+00 0.  1.
       -3    1    3    3    0  502  0.60585711558E+02 -0.64217327662E+03  0.27305506832E+03  0.70044002326E+03  0.10100000352E+00 0. -1.
</event>
<event>
 5   0  0.5642466E-05  0.1990602E+04  0.7818609E-02  0.8611027E-01
        1   -1    0    0  501    0  0.00000000000E+00  0.00000000000E+00  0.56497886431E+03  0.56497886433E+03  0.50400001928E-02 0.  1.
       -1   -1    0    0    0  501  0.00000000000E+00  0.00000000000E+00 -0.17533826394E+04  0.17533826394E+04  0.50400001928E-02 0. -1.
    10030    2    1    2    0    0  0.00000000000E+00  0.00000000000E+00 -0.11884037751E+04  0.23183615038E+04  0.19906020520E+04 0.  0.
        1    1    3    3  502    0 -0.43501127762E+03 -0.89180240405E+03 -0.68499850187E+03  0.12057235534E+04  0.50400001928E-02 0. -1.
       -1    1    3    3    0  502  0.43501127762E+03  0.89180240405E+03 -0.50340527324E+03  0.11126379504E+04  0.50400001928E-02 0.  1.
</event>
<event>
 5   0  0.5843670E-05  0.1193324E+04  0.7818609E-02  0.9118721E-01
        1   -1    0    0  501    0  0.00000000000E+00  0.00000000000E+00  0.46880824630E+03  0.46880824633E+03  0.50400001928E-02 0. -1.
       -1   -1    0    0    0  501  0.00000000000E+00  0.00000000000E+00 -0.75938359356E+03  0.75938359358E+03  0.50400001928E-02 0.  1.
    10030    2    1    2    0    0  0.00000000000E+00  0.00000000000E+00 -0.29057534726E+03  0.12281918399E+04  0.11933235786E+04 0.  0.
        2    1    3    3  502    0  0.23777777506E+03  0.42832409208E+03 -0.49583548674E+03  0.69703129635E+03  0.25500000920E-02 0.  1.
       -2    1    3    3    0  502 -0.23777777506E+03 -0.42832409208E+03  0.20526013949E+03  0.53116054356E+03  0.25500000920E-02 0. -1.
</event>
<event>
 5   0  0.1257524E-04  0.2299249E+04  0.7818609E-02  0.8478217E-01
       -2   -1    0    0    0  501  0.00000000000E+00  0.00000000000E+00  0.97056967220E+03  0.97056967220E+03  0.25500000920E-02 0.  1.
        2   -1    0    0  501    0  0.00000000000E+00  0.00000000000E+00 -0.13617124797E+04  0.13617124797E+04  0.25500000920E-02 0. -1.
    10030    2    1    2    0    0  0.00000000000E+00  0.00000000000E+00 -0.39114280749E+03  0.23322821519E+04  0.22992492993E+04 0.  0.
        3    1    3    3  502    0  0.24388843542E+03 -0.11630308517E+02  0.94396484148E+03  0.97503152008E+03  0.10100000352E+00 0.  1.
       -3    1    3    3    0  502 -0.24388843542E+03  0.11630308517E+02 -0.13351076490E+04  0.13572506318E+04  0.10100000352E+00 0. -1.
</event>
<event>
 5   0  0.1257524E-04  0.2272471E+04  0.7818609E-02  0.8488855E-01
        2   -1    0    0  501    0  0.00000000000E+00  0.00000000000E+00  0.12654314214E+04  0.12654314214E+04  0.25500000920E-02 0. -1.
       -2   -1    0    0    0  501  0.00000000000E+00  0.00000000000E+00 -0.10202301052E+04  0.10202301052E+04  0.25500000920E-02 0.  1.
    10030    2    1    2    0    0  0.00000000000E+00  0.00000000000E+00  0.24520131617E+03  0.22856615265E+04  0.22724711062E+04 0.  0.
        3    1    3    3  502    0 -0.16816901731E+03 -0.91175997426E+03 -0.53805603913E+03  0.10719567997E+04  0.10100000352E+00 0.  1.
       -3    1    3    3    0  502  0.16816901731E+03  0.91175997426E+03  0.78325735530E+03  0.12137047268E+04  0.10100000352E+00 0. -1.
</event>
<event>
 5   0  0.5663790E-05  0.2303719E+04  0.7818609E-02  0.8476456E-01
       -1   -1    0    0    0  501  0.00000000000E+00  0.00000000000E+00  0.66701662648E+03  0.66701662650E+03  0.50400001928E-02 0. -1.
        1   -1    0    0  501    0  0.00000000000E+00  0.00000000000E+00 -0.19891263132E+04  0.19891263132E+04  0.50400001928E-02 0.  1.
    10030    2    1    2    0    0  0.00000000000E+00  0.00000000000E+00 -0.13221096867E+04  0.26561429397E+04  0.23037190133E+04 0.  0.
        3    1    3    3  502    0 -0.56134124381E+03  0.22089052893E+03  0.47032608201E+03  0.76492042161E+03  0.10100000352E+00 0. -1.
       -3    1    3    3    0  502  0.56134124381E+03 -0.22089052893E+03 -0.17924357687E+04  0.18912225181E+04  0.10100000352E+00 0.  1.
</event>
<event>
 5   0  0.1270613E-04  0.2288422E+04  0.7818609E-02  0.8482500E-01
       -2   -1    0    0    0  501  0.00000000000E+00  0.00000000000E+00  0.67893795213E+03  0.67893795214E+03  0.25500000920E-02 0.  1.
        2   -1    0    0  501    0  0.00000000000E+00  0.00000000000E+00 -0.19283327960E+04  0.19283327960E+04  0.25500000920E-02 0. -1.
    10030    2    1    2    0    0  0.00000000000E+00  0.00000000000E+00 -0.12493948439E+04  0.26072707481E+04  0.22884215692E+04 0.  0.
        2    1    3    3  502    0 -0.36830931069E+03 -0.54237665839E+03  0.44372226362E+03  0.79165247119E+03  0.25500000920E-02 0.  1.
       -2    1    3    3    0  502  0.36830931069E+03  0.54237665839E+03 -0.16931171075E+04  0.18156182769E+04  0.25500000920E-02 0. -1.
</event>
<event>
 5   0  0.1237296E-04  0.2355069E+04  0.7818609E-02  0.8456519E-01
        2   -1    0    0  501    0  0.00000000000E+00  0.00000000000E+00  0.81668796842E+03  0.81668796843E+03  0.25500000920E-02 0.  1.
       -2   -1    0    0    0  501  0.00000000000E+00  0.00000000000E+00 -0.16978186029E+04  0.16978186029E+04  0.25500000920E-02 0. -1.
    10030    2    1    2    0    0  0.00000000000E+00  0.00000000000E+00 -0.88113063446E+03  0.25145065713E+04  0.23550694474E+04 0.  0.
        1    1    3    3  502    0  0.56188565021E+03 -0.92108639628E+03 -0.94416693775E+03  0.14337248131E+04  0.50400001928E-02 0. -1.
       -1    1    3    3    0  502 -0.56188565021E+03  0.92108639628E+03  0.63036303292E+02  0.10807817582E+04  0.50400001928E-02 0.  1.
</event>
<event>
 5   0  0.1281432E-04  0.1872545E+04  0.7818609E-02  0.8668644E-01
       -2   -1    0    0    0  501  0.00000000000E+00  0.00000000000E+00  0.60481208976E+03  0.60481208976E+03  0.25500000920E-02 0.  1.
        2   -1    0    0  501    0  0.00000000000E+00  0.00000000000E+00 -0.14493862871E+04  0.14493862871E+04  0.25500000920E-02 0. -1.
    10030    2    1    2    0    0  0.00000000000E+00  0.00000000000E+00 -0.84457419739E+03  0.20541983769E+04  0.18725451655E+04 0.  0.
        4    1    3    3  502    0 -0.44115456182E+03  0.53005021416E+03 -0.11169926406E+04  0.13127241710E+04  0.12699999809E+01 0. -1.
       -4    1    3    3    0  502  0.44115456182E+03 -0.53005021416E+03  0.27241844324E+03  0.74147420593E+03  0.12699999809E+01 0.  1.
</event>
<event>
 5   0  0.5924654E-05  0.2136053E+04  0.7818609E-02  0.8545526E-01
       -1   -1    0    0    0  501  0.00000000000E+00  0.00000000000E+00  0.93554247305E+03  0.93554247306E+03  0.50400001928E-02 0.  1.
        1   -1    0    0  501    0  0.00000000000E+00  0.00000000000E+00 -0.12192715917E+04  0.12192715917E+04  0.50400001928E-02 0. -1.
    10030    2    1    2    0    0  0.00000000000E+00  0.00000000000E+00 -0.28372911863E+03  0.21548140648E+04  0.21360527711E+04 0.  0.
        5    1    3    3  502    0  0.51066887681E+03  0.63508543249E+03 -0.83824801314E+03  0.11691013771E+04  0.46999998093E+01 0. -1.
       -5    1    3    3    0  502 -0.51066887681E+03 -0.63508543249E+03  0.55451889451E+03  0.98571268769E+03  0.46999998093E+01 0.  1.
</event>
<event>
 5   0  0.1237296E-04  0.2290367E+04  0.7818609E-02  0.8481729E-01
        2   -1    0    0  501    0  0.00000000000E+00  0.00000000000E+00  0.14319329687E+04  0.14319329687E+04  0.25500000920E-02 0.  1.
       -2   -1    0    0    0  501  0.00000000000E+00  0.00000000000E+00 -0.91585631342E+03  0.91585631342E+03  0.25500000920E-02 0. -1.
    10030    2    1    2    0    0  0.00000000000E+00  0.00000000000E+00  0.51607665531E+03  0.23477892822E+04  0.22903666517E+04 0.  0.
        1    1    3    3  502    0  0.10108599273E+04 -0.48809623372E+03  0.25708386212E+02  0.11228252968E+04  0.50400001928E-02 0. -1.
       -1    1    3    3    0  502 -0.10108599273E+04  0.48809623372E+03  0.49036826909E+03  0.12249639853E+04  0.50400001928E-02 0.  1.
</event>
<event>
 5   0  0.1257524E-04  0.2334153E+04  0.7818609E-02  0.8464575E-01
       -2   -1    0    0    0  501  0.00000000000E+00  0.00000000000E+00  0.57466606530E+03  0.57466606530E+03  0.25500000920E-02 0.  1.
        2   -1    0    0  501    0  0.00000000000E+00  0.00000000000E+00 -0.23701904419E+04  0.23701904419E+04  0.25500000920E-02 0. -1.
    10030    2    1    2    0    0  0.00000000000E+00  0.00000000000E+00 -0.17955243766E+04  0.29448565072E+04  0.23341533928E+04 0.  0.
        3    1    3    3  502    0 -0.42947817522E+03 -0.83376072046E+03 -0.17740871944E+04  0.20067371092E+04  0.10100000352E+00 0. -1.
       -3    1    3    3    0  502  0.42947817522E+03  0.83376072046E+03 -0.21437182249E+02  0.93811939803E+03  0.10100000352E+00 0.  1.
</event>
<event>
 5   0  0.5632156E-05  0.2324483E+04  0.7818609E-02  0.8468330E-01
        1   -1    0    0  501    0  0.00000000000E+00  0.00000000000E+00  0.77089815291E+03  0.77089815293E+03  0.50400001928E-02 0. -1.
       -1   -1    0    0    0  501  0.00000000000E+00  0.00000000000E+00 -0.17522493976E+04  0.17522493976E+04  0.50400001928E-02 0.  1.
    10030    2    1    2    0    0  0.00000000000E+00  0.00000000000E+00 -0.98135124469E+03  0.25231475505E+04  0.23244834472E+04 0.  0.
        4    1    3    3  502    0 -0.13636159319E+03  0.61634791651E+03 -0.15499507547E+04  0.16735675049E+04  0.12699999809E+01 0.  1.
       -4    1    3    3    0  502  0.13636159319E+03 -0.61634791651E+03  0.56859951005E+03  0.84958004568E+03  0.12699999809E+01 0. -1.
</event>
<event>
 5   0  0.1234988E-04  0.2205600E+04  0.7818609E-02  0.8516101E-01
       -2   -1    0    0    0  501  0.00000000000E+00  0.00000000000E+00  0.82956327989E+03  0.82956327989E+03  0.25500000920E-02 0.  1.
        2   -1    0    0  501    0  0.00000000000E+00  0.00000000000E+00 -0.14660336587E+04  0.14660336587E+04  0.25500000920E-02 0. -1.
    10030    2    1    2    0    0  0.00000000000E+00  0.00000000000E+00 -0.63647037877E+03  0.22955969386E+04  0.22055998643E+04 0.  0.
        5    1    3    3  502    0 -0.99413969001E+02  0.38997770136E+03 -0.13868624948E+04  0.14440828973E+04  0.46999998093E+01 0. -1.
       -5    1    3    3    0  502  0.99413969001E+02 -0.38997770136E+03  0.75039211599E+03  0.85151404129E+03  0.46999998093E+01 0.  1.
</event>
<event>
 5   0  0.1270613E-04  0.2277440E+04  0.7818609E-02  0.8486870E-01
       -2   -1    0    0    0  501  0.00000000000E+00  0.00000000000E+00  0.70750922574E+03  0.70750922575E+03  0.25500000920E-02 0. -1.
        2   -1    0    0  501    0  0.00000000000E+00  0.00000000000E+00 -0.18327432040E+04  0.18327432040E+04  0.25500000920E-02 0.  1.
    10030    2    1    2    0    0  0.00000000000E+00  0.00000000000E+00 -0.11252339783E+04  0.25402524298E+04  0.22774395494E+04 0.  0.
        2    1    3    3  502    0  0.24169294596E+03  0.67731605297E+03 -0.15474008467E+04  0.17063475308E+04  0.25500000920E-02 0.  1.
       -2    1    3    3    0  502 -0.24169294596E+03 -0.67731605297E+03  0.42216686837E+03  0.83390489895E+03  0.25500000920E-02 0. -1.
</event>
<event>
 5   0  0.1270613E-04  0.2281611E+04  0.7818609E-02  0.8485207E-01
        2   -1    0    0  501    0  0.00000000000E+00  0.00000000000E+00  0.13373210926E+04  0.13373210926E+04  0.25500000920E-02 0.  1.
       -2   -1    0    0    0  501  0.00000000000E+00  0.00000000000E+00 -0.97316705061E+03  0.97316705061E+03  0.25500000920E-02 0. -1.
    10030    2    1    2    0    0  0.00000000000E+00  0.00000000000E+00  0.36415404196E+03  0.23104881432E+04  0.22816106797E+04 0.  0.
        2    1    3    3  502    0 -0.26044253148E+03 -0.32424324975E+03  0.12578181069E+04  0.13247906956E+04  0.25500000920E-02 0.  1.
       -2    1    3    3    0  502  0.26044253148E+03  0.32424324975E+03 -0.89366406492E+03  0.98569744757E+03  0.25500000920E-02 0. -1.
</event>
<event>
 5   0  0.5663790E-05  0.2157865E+04  0.7818609E-02  0.8536173E-01
        1   -1    0    0  501    0  0.00000000000E+00  0.00000000000E+00  0.17571410847E+04  0.17571410847E+04  0.50400001928E-02 0. -1.
       -1   -1    0    0    0  501  0.00000000000E+00  0.00000000000E+00 -0.66249407901E+03  0.66249407903E+03  0.50400001928E-02 0.  1.
    10030    2    1    2    0    0  0.00000000000E+00  0.00000000000E+00  0.10946470057E+04  0.24196351637E+04  0.21578652086E+04 0.  0.
        3    1    3    3  502    0  0.22131815756E+03 -0.31887399636E+03 -0.58149245069E+03  0.69913935152E+03  0.10100000352E+00 0.  1.
       -3    1    3    3    0  502 -0.22131815756E+03  0.31887399636E+03  0.16761394564E+04  0.17204958122E+04  0.10100000352E+00 0. -1.
</event>
<event>
 5   0  0.5843670E-05  0.2326244E+04  0.7818609E-02  0.8467645E-01
        1   -1    0    0  501    0  0.00000000000E+00  0.00000000000E+00  0.89332633232E+03  0.89332633233E+03  0.50400001928E-02 0.  1.
       -1   -1    0    0    0  501  0.00000000000E+00  0.00000000000E+00 -0.15143997172E+04  0.15143997172E+04  0.50400001928E-02 0. -1.
    10030    2    1    2    0    0  0.00000000000E+00  0.00000000000E+00 -0.62107338490E+03  0.24077260496E+04  0.23262443080E+04 0.  0.
        2    1    3    3  502    0 -0.42844413920E+03 -0.43319330512E+03  0.71494089650E+03  0.93934088887E+03  0.25500000920E-02 0.  1.
       -2    1    3    3    0  502  0.42844413920E+03  0.43319330512E+03 -0.13360142814E+04  0.14683851607E+04  0.25500000920E-02 0. -1.
</event>
<event>
 5   0  0.1237296E-04  0.2308143E+04  0.7818609E-02  0.8474717E-01
        2   -1    0    0  501    0  0.00000000000E+00  0.00000000000E+00  0.19146236532E+04  0.19146236532E+04  0.25500000920E-02 0.  1.
       -2   -1    0    0    0  501  0.00000000000E+00  0.00000000000E+00 -0.69563624044E+03  0.69563624045E+03  0.25500000920E-02 0. -1.
    10030    2    1    2    0    0  0.00000000000E+00  0.00000000000E+00  0.12189874128E+04  0.26102598937E+04  0.23081434964E+04 0.  0.
        1    1    3    3  502    0 -0.98546052563E+03 -0.50606807217E+03  0.97532314305E+03  0.14759717391E+04  0.50400001928E-02 0.  1.
       -1    1    3    3    0  502  0.98546052563E+03  0.50606807217E+03  0.24366426974E+03  0.11342881546E+04  0.50400001928E-02 0. -1.
</event>
<event>
 5   0  0.4489500E-05  0.2312871E+04  0.7818609E-02  0.8472864E-01
        4   -1    0    0  501    0  0.00000000000E+00  0.00000000000E+00  0.15770357495E+04  0.15770362608E+04  0.12699999809E+01 0.  1.
       -4   -1    0    0    0  501  0.00000000000E+00  0.00000000000E+00 -0.84800917905E+03  0.84801013004E+03  0.12699999809E+01 0. -1.
    10030    2    1    2    0    0  0.00000000000E+00  0.00000000000E+00  0.72902657041E+03  0.24250463909E+04  0.23128705665E+04 0.  0.
        1    1    3    3  502    0  0.39142112396E+03  0.55615003082E+03 -0.61617358244E+03  0.91770541939E+03  0.50400001928E-02 0. -1.
       -1    1    3    3    0  502 -0.39142112396E+03 -0.55615003082E+03  0.13452001529E+04  0.15073409715E+04  0.50400001928E-02 0.  1.
</event>
<event>
 5   0  0.5924654E-05  0.1811585E+04  0.7818609E-02  0.8700163E-01
       -1   -1    0    0    0  501  0.00000000000E+00  0.00000000000E+00  0.48191700475E+03  0.48191700478E+03  0.50400001928E-02 0. -1.
        1   -1    0    0  501    0  0.00000000000E+00  0.00000000000E+00 -0.17024933624E+04  0.17024933624E+04  0.50400001928E-02 0.  1.
    10030    2    1    2    0    0  0.00000000000E+00  0.00000000000E+00 -0.12205763576E+04  0.21844103671E+04  0.18115854955E+04 0.  0.
        5    1    3    3  502    0  0.29931879233E+03  0.79161814897E+02 -0.16366927775E+04  0.16657261691E+04  0.46999998093E+01 0.  1.
       -5    1    3    3    0  502 -0.29931879233E+03 -0.79161814897E+02  0.41611641993E+03  0.51868419805E+03  0.46999998093E+01 0. -1.
</event>
<event>
 5   0  0.1234988E-04  0.2232988E+04  0.7818609E-02  0.8504822E-01
        2   -1    0    0  501    0  0.00000000000E+00  0.00000000000E+00  0.15265358600E+04  0.15265358600E+04  0.25500000920E-02 0. -1.
       -2   -1    0    0    0  501  0.00000000000E+00  0.00000000000E+00 -0.81659292788E+03  0.81659292789E+03  0.25500000920E-02 0.  1.
    10030    2    1    2    0    0  0.00000000000E+00  0.00000000000E+00  0.70994293212E+03  0.23431287879E+04  0.22329875839E+04 0.  0.
        5    1    3    3  502    0 -0.62726238526E+03 -0.12776982911E+03 -0.60488989216E+03  0.88073668076E+03  0.46999998093E+01 0.  1.
       -5    1    3    3    0  502  0.62726238526E+03  0.12776982911E+03  0.13148328243E+04  0.14623921071E+04  0.46999998093E+01 0. -1.
</event>
<event>
 5   0  0.5843670E-05  0.1963227E+04  0.7818609E-02  0.8624009E-01
       -1   -1    0    0    0  501  0.00000000000E+00  0.00000000000E+00  0.84373184935E+03  0.84373184936E+03  0.50400001928E-02 0. -1.
        1   -1    0    0  501    0  0.00000000000E+00  0.00000000000E+00 -0.11420277465E+04  0.11420277465E+04  0.50400001928E-02 0.  1.
    10030    2    1    2    0    0  0.00000000000E+00  0.00000000000E+00 -0.29829589716E+03  0.19857595959E+04  0.19632271214E+04 0.  0.
        2    1    3    3  502    0 -0.96343572652E+03  0.43342697740E+01  0.40993629056E+02  0.96431720023E+03  0.25500000920E-02 0. -1.
       -2    1    3    3    0  502  0.96343572652E+03 -0.43342697740E+01 -0.33928952621E+03  0.10214423957E+04  0.25500000920E-02 0.  1.
</event>
<event>
 5   0  0.5663790E-05  0.2324723E+04  0.7818609E-02  0.8468236E-01
        1   -1    0    0  501    0  0.00000000000E+00  0.00000000000E+00  0.77385880939E+03  0.77385880940E+03  0.50400001928E-02 0.  1.
       -1   -1    0    0    0  501  0.00000000000E+00  0.00000000000E+00 -0.17459057814E+04  0.17459057814E+04  0.50400001928E-02 0. -1.
    10030    2    1    2    0    0  0.00000000000E+00  0.00000000000E+00 -0.97204697201E+03  0.25197645908E+04  0.23247232690E+04 0.  0.
        3    1    3    3  502    0  0.10598862331E+04 -0.46781847248E+03 -0.38393191198E+03  0.12204985348E+04  0.10100000352E+00 0.  1.
       -3    1    3    3    0  502 -0.10598862331E+04  0.46781847248E+03 -0.58811506002E+03  0.12992660560E+04  0.10100000352E+00 0. -1.
</event>
<event>
 5   0  0.5663790E-05  0.2397922E+04  0.7818609E-02  0.8440282E-01
       -1   -1    0    0    0  501  0.00000000000E+00  0.00000000000E+00  0.90589593399E+03  0.90589593400E+03  0.50400001928E-02 0. -1.
        1   -1    0    0  501    0  0.00000000000E+00  0.00000000000E+00 -0.15868357367E+04  0.15868357367E+04  0.50400001928E-02 0.  1.
    10030    2    1    2    0    0  0.00000000000E+00  0.00000000000E+00 -0.68093980269E+03  0.24927316707E+04  0.23979224690E+04 0.  0.
        3    1    3    3  502    0  0.96192909617E+02 -0.30079110174E+03  0.86188503321E+03  0.91791839693E+03  0.10100000352E+00 0. -1.
       -3    1    3    3    0  502 -0.96192909617E+02  0.30079110174E+03 -0.15428248359E+04  0.15748132738E+04  0.10100000352E+00 0.  1.
</event>
<event>
 5   0  0.1270613E-04  0.2264170E+04  0.7818609E-02  0.8492184E-01
        2   -1    0    0  501    0  0.00000000000E+00  0.00000000000E+00  0.10504440026E+04  0.10504440026E+04  0.25500000920E-02 0.  1.
       -2   -1    0    0    0  501  0.00000000000E+00  0.00000000000E+00 -0.12200712864E+04  0.12200712865E+04  0.25500000920E-02 0. -1.
    10030    2    1    2    0    0  0.00000000000E+00  0.00000000000E+00 -0.16962728388E+03  0.22705152890E+04  0.22641701045E+04 0.  0.
        2    1    3    3  502    0 -0.42095453249E+02  0.18271500746E+03 -0.12043920416E+04  0.12188999102E+04  0.25500000920E-02 0. -1.
       -2    1    3    3    0  502  0.42095453249E+02 -0.18271500746E+03  0.10347647577E+04  0.10516153788E+04  0.25500000920E-02 0.  1.
</event>
<event>
 5   0  0.1237296E-04  0.2371118E+04  0.7818609E-02  0.8450396E-01
       -2   -1    0    0    0  501  0.00000000000E+00  0.00000000000E+00  0.85283062581E+03  0.85283062581E+03  0.25500000920E-02 0.  1.
        2   -1    0    0  501    0  0.00000000000E+00  0.00000000000E+00 -0.16481005765E+04  0.16481005765E+04  0.25500000920E-02 0. -1.
    10030    2    1    2    0    0  0.00000000000E+00  0.00000000000E+00 -0.79526995074E+03  0.25009312024E+04  0.23711184248E+04 0.  0.
        1    1    3    3  502    0  0.33619274346E+03 -0.11129456896E+04 -0.15281316188E+03  0.11726148265E+04  0.50400001928E-02 0. -1.
       -1    1    3    3    0  502 -0.33619274346E+03  0.11129456896E+04 -0.64245678885E+03  0.13283163759E+04  0.50400001928E-02 0.  1.
</event>
<event>
 5   0  0.5642466E-05  0.2265854E+04  0.7818609E-02  0.8491508E-01
        1   -1    0    0  501    0  0.00000000000E+00  0.00000000000E+00  0.98324680841E+03  0.98324680843E+03  0.50400001928E-02 0. -1.
       -1   -1    0    0    0  501  0.00000000000E+00  0.00000000000E+00 -0.13053926962E+04  0.13053926962E+04  0.50400001928E-02 0.  1.
    10030    2    1    2    0    0  0.00000000000E+00  0.00000000000E+00 -0.32214588776E+03  0.22886395046E+04  0.22658536601E+04 0.  0.
        1    1    3    3  502    0 -0.11210532006E+04  0.93270038614E+02 -0.29682548524E+03  0.11634281016E+04  0.50400001928E-02 0.  1.
       -1    1    3    3    0  502  0.11210532006E+04 -0.93270038614E+02 -0.25320402520E+02  0.11252114031E+04  0.50400001928E-02 0. -1.
</event>
<event>
 5   0  0.1237296E-04  0.1637355E+04  0.7818609E-02  0.8797922E-01
        2   -1    0    0  501    0  0.00000000000E+00  0.00000000000E+00  0.13654963448E+04  0.13654963448E+04  0.25500000920E-02 0. -1.
       -2   -1    0    0    0  501  0.00000000000E+00  0.00000000000E+00 -0.49083460548E+03  0.49083460549E+03  0.25500000920E-02 0.  1.
    10030    2    1    2    0    0  0.00000000000E+00  0.00000000000E+00  0.87466173933E+03  0.18563309503E+04  0.16373550131E+04 0.  0.
        1    1    3    3  502    0 -0.76891760001E+03  0.12245376763E+03  0.72415451609E+03  0.10633103799E+04  0.50400001928E-02 0. -1.
       -1    1    3    3    0  502  0.76891760001E+03 -0.12245376763E+03  0.15050722324E+03  0.79302057040E+03  0.50400001928E-02 0.  1.
</event>
<event>
 5   0  0.1237296E-04  0.2116142E+04  0.7818609E-02  0.8554166E-01
       -2   -1    0    0    0  501  0.00000000000E+00  0.00000000000E+00  0.49481736542E+03  0.49481736543E+03  0.25500000920E-02 0. -1.
        2   -1    0    0  501    0  0.00000000000E+00  0.00000000000E+00 -0.22624800557E+04  0.22624800557E+04  0.25500000920E-02 0.  1.
    10030    2    1    2    0    0  0.00000000000E+00  0.00000000000E+00 -0.17676626903E+04  0.27572974212E+04  0.21161421696E+04 0.  0.
        1    1    3    3  502    0  0.65640591817E+03  0.11836728465E+03 -0.19540516037E+04  0.20647511263E+04  0.50400001928E-02 0.  1.
       -1    1    3    3    0  502 -0.65640591817E+03 -0.11836728465E+03  0.18638891340E+03  0.69254629488E+03  0.50400001928E-02 0. -1.
</event>
<event>
 5   0  0.1234988E-04  0.2346379E+04  0.7818609E-02  0.8459856E-01
       -2   -1    0    0    0  501  0.00000000000E+00  0.00000000000E+00  0.99036479927E+03  0.99036479927E+03  0.25500000920E-02 0. -1.
        2   -1    0    0  501    0  0.00000000000E+00  0.00000000000E+00 -0.13897638231E+04  0.13897638231E+04  0.25500000920E-02 0.  1.
    10030    2    1    2    0    0  0.00000000000E+00  0.00000000000E+00 -0.39939902380E+03  0.23801286223E+04  0.23463786307E+04 0.  0.
        5    1    3    3  502    0  0.28973519352E+03 -0.11345142651E+04 -0.12597690414E+03  0.11776932413E+04  0.46999998093E+01 0. -1.
       -5    1    3    3    0  502 -0.28973519352E+03  0.11345142651E+04 -0.27342211966E+03  0.12024353811E+04  0.46999998093E+01 0.  1.
</event>
<event>
 5   0  0.1237296E-04  0.1745273E+04  0.7818609E-02  0.8735957E-01
        2   -1    0    0  501    0  0.00000000000E+00  0.00000000000E+00  0.18798551335E+04  0.18798551335E+04  0.25500000920E-02 0.  1.
       -2   -1    0    0    0  501  0.00000000000E+00  0.00000000000E+00 -0.40508132772E+03  0.40508132773E+03  0.25500000920E-02 0. -1.
    10030    2    1    2    0    0  0.00000000000E+00  0.00000000000E+00  0.14747738058E+04  0.22849364613E+04  0.17452727161E+04 0.  0.
        1    1    3    3  502    0 -0.30808041537E+03 -0.81275285873E+03  0.83891192740E+03  0.12079958500E+04  0.50400001928E-02 0. -1.
       -1    1    3    3    0  502  0.30808041537E+03  0.81275285873E+03  0.63586187840E+03  0.10769406112E+04  0.50400001928E-02 0.  1.
</event>
<event>
 5   0  0.5632156E-05  0.1287074E+04  0.7818609E-02  0.9039878E-01
        1   -1    0    0  501    0  0.00000000000E+00  0.00000000000E+00  0.77971730959E+03  0.77971730960E+03  0.50400001928E-02 0.  1.
       -1   -1    0    0    0  501  0.00000000000E+00  0.00000000000E+00 -0.53114143567E+03  0.53114143569E+03  0.50400001928E-02 0. -1.
    10030    2    1    2    0    0  0.00000000000E+00  0.00000000000E+00  0.24857587392E+03  0.13108587453E+04  0.12870744676E+04 0.  0.
        4    1    3    3  502    0  0.51252796766E+03 -0.10038617070E+03  0.50723651488E+03  0.72804724835E+03  0.12699999809E+01 0.  1.
       -4    1    3    3    0  502 -0.51252796766E+03  0.10038617070E+03 -0.25866064096E+03  0.58281149695E+03  0.12699999809E+01 0. -1.
</event>
<event>
 5   0  0.5642466E-05  0.1356679E+04  0.7818609E-02  0.8985788E-01
        1   -1    0    0  501    0  0.00000000000E+00  0.00000000000E+00  0.13377248720E+04  0.13377248720E+04  0.50400001928E-02 0. -1.
       -1   -1    0    0    0  501  0.00000000000E+00  0.00000000000E+00 -0.34397533481E+03  0.34397533484E+03  0.50400001928E-02 0.  1.
    10030    2    1    2    0    0  0.00000000000E+00  0.00000000000E+00  0.99374953721E+03  0.16817002069E+04  0.13566788283E+04 0.  0.
        1    1    3    3  502    0  0.19813509983E+03  0.56006320225E+03  0.90991231442E+02  0.60100558444E+03  0.50400001928E-02 0.  1.
       -1    1    3    3    0  502 -0.19813509983E+03 -0.56006320225E+03  0.90275830577E+03  0.10806946224E+04  0.50400001928E-02 0. -1.
</event>
<event>
 5   0  0.5642466E-05  0.2263291E+04  0.7818609E-02  0.8492537E-01
       -1   -1    0    0    0  501  0.00000000000E+00  0.00000000000E+00  0.85609840483E+03  0.85609840485E+03  0.50400001928E-02 0. -1.
        1   -1    0    0  501    0  0.00000000000E+00  0.00000000000E+00 -0.14958818356E+04  0.14958818356E+04  0.50400001928E-02 0.  1.
    10030    2    1    2    0    0  0.00000000000E+00  0.00000000000E+00 -0.63978343073E+03  0.23519802404E+04  0.22632914556E+04 0.  0.
        1    1    3    3  502    0  0.77039090663E+03 -0.21952569150E+02 -0.11809986738E+04  0.14102276170E+04  0.50400001928E-02 0.  1.
       -1    1    3    3    0  502 -0.77039090663E+03  0.21952569150E+02  0.54121524306E+03  0.94175262339E+03  0.50400001928E-02 0. -1.
</event>
<event>
 5   0  0.1234988E-04  0.2335552E+04  0.7818609E-02  0.8464034E-01
       -2   -1    0    0    0  501  0.00000000000E+00  0.00000000000E+00  0.91667129040E+03  0.91667129040E+03  0.25500000920E-02 0.  1.
        2   -1    0    0  501    0  0.00000000000E+00  0.00000000000E+00 -0.14876666120E+04  0.14876666120E+04  0.25500000920E-02 0. -1.
    10030    2    1    2    0    0  0.00000000000E+00  0.00000000000E+00 -0.57099532163E+03  0.24043379024E+04  0.23355524168E+04 0.  0.
        5    1    3    3  502    0 -0.33879489045E+03  0.42014742815E+02  0.86414293155E+03  0.92914601250E+03  0.46999998093E+01 0.  1.
       -5    1    3    3    0  502  0.33879489045E+03 -0.42014742815E+02 -0.14351382532E+04  0.14751918899E+04  0.46999998093E+01 0. -1.
</event>
<event>
 5   0  0.1237296E-04  0.2319235E+04  0.7818609E-02  0.8470376E-01
       -2   -1    0    0    0  501  0.00000000000E+00  0.00000000000E+00  0.12898289925E+04  0.12898289925E+04  0.25500000920E-02 0. -1.
        2   -1    0    0  501    0  0.00000000000E+00  0.00000000000E+00 -0.10425507496E+04  0.10425507496E+04  0.25500000920E-02 0.  1.
    10030    2    1    2    0    0  0.00000000000E+00  0.00000000000E+00  0.24727824286E+03  0.23323797422E+04  0.23192345143E+04 0.  0.
        1    1    3    3  502    0  0.16298684271E+03 -0.11373199023E+04 -0.34256865152E+02  0.11494497831E+04  0.50400001928E-02 0. -1.
       -1    1    3    3    0  502 -0.16298684271E+03  0.11373199023E+04  0.28153510801E+03  0.11829299591E+04  0.50400001928E-02 0.  1.
</event>
<event>
 5   0  0.5663790E-05  0.2364446E+04  0.7818609E-02  0.8452936E-01
        1   -1    0    0  501    0  0.00000000000E+00  0.00000000000E+00  0.18739104681E+04  0.18739104681E+04  0.50400001928E-02 0.  1.
       -1   -1    0    0    0  501  0.00000000000E+00  0.00000000000E+00 -0.74584714215E+03  0.74584714217E+03  0.50400001928E-02 0. -1.
    10030    2    1    2    0    0  0.00000000000E+00  0.00000000000E+00  0.11280633260E+04  0.26197576103E+04  0.23644456156E+04 0.  0.
        3    1    3    3  502    0  0.18637961457E+03 -0.95058534219E+03  0.13149287702E+04  0.16332138667E+04  0.10100000352E+00 0.  1.
       -3    1    3    3    0  502 -0.18637961457E+03  0.95058534219E+03 -0.18686544425E+03  0.98654374357E+03  0.10100000352E+00 0. -1.
</event>
<event>
 5   0  0.5663790E-05  0.1164042E+04  0.7818609E-02  0.9144926E-01
       -1   -1    0    0    0  501  0.00000000000E+00  0.00000000000E+00  0.34468668058E+03  0.34468668062E+03  0.50400001928E-02 0. -1.
        1   -1    0    0  501    0  0.00000000000E+00  0.00000000000E+00 -0.98277175547E+03  0.98277175548E+03  0.50400001928E-02 0.  1.
    10030    2    1    2    0    0  0.00000000000E+00  0.00000000000E+00 -0.63808507489E+03  0.13274584361E+04  0.11640418106E+04 0.  0.
        3    1    3    3  502    0 -0.37048023193E+02  0.45256131096E+03 -0.73425004501E+03  0.86331189902E+03  0.10100000352E+00 0.  1.
       -3    1    3    3    0  502  0.37048023193E+02 -0.45256131096E+03  0.96164970119E+02  0.46414653707E+03  0.10100000352E+00 0. -1.
</event>
<event>
 5   0  0.1237296E-04  0.2223902E+04  0.7818609E-02  0.8508545E-01
       -2   -1    0    0    0  501  0.00000000000E+00  0.00000000000E+00  0.11834042804E+04  0.11834042804E+04  0.25500000920E-02 0. -1.
        2   -1    0    0  501    0  0.00000000000E+00  0.00000000000E+00 -0.10448119204E+04  0.10448119204E+04  0.25500000920E-02 0.  1.
    10030    2    1    2    0    0  0.00000000000E+00  0.00000000000E+00  0.13859235996E+03  0.22282162007E+04  0.22239018852E+04 0.  0.
        1    1    3    3  502    0 -0.79235921063E+03 -0.53235807567E+03 -0.50207027898E+03  0.10785697958E+04  0.50400001928E-02 0.  1.
       -1    1    3    3    0  502  0.79235921063E+03  0.53235807567E+03  0.64066263894E+03  0.11496464049E+04  0.50400001928E-02 0. -1.
</event>
<event>
 5   0  0.5642466E-05  0.1299133E+04  0.7818609E-02  0.9030253E-01
        1   -1    0    0  501    0  0.00000000000E+00  0.00000000000E+00  0.88519519300E+03  0.88519519301E+03  0.50400001928E-02 0. -1.
       -1   -1    0    0    0  501  0.00000000000E+00  0.00000000000E+00 -0.47665920857E+03  0.47665920859E+03  0.50400001928E-02 0.  1.
    10030    2    1    2    0    0  0.00000000000E+00  0.00000000000E+00  0.40853598443E+03  0.13618544016E+04  0.12991326955E+04 0.  0.
        1    1    3    3  502    0 -0.60745790424E+03  0.13718246705E+03  0.10655800277E+02  0.62284643436E+03  0.50400001928E-02 0.  1.
       -1    1    3    3    0  502  0.60745790424E+03 -0.13718246705E+03  0.39788018416E+03  0.73900796725E+03  0.50400001928E-02 0. -1.
</event>
<event>
 5   0  0.5843670E-05  0.2334951E+04  0.7818609E-02  0.8464266E-01
        1   -1    0    0  501    0  0.00000000000E+00  0.00000000000E+00  0.13352017898E+04  0.13352017898E+04  0.50400001928E-02 0.  1.
       -1   -1    0    0    0  501  0.00000000000E+00  0.00000000000E+00 -0.10208191886E+04  0.10208191886E+04  0.50400001928E-02 0. -1.
    10030    2    1    2    0    0  0.00000000000E+00  0.00000000000E+00  0.31438260112E+03  0.23560209784E+04  0.23349514836E+04 0.  0.
        2    1    3    3  502    0 -0.10857695094E+04 -0.40101674633E+03  0.31117817310E+03  0.11985581813E+04  0.25500000920E-02 0.  1.
       -2    1    3    3    0  502  0.10857695094E+04  0.40101674633E+03  0.32044280256E+01  0.11574627972E+04  0.25500000920E-02 0. -1.
</event>
<event>
 5   0  0.5632156E-05  0.2274353E+04  0.7818609E-02  0.8488102E-01
       -1   -1    0    0    0  501  0.00000000000E+00  0.00000000000E+00  0.84312166060E+03  0.84312166061E+03  0.50400001928E-02 0. -1.
        1   -1    0    0  501    0  0.00000000000E+00  0.00000000000E+00 -0.15337887513E+04  0.15337887513E+04  0.50400001928E-02 0.  1.
    10030    2    1    2    0    0  0.00000000000E+00  0.00000000000E+00 -0.69066709066E+03  0.23769104119E+04  0.22743531115E+04 0.  0.
        4    1    3    3  502    0 -0.62383890315E+03 -0.89493607779E+03 -0.68087730978E+03  0.12859553197E+04  0.12699999809E+01 0.  1.
       -4    1    3    3    0  502  0.62383890315E+03  0.89493607779E+03 -0.97897808736E+01  0.10909550922E+04  0.12699999809E+01 0. -1.
</event>
<event>
 5   0  0.5632156E-05  0.2211799E+04  0.7818609E-02  0.8513533E-01
       -1   -1    0    0    0  501  0.00000000000E+00  0.00000000000E+00  0.54557575814E+03  0.54557575816E+03  0.50400001928E-02 0. -1.
        1   -1    0    0  501    0  0.00000000000E+00  0.00000000000E+00 -0.22416931813E+04  0.22416931813E+04  0.50400001928E-02 0.  1.
    10030    2    1    2    0    0  0.00000000000E+00  0.00000000000E+00 -0.16961174231E+04  0.27872689395E+04  0.22117987765E+04 0.  0.
        4    1    3    3  502    0  0.51147784146E+03 -0.82917155966E+03 -0.15075527489E+04  0.17949517992E+04  0.12699999809E+01 0.  1.
       -4    1    3    3    0  502 -0.51147784146E+03  0.82917155966E+03 -0.18856467424E+03  0.99231714029E+03  0.12699999809E+01 0. -1.
</event>
<event>
 5   0  0.5642466E-05  0.1926349E+04  0.7818609E-02  0.8641851E-01
        1   -1    0    0  501    0  0.00000000000E+00  0.00000000000E+00  0.80735686631E+03  0.80735686633E+03  0.50400001928E-02 0.  1.
       -1   -1    0    0    0  501  0.00000000000E+00  0.00000000000E+00 -0.11490647715E+04  0.11490647715E+04  0.50400001928E-02 0. -1.
    10030    2    1    2    0    0  0.00000000000E+00  0.00000000000E+00 -0.34170790521E+03  0.19564216379E+04  0.19263492239E+04 0.  0.
        1    1    3    3  502    0 -0.49902837515E+03  0.81363271580E+03 -0.39695269820E+02  0.95530269019E+03  0.50400001928E-02 0.  1.
       -1    1    3    3    0  502  0.49902837515E+03 -0.81363271580E+03 -0.30201263539E+03  0.10011189477E+04  0.50400001928E-02 0. -1.
</event>
<event>
 5   0  0.5663790E-05  0.2325390E+04  0.7818609E-02  0.8467977E-01
       -1   -1    0    0    0  501  0.00000000000E+00  0.00000000000E+00  0.10752607859E+04  0.10752607859E+04  0.50400001928E-02 0. -1.
        1   -1    0    0  501    0  0.00000000000E+00  0.00000000000E+00 -0.12572393501E+04  0.12572393501E+04  0.50400001928E-02 0.  1.
    10030    2    1    2    0    0  0.00000000000E+00  0.00000000000E+00 -0.18197856416E+03  0.23325001360E+04  0.23253904374E+04 0.  0.
        3    1    3    3  502    0  0.77388696987E+03 -0.82423526010E+03  0.18112478830E+03  0.11450200895E+04  0.10100000352E+00 0.  1.
       -3    1    3    3    0  502 -0.77388696987E+03  0.82423526010E+03 -0.36310335246E+03  0.11874800465E+04  0.10100000352E+00 0. -1.
</event>
<event>
 5   0  0.5632156E-05  0.2004404E+04  0.7818609E-02  0.8604565E-01
        1   -1    0    0  501    0  0.00000000000E+00  0.00000000000E+00  0.22108307021E+04  0.22108307021E+04  0.50400001928E-02 0. -1.
       -1   -1    0    0    0  501  0.00000000000E+00  0.00000000000E+00 -0.45431274335E+03  0.45431274337E+03  0.50400001928E-02 0.  1.
    10030    2    1    2    0    0  0.00000000000E+00  0.00000000000E+00  0.17565179587E+04  0.26651434455E+04  0.20044037132E+04 0.  0.
        4    1    3    3  502    0  0.56162309462E+03  0.77206514926E+03  0.12835318937E+04  0.15996752264E+04  0.12699999809E+01 0. -1.
       -4    1    3    3    0  502 -0.56162309462E+03 -0.77206514926E+03  0.47298606508E+03  0.10654682190E+04  0.12699999809E+01 0.  1.
</event>
<event>
 5   0  0.1257524E-04  0.2248408E+04  0.7818609E-02  0.8498546E-01
        2   -1    0    0  501    0  0.00000000000E+00  0.00000000000E+00  0.11661191322E+04  0.11661191322E+04  0.25500000920E-02 0. -1.
       -2   -1    0    0    0  501  0.00000000000E+00  0.00000000000E+00 -0.10837952180E+04  0.10837952180E+04  0.25500000920E-02 0.  1.
    10030    2    1    2    0    0  0.00000000000E+00  0.00000000000E+00  0.82323914210E+02  0.22499143502E+04  0.22484077380E+04 0.  0.
        3    1    3    3  502    0 -0.54577318456E+03  0.60280759757E+03  0.81794815414E+03  0.11533796260E+04  0.10100000352E+00 0. -1.
       -3    1    3    3    0  502  0.54577318456E+03 -0.60280759757E+03 -0.73562423993E+03  0.10965347241E+04  0.10100000352E+00 0.  1.
</event>
<event>
 5   0  0.5843670E-05  0.2317598E+04  0.7818609E-02  0.8471015E-01
        1   -1    0    0  501    0  0.00000000000E+00  0.00000000000E+00  0.22531739929E+04  0.22531739929E+04  0.50400001928E-02 0. -1.
       -1   -1    0    0    0  501  0.00000000000E+00  0.00000000000E+00 -0.59596599006E+03  0.59596599008E+03  0.50400001928E-02 0.  1.
    10030    2    1    2    0    0  0.00000000000E+00  0.00000000000E+00  0.16572080028E+04  0.28491399830E+04  0.23175979543E+04 0.  0.
        2    1    3    3  502    0 -0.64823074407E+03  0.89104603949E+02  0.20043363352E+04  0.21084370687E+04  0.25500000920E-02 0. -1.
       -2    1    3    3    0  502  0.64823074407E+03 -0.89104603949E+02 -0.34712833241E+03  0.74070291425E+03  0.25500000920E-02 0.  1.
</event>
<event>
 5   0  0.5663790E-05  0.2323494E+04  0.7818609E-02  0.8468715E-01
        1   -1    0    0  501    0  0.00000000000E+00  0.00000000000E+00  0.24308716434E+04  0.24308716434E+04  0.50400001928E-02 0. -1.
       -1   -1    0    0    0  501  0.00000000000E+00  0.00000000000E+00 -0.55521492195E+03  0.55521492198E+03  0.50400001928E-02 0.  1.
    10030    2    1    2    0    0  0.00000000000E+00  0.00000000000E+00  0.18756567214E+04  0.29860865654E+04  0.23234941014E+04 0.  0.
        3    1    3    3  502    0 -0.58724464498E+02  0.11560821758E+04  0.81137357316E+03  0.14136129758E+04  0.10100000352E+00 0.  1.
       -3    1    3    3    0  502  0.58724464498E+02 -0.11560821758E+04  0.10642831483E+04  0.15724735896E+04  0.10100000352E+00 0. -1.
</event>
<event>
 5   0  0.5843670E-05  0.2282738E+04  0.7818609E-02  0.8484759E-01
        1   -1    0    0  501    0  0.00000000000E+00  0.00000000000E+00  0.12463671732E+04  0.12463671732E+04  0.50400001928E-02 0. -1.
       -1   -1    0    0    0  501  0.00000000000E+00  0.00000000000E+00 -0.10452157942E+04  0.10452157943E+04  0.50400001928E-02 0.  1.
    10030    2    1    2    0    0  0.00000000000E+00  0.00000000000E+00  0.20115137898E+03  0.22915829675E+04  0.22827375275E+04 0.  0.
        2    1    3    3  502    0  0.82604447648E+03 -0.65986839353E+03 -0.33114524940E+03  0.11078957307E+04  0.25500000920E-02 0.  1.
       -2    1    3    3    0  502 -0.82604447648E+03  0.65986839353E+03  0.53229662838E+03  0.11836872368E+04  0.25500000920E-02 0. -1.
</event>
<event>
 5   0  0.1237296E-04  0.1920336E+04  0.7818609E-02  0.8644800E-01
       -2   -1    0    0    0  501  0.00000000000E+00  0.00000000000E+00  0.75234146390E+03  0.75234146390E+03  0.25500000920E-02 0. -1.
        2   -1    0    0  501    0  0.00000000000E+00  0.00000000000E+00 -0.12254045212E+04  0.12254045212E+04  0.25500000920E-02 0.  1.
    10030    2    1    2    0    0  0.00000000000E+00  0.00000000000E+00 -0.47306305726E+03  0.19777459851E+04  0.19203360449E+04 0.  0.
        1    1    3    3  502    0  0.71528834974E+03 -0.42516407874E+02  0.42169803019E+03  0.83142906908E+03  0.50400001928E-02 0. -1.
       -1    1    3    3    0  502 -0.71528834974E+03  0.42516407874E+02 -0.89476108745E+03  0.11463169160E+04  0.50400001928E-02 0.  1.
</event>
<event>
 5   0  0.5642466E-05  0.2316530E+04  0.7818609E-02  0.8471432E-01
        1   -1    0    0  501    0  0.00000000000E+00  0.00000000000E+00  0.90522719443E+03  0.90522719444E+03  0.50400001928E-02 0. -1.
       -1   -1    0    0    0  501  0.00000000000E+00  0.00000000000E+00 -0.14820342332E+04  0.14820342332E+04  0.50400001928E-02 0.  1.
    10030    2    1    2    0    0  0.00000000000E+00  0.00000000000E+00 -0.57680703875E+03  0.23872614276E+04  0.23165298970E+04 0.  0.
        1    1    3    3  502    0  0.45785138916E+03 -0.10117489264E+04 -0.62756317135E+03  0.12755780331E+04  0.50400001928E-02 0.  1.
       -1    1    3    3    0  502 -0.45785138916E+03  0.10117489264E+04  0.50756132598E+02  0.11116833945E+04  0.50400001928E-02 0. -1.
</event>
<event>
 5   0  0.1270613E-04  0.2642450E+04  0.7818609E-02  0.8353923E-01
        2   -1    0    0  501    0  0.00000000000E+00  0.00000000000E+00  0.86569951091E+03  0.86569951091E+03  0.25500000920E-02 0. -1.
       -2   -1    0    0    0  501  0.00000000000E+00  0.00000000000E+00 -0.20164448658E+04  0.20164448658E+04  0.25500000920E-02 0.  1.
    10030    2    1    2    0    0  0.00000000000E+00  0.00000000000E+00 -0.11507453549E+04  0.28821443767E+04  0.26424498739E+04 0.  0.
        2    1    3    3  502    0 -0.48225989395E+03 -0.33555325826E+03  0.71538603174E+03  0.92571473406E+03  0.25500000920E-02 0. -1.
       -2    1    3    3    0  502  0.48225989395E+03  0.33555325826E+03 -0.18661313866E+04  0.19564296426E+04  0.25500000920E-02 0.  1.
</event>
<event>
 5   0  0.5924654E-05  0.2271146E+04  0.7818609E-02  0.8489386E-01
       -1   -1    0    0    0  501  0.00000000000E+00  0.00000000000E+00  0.11905077654E+04  0.11905077654E+04  0.50400001928E-02 0.  1.
        1   -1    0    0  501    0  0.00000000000E+00  0.00000000000E+00 -0.10831727346E+04  0.10831727346E+04  0.50400001928E-02 0. -1.
    10030    2    1    2    0    0  0.00000000000E+00  0.00000000000E+00  0.10733503083E+03  0.22736805001E+04  0.22711455716E+04 0.  0.
        5    1    3    3  502    0  0.61998763119E+03  0.88489457817E+03 -0.29612250095E+03  0.11203274980E+04  0.46999998093E+01 0. -1.
       -5    1    3    3    0  502 -0.61998763119E+03 -0.88489457817E+03  0.40345753179E+03  0.11533530020E+04  0.46999998093E+01 0.  1.
</event>
<event>
 5   0  0.5632156E-05  0.2167773E+04  0.7818609E-02  0.8531963E-01
        1   -1    0    0  501    0  0.00000000000E+00  0.00000000000E+00  0.13676448203E+04  0.13676448203E+04  0.50400001928E-02 0.  1.
       -1   -1    0    0    0  501  0.00000000000E+00  0.00000000000E+00 -0.85900208269E+03  0.85900208271E+03  0.50400001928E-02 0. -1.
    10030    2    1    2    0    0  0.00000000000E+00  0.00000000000E+00  0.50864273757E+03  0.22266469030E+04  0.21677728193E+04 0.  0.
        4    1    3    3  502    0  0.66444863267E+03  0.23459606464E+03  0.11002668213E+04  0.13065664889E+04  0.12699999809E+01 0.  1.
       -4    1    3    3    0  502 -0.66444863267E+03 -0.23459606464E+03 -0.59162408373E+03  0.92008041406E+03  0.12699999809E+01 0. -1.
</event>
<event>
 5   0  0.5663790E-05  0.2118408E+04  0.7818609E-02  0.8553177E-01
       -1   -1    0    0    0  501  0.00000000000E+00  0.00000000000E+00  0.97157410547E+03  0.97157410548E+03  0.50400001928E-02 0.  1.
        1   -1    0    0  501    0  0.00000000000E+00  0.00000000000E+00 -0.11547379251E+04  0.11547379251E+04  0.50400001928E-02 0. -1.
    10030    2    1    2    0    0  0.00000000000E+00  0.00000000000E+00 -0.18316381964E+03  0.21263120306E+04  0.21184083333E+04 0.  0.
        3    1    3    3  502    0  0.27388551630E+02  0.40824274064E+03 -0.10722127716E+04  0.11476290803E+04  0.10100000352E+00 0. -1.
       -3    1    3    3    0  502 -0.27388551630E+02 -0.40824274064E+03  0.88904895199E+03  0.97868295033E+03  0.10100000352E+00 0.  1.
</event>
<event>
 5   0  0.4489500E-05  0.2323359E+04  0.7818609E-02  0.8468767E-01
       -3   -1    0    0    0  501  0.00000000000E+00  0.00000000000E+00  0.13770811627E+04  0.13770811664E+04  0.10100000352E+00 0. -1.
        3   -1    0    0  501    0  0.00000000000E+00  0.00000000000E+00 -0.97997085074E+03  0.97997085595E+03  0.10100000352E+00 0.  1.
    10030    2    1    2    0    0  0.00000000000E+00  0.00000000000E+00  0.39711031195E+03  0.23570520223E+04  0.23233591277E+04 0.  0.
        5    1    3    3  502    0  0.67034650192E+03  0.34867118000E+02  0.11604062196E+04  0.13405763063E+04  0.46999998093E+01 0. -1.
       -5    1    3    3    0  502 -0.67034650192E+03 -0.34867118000E+02 -0.76329590768E+03  0.10164757160E+04  0.46999998093E+01 0.  1.
</event>
<event>
 5   0  0.1257524E-04  0.2084163E+04  0.7818609E-02  0.8568252E-01
        2   -1    0    0  501    0  0.00000000000E+00  0.00000000000E+00  0.10566033853E+04  0.10566033853E+04  0.25500000920E-02 0.  1.
       -2   -1    0    0    0  501  0.00000000000E+00  0.00000000000E+00 -0.10277587586E+04  0.10277587586E+04  0.25500000920E-02 0. -1.
    10030    2    1    2    0    0  0.00000000000E+00  0.00000000000E+00  0.28844626694E+02  0.20843621438E+04  0.20841625498E+04 0.  0.
        3    1    3    3  502    0  0.45632441552E+03  0.93684227175E+03  0.91341798911E+01  0.10421078916E+04  0.10100000352E+00 0. -1.
       -3    1    3    3    0  502 -0.45632441552E+03 -0.93684227175E+03  0.19710446802E+02  0.10422542522E+04  0.10100000352E+00 0.  1.
</event>
<event>
 5   0  0.1281432E-04  0.2297318E+04  0.7818609E-02  0.8478980E-01
        2   -1    0    0  501    0  0.00000000000E+00  0.00000000000E+00  0.16153852940E+04  0.16153852940E+04  0.25500000920E-02 0.  1.
       -2   -1    0    0    0  501  0.00000000000E+00  0.00000000000E+00 -0.81678160763E+03  0.81678160763E+03  0.25500000920E-02 0. -1.
    10030    2    1    2    0    0  0.00000000000E+00  0.00000000000E+00  0.79860368640E+03  0.24321669017E+04  0.22973175639E+04 0.  0.
        4    1    3    3  502    0  0.45210574199E+03 -0.51950285186E+03 -0.57397134702E+03  0.89650852485E+03  0.12699999809E+01 0. -1.
       -4    1    3    3    0  502 -0.45210574199E+03  0.51950285186E+03  0.13725750334E+04  0.15356583768E+04  0.12699999809E+01 0.  1.
</event>
<event>
 5   0  0.5632156E-05  0.2050454E+04  0.7818609E-02  0.8583389E-01
        1   -1    0    0  501    0  0.00000000000E+00  0.00000000000E+00  0.85122714033E+03  0.85122714035E+03  0.50400001928E-02 0. -1.
       -1   -1    0    0    0  501  0.00000000000E+00  0.00000000000E+00 -0.12347938846E+04  0.12347938846E+04  0.50400001928E-02 0.  1.
    10030    2    1    2    0    0  0.00000000000E+00  0.00000000000E+00 -0.38356674425E+03  0.20860210249E+04  0.20504536740E+04 0.  0.
        4    1    3    3  502    0  0.16859429101E+03 -0.10042411546E+04 -0.31286090436E+03  0.10652736221E+04  0.12699999809E+01 0. -1.
       -4    1    3    3    0  502 -0.16859429101E+03  0.10042411546E+04 -0.70705839885E+02  0.10207474028E+04  0.12699999809E+01 0.  1.
</event>
<event>
 5   0  0.5924654E-05  0.2285748E+04  0.7818609E-02  0.8483562E-01
        1   -1    0    0  501    0  0.00000000000E+00  0.00000000000E+00  0.16916479584E+04  0.16916479584E+04  0.50400001928E-02 0. -1.
       -1   -1    0    0    0  501  0.00000000000E+00  0.00000000000E+00 -0.77212334001E+03  0.77212334003E+03  0.50400001928E-02 0.  1.
    10030    2    1    2    0    0  0.00000000000E+00  0.00000000000E+00  0.91952461836E+03  0.24637712984E+04  0.22857479054E+04 0.  0.
        5    1    3    3  502    0 -0.67503125462E+03 -0.91429034470E+03  0.58975688500E+03  0.12804020082E+04  0.46999998093E+01 0.  1.
       -5    1    3    3    0  502  0.67503125462E+03  0.91429034470E+03  0.32976773336E+03  0.11833692902E+04  0.46999998093E+01 0. -1.
</event>
<event>
 5   0  0.1257524E-04  0.2229663E+04  0.7818609E-02  0.8506182E-01
       -2   -1    0    0    0  501  0.00000000000E+00  0.00000000000E+00  0.59935935741E+03  0.59935935742E+03  0.25500000920E-02 0. -1.
        2   -1    0    0  501    0  0.00000000000E+00  0.00000000000E+00 -0.20736302544E+04  0.20736302544E+04  0.25500000920E-02 0.  1.
    10030    2    1    2    0    0  0.00000000000E+00  0.00000000000E+00 -0.14742708970E+04  0.26729896119E+04  0.22296633798E+04 0.  0.
        3    1    3    3  502    0 -0.19697572402E+03 -0.88931229945E+02 -0.20482759915E+04  0.20596462674E+04  0.10100000352E+00 0.  1.
       -3    1    3    3    0  502  0.19697572402E+03  0.88931229945E+02  0.57400509444E+03  0.61334334443E+03  0.10100000352E+00 0. -1.
</event>
<event>
 5   0  0.5632156E-05  0.2323894E+04  0.7818609E-02  0.8468559E-01
        1   -1    0    0  501    0  0.00000000000E+00  0.00000000000E+00  0.29331455433E+04  0.29331455433E+04  0.50400001928E-02 0. -1.
       -1   -1    0    0    0  501  0.00000000000E+00  0.00000000000E+00 -0.46029783769E+03  0.46029783772E+03  0.50400001928E-02 0.  1.
    10030    2    1    2    0    0  0.00000000000E+00  0.00000000000E+00  0.24728477056E+04  0.33934433810E+04  0.23238937594E+04 0.  0.
        4    1    3    3  502    0  0.27040701208E+03  0.77944602044E+03  0.24312028811E+04  0.25673731931E+04  0.12699999809E+01 0. -1.
       -4    1    3    3    0  502 -0.27040701208E+03 -0.77944602044E+03  0.41644824509E+02  0.82607018786E+03  0.12699999809E+01 0.  1.
</event>
<event>
 5   0  0.1257524E-04  0.2306399E+04  0.7818609E-02  0.8475402E-01
        2   -1    0    0  501    0  0.00000000000E+00  0.00000000000E+00  0.10693796918E+04  0.10693796918E+04  0.25500000920E-02 0.  1.
       -2   -1    0    0    0  501  0.00000000000E+00  0.00000000000E+00 -0.12435896013E+04  0.12435896013E+04  0.25500000920E-02 0. -1.
    10030    2    1    2    0    0  0.00000000000E+00  0.00000000000E+00 -0.17420990944E+03  0.23129692931E+04  0.23063993276E+04 0.  0.
        3    1    3    3  502    0 -0.11259805861E+04 -0.24793268887E+03 -0.11097519336E+03  0.11582825226E+04  0.10100000352E+00 0.  1.
       -3    1    3    3    0  502  0.11259805861E+04  0.24793268887E+03 -0.63234716078E+02  0.11546867705E+04  0.10100000352E+00 0. -1.
</event>
<event>
 5   0  0.5924654E-05  0.2104829E+04  0.7818609E-02  0.8559119E-01
       -1   -1    0    0    0  501  0.00000000000E+00  0.00000000000E+00  0.70345718609E+03  0.70345718611E+03  0.50400001928E-02 0. -1.
        1   -1    0    0  501    0  0.00000000000E+00  0.00000000000E+00 -0.15744753479E+04  0.15744753479E+04  0.50400001928E-02 0.  1.
    10030    2    1    2    0    0  0.00000000000E+00  0.00000000000E+00 -0.87101816182E+03  0.22779325340E+04  0.21048287321E+04 0.  0.
        5    1    3    3  502    0 -0.18486176195E+03 -0.10068810530E+03  0.68042911815E+03  0.71226247999E+03  0.46999998093E+01 0. -1.
       -5    1    3    3    0  502  0.18486176195E+03  0.10068810530E+03 -0.15514472800E+04  0.15656700540E+04  0.46999998093E+01 0.  1.
</event>
<event>
 5   0  0.5843670E-05  0.2368567E+04  0.7818609E-02  0.8451366E-01
       -1   -1    0    0    0  501  0.00000000000E+00  0.00000000000E+00  0.68560549483E+03  0.68560549485E+03  0.50400001928E-02 0. -1.
        1   -1    0    0  501    0  0.00000000000E+00  0.00000000000E+00 -0.20456763502E+04  0.20456763503E+04  0.50400001928E-02 0.  1.
    10030    2    1    2    0    0  0.00000000000E+00  0.00000000000E+00 -0.13600708554E+04  0.27312818451E+04  0.23685666099E+04 0.  0.
        2    1    3    3  502    0 -0.68258081538E+03 -0.38976433511E+03  0.34144751740E+03  0.85698262153E+03  0.25500000920E-02 0. -1.
       -2    1    3    3    0  502  0.68258081538E+03  0.38976433511E+03 -0.17015183728E+04  0.18742992236E+04  0.25500000920E-02 0.  1.
</event>
<event>
 5   0  0.1234988E-04  0.2417816E+04  0.7818609E-02  0.8432864E-01
       -2   -1    0    0    0  501  0.00000000000E+00  0.00000000000E+00  0.82023213877E+03  0.82023213878E+03  0.25500000920E-02 0.  1.
        2   -1    0    0  501    0  0.00000000000E+00  0.00000000000E+00 -0.17817616346E+04  0.17817616346E+04  0.25500000920E-02 0. -1.
    10030    2    1    2    0    0  0.00000000000E+00  0.00000000000E+00 -0.96152949578E+03  0.26019937733E+04  0.24178156723E+04 0.  0.
        5    1    3    3  502    0  0.64430654373E+03 -0.64397288067E+03 -0.13360392515E+04  0.16170513179E+04  0.46999998093E+01 0. -1.
       -5    1    3    3    0  502 -0.64430654373E+03  0.64397288067E+03  0.37450975570E+03  0.98494245540E+03  0.46999998093E+01 0.  1.
</event>
<event>
 5   0  0.5642466E-05  0.2444482E+04  0.7818609E-02  0.8423035E-01
       -1   -1    0    0    0  501  0.00000000000E+00  0.00000000000E+00  0.12465986371E+04  0.12465986371E+04  0.50400001928E-02 0. -1.
        1   -1    0    0  501    0  0.00000000000E+00  0.00000000000E+00 -0.11983594649E+04  0.11983594649E+04  0.50400001928E-02 0.  1.
    10030    2    1    2    0    0  0.00000000000E+00  0.00000000000E+00  0.48239172187E+02  0.24449581021E+04  0.24444821749E+04 0.  0.
        1    1    3    3  502    0 -0.51166011533E+03 -0.10525988908E+04  0.37648460989E+03  0.12294312344E+04  0.50400001928E-02 0. -1.
       -1    1    3    3    0  502  0.51166011533E+03  0.10525988908E+04 -0.32824543771E+03  0.12155268677E+04  0.50400001928E-02 0.  1.
</event>
<event>
 5   0  0.5642466E-05  0.2340129E+04  0.7818609E-02  0.8462265E-01
       -1   -1    0    0    0  501  0.00000000000E+00  0.00000000000E+00  0.10544387861E+04  0.10544387861E+04  0.50400001928E-02 0.  1.
        1   -1    0    0  501    0  0.00000000000E+00  0.00000000000E+00 -0.12983695031E+04  0.12983695031E+04  0.50400001928E-02 0. -1.
    10030    2    1    2    0    0  0.00000000000E+00  0.00000000000E+00 -0.24393071700E+03  0.23528082891E+04  0.23401291953E+04 0.  0.
        1    1    3    3  502    0  0.56169820003E+03 -0.83967327037E+03  0.47156787442E+03  0.11148687497E+04  0.50400001928E-02 0.  1.
       -1    1    3    3    0  502 -0.56169820003E+03  0.83967327037E+03 -0.71549859141E+03  0.12379395394E+04  0.50400001928E-02 0. -1.
</event>
<event>
 5   0  0.1257524E-04  0.2215935E+04  0.7818609E-02  0.8511825E-01
       -2   -1    0    0    0  501  0.00000000000E+00  0.00000000000E+00  0.75875402621E+03  0.75875402621E+03  0.25500000920E-02 0.  1.
        2   -1    0    0  501    0  0.00000000000E+00  0.00000000000E+00 -0.16179043938E+04  0.16179043938E+04  0.25500000920E-02 0. -1.
    10030    2    1    2    0    0  0.00000000000E+00  0.00000000000E+00 -0.85915036755E+03  0.23766584200E+04  0.22159345413E+04 0.  0.
        3    1    3    3  502    0 -0.10904231935E+04  0.52316642076E+02 -0.22655300169E+03  0.11149376865E+04  0.10100000352E+00 0.  1.
       -3    1    3    3    0  502  0.10904231935E+04 -0.52316642076E+02 -0.63259736586E+03  0.12617207335E+04  0.10100000352E+00 0. -1.
</event>
<event>
 5   0  0.5632156E-05  0.2234185E+04  0.7818609E-02  0.8504333E-01
        1   -1    0    0  501    0  0.00000000000E+00  0.00000000000E+00  0.62881611954E+03  0.62881611956E+03  0.50400001928E-02 0.  1.
       -1   -1    0    0    0  501  0.00000000000E+00  0.00000000000E+00 -0.19845153968E+04  0.19845153968E+04  0.50400001928E-02 0. -1.
    10030    2    1    2    0    0  0.00000000000E+00  0.00000000000E+00 -0.13556992772E+04  0.26133315163E+04  0.22341846575E+04 0.  0.
        4    1    3    3  502    0 -0.96376458929E+03 -0.26078166290E+03 -0.12639212820E+04  0.16106979479E+04  0.12699999809E+01 0. -1.
       -4    1    3    3    0  502  0.96376458929E+03  0.26078166290E+03 -0.91777995206E+02  0.10026335684E+04  0.12699999809E+01 0.  1.
</event>
<event>
 5   0  0.5642466E-05  0.2393644E+04  0.7818609E-02  0.8441887E-01
       -1   -1    0    0    0  501  0.00000000000E+00  0.00000000000E+00  0.96026266040E+03  0.96026266041E+03  0.50400001928E-02 0. -1.
        1   -1    0    0  501    0  0.00000000000E+00  0.00000000000E+00 -0.14916578590E+04  0.14916578590E+04  0.50400001928E-02 0.  1.
    10030    2    1    2    0    0  0.00000000000E+00  0.00000000000E+00 -0.53139519860E+03  0.24519205194E+04  0.23936443713E+04 0.  0.
        1    1    3    3  502    0  0.48853583810E+03 -0.84759111096E+03 -0.97190640723E+03  0.13790141482E+04  0.50400001928E-02 0.  1.
       -1    1    3    3    0  502 -0.48853583810E+03  0.84759111096E+03  0.44051120862E+03  0.10729063712E+04  0.50400001928E-02 0. -1.
</event>
<event>
 5   0  0.1234988E-04  0.2343982E+04  0.7818609E-02  0.8460779E-01
       -2   -1    0    0    0  501  0.00000000000E+00  0.00000000000E+00  0.11575934612E+04  0.11575934612E+04  0.25500000920E-02 0. -1.
        2   -1    0    0  501    0  0.00000000000E+00  0.00000000000E+00 -0.11865681108E+04  0.11865681108E+04  0.25500000920E-02 0.  1.
    10030    2    1    2    0    0  0.00000000000E+00  0.00000000000E+00 -0.28974649565E+02  0.23441615720E+04  0.23439824968E+04 0.  0.
        5    1    3    3  502    0  0.22456734100E+03  0.14009476029E+03 -0.11562769456E+04  0.11861937015E+04  0.46999998093E+01 0.  1.
       -5    1    3    3    0  502 -0.22456734100E+03 -0.14009476029E+03  0.11273022961E+04  0.11579678705E+04  0.46999998093E+01 0. -1.
</event>
<event>
 5   0  0.5924654E-05  0.1471548E+04  0.7818609E-02  0.8903597E-01
        1   -1    0    0  501    0  0.00000000000E+00  0.00000000000E+00  0.11926417346E+04  0.11926417346E+04  0.50400001928E-02 0.  1.
       -1   -1    0    0    0  501  0.00000000000E+00  0.00000000000E+00 -0.45391953637E+03  0.45391953639E+03  0.50400001928E-02 0. -1.
    10030    2    1    2    0    0  0.00000000000E+00  0.00000000000E+00  0.73872219818E+03  0.16465612710E+04  0.14715480056E+04 0.  0.
        5    1    3    3  502    0  0.44038398569E+03 -0.25907266093E+03 -0.22302256789E+03  0.55751040733E+03  0.46999998093E+01 0. -1.
       -5    1    3    3    0  502 -0.44038398569E+03  0.25907266093E+03  0.96174476608E+03  0.10890508636E+04  0.46999998093E+01 0.  1.
</event>
<event>
 5   0  0.1257524E-04  0.2315215E+04  0.7818609E-02  0.8471946E-01
        2   -1    0    0  501    0  0.00000000000E+00  0.00000000000E+00  0.15698567497E+04  0.15698567497E+04  0.25500000920E-02 0. -1.
       -2   -1    0    0    0  501  0.00000000000E+00  0.00000000000E+00 -0.85361642423E+03  0.85361642423E+03  0.25500000920E-02 0.  1.
    10030    2    1    2    0    0  0.00000000000E+00  0.00000000000E+00  0.71624032547E+03  0.24234731739E+04  0.23152153293E+04 0.  0.
        3    1    3    3  502    0 -0.70923579232E+03  0.75678299637E+03  0.89628026495E+03  0.13707859921E+04  0.10100000352E+00 0. -1.
       -3    1    3    3    0  502  0.70923579232E+03 -0.75678299637E+03 -0.18003993948E+03  0.10526871818E+04  0.10100000352E+00 0.  1.
</event>
<event>
 5   0  0.5843670E-05  0.2111355E+04  0.7818609E-02  0.8556258E-01
       -1   -1    0    0    0  501  0.00000000000E+00  0.00000000000E+00  0.12931230388E+04  0.12931230388E+04  0.50400001928E-02 0. -1.
        1   -1    0    0  501    0  0.00000000000E+00  0.00000000000E+00 -0.86183234054E+03  0.86183234056E+03  0.50400001928E-02 0.  1.
    10030    2    1    2    0    0  0.00000000000E+00  0.00000000000E+00  0.43129069825E+03  0.21549553794E+04  0.21113552569E+04 0.  0.
        2    1    3    3  502    0  0.26258647852E+03  0.23557987537E+03 -0.79989181162E+03  0.87422905848E+03  0.25500000920E-02 0.  1.
       -2    1    3    3    0  502 -0.26258647852E+03 -0.23557987537E+03  0.12311825099E+04  0.12807263209E+04  0.25500000920E-02 0. -1.
</event>
<event>
 5   0  0.5632156E-05  0.2306535E+04  0.7818609E-02  0.8475349E-01
       -1   -1    0    0    0  501  0.00000000000E+00  0.00000000000E+00  0.16943196876E+04  0.16943196876E+04  0.50400001928E-02 0. -1.
        1   -1    0    0  501    0  0.00000000000E+00  0.00000000000E+00 -0.78499102265E+03  0.78499102267E+03  0.50400001928E-02 0.  1.
    10030    2    1    2    0    0  0.00000000000E+00  0.00000000000E+00  0.90932866492E+03  0.24793107102E+04  0.23065348419E+04 0.  0.
        4    1    3    3  502    0  0.35759672644E+03  0.67651332642E+03 -0.47279953106E+03  0.89949247304E+03  0.12699999809E+01 0.  1.
       -4    1    3    3    0  502 -0.35759672644E+03 -0.67651332642E+03  0.13821281960E+04  0.15798182372E+04  0.12699999809E+01 0. -1.
</event>
<event>
 5   0  0.5642466E-05  0.2129339E+04  0.7818609E-02  0.8548428E-01
       -1   -1    0    0    0  501  0.00000000000E+00  0.00000000000E+00  0.14477445302E+04  0.14477445302E+04  0.50400001928E-02 0.  1.
        1   -1    0    0  501    0  0.00000000000E+00  0.00000000000E+00 -0.78295635485E+03  0.78295635487E+03  0.50400001928E-02 0. -1.
    10030    2    1    2    0    0  0.00000000000E+00  0.00000000000E+00  0.66478817535E+03  0.22307008851E+04  0.21293386580E+04 0.  0.
        1    1    3    3  502    0  0.30239637356E+03  0.89911281570E+03  0.83880283725E+03  0.12662691743E+04  0.50400001928E-02 0. -1.
       -1    1    3    3    0  502 -0.30239637356E+03 -0.89911281570E+03 -0.17401466190E+03  0.96443171074E+03  0.50400001928E-02 0.  1.
</event>
<event>
 5   0  0.5632156E-05  0.2288261E+04  0.7818609E-02  0.8482564E-01
        1   -1    0    0  501    0  0.00000000000E+00  0.00000000000E+00  0.10126298783E+04  0.10126298783E+04  0.50400001928E-02 0. -1.
       -1   -1    0    0    0  501  0.00000000000E+00  0.00000000000E+00 -0.12927082177E+04  0.12927082177E+04  0.50400001928E-02 0.  1.
    10030    2    1    2    0    0  0.00000000000E+00  0.00000000000E+00 -0.28007833947E+03  0.23053380960E+04  0.22882613183E+04 0.  0.
        4    1    3    3  502    0 -0.86994352222E+03  0.74309337103E+03 -0.13336687954E+03  0.11518584233E+04  0.12699999809E+01 0.  1.
       -4    1    3    3    0  502  0.86994352222E+03 -0.74309337103E+03 -0.14671145993E+03  0.11534796727E+04  0.12699999809E+01 0. -1.
</event>
<event>
 5   0  0.1270613E-04  0.2249430E+04  0.7818609E-02  0.8498132E-01
       -2   -1    0    0    0  501  0.00000000000E+00  0.00000000000E+00  0.14051324862E+04  0.14051324862E+04  0.25500000920E-02 0.  1.
        2   -1    0    0  501    0  0.00000000000E+00  0.00000000000E+00 -0.90025919792E+03  0.90025919792E+03  0.25500000920E-02 0. -1.
    10030    2    1    2    0    0  0.00000000000E+00  0.00000000000E+00  0.50487328825E+03  0.23053916841E+04  0.22494296566E+04 0.  0.
        2    1    3    3  502    0  0.44825605126E+03  0.49377403929E+03 -0.67576434060E+03  0.94942284225E+03  0.25500000920E-02 0. -1.
       -2    1    3    3    0  502 -0.44825605126E+03 -0.49377403929E+03  0.11806376288E+04  0.13559688418E+04  0.25500000920E-02 0.  1.
</event>
<event>
 5   0  0.1237296E-04  0.2307985E+04  0.7818609E-02  0.8474779E-01
        2   -1    0    0  501    0  0.00000000000E+00  0.00000000000E+00  0.13215952315E+04  0.13215952315E+04  0.25500000920E-02 0.  1.
       -2   -1    0    0    0  501  0.00000000000E+00  0.00000000000E+00 -0.10076447205E+04  0.10076447205E+04  0.25500000920E-02 0. -1.
    10030    2    1    2    0    0  0.00000000000E+00  0.00000000000E+00  0.31395051107E+03  0.23292399520E+04  0.23079847986E+04 0.  0.
        1    1    3    3  502    0 -0.19230118613E+02 -0.11538243487E+04  0.15268968990E+03  0.11640423389E+04  0.50400001928E-02 0.  1.
       -1    1    3    3    0  502  0.19230118613E+02  0.11538243487E+04  0.16126082118E+03  0.11651976131E+04  0.50400001928E-02 0. -1.
</event>
<event>
 5   0  0.1257524E-04  0.2257977E+04  0.7818609E-02  0.8494677E-01
        2   -1    0    0  501    0  0.00000000000E+00  0.00000000000E+00  0.13116479544E+04  0.13116479544E+04  0.25500000920E-02 0. -1.
       -2   -1    0    0    0  501  0.00000000000E+00  0.00000000000E+00 -0.97176587190E+03  0.97176587190E+03  0.25500000920E-02 0.  1.
    10030    2    1    2    0    0  0.00000000000E+00  0.00000000000E+00  0.33988208246E+03  0.22834138263E+04  0.22579767209E+04 0.  0.
        3    1    3    3  502    0 -0.52572669005E+03 -0.77758783218E+03  0.80437074427E+03  0.12361406448E+04  0.10100000352E+00 0. -1.
       -3    1    3    3    0  502  0.52572669005E+03  0.77758783218E+03 -0.46448866181E+03  0.10472731814E+04  0.10100000352E+00 0.  1.
</event>
<event>
 5   0  0.1237296E-04  0.2061767E+04  0.7818609E-02  0.8578275E-01
       -2   -1    0    0    0  501  0.00000000000E+00  0.00000000000E+00  0.10696244842E+04  0.10696244842E+04  0.25500000920E-02 0.  1.
        2   -1    0    0  501    0  0.00000000000E+00  0.00000000000E+00 -0.99354546025E+03  0.99354546025E+03  0.25500000920E-02 0. -1.
    10030    2    1    2    0    0  0.00000000000E+00  0.00000000000E+00  0.76079023928E+02  0.20631699444E+04  0.20617667671E+04 0.  0.
        1    1    3    3  502    0  0.12413889095E+03  0.43988326282E+03 -0.88660926249E+03  0.99748871348E+03  0.50400001928E-02 0. -1.
       -1    1    3    3    0  502 -0.12413889095E+03 -0.43988326282E+03  0.96268828642E+03  0.10656812309E+04  0.50400001928E-02 0.  1.
</event>
<event>
 5   0  0.1281432E-04  0.2246873E+04  0.7818609E-02  0.8499168E-01
        2   -1    0    0  501    0  0.00000000000E+00  0.00000000000E+00  0.89287534715E+03  0.89287534715E+03  0.25500000920E-02 0.  1.
       -2   -1    0    0    0  501  0.00000000000E+00  0.00000000000E+00 -0.14135343814E+04  0.14135343814E+04  0.25500000920E-02 0. -1.
    10030    2    1    2    0    0  0.00000000000E+00  0.00000000000E+00 -0.52065903420E+03  0.23064097285E+04  0.22468733845E+04 0.  0.
        4    1    3    3  502    0  0.88116648866E+03  0.56829797582E+03 -0.67436750020E+03  0.12466716121E+04  0.12699999809E+01 0.  1.
       -4    1    3    3    0  502 -0.88116648866E+03 -0.56829797582E+03  0.15370846600E+03  0.10597381165E+04  0.12699999809E+01 0. -1.
</event>
<event>
 5   0  0.5663790E-05  0.2338684E+04  0.7818609E-02  0.8462823E-01
       -1   -1    0    0    0  501  0.00000000000E+00  0.00000000000E+00  0.88236136003E+03  0.88236136005E+03  0.50400001928E-02 0. -1.
        1   -1    0    0  501    0  0.00000000000E+00  0.00000000000E+00 -0.15496600951E+04  0.15496600951E+04  0.50400001928E-02 0.  1.
    10030    2    1    2    0    0  0.00000000000E+00  0.00000000000E+00 -0.66729873509E+03  0.24320214552E+04  0.23386835520E+04 0.  0.
        3    1    3    3  502    0  0.29593253538E+03 -0.10824252134E+04 -0.67561988314E+03  0.13098406944E+04  0.10100000352E+00 0. -1.
       -3    1    3    3    0  502 -0.29593253538E+03  0.10824252134E+04  0.83211480477E+01  0.11221807608E+04  0.10100000352E+00 0.  1.
</event>
<event>
 5   0  0.5642466E-05  0.2309536E+04  0.7818609E-02  0.8474171E-01
        1   -1    0    0  501    0  0.00000000000E+00  0.00000000000E+00  0.11989465090E+04  0.11989465090E+04  0.50400001928E-02 0. -1.
       -1   -1    0    0    0  501  0.00000000000E+00  0.00000000000E+00 -0.11122177234E+04  0.11122177234E+04  0.50400001928E-02 0.  1.
    10030    2    1    2    0    0  0.00000000000E+00  0.00000000000E+00  0.86728785623E+02  0.23111642324E+04  0.23095363662E+04 0.  0.
        1    1    3    3  502    0  0.29310138934E+03 -0.77089685934E+03 -0.76547455219E+03  0.11252296131E+04  0.50400001928E-02 0.  1.
       -1    1    3    3    0  502 -0.29310138934E+03  0.77089685934E+03  0.85220333781E+03  0.11859346193E+04  0.50400001928E-02 0. -1.
</event>
<event>
 5   0  0.5924654E-05  0.2303285E+04  0.7818609E-02  0.8476627E-01
       -1   -1    0    0    0  501  0.00000000000E+00  0.00000000000E+00  0.66976887436E+03  0.66976887438E+03  0.50400001928E-02 0.  1.
        1   -1    0    0  501    0  0.00000000000E+00  0.00000000000E+00 -0.19802062374E+04  0.19802062374E+04  0.50400001928E-02 0. -1.
    10030    2    1    2    0    0  0.00000000000E+00  0.00000000000E+00 -0.13104373630E+04  0.26499751117E+04  0.23032850476E+04 0.  0.
        5    1    3    3  502    0 -0.78465230097E+03 -0.70912034666E+03 -0.11795926427E+04  0.15842953614E+04  0.46999998093E+01 0.  1.
       -5    1    3    3    0  502  0.78465230097E+03  0.70912034666E+03 -0.13084472030E+03  0.10656797503E+04  0.46999998093E+01 0. -1.
</event>
<event>
 5   0  0.5642466E-05  0.2276412E+04  0.7818609E-02  0.8487280E-01
        1   -1    0    0  501    0  0.00000000000E+00  0.00000000000E+00  0.12047057620E+04  0.12047057620E+04  0.50400001928E-02 0.  1.
       -1   -1    0    0    0  501  0.00000000000E+00  0.00000000000E+00 -0.10753772012E+04  0.10753772012E+04  0.50400001928E-02 0. -1.
    10030    2    1    2    0    0  0.00000000000E+00  0.00000000000E+00  0.12932856080E+03  0.22800829632E+04  0.22764121864E+04 0.  0.
        1    1    3    3  502    0  0.93195898868E+03  0.23357772007E+03 -0.54657135658E+03  0.11053715917E+04  0.50400001928E-02 0. -1.
       -1    1    3    3    0  502 -0.93195898868E+03 -0.23357772007E+03  0.67589991737E+03  0.11747113715E+04  0.50400001928E-02 0.  1.
</event>
<event>
 5   0  0.5632156E-05  0.2743096E+04  0.7818609E-02  0.8321156E-01
        1   -1    0    0  501    0  0.00000000000E+00  0.00000000000E+00  0.17804714056E+04  0.17804714056E+04  0.50400001928E-02 0.  1.
       -1   -1    0    0    0  501  0.00000000000E+00  0.00000000000E+00 -0.10565426457E+04  0.10565426457E+04  0.50400001928E-02 0. -1.
    10030    2    1    2    0    0  0.00000000000E+00  0.00000000000E+00  0.72392875990E+03  0.28370140514E+04  0.27430960388E+04 0.  0.
        4    1    3    3  502    0 -0.56045319326E+03 -0.10542656471E+03  0.16520367668E+04  0.17476983819E+04  0.12699999809E+01 0.  1.
       -4    1    3    3    0  502  0.56045319326E+03  0.10542656471E+03 -0.92810800688E+03  0.10893156695E+04  0.12699999809E+01 0. -1.
</event>
<event>
 5   0  0.5663790E-05  0.2265356E+04  0.7818609E-02  0.8491707E-01
        1   -1    0    0  501    0  0.00000000000E+00  0.00000000000E+00  0.15046204886E+04  0.15046204886E+04  0.50400001928E-02 0. -1.
       -1   -1    0    0    0  501  0.00000000000E+00  0.00000000000E+00 -0.85267990111E+03  0.85267990113E+03  0.50400001928E-02 0.  1.
    10030    2    1    2    0    0  0.00000000000E+00  0.00000000000E+00  0.65194058746E+03  0.23573003897E+04  0.22653561746E+04 0.  0.
        3    1    3    3  502    0  0.10695535074E+04 -0.20432176863E+03  0.65050595028E+03  0.12684045459E+04  0.10100000352E+00 0. -1.
       -3    1    3    3    0  502 -0.10695535074E+04  0.20432176863E+03  0.14346371768E+01  0.10888958439E+04  0.10100000352E+00 0.  1.
</event>
<event>
 5   0  0.1281432E-04  0.2267224E+04  0.7818609E-02  0.8490958E-01
        2   -1    0    0  501    0  0.00000000000E+00  0.00000000000E+00  0.16628115475E+04  0.16628115475E+04  0.25500000920E-02 0. -1.
       -2   -1    0    0    0  501  0.00000000000E+00  0.00000000000E+00 -0.77283317091E+03  0.77283317091E+03  0.25500000920E-02 0.  1.
    10030    2    1    2    0    0  0.00000000000E+00  0.00000000000E+00  0.88997837661E+03  0.24356447184E+04  0.22672237833E+04 0.  0.
        4    1    3    3  502    0  0.57953110617E+01 -0.49779952422E+03  0.15390927096E+04  0.16176049993E+04  0.12699999809E+01 0. -1.
       -4    1    3    3    0  502 -0.57953110617E+01  0.49779952422E+03 -0.64911433300E+03  0.81803971917E+03  0.12699999809E+01 0.  1.
</event>
<event>
 5   0  0.5843670E-05  0.2292448E+04  0.7818609E-02  0.8480905E-01
       -1   -1    0    0    0  501  0.00000000000E+00  0.00000000000E+00  0.14840472360E+04  0.14840472360E+04  0.50400001928E-02 0.  1.
        1   -1    0    0  501    0  0.00000000000E+00  0.00000000000E+00 -0.88530148980E+03  0.88530148981E+03  0.50400001928E-02 0. -1.
    10030    2    1    2    0    0  0.00000000000E+00  0.00000000000E+00  0.59874574621E+03  0.23693487258E+04  0.22924478001E+04 0.  0.
        2    1    3    3  502    0 -0.58858804433E+03 -0.88360930033E+03  0.74586917916E+03  0.12975061133E+04  0.25500000920E-02 0.  1.
       -2    1    3    3    0  502  0.58858804433E+03  0.88360930033E+03 -0.14712343296E+03  0.10718426126E+04  0.25500000920E-02 0. -1.
</event>
<event>
 5   0  0.5663790E-05  0.2239505E+04  0.7818609E-02  0.8502163E-01
        1   -1    0    0  501    0  0.00000000000E+00  0.00000000000E+00  0.20757620978E+04  0.20757620978E+04  0.50400001928E-02 0.  1.
       -1   -1    0    0    0  501  0.00000000000E+00  0.00000000000E+00 -0.60404094851E+03  0.60404094853E+03  0.50400001928E-02 0. -1.
    10030    2    1    2    0    0  0.00000000000E+00  0.00000000000E+00  0.14717211493E+04  0.26798030464E+04  0.22395046832E+04 0.  0.
        3    1    3    3  502    0 -0.59983859250E+03  0.85561109006E+03  0.12174382488E+04  0.16043791866E+04  0.10100000352E+00 0.  1.
       -3    1    3    3    0  502  0.59983859250E+03 -0.85561109006E+03  0.25428290050E+03  0.10754238598E+04  0.10100000352E+00 0. -1.
</event>
<event>
 5   0  0.1234988E-04  0.2266351E+04  0.7818609E-02  0.8491308E-01
       -2   -1    0    0    0  501  0.00000000000E+00  0.00000000000E+00  0.94599669050E+03  0.94599669050E+03  0.25500000920E-02 0. -1.
        2   -1    0    0  501    0  0.00000000000E+00  0.00000000000E+00 -0.13573897874E+04  0.13573897874E+04  0.25500000920E-02 0.  1.
    10030    2    1    2    0    0  0.00000000000E+00  0.00000000000E+00 -0.41139309688E+03  0.23033864779E+04  0.22663505877E+04 0.  0.
        5    1    3    3  502    0 -0.23132797915E+03  0.90706623480E+03  0.44331726755E+03  0.10357770407E+04  0.46999998093E+01 0. -1.
       -5    1    3    3    0  502  0.23132797915E+03 -0.90706623480E+03 -0.85471036443E+03  0.12676094372E+04  0.46999998093E+01 0.  1.
</event>
<event>
 5   0  0.5843670E-05  0.1715898E+04  0.7818609E-02  0.8752349E-01
        1   -1    0    0  501    0  0.00000000000E+00  0.00000000000E+00  0.74906561546E+03  0.74906561547E+03  0.50400001928E-02 0.  1.
       -1   -1    0    0    0  501  0.00000000000E+00  0.00000000000E+00 -0.98265931836E+03  0.98265931837E+03  0.50400001928E-02 0. -1.
    10030    2    1    2    0    0  0.00000000000E+00  0.00000000000E+00 -0.23359370291E+03  0.17317249338E+04  0.17158977908E+04 0.  0.
        2    1    3    3  502    0 -0.95120962813E+02  0.50679280414E+03 -0.80882521533E+03  0.95921070305E+03  0.25500000920E-02 0. -1.
       -2    1    3    3    0  502  0.95120962813E+02 -0.50679280414E+03  0.57523151242E+03  0.77251423079E+03  0.25500000920E-02 0.  1.
</event>
<event>
 5   0  0.5663790E-05  0.2337547E+04  0.7818609E-02  0.8463262E-01
        1   -1    0    0  501    0  0.00000000000E+00  0.00000000000E+00  0.19185307883E+04  0.19185307883E+04  0.50400001928E-02 0. -1.
       -1   -1    0    0    0  501  0.00000000000E+00  0.00000000000E+00 -0.71201939301E+03  0.71201939303E+03  0.50400001928E-02 0.  1.
    10030    2    1    2    0    0  0.00000000000E+00  0.00000000000E+00  0.12065113953E+04  0.26305501813E+04  0.23375466861E+04 0.  0.
        3    1    3    3  502    0 -0.13713360303E+02 -0.25051573593E+03 -0.68135832422E+03  0.72608220360E+03  0.10100000352E+00 0.  1.
       -3    1    3    3    0  502  0.13713360303E+02  0.25051573593E+03  0.18878697195E+04  0.19044679777E+04  0.10100000352E+00 0. -1.
</event>
<event>
 5   0  0.5924654E-05  0.2172278E+04  0.7818609E-02  0.8530056E-01
        1   -1    0    0  501    0  0.00000000000E+00  0.00000000000E+00  0.11251756554E+04  0.11251756554E+04  0.50400001928E-02 0. -1.
       -1   -1    0    0    0  501  0.00000000000E+00  0.00000000000E+00 -0.10484564977E+04  0.10484564977E+04  0.50400001928E-02 0.  1.
    10030    2    1    2    0    0  0.00000000000E+00  0.00000000000E+00  0.76719157749E+02  0.21736321531E+04  0.21722778156E+04 0.  0.
        5    1    3    3  502    0 -0.16553665018E+03  0.10733830252E+04  0.27301192338E+02  0.10864257667E+04  0.46999998093E+01 0. -1.
       -5    1    3    3    0  502  0.16553665018E+03 -0.10733830252E+04  0.49417965411E+02  0.10872063864E+04  0.46999998093E+01 0.  1.
</event>
<event>
 5   0  0.1270613E-04  0.2294553E+04  0.7818609E-02  0.8480072E-01
        2   -1    0    0  501    0  0.00000000000E+00  0.00000000000E+00  0.12697434527E+04  0.12697434527E+04  0.25500000920E-02 0.  1.
       -2   -1    0    0    0  501  0.00000000000E+00  0.00000000000E+00 -0.10366216904E+04  0.10366216904E+04  0.25500000920E-02 0. -1.
    10030    2    1    2    0    0  0.00000000000E+00  0.00000000000E+00  0.23312176224E+03  0.23063651431E+04  0.22945532064E+04 0.  0.
        2    1    3    3  502    0  0.34840798098E+02 -0.59373466937E+03 -0.86956487563E+03  0.10535073857E+04  0.25500000920E-02 0. -1.
       -2    1    3    3    0  502 -0.34840798098E+02  0.59373466937E+03  0.11026866379E+04  0.12528577574E+04  0.25500000920E-02 0.  1.
</event>
<event>
 5   0  0.1270613E-04  0.2278684E+04  0.7818609E-02  0.8486373E-01
        2   -1    0    0  501    0  0.00000000000E+00  0.00000000000E+00  0.13144637069E+04  0.13144637069E+04  0.25500000920E-02 0. -1.
       -2   -1    0    0    0  501  0.00000000000E+00  0.00000000000E+00 -0.98755117743E+03  0.98755117743E+03  0.25500000920E-02 0.  1.
    10030    2    1    2    0    0  0.00000000000E+00  0.00000000000E+00  0.32691252943E+03  0.23020148843E+04  0.22786839899E+04 0.  0.
        2    1    3    3  502    0  0.26804352313E+03 -0.94317576073E+03 -0.42271934281E+03  0.10677637795E+04  0.25500000920E-02 0.  1.
       -2    1    3    3    0  502 -0.26804352313E+03  0.94317576073E+03  0.74963187224E+03  0.12342511048E+04  0.25500000920E-02 0. -1.
</event>
<event>
 5   0  0.1257524E-04  0.2325812E+04  0.7818609E-02  0.8467813E-01
       -2   -1    0    0    0  501  0.00000000000E+00  0.00000000000E+00  0.10532527048E+04  0.10532527048E+04  0.25500000920E-02 0. -1.
        2   -1    0    0  501    0  0.00000000000E+00  0.00000000000E+00 -0.12839751760E+04  0.12839751760E+04  0.25500000920E-02 0.  1.
    10030    2    1    2    0    0  0.00000000000E+00  0.00000000000E+00 -0.23072247116E+03  0.23372278808E+04  0.23258119675E+04 0.  0.
        3    1    3    3  502    0 -0.11604313204E+04 -0.16468901389E+02 -0.18973967993E+03  0.11759563047E+04  0.10100000352E+00 0.  1.
       -3    1    3    3    0  502  0.11604313204E+04  0.16468901389E+02 -0.40982791230E+02  0.11612715761E+04  0.10100000352E+00 0. -1.
</event>
<event>
 5   0  0.1281432E-04  0.2292086E+04  0.7818609E-02  0.8481048E-01
        2   -1    0    0  501    0  0.00000000000E+00  0.00000000000E+00  0.12032675320E+04  0.12032675320E+04  0.25500000920E-02 0. -1.
       -2   -1    0    0    0  501  0.00000000000E+00  0.00000000000E+00 -0.10915399709E+04  0.10915399709E+04  0.25500000920E-02 0.  1.
    10030    2    1    2    0    0  0.00000000000E+00  0.00000000000E+00  0.11172756110E+03  0.22948075028E+04  0.22920860427E+04 0.  0.
        4    1    3    3  502    0 -0.12397793204E+03 -0.46321238337E+03 -0.98627400699E+03  0.10966650671E+04  0.12699999809E+01 0.  1.
       -4    1    3    3    0  502  0.12397793204E+03  0.46321238337E+03  0.10980015681E+04  0.11981424357E+04  0.12699999809E+01 0. -1.
</event>
<event>
 5   0  0.5642466E-05  0.2275672E+04  0.7818609E-02  0.8487576E-01
        1   -1    0    0  501    0  0.00000000000E+00  0.00000000000E+00  0.18080226489E+04  0.18080226489E+04  0.50400001928E-02 0. -1.
       -1   -1    0    0    0  501  0.00000000000E+00  0.00000000000E+00 -0.71606970261E+03  0.71606970263E+03  0.50400001928E-02 0.  1.
    10030    2    1    2    0    0  0.00000000000E+00  0.00000000000E+00  0.10919529462E+04  0.25240923515E+04  0.22756715409E+04 0.  0.
        1    1    3    3  502    0 -0.87892161723E+03  0.67107051948E+03  0.84324764495E+03  0.13906492880E+04  0.50400001928E-02 0. -1.
       -1    1    3    3    0  502  0.87892161723E+03 -0.67107051948E+03  0.24870530129E+03  0.11334430635E+04  0.50400001928E-02 0.  1.
</event>
<event>
 5   0  0.1281432E-04  0.2239233E+04  0.7818609E-02  0.8502274E-01
        2   -1    0    0  501    0  0.00000000000E+00  0.00000000000E+00  0.15317405326E+04  0.15317405326E+04  0.25500000920E-02 0.  1.
       -2   -1    0    0    0  501  0.00000000000E+00  0.00000000000E+00 -0.81837687697E+03  0.81837687697E+03  0.25500000920E-02 0. -1.
    10030    2    1    2    0    0  0.00000000000E+00  0.00000000000E+00  0.71336365567E+03  0.23501174096E+04  0.22392329342E+04 0.  0.
        4    1    3    3  502    0  0.42219864419E+03 -0.67258330990E+03 -0.47165357011E+03  0.92362259988E+03  0.12699999809E+01 0. -1.
       -4    1    3    3    0  502 -0.42219864419E+03  0.67258330990E+03  0.11850172258E+04  0.14264948097E+04  0.12699999809E+01 0.  1.
</event>
<event>
 5   0  0.5632156E-05  0.1244356E+04  0.7818609E-02  0.9074894E-01
       -1   -1    0    0    0  501  0.00000000000E+00  0.00000000000E+00  0.65831164075E+03  0.65831164077E+03  0.50400001928E-02 0.  1.
        1   -1    0    0  501    0  0.00000000000E+00  0.00000000000E+00 -0.58802783792E+03  0.58802783794E+03  0.50400001928E-02 0. -1.
    10030    2    1    2    0    0  0.00000000000E+00  0.00000000000E+00  0.70283802836E+02  0.12463394787E+04  0.12443561722E+04 0.  0.
        4    1    3    3  502    0 -0.19125486956E+03  0.28028750100E+03  0.55747520200E+03  0.65262525396E+03  0.12699999809E+01 0.  1.
       -4    1    3    3    0  502  0.19125486956E+03 -0.28028750100E+03 -0.48719139917E+03  0.59371422475E+03  0.12699999809E+01 0. -1.
</event>
<event>
 5   0  0.1237296E-04  0.2196361E+04  0.7818609E-02  0.8519944E-01
        2   -1    0    0  501    0  0.00000000000E+00  0.00000000000E+00  0.20416668853E+04  0.20416668853E+04  0.25500000920E-02 0.  1.
       -2   -1    0    0    0  501  0.00000000000E+00  0.00000000000E+00 -0.59069380307E+03  0.59069380308E+03  0.25500000920E-02 0. -1.
    10030    2    1    2    0    0  0.00000000000E+00  0.00000000000E+00  0.14509730823E+04  0.26323606884E+04  0.21963606053E+04 0.  0.
        1    1    3    3  502    0  0.64539974748E+03 -0.35237719139E+03  0.17030547552E+04  0.18550218377E+04  0.50400001928E-02 0.  1.
       -1    1    3    3    0  502 -0.64539974748E+03  0.35237719139E+03 -0.25208167290E+03  0.77733885076E+03  0.50400001928E-02 0. -1.
</event>
<event>
 5   0  0.5663790E-05  0.1786120E+04  0.7818609E-02  0.8713716E-01
        1   -1    0    0  501    0  0.00000000000E+00  0.00000000000E+00  0.12509743986E+04  0.12509743986E+04  0.50400001928E-02 0.  1.
       -1   -1    0    0    0  501  0.00000000000E+00  0.00000000000E+00 -0.63754795753E+03  0.63754795755E+03  0.50400001928E-02 0. -1.
    10030    2    1    2    0    0  0.00000000000E+00  0.00000000000E+00  0.61342644107E+03  0.18885223562E+04  0.17861200103E+04 0.  0.
        3    1    3    3  502    0  0.53510881927E+03  0.44187377700E+03 -0.28761877843E+03  0.75121132524E+03  0.10100000352E+00 0. -1.
       -3    1    3    3    0  502 -0.53510881927E+03 -0.44187377700E+03  0.90104521951E+03  0.11373110309E+04  0.10100000352E+00 0.  1.
</event>
<event>
 5   0  0.1257524E-04  0.2386553E+04  0.7818609E-02  0.8444555E-01
        2   -1    0    0  501    0  0.00000000000E+00  0.00000000000E+00  0.19229154581E+04  0.19229154581E+04  0.25500000920E-02 0.  1.
       -2   -1    0    0    0  501  0.00000000000E+00  0.00000000000E+00 -0.74049449405E+03  0.74049449405E+03  0.25500000920E-02 0. -1.
    10030    2    1    2    0    0  0.00000000000E+00  0.00000000000E+00  0.11824209641E+04  0.26634099522E+04  0.23865525842E+04 0.  0.
        3    1    3    3  502    0 -0.27554571996E+03 -0.10455205506E+04  0.11546224366E+04  0.15818317378E+04  0.10100000352E+00 0.  1.
       -3    1    3    3    0  502  0.27554571996E+03  0.10455205506E+04  0.27798527468E+02  0.10815782144E+04  0.10100000352E+00 0. -1.
</event>
<event>
 5   0  0.5924654E-05  0.2293925E+04  0.7818609E-02  0.8480320E-01
       -1   -1    0    0    0  501  0.00000000000E+00  0.00000000000E+00  0.61146946670E+03  0.61146946672E+03  0.50400001928E-02 0.  1.
        1   -1    0    0  501    0  0.00000000000E+00  0.00000000000E+00 -0.21514131383E+04  0.21514131383E+04  0.50400001928E-02 0. -1.
    10030    2    1    2    0    0  0.00000000000E+00  0.00000000000E+00 -0.15399436716E+04  0.27628826050E+04  0.22939254080E+04 0.  0.
        5    1    3    3  502    0  0.20683614947E+03  0.10641457381E+04 -0.12211350251E+04  0.16329054425E+04  0.46999998093E+01 0. -1.
       -5    1    3    3    0  502 -0.20683614947E+03 -0.10641457381E+04 -0.31880864655E+03  0.11299771625E+04  0.46999998093E+01 0.  1.
</event>
<event>
 5   0  0.1237296E-04  0.2313963E+04  0.7818609E-02  0.8472436E-01
       -2   -1    0    0    0  501  0.00000000000E+00  0.00000000000E+00  0.82158032344E+03  0.82158032344E+03  0.25500000920E-02 0.  1.
        2   -1    0    0  501    0  0.00000000000E+00  0.00000000000E+00 -0.16293067873E+04  0.16293067873E+04  0.25500000920E-02 0. -1.
    10030    2    1    2    0    0  0.00000000000E+00  0.00000000000E+00 -0.80772646383E+03  0.24508871107E+04  0.23139631780E+04 0.  0.
        1    1    3    3  502    0 -0.52943265236E+03 -0.33945388982E+02 -0.14928841806E+04  0.15843466791E+04  0.50400001928E-02 0. -1.
       -1    1    3    3    0  502  0.52943265236E+03  0.33945388982E+02  0.68515771675E+03  0.86654043164E+03  0.50400001928E-02 0.  1.
</event>
<event>
 5   0  0.1257524E-04  0.2323605E+04  0.7818609E-02  0.8468672E-01
        2   -1    0    0  501    0  0.00000000000E+00  0.00000000000E+00  0.16154270200E+04  0.16154270200E+04  0.25500000920E-02 0. -1.
       -2   -1    0    0    0  501  0.00000000000E+00  0.00000000000E+00 -0.83555923753E+03  0.83555923754E+03  0.25500000920E-02 0.  1.
    10030    2    1    2    0    0  0.00000000000E+00  0.00000000000E+00  0.77986778247E+03  0.24509862575E+04  0.23236049313E+04 0.  0.
        3    1    3    3  502    0  0.92761586953E+03  0.40672163566E+03  0.99024752534E+03  0.14165040988E+04  0.10100000352E+00 0. -1.
       -3    1    3    3    0  502 -0.92761586953E+03 -0.40672163566E+03 -0.21037974287E+03  0.10344821587E+04  0.10100000352E+00 0.  1.
</event>
<event>
 5   0  0.5924654E-05  0.2309840E+04  0.7818609E-02  0.8474052E-01
       -1   -1    0    0    0  501  0.00000000000E+00  0.00000000000E+00  0.10843597187E+04  0.10843597187E+04  0.50400001928E-02 0. -1.
        1   -1    0    0  501    0  0.00000000000E+00  0.00000000000E+00 -0.12300713114E+04  0.12300713114E+04  0.50400001928E-02 0.  1.
    10030    2    1    2    0    0  0.00000000000E+00  0.00000000000E+00 -0.14571159276E+03  0.23144310301E+04  0.23098396318E+04 0.  0.
        5    1    3    3  502    0 -0.68001793562E+03  0.57238908722E+03  0.66601355644E+03  0.11106978920E+04  0.46999998093E+01 0. -1.
       -5    1    3    3    0  502  0.68001793562E+03 -0.57238908722E+03 -0.81172514920E+03  0.12037331381E+04  0.46999998093E+01 0.  1.
</event>
<event>
 5   0  0.5632156E-05  0.2291466E+04  0.7818609E-02  0.8481293E-01
        1   -1    0    0  501    0  0.00000000000E+00  0.00000000000E+00  0.24303726901E+04  0.24303726901E+04  0.50400001928E-02 0. -1.
       -1   -1    0    0    0  501  0.00000000000E+00  0.00000000000E+00 -0.54012479585E+03  0.54012479588E+03  0.50400001928E-02 0.  1.
    10030    2    1    2    0    0  0.00000000000E+00  0.00000000000E+00  0.18902478942E+04  0.29704974860E+04  0.22914663891E+04 0.  0.
        4    1    3    3  502    0 -0.65487592456E+03  0.60244633911E+02  0.21613354462E+04  0.22591733923E+04  0.12699999809E+01 0. -1.
       -4    1    3    3    0  502  0.65487592456E+03 -0.60244633911E+02 -0.27108755199E+03  0.71132409366E+03  0.12699999809E+01 0.  1.
</event>
<event>
 5   0  0.5843670E-05  0.2282879E+04  0.7818609E-02  0.8484702E-01
        1   -1    0    0  501    0  0.00000000000E+00  0.00000000000E+00  0.16014240098E+04  0.16014240099E+04  0.50400001928E-02 0.  1.
       -1   -1    0    0    0  501  0.00000000000E+00  0.00000000000E+00 -0.81357841219E+03  0.81357841220E+03  0.50400001928E-02 0. -1.
    10030    2    1    2    0    0  0.00000000000E+00  0.00000000000E+00  0.78784559766E+03  0.24150024221E+04  0.22828788870E+04 0.  0.
        2    1    3    3  502    0  0.82236398328E+03  0.77930620958E+03  0.54082406350E+03  0.12554247715E+04  0.25500000920E-02 0. -1.
       -2    1    3    3    0  502 -0.82236398328E+03 -0.77930620958E+03  0.24702153416E+03  0.11595776505E+04  0.25500000920E-02 0.  1.
</event>
<event>
 5   0  0.1281432E-04  0.1604498E+04  0.7818609E-02  0.8817790E-01
       -2   -1    0    0    0  501  0.00000000000E+00  0.00000000000E+00  0.37023320250E+03  0.37023320250E+03  0.25500000920E-02 0.  1.
        2   -1    0    0  501    0  0.00000000000E+00  0.00000000000E+00 -0.17383723762E+04  0.17383723762E+04  0.25500000920E-02 0. -1.
    10030    2    1    2    0    0  0.00000000000E+00  0.00000000000E+00 -0.13681391737E+04  0.21086055787E+04  0.16044976435E+04 0.  0.
        4    1    3    3  502    0 -0.79405693249E+03  0.11425276594E+03 -0.69015647761E+03  0.10582521831E+04  0.12699999809E+01 0.  1.
       -4    1    3    3    0  502  0.79405693249E+03 -0.11425276594E+03 -0.67798269611E+03  0.10503533956E+04  0.12699999809E+01 0. -1.
</event>
<event>
 5   0  0.1237296E-04  0.2350368E+04  0.7818609E-02  0.8458322E-01
        2   -1    0    0  501    0  0.00000000000E+00  0.00000000000E+00  0.18495286908E+04  0.18495286908E+04  0.25500000920E-02 0.  1.
       -2   -1    0    0    0  501  0.00000000000E+00  0.00000000000E+00 -0.74670803031E+03  0.74670803031E+03  0.25500000920E-02 0. -1.
    10030    2    1    2    0    0  0.00000000000E+00  0.00000000000E+00  0.11028206605E+04  0.25962367211E+04  0.23503684185E+04 0.  0.
        1    1    3    3  502    0  0.63614750006E+03  0.38201261132E+03 -0.45520292469E+03  0.87053258394E+03  0.50400001928E-02 0. -1.
       -1    1    3    3    0  502 -0.63614750006E+03 -0.38201261132E+03  0.15580235852E+04  0.17257041371E+04  0.50400001928E-02 0.  1.
</event>
<event>
 5   0  0.5642466E-05  0.2281137E+04  0.7818609E-02  0.8485396E-01
        1   -1    0    0  501    0  0.00000000000E+00  0.00000000000E+00  0.14205589968E+04  0.14205589968E+04  0.50400001928E-02 0.  1.
       -1   -1    0    0    0  501  0.00000000000E+00  0.00000000000E+00 -0.91576393462E+03  0.91576393464E+03  0.50400001928E-02 0. -1.
    10030    2    1    2    0    0  0.00000000000E+00  0.00000000000E+00  0.50479506219E+03  0.23363229315E+04  0.22811371693E+04 0.  0.
        1    1    3    3  502    0 -0.80419468254E+02 -0.59500928276E+03 -0.74080140883E+03  0.95356702166E+03  0.50400001928E-02 0. -1.
       -1    1    3    3    0  502  0.80419468254E+02  0.59500928276E+03  0.12455964710E+04  0.13827559098E+04  0.50400001928E-02 0.  1.
</event>
<event>
 5   0  0.1234988E-04  0.2380081E+04  0.7818609E-02  0.8446999E-01
        2   -1    0    0  501    0  0.00000000000E+00  0.00000000000E+00  0.17994899753E+04  0.17994899753E+04  0.25500000920E-02 0.  1.
       -2   -1    0    0    0  501  0.00000000000E+00  0.00000000000E+00 -0.78699865952E+03  0.78699865952E+03  0.25500000920E-02 0. -1.
    10030    2    1    2    0    0  0.00000000000E+00  0.00000000000E+00  0.10124913157E+04  0.25864886348E+04  0.23800808376E+04 0.  0.
        5    1    3    3  502    0  0.27724865019E+03  0.60512074051E+03 -0.56578122752E+03  0.87359510761E+03  0.46999998093E+01 0. -1.
       -5    1    3    3    0  502 -0.27724865019E+03 -0.60512074051E+03  0.15782725433E+04  0.17128935272E+04  0.46999998093E+01 0.  1.
</event>
<event>
 5   0  0.5632156E-05  0.2258415E+04  0.7818609E-02  0.8494500E-01
        1   -1    0    0  501    0  0.00000000000E+00  0.00000000000E+00  0.19362713780E+04  0.19362713780E+04  0.50400001928E-02 0. -1.
       -1   -1    0    0    0  501  0.00000000000E+00  0.00000000000E+00 -0.65853894684E+03  0.65853894686E+03  0.50400001928E-02 0.  1.
    10030    2    1    2    0    0  0.00000000000E+00  0.00000000000E+00  0.12777324312E+04  0.25948103249E+04  0.22584154747E+04 0.  0.
        4    1    3    3  502    0  0.10038152056E+04 -0.25285277678E+03  0.11572064656E+04  0.15526454555E+04  0.12699999809E+01 0.  1.
       -4    1    3    3    0  502 -0.10038152056E+04  0.25285277678E+03  0.12052596559E+03  0.10421648694E+04  0.12699999809E+01 0. -1.
</event>
<event>
 5   0  0.5663790E-05  0.2250336E+04  0.7818609E-02  0.8497764E-01
        1   -1    0    0  501    0  0.00000000000E+00  0.00000000000E+00  0.10293041053E+04  0.10293041053E+04  0.50400001928E-02 0. -1.
       -1   -1    0    0    0  501  0.00000000000E+00  0.00000000000E+00 -0.12299605342E+04  0.12299605342E+04  0.50400001928E-02 0.  1.
    10030    2    1    2    0    0  0.00000000000E+00  0.00000000000E+00 -0.20065642894E+03  0.22592646395E+04  0.22503363546E+04 0.  0.
        3    1    3    3  502    0 -0.86881224720E+03 -0.71142662287E+03 -0.29047535147E+02  0.11233015313E+04  0.10100000352E+00 0. -1.
       -3    1    3    3    0  502  0.86881224720E+03  0.71142662287E+03 -0.17160889379E+03  0.11359631082E+04  0.10100000352E+00 0.  1.
</event>
<event>
 5   0  0.4489500E-05  0.2293804E+04  0.7818609E-02  0.8480368E-01
        3   -1    0    0  501    0  0.00000000000E+00  0.00000000000E+00  0.26042936132E+04  0.26042936152E+04  0.10100000352E+00 0.  1.
       -3   -1    0    0    0  501  0.00000000000E+00  0.00000000000E+00 -0.50508306834E+03  0.50508307844E+03  0.10100000352E+00 0. -1.
    10030    2    1    2    0    0  0.00000000000E+00  0.00000000000E+00  0.20992105449E+04  0.31093766936E+04  0.22938043751E+04 0.  0.
        5    1    3    3  502    0  0.10351322699E+04  0.36060623501E+02  0.17172256068E+04  0.20054139371E+04  0.46999998093E+01 0.  1.
       -5    1    3    3    0  502 -0.10351322699E+04 -0.36060623501E+02  0.38198493813E+03  0.11039627565E+04  0.46999998093E+01 0. -1.
</event>
<event>
 5   0  0.5843670E-05  0.1909254E+04  0.7818609E-02  0.8650264E-01
        1   -1    0    0  501    0  0.00000000000E+00  0.00000000000E+00  0.72983327814E+03  0.72983327816E+03  0.50400001928E-02 0.  1.
       -1   -1    0    0    0  501  0.00000000000E+00  0.00000000000E+00 -0.12486589801E+04  0.12486589801E+04  0.50400001928E-02 0. -1.
    10030    2    1    2    0    0  0.00000000000E+00  0.00000000000E+00 -0.51882570194E+03  0.19784922582E+04  0.19092541756E+04 0.  0.
        2    1    3    3  502    0 -0.36568603470E+03  0.87933951330E+03 -0.32774835324E+03  0.10071659440E+04  0.25500000920E-02 0. -1.
       -2    1    3    3    0  502  0.36568603470E+03 -0.87933951330E+03 -0.19107734870E+03  0.97132631428E+03  0.25500000920E-02 0.  1.
</event>
<event>
 5   0  0.1281432E-04  0.2292468E+04  0.7818609E-02  0.8480897E-01
        2   -1    0    0  501    0  0.00000000000E+00  0.00000000000E+00  0.17600540245E+04  0.17600540245E+04  0.25500000920E-02 0. -1.
       -2   -1    0    0    0  501  0.00000000000E+00  0.00000000000E+00 -0.74648380098E+03  0.74648380098E+03  0.25500000920E-02 0.  1.
    10030    2    1    2    0    0  0.00000000000E+00  0.00000000000E+00  0.10135702235E+04  0.25065378255E+04  0.22924675074E+04 0.  0.
        4    1    3    3  502    0 -0.72805777396E+03 -0.71863043991E+03 -0.58559290382E+02  0.10246602533E+04  0.12699999809E+01 0.  1.
       -4    1    3    3    0  502  0.72805777396E+03  0.71863043991E+03  0.10721295139E+04  0.14818775722E+04  0.12699999809E+01 0. -1.
</event>
<event>
 5   0  0.5642466E-05  0.2306878E+04  0.7818609E-02  0.8475214E-01
        1   -1    0    0  501    0  0.00000000000E+00  0.00000000000E+00  0.19464944999E+04  0.19464944999E+04  0.50400001928E-02 0.  1.
       -1   -1    0    0    0  501  0.00000000000E+00  0.00000000000E+00 -0.68349641056E+03  0.68349641058E+03  0.50400001928E-02 0. -1.
    10030    2    1    2    0    0  0.00000000000E+00  0.00000000000E+00  0.12629980893E+04  0.26299909105E+04  0.23068784137E+04 0.  0.
        1    1    3    3  502    0  0.88094468117E+03  0.32108876559E+03  0.13973481185E+04  0.16827784438E+04  0.50400001928E-02 0.  1.
       -1    1    3    3    0  502 -0.88094468117E+03 -0.32108876559E+03 -0.13435002916E+03  0.94721246668E+03  0.50400001928E-02 0. -1.
</event>
<event>
 5   0  0.5663790E-05  0.2316290E+04  0.7818609E-02  0.8471526E-01
        1   -1    0    0  501    0  0.00000000000E+00  0.00000000000E+00  0.19813602459E+04  0.19813602459E+04  0.50400001928E-02 0. -1.
       -1   -1    0    0    0  501  0.00000000000E+00  0.00000000000E+00 -0.67695937172E+03  0.67695937174E+03  0.50400001928E-02 0.  1.
    10030    2    1    2    0    0  0.00000000000E+00  0.00000000000E+00  0.13044008742E+04  0.26583196176E+04  0.23162904716E+04 0.  0.
        3    1    3    3  502    0  0.64759259474E+03  0.87726967159E+02 -0.44514024255E+03  0.79070983001E+03  0.10100000352E+00 0.  1.
       -3    1    3    3    0  502 -0.64759259474E+03 -0.87726967159E+02  0.17495411167E+04  0.18676097876E+04  0.10100000352E+00 0. -1.
</event>
<event>
 5   0  0.1270613E-04  0.2202022E+04  0.7818609E-02  0.8517587E-01
        2   -1    0    0  501    0  0.00000000000E+00  0.00000000000E+00  0.14706834060E+04  0.14706834060E+04  0.25500000920E-02 0.  1.
       -2   -1    0    0    0  501  0.00000000000E+00  0.00000000000E+00 -0.82425975301E+03  0.82425975301E+03  0.25500000920E-02 0. -1.
    10030    2    1    2    0    0  0.00000000000E+00  0.00000000000E+00  0.64642365296E+03  0.22949431590E+04  0.22020219263E+04 0.  0.
        2    1    3    3  502    0  0.64008788588E+02  0.24129733999E+03 -0.79437432857E+03  0.83267767185E+03  0.25500000920E-02 0. -1.
       -2    1    3    3    0  502 -0.64008788588E+02 -0.24129733999E+03  0.14407979815E+04  0.14622654871E+04  0.25500000920E-02 0.  1.
</event>
<event>
 5   0  0.1281432E-04  0.1999668E+04  0.7818609E-02  0.8606776E-01
        2   -1    0    0  501    0  0.00000000000E+00  0.00000000000E+00  0.95058673170E+03  0.95058673170E+03  0.25500000920E-02 0. -1.
       -2   -1    0    0    0  501  0.00000000000E+00  0.00000000000E+00 -0.10516327865E+04  0.10516327865E+04  0.25500000920E-02 0.  1.
    10030    2    1    2    0    0  0.00000000000E+00  0.00000000000E+00 -0.10104605484E+03  0.20022195182E+04  0.19996681460E+04 0.  0.
        4    1    3    3  502    0 -0.53150486478E+03  0.39462335296E+03  0.69972702871E+03  0.96324687365E+03  0.12699999809E+01 0. -1.
       -4    1    3    3    0  502  0.53150486478E+03 -0.39462335296E+03 -0.80077308354E+03  0.10389726446E+04  0.12699999809E+01 0.  1.
</event>
<event>
 5   0  0.5924654E-05  0.2321798E+04  0.7818609E-02  0.8469376E-01
       -1   -1    0    0    0  501  0.00000000000E+00  0.00000000000E+00  0.10734084540E+04  0.10734084541E+04  0.50400001928E-02 0.  1.
        1   -1    0    0  501    0  0.00000000000E+00  0.00000000000E+00 -0.12555210960E+04  0.12555210960E+04  0.50400001928E-02 0. -1.
    10030    2    1    2    0    0  0.00000000000E+00  0.00000000000E+00 -0.18211264197E+03  0.23289295501E+04  0.23217984053E+04 0.  0.
        5    1    3    3  502    0  0.45698857808E+03  0.85521842388E+03 -0.73131746843E+03  0.12145305441E+04  0.46999998093E+01 0. -1.
       -5    1    3    3    0  502 -0.45698857808E+03 -0.85521842388E+03  0.54920482645E+03  0.11143990059E+04  0.46999998093E+01 0.  1.
</event>
<event>
 5   0  0.1281432E-04  0.2284456E+04  0.7818609E-02  0.8484075E-01
       -2   -1    0    0    0  501  0.00000000000E+00  0.00000000000E+00  0.75582524391E+03  0.75582524391E+03  0.25500000920E-02 0.  1.
        2   -1    0    0  501    0  0.00000000000E+00  0.00000000000E+00 -0.17261729665E+04  0.17261729665E+04  0.25500000920E-02 0. -1.
    10030    2    1    2    0    0  0.00000000000E+00  0.00000000000E+00 -0.97034772260E+03  0.24819982104E+04  0.22844562622E+04 0.  0.
        4    1    3    3  502    0 -0.41717113324E+03 -0.77998188273E+03 -0.12703558228E+04  0.15479693218E+04  0.12699999809E+01 0. -1.
       -4    1    3    3    0  502  0.41717113324E+03  0.77998188273E+03  0.30000810015E+03  0.93402888866E+03  0.12699999809E+01 0.  1.
</event>
<event>
 5   0  0.5843670E-05  0.2060966E+04  0.7818609E-02  0.8578636E-01
       -1   -1    0    0    0  501  0.00000000000E+00  0.00000000000E+00  0.12160881257E+04  0.12160881257E+04  0.50400001928E-02 0.  1.
        1   -1    0    0  501    0  0.00000000000E+00  0.00000000000E+00 -0.87320575815E+03  0.87320575816E+03  0.50400001928E-02 0. -1.
    10030    2    1    2    0    0  0.00000000000E+00  0.00000000000E+00  0.34288236759E+03  0.20892938839E+04  0.20609659423E+04 0.  0.
        2    1    3    3  502    0 -0.25679918391E+02 -0.34174251822E+02 -0.87230654289E+03  0.87335333197E+03  0.25500000920E-02 0. -1.
       -2    1    3    3    0  502  0.25679918391E+02  0.34174251822E+02  0.12151889105E+04  0.12159405519E+04  0.25500000920E-02 0.  1.
</event>
<event>
 5   0  0.1234988E-04  0.2073341E+04  0.7818609E-02  0.8573078E-01
        2   -1    0    0  501    0  0.00000000000E+00  0.00000000000E+00  0.20592114951E+04  0.20592114951E+04  0.25500000920E-02 0. -1.
       -2   -1    0    0    0  501  0.00000000000E+00  0.00000000000E+00 -0.52189203817E+03  0.52189203818E+03  0.25500000920E-02 0.  1.
    10030    2    1    2    0    0  0.00000000000E+00  0.00000000000E+00  0.15373194569E+04  0.25811035333E+04  0.20733413460E+04 0.  0.
        5    1    3    3  502    0 -0.43210131493E+03  0.91262878936E+03  0.47654246797E+03  0.11165651200E+04  0.46999998093E+01 0.  1.
       -5    1    3    3    0  502  0.43210131493E+03 -0.91262878936E+03  0.10607769890E+04  0.14645384132E+04  0.46999998093E+01 0. -1.
</event>
<event>
 5   0  0.5843670E-05  0.2282350E+04  0.7818609E-02  0.8484913E-01
        1   -1    0    0  501    0  0.00000000000E+00  0.00000000000E+00  0.20348014524E+04  0.20348014524E+04  0.50400001928E-02 0. -1.
       -1   -1    0    0    0  501  0.00000000000E+00  0.00000000000E+00 -0.64000358747E+03  0.64000358749E+03  0.50400001928E-02 0.  1.
    10030    2    1    2    0    0  0.00000000000E+00  0.00000000000E+00  0.13947978649E+04  0.26748050399E+04  0.22823498675E+04 0.  0.
        2    1    3    3  502    0  0.54473693731E+03 -0.44571856591E+03  0.17501205554E+04  0.18863523874E+04  0.25500000920E-02 0. -1.
       -2    1    3    3    0  502 -0.54473693731E+03  0.44571856591E+03 -0.35532269050E+03  0.78845265251E+03  0.25500000920E-02 0.  1.
</event>
<event>
 5   0  0.1257524E-04  0.2193140E+04  0.7818609E-02  0.8521289E-01
        2   -1    0    0  501    0  0.00000000000E+00  0.00000000000E+00  0.84569688687E+03  0.84569688687E+03  0.25500000920E-02 0. -1.
       -2   -1    0    0    0  501  0.00000000000E+00  0.00000000000E+00 -0.14218642093E+04  0.14218642093E+04  0.25500000920E-02 0.  1.
    10030    2    1    2    0    0  0.00000000000E+00  0.00000000000E+00 -0.57616732247E+03  0.22675610962E+04  0.21931403379E+04 0.  0.
        3    1    3    3  502    0 -0.49247776991E+03  0.54533411455E+02 -0.12995210078E+04  0.13907778783E+04  0.10100000352E+00 0.  1.
       -3    1    3    3    0  502  0.49247776991E+03 -0.54533411455E+02  0.72335368537E+03  0.87678321789E+03  0.10100000352E+00 0. -1.
</event>
<event>
 5   0  0.1234988E-04  0.2305310E+04  0.7818609E-02  0.8475830E-01
        2   -1    0    0  501    0  0.00000000000E+00  0.00000000000E+00  0.15045094223E+04  0.15045094223E+04  0.25500000920E-02 0.  1.
       -2   -1    0    0    0  501  0.00000000000E+00  0.00000000000E+00 -0.88308780982E+03  0.88308780982E+03  0.25500000920E-02 0. -1.
    10030    2    1    2    0    0  0.00000000000E+00  0.00000000000E+00  0.62142161252E+03  0.23875972322E+04  0.23053103311E+04 0.  0.
        5    1    3    3  502    0  0.10162526113E+04  0.39801442355E+03 -0.73205079075E+02  0.10938765583E+04  0.46999998093E+01 0. -1.
       -5    1    3    3    0  502 -0.10162526113E+04 -0.39801442355E+03  0.69462669160E+03  0.12937206738E+04  0.46999998093E+01 0.  1.
</event>
<event>
 5   0  0.1270613E-04  0.1813495E+04  0.7818609E-02  0.8699156E-01
       -2   -1    0    0    0  501  0.00000000000E+00  0.00000000000E+00  0.90176365270E+03  0.90176365271E+03  0.25500000920E-02 0.  1.
        2   -1    0    0  501    0  0.00000000000E+00  0.00000000000E+00 -0.91175840047E+03  0.91175840047E+03  0.25500000920E-02 0. -1.
    10030    2    1    2    0    0  0.00000000000E+00  0.00000000000E+00 -0.99947477664E+01  0.18135220532E+04  0.18134945113E+04 0.  0.
        2    1    3    3  502    0 -0.36105528174E+03  0.55006119310E+03 -0.62891577934E+03  0.91019958808E+03  0.25500000920E-02 0. -1.
       -2    1    3    3    0  502  0.36105528174E+03 -0.55006119310E+03  0.61892103158E+03  0.90332246510E+03  0.25500000920E-02 0.  1.
</event>
<event>
 5   0  0.4489500E-05  0.2050093E+04  0.7818609E-02  0.8583552E-01
        3   -1    0    0  501    0  0.00000000000E+00  0.00000000000E+00  0.44331535223E+03  0.44331536374E+03  0.10100000352E+00 0.  1.
       -3   -1    0    0    0  501  0.00000000000E+00  0.00000000000E+00 -0.23701417752E+04  0.23701417774E+04  0.10100000352E+00 0. -1.
    10030    2    1    2    0    0  0.00000000000E+00  0.00000000000E+00 -0.19268264230E+04  0.28134571411E+04  0.20500929297E+04 0.  0.
        2    1    3    3  502    0  0.82953788562E+03  0.29562285333E+03 -0.24348953407E+03  0.91368108676E+03  0.25500000920E-02 0.  1.
       -2    1    3    3    0  502 -0.82953788562E+03 -0.29562285333E+03 -0.16833368889E+04  0.18997760544E+04  0.25500000920E-02 0. -1.
</event>
<event>
 5   0  0.1281432E-04  0.2208999E+04  0.7818609E-02  0.8514692E-01
       -2   -1    0    0    0  501  0.00000000000E+00  0.00000000000E+00  0.76783406441E+03  0.76783406442E+03  0.25500000920E-02 0.  1.
        2   -1    0    0  501    0  0.00000000000E+00  0.00000000000E+00 -0.15887800798E+04  0.15887800798E+04  0.25500000920E-02 0. -1.
    10030    2    1    2    0    0  0.00000000000E+00  0.00000000000E+00 -0.82094601539E+03  0.23566141442E+04  0.22089992903E+04 0.  0.
        4    1    3    3  502    0  0.96287940535E+03  0.42855067353E+03 -0.58056797883E+02  0.10555399726E+04  0.12699999809E+01 0.  1.
       -4    1    3    3    0  502 -0.96287940535E+03 -0.42855067353E+03 -0.76288921751E+03  0.13010741716E+04  0.12699999809E+01 0. -1.
</event>
<event>
 5   0  0.1234988E-04  0.1404202E+04  0.7818609E-02  0.8950783E-01
       -2   -1    0    0    0  501  0.00000000000E+00  0.00000000000E+00  0.21691299391E+03  0.21691299393E+03  0.25500000920E-02 0.  1.
        2   -1    0    0  501    0  0.00000000000E+00  0.00000000000E+00 -0.22725493573E+04  0.22725493573E+04  0.25500000920E-02 0. -1.
    10030    2    1    2    0    0  0.00000000000E+00  0.00000000000E+00 -0.20556363633E+04  0.24894623512E+04  0.14042015310E+04 0.  0.
        5    1    3    3  502    0  0.68577270038E+03 -0.11153100427E+03 -0.12068692505E+04  0.13925799221E+04  0.46999998093E+01 0. -1.
       -5    1    3    3    0  502 -0.68577270038E+03  0.11153100427E+03 -0.84876711283E+03  0.10968824291E+04  0.46999998093E+01 0.  1.
</event>
<event>
 5   0  0.5632156E-05  0.2315902E+04  0.7818609E-02  0.8471677E-01
        1   -1    0    0  501    0  0.00000000000E+00  0.00000000000E+00  0.12230355022E+04  0.12230355022E+04  0.50400001928E-02 0. -1.
       -1   -1    0    0    0  501  0.00000000000E+00  0.00000000000E+00 -0.10963301567E+04  0.10963301567E+04  0.50400001928E-02 0.  1.
    10030    2    1    2    0    0  0.00000000000E+00  0.00000000000E+00  0.12670534556E+03  0.23193656589E+04  0.23159021601E+04 0.  0.
        4    1    3    3  502    0 -0.10475664840E+04 -0.38959293579E+02 -0.42925255547E+03  0.11327721457E+04  0.12699999809E+01 0.  1.
       -4    1    3    3    0  502  0.10475664840E+04  0.38959293579E+02  0.55595790103E+03  0.11865935132E+04  0.12699999809E+01 0. -1.
</event>
<event>
 5   0  0.4489500E-05  0.1442308E+04  0.7818609E-02  0.8923750E-01
        4   -1    0    0  501    0  0.00000000000E+00  0.00000000000E+00  0.56906967809E+03  0.56907109523E+03  0.12699999809E+01 0.  1.
       -4   -1    0    0    0  501  0.00000000000E+00  0.00000000000E+00 -0.91388039689E+03  0.91388127934E+03  0.12699999809E+01 0. -1.
    10030    2    1    2    0    0  0.00000000000E+00  0.00000000000E+00 -0.34481071880E+03  0.14829523746E+04  0.14423083281E+04 0.  0.
        4    1    3    3  502    0 -0.21546214173E+03 -0.42885517371E+03 -0.72583077006E+03  0.87015666073E+03  0.12699999809E+01 0. -1.
       -4    1    3    3    0  502  0.21546214173E+03  0.42885517371E+03  0.38102005126E+03  0.61279571384E+03  0.12699999809E+01 0.  1.
</event>
<event>
 5   0  0.1234988E-04  0.1773089E+04  0.7818609E-02  0.8720743E-01
       -2   -1    0    0    0  501  0.00000000000E+00  0.00000000000E+00  0.30320761515E+03  0.30320761516E+03  0.25500000920E-02 0.  1.
        2   -1    0    0  501    0  0.00000000000E+00  0.00000000000E+00 -0.25921564506E+04  0.25921564506E+04  0.25500000920E-02 0. -1.
    10030    2    1    2    0    0  0.00000000000E+00  0.00000000000E+00 -0.22889488354E+04  0.28953640657E+04  0.17730894794E+04 0.  0.
        5    1    3    3  502    0 -0.21326826629E+03  0.82030850868E+02  0.25427461337E+03  0.34189191699E+03  0.46999998093E+01 0.  1.
       -5    1    3    3    0  502  0.21326826629E+03 -0.82030850868E+02 -0.25432234488E+04  0.25534721488E+04  0.46999998093E+01 0. -1.
</event>
<event>
 5   0  0.5663790E-05  0.2237386E+04  0.7818609E-02  0.8503027E-01
        1   -1    0    0  501    0  0.00000000000E+00  0.00000000000E+00  0.97491419764E+03  0.97491419765E+03  0.50400001928E-02 0.  1.
       -1   -1    0    0    0  501  0.00000000000E+00  0.00000000000E+00 -0.12836756180E+04  0.12836756181E+04  0.50400001928E-02 0. -1.
    10030    2    1    2    0    0  0.00000000000E+00  0.00000000000E+00 -0.30876142040E+03  0.22585898157E+04  0.22373856040E+04 0.  0.
        3    1    3    3  502    0  0.10357639376E+04 -0.16520327483E+03  0.23837536696E+03  0.10756030319E+04  0.10100000352E+00 0.  1.
       -3    1    3    3    0  502 -0.10357639376E+04  0.16520327483E+03 -0.54713678737E+03  0.11829867838E+04  0.10100000352E+00 0. -1.
</event>
<event>
 5   0  0.1237296E-04  0.2289673E+04  0.7818609E-02  0.8482004E-01
       -2   -1    0    0    0  501  0.00000000000E+00  0.00000000000E+00  0.63958530480E+03  0.63958530481E+03  0.25500000920E-02 0. -1.
        2   -1    0    0  501    0  0.00000000000E+00  0.00000000000E+00 -0.20492201003E+04  0.20492201003E+04  0.25500000920E-02 0.  1.
    10030    2    1    2    0    0  0.00000000000E+00  0.00000000000E+00 -0.14096347954E+04  0.26888054051E+04  0.22896733937E+04 0.  0.
        1    1    3    3  502    0 -0.70929469109E+03 -0.75803343440E+03 -0.12715855801E+04  0.16415369427E+04  0.50400001928E-02 0.  1.
       -1    1    3    3    0  502  0.70929469109E+03  0.75803343440E+03 -0.13804921531E+03  0.10472684624E+04  0.50400001928E-02 0. -1.
</event>
<event>
 5   0  0.5642466E-05  0.2205265E+04  0.7818609E-02  0.8516240E-01
       -1   -1    0    0    0  501  0.00000000000E+00  0.00000000000E+00  0.16148112806E+04  0.16148112806E+04  0.50400001928E-02 0. -1.
        1   -1    0    0  501    0  0.00000000000E+00  0.00000000000E+00 -0.75290450523E+03  0.75290450525E+03  0.50400001928E-02 0.  1.
    10030    2    1    2    0    0  0.00000000000E+00  0.00000000000E+00  0.86190677534E+03  0.23677157858E+04  0.22052652342E+04 0.  0.
        1    1    3    3  502    0 -0.20698083150E+03 -0.48683640236E+03  0.14696640397E+04  0.15619741153E+04  0.50400001928E-02 0. -1.
       -1    1    3    3    0  502  0.20698083150E+03  0.48683640236E+03 -0.60775726434E+03  0.80574167054E+03  0.50400001928E-02 0.  1.
</event>
<event>
 5   0  0.1237296E-04  0.2274255E+04  0.7818609E-02  0.8488142E-01
       -2   -1    0    0    0  501  0.00000000000E+00  0.00000000000E+00  0.68553338322E+03  0.68553338323E+03  0.25500000920E-02 0.  1.
        2   -1    0    0  501    0  0.00000000000E+00  0.00000000000E+00 -0.18862093700E+04  0.18862093700E+04  0.25500000920E-02 0. -1.
    10030    2    1    2    0    0  0.00000000000E+00  0.00000000000E+00 -0.12006759867E+04  0.25717427532E+04  0.22742554745E+04 0.  0.
        1    1    3    3  502    0 -0.11071712197E+03  0.89388668720E+03 -0.13852250383E+04  0.16523135590E+04  0.50400001928E-02 0. -1.
       -1    1    3    3    0  502  0.11071712197E+03 -0.89388668720E+03  0.18454905154E+03  0.91942919417E+03  0.50400001928E-02 0.  1.
</event>
<event>
 5   0  0.1237296E-04  0.1956638E+04  0.7818609E-02  0.8627166E-01
        2   -1    0    0  501    0  0.00000000000E+00  0.00000000000E+00  0.13898703198E+04  0.13898703198E+04  0.25500000920E-02 0. -1.
       -2   -1    0    0    0  501  0.00000000000E+00  0.00000000000E+00 -0.68863138974E+03  0.68863138974E+03  0.25500000920E-02 0.  1.
    10030    2    1    2    0    0  0.00000000000E+00  0.00000000000E+00  0.70123893007E+03  0.20785017095E+04  0.19566382700E+04 0.  0.
        1    1    3    3  502    0 -0.60461063412E+03 -0.30505226672E+03  0.11006368018E+04  0.12922895472E+04  0.50400001928E-02 0. -1.
       -1    1    3    3    0  502  0.60461063412E+03  0.30505226672E+03 -0.39939787169E+03  0.78621216237E+03  0.50400001928E-02 0.  1.
</event>
<event>
 5   0  0.1234988E-04  0.2334409E+04  0.7818609E-02  0.8464476E-01
        2   -1    0    0  501    0  0.00000000000E+00  0.00000000000E+00  0.79942993740E+03  0.79942993741E+03  0.25500000920E-02 0. -1.
       -2   -1    0    0    0  501  0.00000000000E+00  0.00000000000E+00 -0.17041722028E+04  0.17041722028E+04  0.25500000920E-02 0.  1.
    10030    2    1    2    0    0  0.00000000000E+00  0.00000000000E+00 -0.90474226535E+03  0.25036021402E+04  0.23344089422E+04 0.  0.
        5    1    3    3  502    0 -0.71329460036E+03  0.15429271333E+03  0.52455489802E+03  0.89876323875E+03  0.46999998093E+01 0. -1.
       -5    1    3    3    0  502  0.71329460036E+03 -0.15429271333E+03 -0.14292971634E+04  0.16048389014E+04  0.46999998093E+01 0.  1.
</event>
<event>
 5   0  0.1257524E-04  0.2340701E+04  0.7818609E-02  0.8462044E-01
        2   -1    0    0  501    0  0.00000000000E+00  0.00000000000E+00  0.19275200828E+04  0.19275200828E+04  0.25500000920E-02 0.  1.
       -2   -1    0    0    0  501  0.00000000000E+00  0.00000000000E+00 -0.71061286260E+03  0.71061286260E+03  0.25500000920E-02 0. -1.
    10030    2    1    2    0    0  0.00000000000E+00  0.00000000000E+00  0.12169072202E+04  0.26381329454E+04  0.23407012315E+04 0.  0.
        3    1    3    3  502    0 -0.49485176731E+03  0.73369838719E+03 -0.25471457283E+03  0.92090776888E+03  0.10100000352E+00 0. -1.
       -3    1    3    3    0  502  0.49485176731E+03 -0.73369838719E+03  0.14716217931E+04  0.17172251766E+04  0.10100000352E+00 0.  1.
</event>
<event>
 5   0  0.5843670E-05  0.2329064E+04  0.7818609E-02  0.8466549E-01
       -1   -1    0    0    0  501  0.00000000000E+00  0.00000000000E+00  0.60390310930E+03  0.60390310932E+03  0.50400001928E-02 0.  1.
        1   -1    0    0  501    0  0.00000000000E+00  0.00000000000E+00 -0.22456157721E+04  0.22456157721E+04  0.50400001928E-02 0. -1.
    10030    2    1    2    0    0  0.00000000000E+00  0.00000000000E+00 -0.16417126628E+04  0.28495188814E+04  0.23290636291E+04 0.  0.
        2    1    3    3  502    0 -0.86541924246E+02 -0.68927205282E+03  0.32263740777E+03  0.76595062788E+03  0.25500000920E-02 0.  1.
       -2    1    3    3    0  502  0.86541924246E+02  0.68927205282E+03 -0.19643500706E+04  0.20835682536E+04  0.25500000920E-02 0. -1.
</event>
<event>
 5   0  0.5663790E-05  0.2112090E+04  0.7818609E-02  0.8555936E-01
        1   -1    0    0  501    0  0.00000000000E+00  0.00000000000E+00  0.64180497398E+03  0.64180497400E+03  0.50400001928E-02 0. -1.
       -1   -1    0    0    0  501  0.00000000000E+00  0.00000000000E+00 -0.17376483939E+04  0.17376483939E+04  0.50400001928E-02 0.  1.
    10030    2    1    2    0    0  0.00000000000E+00  0.00000000000E+00 -0.10958434199E+04  0.23794533679E+04  0.21120903222E+04 0.  0.
        3    1    3    3  502    0  0.80782147650E+03 -0.11606941227E+03 -0.13029734590E+04  0.15374613789E+04  0.10100000352E+00 0.  1.
       -3    1    3    3    0  502 -0.80782147650E+03  0.11606941227E+03  0.20713003909E+03  0.84199198907E+03  0.10100000352E+00 0. -1.
</event>
<event>
 5   0  0.4489500E-05  0.2315217E+04  0.7818609E-02  0.8471945E-01
        3   -1    0    0  501    0  0.00000000000E+00  0.00000000000E+00  0.12288117084E+04  0.12288117126E+04  0.10100000352E+00 0. -1.
       -3   -1    0    0    0  501  0.00000000000E+00  0.00000000000E+00 -0.10905307510E+04  0.10905307557E+04  0.10100000352E+00 0.  1.
    10030    2    1    2    0    0  0.00000000000E+00  0.00000000000E+00  0.13828095740E+03  0.23193424683E+04  0.23152165907E+04 0.  0.
        4    1    3    3  502    0  0.26524070157E+03 -0.23926786451E+03  0.11722174553E+04  0.12254375203E+04  0.12699999809E+01 0. -1.
       -4    1    3    3    0  502 -0.26524070157E+03  0.23926786451E+03 -0.10339364979E+04  0.10939049480E+04  0.12699999809E+01 0.  1.
</event>
<event>
 5   0  0.5843670E-05  0.2403191E+04  0.7818609E-02  0.8438310E-01
       -1   -1    0    0    0  501  0.00000000000E+00  0.00000000000E+00  0.89589607230E+03  0.89589607231E+03  0.50400001928E-02 0.  1.
        1   -1    0    0  501    0  0.00000000000E+00  0.00000000000E+00 -0.16116060080E+04  0.16116060080E+04  0.50400001928E-02 0. -1.
    10030    2    1    2    0    0  0.00000000000E+00  0.00000000000E+00 -0.71570993567E+03  0.25075020803E+04  0.24031907895E+04 0.  0.
        2    1    3    3  502    0  0.64772026931E+03 -0.49218937981E+02 -0.14126069061E+04  0.15548062009E+04  0.25500000920E-02 0. -1.
       -2    1    3    3    0  502 -0.64772026931E+03  0.49218937981E+02  0.69689697046E+03  0.95269587938E+03  0.25500000920E-02 0.  1.
</event>
<event>
 5   0  0.5642466E-05  0.2306858E+04  0.7818609E-02  0.8475222E-01
       -1   -1    0    0    0  501  0.00000000000E+00  0.00000000000E+00  0.12073324822E+04  0.12073324822E+04  0.50400001928E-02 0.  1.
        1   -1    0    0  501    0  0.00000000000E+00  0.00000000000E+00 -0.11019316668E+04  0.11019316668E+04  0.50400001928E-02 0. -1.
    10030    2    1    2    0    0  0.00000000000E+00  0.00000000000E+00  0.10540081542E+03  0.23092641490E+04  0.23068575114E+04 0.  0.
        1    1    3    3  502    0 -0.10887625108E+04  0.19673092987E+03  0.37906358487E+03  0.11695281378E+04  0.50400001928E-02 0.  1.
       -1    1    3    3    0  502  0.10887625108E+04 -0.19673092987E+03 -0.27366276945E+03  0.11397360112E+04  0.50400001928E-02 0. -1.
</event>
<event>
 5   0  0.1237296E-04  0.2341681E+04  0.7818609E-02  0.8461666E-01
       -2   -1    0    0    0  501  0.00000000000E+00  0.00000000000E+00  0.12220378916E+04  0.12220378916E+04  0.25500000920E-02 0.  1.
        2   -1    0    0  501    0  0.00000000000E+00  0.00000000000E+00 -0.11217881809E+04  0.11217881809E+04  0.25500000920E-02 0. -1.
    10030    2    1    2    0    0  0.00000000000E+00  0.00000000000E+00  0.10024971075E+03  0.23438260725E+04  0.23416811597E+04 0.  0.
        1    1    3    3  502    0  0.55065798126E+03 -0.38046993120E+02 -0.98338856091E+03  0.11277077847E+04  0.50400001928E-02 0. -1.
       -1    1    3    3    0  502 -0.55065798126E+03  0.38046993120E+02  0.10836382717E+04  0.12161182878E+04  0.50400001928E-02 0.  1.
</event>
<event>
 5   0  0.5663790E-05  0.2357463E+04  0.7818609E-02  0.8455603E-01
        1   -1    0    0  501    0  0.00000000000E+00  0.00000000000E+00  0.18894865091E+04  0.18894865091E+04  0.50400001928E-02 0.  1.
       -1   -1    0    0    0  501  0.00000000000E+00  0.00000000000E+00 -0.73533621245E+03  0.73533621246E+03  0.50400001928E-02 0. -1.
    10030    2    1    2    0    0  0.00000000000E+00  0.00000000000E+00  0.11541502966E+04  0.26248227216E+04  0.23574629186E+04 0.  0.
        3    1    3    3  502    0  0.45645883447E+03  0.72359650335E+03 -0.32572203531E+03  0.91544602338E+03  0.10100000352E+00 0. -1.
       -3    1    3    3    0  502 -0.45645883447E+03 -0.72359650335E+03  0.14798723320E+04  0.17093766982E+04  0.10100000352E+00 0.  1.
</event>
<event>
 5   0  0.1270613E-04  0.2018887E+04  0.7818609E-02  0.8597841E-01
        2   -1    0    0  501    0  0.00000000000E+00  0.00000000000E+00  0.13456204563E+04  0.13456204563E+04  0.25500000920E-02 0. -1.
       -2   -1    0    0    0  501  0.00000000000E+00  0.00000000000E+00 -0.75725399969E+03  0.75725399969E+03  0.25500000920E-02 0.  1.
    10030    2    1    2    0    0  0.00000000000E+00  0.00000000000E+00  0.58836645658E+03  0.21028744560E+04  0.20188872901E+04 0.  0.
        2    1    3    3  502    0 -0.82410553959E+03 -0.23022613857E+03  0.85202091053E+03  0.12075154853E+04  0.25500000920E-02 0. -1.
       -2    1    3    3    0  502  0.82410553959E+03  0.23022613857E+03 -0.26365445395E+03  0.89535897067E+03  0.25500000920E-02 0.  1.
</event>
<event>
 5   0  0.5924654E-05  0.2274492E+04  0.7818609E-02  0.8488047E-01
        1   -1    0    0  501    0  0.00000000000E+00  0.00000000000E+00  0.71010738756E+03  0.71010738758E+03  0.50400001928E-02 0. -1.
       -1   -1    0    0    0  501  0.00000000000E+00  0.00000000000E+00 -0.18213133967E+04  0.18213133967E+04  0.50400001928E-02 0.  1.
    10030    2    1    2    0    0  0.00000000000E+00  0.00000000000E+00 -0.11112060091E+04  0.25314207843E+04  0.22744916778E+04 0.  0.
        5    1    3    3  502    0  0.19065895818E+03 -0.53266356278E+03  0.54235707611E+03  0.78374396167E+03  0.46999998093E+01 0. -1.
       -5    1    3    3    0  502 -0.19065895818E+03  0.53266356278E+03 -0.16535630853E+04  0.17476768226E+04  0.46999998093E+01 0.  1.
</event>
<event>
 5   0  0.1281432E-04  0.2393559E+04  0.7818609E-02  0.8441919E-01
       -2   -1    0    0    0  501  0.00000000000E+00  0.00000000000E+00  0.68922570054E+03  0.68922570054E+03  0.25500000920E-02 0.  1.
        2   -1    0    0  501    0  0.00000000000E+00  0.00000000000E+00 -0.20781026709E+04  0.20781026710E+04  0.25500000920E-02 0. -1.
    10030    2    1    2    0    0  0.00000000000E+00  0.00000000000E+00 -0.13888769704E+04  0.27673283715E+04  0.23935594993E+04 0.  0.
        4    1    3    3  502    0 -0.33940595471E+03  0.51197949489E+03  0.49306425137E+03  0.78767593220E+03  0.12699999809E+01 0.  1.
       -4    1    3    3    0  502  0.33940595471E+03 -0.51197949489E+03 -0.18819412218E+04  0.19796524393E+04  0.12699999809E+01 0. -1.
</event>
<event>
 5   0  0.1237296E-04  0.2338809E+04  0.7818609E-02  0.8462774E-01
       -2   -1    0    0    0  501  0.00000000000E+00  0.00000000000E+00  0.12787935941E+04  0.12787935941E+04  0.25500000920E-02 0. -1.
        2   -1    0    0  501    0  0.00000000000E+00  0.00000000000E+00 -0.10693728397E+04  0.10693728397E+04  0.25500000920E-02 0.  1.
    10030    2    1    2    0    0  0.00000000000E+00  0.00000000000E+00  0.20942075440E+03  0.23481664337E+04  0.23388092158E+04 0.  0.
        1    1    3    3  502    0  0.75647828382E+03 -0.60060143950E+03 -0.55711252258E+03  0.11150586737E+04  0.50400001928E-02 0.  1.
       -1    1    3    3    0  502 -0.75647828382E+03  0.60060143950E+03  0.76653327698E+03  0.12331077600E+04  0.50400001928E-02 0. -1.
</event>
<event>
 5   0  0.1237296E-04  0.2314272E+04  0.7818609E-02  0.8472315E-01
        2   -1    0    0  501    0  0.00000000000E+00  0.00000000000E+00  0.97648465395E+03  0.97648465395E+03  0.25500000920E-02 0.  1.
       -2   -1    0    0    0  501  0.00000000000E+00  0.00000000000E+00 -0.13712081819E+04  0.13712081819E+04  0.25500000920E-02 0. -1.
    10030    2    1    2    0    0  0.00000000000E+00  0.00000000000E+00 -0.39472352797E+03  0.23476928359E+04  0.23142720212E+04 0.  0.
        1    1    3    3  502    0  0.37649300514E+03  0.72820343617E+03  0.63109360954E+03  0.10345561229E+04  0.50400001928E-02 0.  1.
       -1    1    3    3    0  502 -0.37649300514E+03 -0.72820343617E+03 -0.10258171375E+04  0.13131367130E+04  0.50400001928E-02 0. -1.
</event>
<event>
 5   0  0.5632156E-05  0.2260310E+04  0.7818609E-02  0.8493737E-01
       -1   -1    0    0    0  501  0.00000000000E+00  0.00000000000E+00  0.96468535323E+03  0.96468535324E+03  0.50400001928E-02 0. -1.
        1   -1    0    0  501    0  0.00000000000E+00  0.00000000000E+00 -0.13240069566E+04  0.13240069566E+04  0.50400001928E-02 0.  1.
    10030    2    1    2    0    0  0.00000000000E+00  0.00000000000E+00 -0.35932160337E+03  0.22886923098E+04  0.22603098183E+04 0.  0.
        4    1    3    3  502    0 -0.82835469120E+03  0.53653229299E+03  0.37789877251E+03  0.10568100544E+04  0.12699999809E+01 0. -1.
       -4    1    3    3    0  502  0.82835469120E+03 -0.53653229299E+03 -0.73722037588E+03  0.12318822555E+04  0.12699999809E+01 0.  1.
</event>
<event>
 5   0  0.1281432E-04  0.2352385E+04  0.7818609E-02  0.8457548E-01
        2   -1    0    0  501    0  0.00000000000E+00  0.00000000000E+00  0.12625173401E+04  0.12625173401E+04  0.25500000920E-02 0.  1.
       -2   -1    0    0    0  501  0.00000000000E+00  0.00000000000E+00 -0.10957704212E+04  0.10957704212E+04  0.25500000920E-02 0. -1.
    10030    2    1    2    0    0  0.00000000000E+00  0.00000000000E+00  0.16674691897E+03  0.23582877613E+04  0.23523853065E+04 0.  0.
        4    1    3    3  502    0  0.26115473264E+03 -0.20420655495E+03 -0.10479639562E+04  0.10991506621E+04  0.12699999809E+01 0. -1.
       -4    1    3    3    0  502 -0.26115473264E+03  0.20420655495E+03  0.12147108752E+04  0.12591370992E+04  0.12699999809E+01 0.  1.
</event>
<event>
 5   0  0.1281432E-04  0.2304026E+04  0.7818609E-02  0.8476335E-01
        2   -1    0    0  501    0  0.00000000000E+00  0.00000000000E+00  0.13302155004E+04  0.13302155004E+04  0.25500000920E-02 0.  1.
       -2   -1    0    0    0  501  0.00000000000E+00  0.00000000000E+00 -0.99768323300E+03  0.99768323300E+03  0.25500000920E-02 0. -1.
    10030    2    1    2    0    0  0.00000000000E+00  0.00000000000E+00  0.33253226743E+03  0.23278987334E+04  0.23040257820E+04 0.  0.
        4    1    3    3  502    0  0.91635395796E+03 -0.46199789221E+03 -0.36259360625E+03  0.10884035855E+04  0.12699999809E+01 0. -1.
       -4    1    3    3    0  502 -0.91635395796E+03  0.46199789221E+03  0.69512587368E+03  0.12394951480E+04  0.12699999809E+01 0.  1.
</event>
<event>
 5   0  0.4489500E-05  0.2316934E+04  0.7818609E-02  0.8471274E-01
       -4   -1    0    0    0  501  0.00000000000E+00  0.00000000000E+00  0.11563495624E+04  0.11563502598E+04  0.12699999809E+01 0. -1.
        4   -1    0    0  501    0  0.00000000000E+00  0.00000000000E+00 -0.11605865883E+04  0.11605872832E+04  0.12699999809E+01 0.  1.
    10030    2    1    2    0    0  0.00000000000E+00  0.00000000000E+00 -0.42370258953E+01  0.23169375430E+04  0.23169336689E+04 0.  0.
        3    1    3    3  502    0 -0.28291542518E+02 -0.16858307870E+02  0.11558820340E+04  0.11563511148E+04  0.10100000352E+00 0. -1.
       -3    1    3    3    0  502  0.28291542518E+02  0.16858307870E+02 -0.11601190599E+04  0.11605864282E+04  0.10100000352E+00 0.  1.
</event>
<event>
 5   0  0.1237296E-04  0.2312702E+04  0.7818609E-02  0.8472930E-01
       -2   -1    0    0    0  501  0.00000000000E+00  0.00000000000E+00  0.62704000132E+03  0.62704000132E+03  0.25500000920E-02 0.  1.
        2   -1    0    0  501    0  0.00000000000E+00  0.00000000000E+00 -0.21324760851E+04  0.21324760851E+04  0.25500000920E-02 0. -1.
    10030    2    1    2    0    0  0.00000000000E+00  0.00000000000E+00 -0.15054360838E+04  0.27595160864E+04  0.23127021488E+04 0.  0.
        1    1    3    3  502    0 -0.28962703354E+02 -0.77263114628E+03 -0.17786966094E+04  0.19394739892E+04  0.50400001928E-02 0. -1.
       -1    1    3    3    0  502  0.28962703354E+02  0.77263114628E+03  0.27326052561E+03  0.82004209725E+03  0.50400001928E-02 0.  1.
</event>
<event>
 5   0  0.5663790E-05  0.1406547E+04  0.7818609E-02  0.8949093E-01
        1   -1    0    0  501    0  0.00000000000E+00  0.00000000000E+00  0.32110166448E+03  0.32110166452E+03  0.50400001928E-02 0.  1.
       -1   -1    0    0    0  501  0.00000000000E+00  0.00000000000E+00 -0.15403028363E+04  0.15403028363E+04  0.50400001928E-02 0. -1.
    10030    2    1    2    0    0  0.00000000000E+00  0.00000000000E+00 -0.12192011718E+04  0.18614045008E+04  0.14065472684E+04 0.  0.
        3    1    3    3  502    0  0.56544293634E+03 -0.81481196110E+02 -0.66804479218E+02  0.57517627578E+03  0.10100000352E+00 0.  1.
       -3    1    3    3    0  502 -0.56544293634E+03  0.81481196110E+02 -0.11523966926E+04  0.12862282250E+04  0.10100000352E+00 0. -1.
</event>
<event>
 5   0  0.5924654E-05  0.2281980E+04  0.7818609E-02  0.8485060E-01
        1   -1    0    0  501    0  0.00000000000E+00  0.00000000000E+00  0.11477492516E+04  0.11477492516E+04  0.50400001928E-02 0. -1.
       -1   -1    0    0    0  501  0.00000000000E+00  0.00000000000E+00 -0.11342707886E+04  0.11342707886E+04  0.50400001928E-02 0.  1.
    10030    2    1    2    0    0  0.00000000000E+00  0.00000000000E+00  0.13478462980E+02  0.22820200402E+04  0.22819802354E+04 0.  0.
        5    1    3    3  502    0  0.38310297274E+03  0.81343293941E+03 -0.69569406565E+03  0.11368611866E+04  0.46999998093E+01 0. -1.
       -5    1    3    3    0  502 -0.38310297274E+03 -0.81343293941E+03  0.70917252863E+03  0.11451588536E+04  0.46999998093E+01 0.  1.
</event>
<event>
 5   0  0.5924654E-05  0.2308913E+04  0.7818609E-02  0.8474415E-01
        1   -1    0    0  501    0  0.00000000000E+00  0.00000000000E+00  0.14884316870E+04  0.14884316870E+04  0.50400001928E-02 0. -1.
       -1   -1    0    0    0  501  0.00000000000E+00  0.00000000000E+00 -0.89541880941E+03  0.89541880942E+03  0.50400001928E-02 0.  1.
    10030    2    1    2    0    0  0.00000000000E+00  0.00000000000E+00  0.59301287762E+03  0.23838504965E+04  0.23089129296E+04 0.  0.
        5    1    3    3  502    0  0.22047098077E+03 -0.17268769087E+03 -0.85980676613E+03  0.90427775435E+03  0.46999998093E+01 0.  1.
       -5    1    3    3    0  502 -0.22047098077E+03  0.17268769087E+03  0.14528196437E+04  0.14795727421E+04  0.46999998093E+01 0. -1.
</event>
<event>
 5   0  0.5843670E-05  0.2301453E+04  0.7818609E-02  0.8477349E-01
       -1   -1    0    0    0  501  0.00000000000E+00  0.00000000000E+00  0.10864038891E+04  0.10864038891E+04  0.50400001928E-02 0.  1.
        1   -1    0    0  501    0  0.00000000000E+00  0.00000000000E+00 -0.12188571138E+04  0.12188571138E+04  0.50400001928E-02 0. -1.
    10030    2    1    2    0    0  0.00000000000E+00  0.00000000000E+00 -0.13245322469E+03  0.23052610029E+04  0.23014526793E+04 0.  0.
        2    1    3    3  502    0  0.55224049808E+03 -0.95211721950E+03 -0.40245205025E+03  0.11719489836E+04  0.25500000920E-02 0. -1.
       -2    1    3    3    0  502 -0.55224049808E+03  0.95211721950E+03  0.26999882557E+03  0.11333120193E+04  0.25500000920E-02 0.  1.
</event>
<event>
 5   0  0.1257524E-04  0.2267010E+04  0.7818609E-02  0.8491043E-01
       -2   -1    0    0    0  501  0.00000000000E+00  0.00000000000E+00  0.16080710315E+04  0.16080710315E+04  0.25500000920E-02 0. -1.
        2   -1    0    0  501    0  0.00000000000E+00  0.00000000000E+00 -0.79899069397E+03  0.79899069397E+03  0.25500000920E-02 0.  1.
    10030    2    1    2    0    0  0.00000000000E+00  0.00000000000E+00  0.80908033750E+03  0.24070617255E+04  0.22670101803E+04 0.  0.
        3    1    3    3  502    0 -0.72933192243E+03  0.35303670708E+03  0.12461450289E+04  0.14864176442E+04  0.10100000352E+00 0. -1.
       -3    1    3    3    0  502  0.72933192243E+03 -0.35303670708E+03 -0.43706469144E+03  0.92064408125E+03  0.10100000352E+00 0.  1.
</event>
<event>
 5   0  0.1234988E-04  0.2264163E+04  0.7818609E-02  0.8492186E-01
       -2   -1    0    0    0  501  0.00000000000E+00  0.00000000000E+00  0.21931085595E+04  0.21931085595E+04  0.25500000920E-02 0.  1.
        2   -1    0    0  501    0  0.00000000000E+00  0.00000000000E+00 -0.58438011269E+03  0.58438011270E+03  0.25500000920E-02 0. -1.
    10030    2    1    2    0    0  0.00000000000E+00  0.00000000000E+00  0.16087284468E+04  0.27774886722E+04  0.22641634456E+04 0.  0.
        5    1    3    3  502    0  0.58380233585E+03 -0.89105958184E+03  0.33439441197E+03  0.11165366355E+04  0.46999998093E+01 0. -1.
       -5    1    3    3    0  502 -0.58380233585E+03  0.89105958184E+03  0.12743340348E+04  0.16609520366E+04  0.46999998093E+01 0.  1.
</event>
<event>
 5   0  0.1270613E-04  0.2302688E+04  0.7818609E-02  0.8476862E-01
       -2   -1    0    0    0  501  0.00000000000E+00  0.00000000000E+00  0.10455098980E+04  0.10455098980E+04  0.25500000920E-02 0.  1.
        2   -1    0    0  501    0  0.00000000000E+00  0.00000000000E+00 -0.12678913856E+04  0.12678913856E+04  0.25500000920E-02 0. -1.
    10030    2    1    2    0    0  0.00000000000E+00  0.00000000000E+00 -0.22238148765E+03  0.23134012836E+04  0.23026879886E+04 0.  0.
        2    1    3    3  502    0 -0.63659493330E+03  0.74028524662E+02  0.84974227408E+03  0.10643285507E+04  0.25500000920E-02 0.  1.
       -2    1    3    3    0  502  0.63659493330E+03 -0.74028524662E+02 -0.10721237617E+04  0.12490727329E+04  0.25500000920E-02 0. -1.
</event>
<event>
 5   0  0.5843670E-05  0.2497970E+04  0.7818609E-02  0.8403709E-01
       -1   -1    0    0    0  501  0.00000000000E+00  0.00000000000E+00  0.10473628970E+04  0.10473628970E+04  0.50400001928E-02 0. -1.
        1   -1    0    0  501    0  0.00000000000E+00  0.00000000000E+00 -0.14894197817E+04  0.14894197817E+04  0.50400001928E-02 0.  1.
    10030    2    1    2    0    0  0.00000000000E+00  0.00000000000E+00 -0.44205688474E+03  0.25367826787E+04  0.24979695894E+04 0.  0.
        2    1    3    3  502    0  0.51063289738E+03  0.10768474356E+04 -0.60048734095E+03  0.13345154185E+04  0.25500000920E-02 0.  1.
       -2    1    3    3    0  502 -0.51063289738E+03 -0.10768474356E+04  0.15843045621E+03  0.12022672602E+04  0.25500000920E-02 0. -1.
</event>
<event>
 5   0  0.1237296E-04  0.2244044E+04  0.7818609E-02  0.8500317E-01
        2   -1    0    0  501    0  0.00000000000E+00  0.00000000000E+00  0.15961574451E+04  0.15961574451E+04  0.25500000920E-02 0. -1.
       -2   -1    0    0    0  501  0.00000000000E+00  0.00000000000E+00 -0.78872732675E+03  0.78872732676E+03  0.25500000920E-02 0.  1.
    10030    2    1    2    0    0  0.00000000000E+00  0.00000000000E+00  0.80743011837E+03  0.23848847719E+04  0.22440436669E+04 0.  0.
        1    1    3    3  502    0  0.50350144623E+03 -0.12916274725E+03  0.14604749722E+04  0.15502205863E+04  0.50400001928E-02 0. -1.
       -1    1    3    3    0  502 -0.50350144623E+03  0.12916274725E+03 -0.65304485382E+03  0.83466418563E+03  0.50400001928E-02 0.  1.
</event>
<event>
 5   0  0.4489500E-05  0.2200429E+04  0.7818609E-02  0.8518250E-01
       -3   -1    0    0    0  501  0.00000000000E+00  0.00000000000E+00  0.13147673300E+04  0.13147673339E+04  0.10100000352E+00 0.  1.
        3   -1    0    0  501    0  0.00000000000E+00  0.00000000000E+00 -0.92067397293E+03  0.92067397847E+03  0.10100000352E+00 0. -1.
    10030    2    1    2    0    0  0.00000000000E+00  0.00000000000E+00  0.39409335708E+03  0.22354413124E+04  0.22004291143E+04 0.  0.
        1    1    3    3  502    0 -0.45523931261E+03  0.97271163685E+03  0.43972264329E+03  0.11605028062E+04  0.50400001928E-02 0.  1.
       -1    1    3    3    0  502  0.45523931261E+03 -0.97271163685E+03 -0.45629286203E+02  0.10749385061E+04  0.50400001928E-02 0. -1.
</event>
<event>
 5   0  0.4489500E-05  0.2234148E+04  0.7818609E-02  0.8504348E-01
        4   -1    0    0  501    0  0.00000000000E+00  0.00000000000E+00  0.90279931858E+03  0.90280021185E+03  0.12699999809E+01 0. -1.
       -4   -1    0    0    0  501  0.00000000000E+00  0.00000000000E+00 -0.13822040643E+04  0.13822046477E+04  0.12699999809E+01 0.  1.
    10030    2    1    2    0    0  0.00000000000E+00  0.00000000000E+00 -0.47940474572E+03  0.22850048596E+04  0.22341482265E+04 0.  0.
        4    1    3    3  502    0  0.25001573258E+03  0.25275702427E+01  0.87381341183E+03  0.90888159115E+03  0.12699999809E+01 0. -1.
       -4    1    3    3    0  502 -0.25001573258E+03 -0.25275702427E+01 -0.13532181575E+04  0.13761232684E+04  0.12699999809E+01 0.  1.
</event>
<event>
 5   0  0.5642466E-05  0.2332101E+04  0.7818609E-02  0.8465371E-01
        1   -1    0    0  501    0  0.00000000000E+00  0.00000000000E+00  0.10715311322E+04  0.10715311322E+04  0.50400001928E-02 0. -1.
       -1   -1    0    0    0  501  0.00000000000E+00  0.00000000000E+00 -0.12689070581E+04  0.12689070581E+04  0.50400001928E-02 0.  1.
    10030    2    1    2    0    0  0.00000000000E+00  0.00000000000E+00 -0.19737592585E+03  0.23404381903E+04  0.23321006982E+04 0.  0.
        1    1    3    3  502    0 -0.48325156541E+03 -0.10066755130E+03 -0.11588772499E+04  0.12596279259E+04  0.50400001928E-02 0.  1.
       -1    1    3    3    0  502  0.48325156541E+03  0.10066755130E+03  0.96150132407E+03  0.10808102644E+04  0.50400001928E-02 0. -1.
</event>
<event>
 5   0  0.5663790E-05  0.1774331E+04  0.7818609E-02  0.8720070E-01
       -1   -1    0    0    0  501  0.00000000000E+00  0.00000000000E+00  0.98580566627E+03  0.98580566628E+03  0.50400001928E-02 0. -1.
        1   -1    0    0  501    0  0.00000000000E+00  0.00000000000E+00 -0.79839548354E+03  0.79839548356E+03  0.50400001928E-02 0.  1.
    10030    2    1    2    0    0  0.00000000000E+00  0.00000000000E+00  0.18741018272E+03  0.17842011498E+04  0.17743311885E+04 0.  0.
        3    1    3    3  502    0 -0.43733612285E+03 -0.15645261766E+02 -0.68230989927E+03  0.81058896329E+03  0.10100000352E+00 0.  1.
       -3    1    3    3    0  502  0.43733612285E+03  0.15645261766E+02  0.86972008200E+03  0.97361218655E+03  0.10100000352E+00 0. -1.
</event>
<event>
 5   0  0.5843670E-05  0.2150409E+04  0.7818609E-02  0.8539357E-01
       -1   -1    0    0    0  501  0.00000000000E+00  0.00000000000E+00  0.99345786318E+03  0.99345786319E+03  0.50400001928E-02 0. -1.
        1   -1    0    0  501    0  0.00000000000E+00  0.00000000000E+00 -0.11636781743E+04  0.11636781743E+04  0.50400001928E-02 0.  1.
    10030    2    1    2    0    0  0.00000000000E+00  0.00000000000E+00 -0.17022031111E+03  0.21571360375E+04  0.21504094796E+04 0.  0.
        2    1    3    3  502    0  0.42751013687E+02 -0.10208668584E+04  0.25070325307E+03  0.10520688727E+04  0.25500000920E-02 0. -1.
       -2    1    3    3    0  502 -0.42751013687E+02  0.10208668584E+04 -0.42092356419E+03  0.11050671648E+04  0.25500000920E-02 0.  1.
</event>
<event>
 5   0  0.5663790E-05  0.2299739E+04  0.7818609E-02  0.8478024E-01
        1   -1    0    0  501    0  0.00000000000E+00  0.00000000000E+00  0.13174364477E+04  0.13174364477E+04  0.50400001928E-02 0. -1.
       -1   -1    0    0    0  501  0.00000000000E+00  0.00000000000E+00 -0.10036158964E+04  0.10036158964E+04  0.50400001928E-02 0.  1.
    10030    2    1    2    0    0  0.00000000000E+00  0.00000000000E+00  0.31382055129E+03  0.23210523441E+04  0.22997392560E+04 0.  0.
        3    1    3    3  502    0  0.83747947391E+03 -0.14286231627E+03 -0.62513774213E+03  0.10547884705E+04  0.10100000352E+00 0.  1.
       -3    1    3    3    0  502 -0.83747947391E+03  0.14286231627E+03  0.93895829341E+03  0.12662638736E+04  0.10100000352E+00 0. -1.
</event>
<event>
 5   0  0.5632156E-05  0.2293639E+04  0.7818609E-02  0.8480433E-01
        1   -1    0    0  501    0  0.00000000000E+00  0.00000000000E+00  0.17312503144E+04  0.17312503144E+04  0.50400001928E-02 0. -1.
       -1   -1    0    0    0  501  0.00000000000E+00  0.00000000000E+00 -0.75967947841E+03  0.75967947843E+03  0.50400001928E-02 0.  1.
    10030    2    1    2    0    0  0.00000000000E+00  0.00000000000E+00  0.97157083595E+03  0.24909297928E+04  0.22936393229E+04 0.  0.
        4    1    3    3  502    0 -0.14353710167E+03  0.75773100297E+03 -0.43600805282E+03  0.88592539609E+03  0.12699999809E+01 0.  1.
       -4    1    3    3    0  502  0.14353710167E+03 -0.75773100297E+03  0.14075788888E+04  0.16050043967E+04  0.12699999809E+01 0. -1.
</event>
<event>
 5   0  0.5843670E-05  0.1985787E+04  0.7818609E-02  0.8613295E-01
        1   -1    0    0  501    0  0.00000000000E+00  0.00000000000E+00  0.92278329292E+03  0.92278329293E+03  0.50400001928E-02 0. -1.
       -1   -1    0    0    0  501  0.00000000000E+00  0.00000000000E+00 -0.10683307833E+04  0.10683307833E+04  0.50400001928E-02 0.  1.
    10030    2    1    2    0    0  0.00000000000E+00  0.00000000000E+00 -0.14554749041E+03  0.19911140763E+04  0.19857872980E+04 0.  0.
        2    1    3    3  502    0  0.40556569513E+03 -0.59241320799E+03 -0.76047127753E+03  0.10458267094E+04  0.25500000920E-02 0.  1.
       -2    1    3    3    0  502 -0.40556569513E+03  0.59241320799E+03  0.61492378711E+03  0.94528736691E+03  0.25500000920E-02 0. -1.
</event>
<event>
 5   0  0.1270613E-04  0.2123550E+04  0.7818609E-02  0.8550940E-01
        2   -1    0    0  501    0  0.00000000000E+00  0.00000000000E+00  0.19063849066E+04  0.19063849066E+04  0.25500000920E-02 0. -1.
       -2   -1    0    0    0  501  0.00000000000E+00  0.00000000000E+00 -0.59136313987E+03  0.59136313987E+03  0.25500000920E-02 0.  1.
    10030    2    1    2    0    0  0.00000000000E+00  0.00000000000E+00  0.13150217668E+04  0.24977480465E+04  0.21235496360E+04 0.  0.
        2    1    3    3  502    0 -0.53642126562E+03 -0.76211803802E+02 -0.41652723762E+03  0.68341126193E+03  0.25500000920E-02 0.  1.
       -2    1    3    3    0  502  0.53642126562E+03  0.76211803802E+02  0.17315490044E+04  0.18143367846E+04  0.25500000920E-02 0. -1.
</event>
<event>
 5   0  0.5843670E-05  0.2270599E+04  0.7818609E-02  0.8489604E-01
       -1   -1    0    0    0  501  0.00000000000E+00  0.00000000000E+00  0.65502234014E+03  0.65502234016E+03  0.50400001928E-02 0.  1.
        1   -1    0    0  501    0  0.00000000000E+00  0.00000000000E+00 -0.19677269525E+04  0.19677269525E+04  0.50400001928E-02 0. -1.
    10030    2    1    2    0    0  0.00000000000E+00  0.00000000000E+00 -0.13127046123E+04  0.26227492926E+04  0.22705991396E+04 0.  0.
        2    1    3    3  502    0  0.53139223330E+03  0.98940496867E+03 -0.84826861439E+03  0.14074301190E+04  0.25500000920E-02 0. -1.
       -2    1    3    3    0  502 -0.53139223330E+03 -0.98940496867E+03 -0.46443599793E+03  0.12153191736E+04  0.25500000920E-02 0.  1.
</event>
<event>
 5   0  0.5924654E-05  0.2019842E+04  0.7818609E-02  0.8597399E-01
        1   -1    0    0  501    0  0.00000000000E+00  0.00000000000E+00  0.18152673780E+04  0.18152673780E+04  0.50400001928E-02 0.  1.
       -1   -1    0    0    0  501  0.00000000000E+00  0.00000000000E+00 -0.56186814661E+03  0.56186814663E+03  0.50400001928E-02 0. -1.
    10030    2    1    2    0    0  0.00000000000E+00  0.00000000000E+00  0.12533992313E+04  0.23771355246E+04  0.20198424862E+04 0.  0.
        5    1    3    3  502    0  0.33747904523E+03 -0.33855313709E+03 -0.42027654484E+03  0.63652556645E+03  0.46999998093E+01 0. -1.
       -5    1    3    3    0  502 -0.33747904523E+03  0.33855313709E+03  0.16736757762E+04  0.17406099581E+04  0.46999998093E+01 0.  1.
</event>
<event>
 5   0  0.4489500E-05  0.2313836E+04  0.7818609E-02  0.8472486E-01
       -3   -1    0    0    0  501  0.00000000000E+00  0.00000000000E+00  0.17033597607E+04  0.17033597637E+04  0.10100000352E+00 0.  1.
        3   -1    0    0  501    0  0.00000000000E+00  0.00000000000E+00 -0.78577572510E+03  0.78577573159E+03  0.10100000352E+00 0. -1.
    10030    2    1    2    0    0  0.00000000000E+00  0.00000000000E+00  0.91758403562E+03  0.24891354953E+04  0.23138355714E+04 0.  0.
        4    1    3    3  502    0 -0.37271050361E+03 -0.94641770135E+03  0.10517675562E+04  0.14631596598E+04  0.12699999809E+01 0.  1.
       -4    1    3    3    0  502  0.37271050361E+03  0.94641770135E+03 -0.13418352058E+03  0.10259758355E+04  0.12699999809E+01 0. -1.
</event>
<event>
 5   0  0.1257524E-04  0.1480066E+04  0.7818609E-02  0.8897818E-01
        2   -1    0    0  501    0  0.00000000000E+00  0.00000000000E+00  0.26629411869E+04  0.26629411869E+04  0.25500000920E-02 0.  1.
       -2   -1    0    0    0  501  0.00000000000E+00  0.00000000000E+00 -0.20565571946E+03  0.20565571948E+03  0.25500000920E-02 0. -1.
    10030    2    1    2    0    0  0.00000000000E+00  0.00000000000E+00  0.24572854674E+04  0.28685969063E+04  0.14800663305E+04 0.  0.
        3    1    3    3  502    0  0.71028296122E+03  0.26089403296E+02  0.16280461289E+04  0.17764337168E+04  0.10100000352E+00 0. -1.
       -3    1    3    3    0  502 -0.71028296122E+03 -0.26089403296E+02  0.82923933847E+03  0.10921631896E+04  0.10100000352E+00 0.  1.
</event>
<event>
 5   0  0.1257524E-04  0.2382712E+04  0.7818609E-02  0.8446004E-01
        2   -1    0    0  501    0  0.00000000000E+00  0.00000000000E+00  0.11205797003E+04  0.11205797003E+04  0.25500000920E-02 0.  1.
       -2   -1    0    0    0  501  0.00000000000E+00  0.00000000000E+00 -0.12666027057E+04  0.12666027057E+04  0.25500000920E-02 0. -1.
    10030    2    1    2    0    0  0.00000000000E+00  0.00000000000E+00 -0.14602300540E+03  0.23871824061E+04  0.23827121357E+04 0.  0.
        3    1    3    3  502    0  0.35704242581E+03 -0.52884491252E+03 -0.10809671206E+04  0.12552474503E+04  0.10100000352E+00 0. -1.
       -3    1    3    3    0  502 -0.35704242581E+03  0.52884491252E+03  0.93494411524E+03  0.11319349558E+04  0.10100000352E+00 0.  1.
</event>
<event>
 5   0  0.1281432E-04  0.2257838E+04  0.7818609E-02  0.8494733E-01
       -2   -1    0    0    0  501  0.00000000000E+00  0.00000000000E+00  0.11936597223E+04  0.11936597223E+04  0.25500000920E-02 0. -1.
        2   -1    0    0  501    0  0.00000000000E+00  0.00000000000E+00 -0.10676895195E+04  0.10676895195E+04  0.25500000920E-02 0.  1.
    10030    2    1    2    0    0  0.00000000000E+00  0.00000000000E+00  0.12597020288E+03  0.22613492418E+04  0.22578378820E+04 0.  0.
        4    1    3    3  502    0 -0.58486546968E+02  0.79055327655E+03  0.86801445342E+03  0.11755194016E+04  0.12699999809E+01 0. -1.
       -4    1    3    3    0  502  0.58486546968E+02 -0.79055327655E+03 -0.74204425054E+03  0.10858298402E+04  0.12699999809E+01 0.  1.
</event>
<event>
 5   0  0.1257524E-04  0.2252150E+04  0.7818609E-02  0.8497030E-01
       -2   -1    0    0    0  501  0.00000000000E+00  0.00000000000E+00  0.42461737703E+03  0.42461737704E+03  0.25500000920E-02 0. -1.
        2   -1    0    0  501    0  0.00000000000E+00  0.00000000000E+00 -0.29863247415E+04  0.29863247415E+04  0.25500000920E-02 0.  1.
    10030    2    1    2    0    0  0.00000000000E+00  0.00000000000E+00 -0.25617073645E+04  0.34109421185E+04  0.22521504201E+04 0.  0.
        3    1    3    3  502    0 -0.70839916566E+03 -0.67057675148E+03 -0.42874854497E+03  0.10655176594E+04  0.10100000352E+00 0. -1.
       -3    1    3    3    0  502  0.70839916566E+03  0.67057675148E+03 -0.21329588195E+04  0.23454244591E+04  0.10100000352E+00 0.  1.
</event>
<event>
 5   0  0.1237296E-04  0.2149425E+04  0.7818609E-02  0.8539778E-01
        2   -1    0    0  501    0  0.00000000000E+00  0.00000000000E+00  0.19009823252E+04  0.19009823252E+04  0.25500000920E-02 0.  1.
       -2   -1    0    0    0  501  0.00000000000E+00  0.00000000000E+00 -0.60758421721E+03  0.60758421721E+03  0.25500000920E-02 0. -1.
    10030    2    1    2    0    0  0.00000000000E+00  0.00000000000E+00  0.12933981080E+04  0.25085665424E+04  0.21494249073E+04 0.  0.
        1    1    3    3  502    0  0.45377956783E+02  0.40448102820E+03 -0.51415265902E+03  0.65575682836E+03  0.50400001928E-02 0. -1.
       -1    1    3    3    0  502 -0.45377956783E+02 -0.40448102820E+03  0.18075507670E+04  0.18528097141E+04  0.50400001928E-02 0.  1.
</event>
<event>
 5   0  0.1257524E-04  0.2240603E+04  0.7818609E-02  0.8501716E-01
        2   -1    0    0  501    0  0.00000000000E+00  0.00000000000E+00  0.15021632852E+04  0.15021632852E+04  0.25500000920E-02 0. -1.
       -2   -1    0    0    0  501  0.00000000000E+00  0.00000000000E+00 -0.83551196029E+03  0.83551196029E+03  0.25500000920E-02 0.  1.
    10030    2    1    2    0    0  0.00000000000E+00  0.00000000000E+00  0.66665132490E+03  0.23376752455E+04  0.22406029466E+04 0.  0.
        3    1    3    3  502    0 -0.12053280726E+03 -0.73834543411E+03 -0.53670489932E+03  0.92072487576E+03  0.10100000352E+00 0.  1.
       -3    1    3    3    0  502  0.12053280726E+03  0.73834543411E+03  0.12033562242E+04  0.14169503697E+04  0.10100000352E+00 0. -1.
</event>
<event>
 5   0  0.1234988E-04  0.2020461E+04  0.7818609E-02  0.8597114E-01
       -2   -1    0    0    0  501  0.00000000000E+00  0.00000000000E+00  0.86898382297E+03  0.86898382297E+03  0.25500000920E-02 0.  1.
        2   -1    0    0  501    0  0.00000000000E+00  0.00000000000E+00 -0.11744361461E+04  0.11744361461E+04  0.25500000920E-02 0. -1.
    10030    2    1    2    0    0  0.00000000000E+00  0.00000000000E+00 -0.30545232314E+03  0.20434199691E+04  0.20204613454E+04 0.  0.
        5    1    3    3  502    0 -0.55654823095E+03  0.82141924062E+03 -0.34480107462E+03  0.10504215217E+04  0.46999998093E+01 0. -1.
       -5    1    3    3    0  502  0.55654823095E+03 -0.82141924062E+03  0.39348751471E+02  0.99299844737E+03  0.46999998093E+01 0.  1.
</event>
<event>
 5   0  0.5663790E-05  0.2336070E+04  0.7818609E-02  0.8463833E-01
       -1   -1    0    0    0  501  0.00000000000E+00  0.00000000000E+00  0.79398473548E+03  0.79398473550E+03  0.50400001928E-02 0.  1.
        1   -1    0    0  501    0  0.00000000000E+00  0.00000000000E+00 -0.17183028830E+04  0.17183028830E+04  0.50400001928E-02 0. -1.
    10030    2    1    2    0    0  0.00000000000E+00  0.00000000000E+00 -0.92431814747E+03  0.25122876185E+04  0.23360704271E+04 0.  0.
        3    1    3    3  502    0  0.23196909019E+03  0.10400763811E+04  0.52183309887E+02  0.10669075149E+04  0.10100000352E+00 0.  1.
       -3    1    3    3    0  502 -0.23196909019E+03 -0.10400763811E+04 -0.97650145736E+03  0.14453801036E+04  0.10100000352E+00 0. -1.
</event>
<event>
 5   0  0.5642466E-05  0.2404393E+04  0.7818609E-02  0.8437861E-01
        1   -1    0    0  501    0  0.00000000000E+00  0.00000000000E+00  0.14883457950E+04  0.14883457950E+04  0.50400001928E-02 0. -1.
       -1   -1    0    0    0  501  0.00000000000E+00  0.00000000000E+00 -0.97106230852E+03  0.97106230854E+03  0.50400001928E-02 0.  1.
    10030    2    1    2    0    0  0.00000000000E+00  0.00000000000E+00  0.51728348647E+03  0.24594081035E+04  0.24043930657E+04 0.  0.
        1    1    3    3  502    0 -0.12088063991E+03 -0.11469651326E+04  0.60572166645E+03  0.13027048329E+04  0.50400001928E-02 0. -1.
       -1    1    3    3    0  502  0.12088063991E+03  0.11469651326E+04 -0.88438179979E+02  0.11567032706E+04  0.50400001928E-02 0.  1.
</event>
<event>
 5   0  0.5663790E-05  0.2246451E+04  0.7818609E-02  0.8499339E-01
       -1   -1    0    0    0  501  0.00000000000E+00  0.00000000000E+00  0.11832979248E+04  0.11832979248E+04  0.50400001928E-02 0.  1.
        1   -1    0    0  501    0  0.00000000000E+00  0.00000000000E+00 -0.10662031798E+04  0.10662031798E+04  0.50400001928E-02 0. -1.
    10030    2    1    2    0    0  0.00000000000E+00  0.00000000000E+00  0.11709474498E+03  0.22495011046E+04  0.22464514329E+04 0.  0.
        3    1    3    3  502    0  0.17711358893E+03  0.25715913825E+03  0.11389634251E+04  0.11809901522E+04  0.10100000352E+00 0.  1.
       -3    1    3    3    0  502 -0.17711358893E+03 -0.25715913825E+03 -0.10218686801E+04  0.10685109524E+04  0.10100000352E+00 0. -1.
</event>
<event>
 5   0  0.5642466E-05  0.2309728E+04  0.7818609E-02  0.8474095E-01
        1   -1    0    0  501    0  0.00000000000E+00  0.00000000000E+00  0.22492019904E+04  0.22492019905E+04  0.50400001928E-02 0. -1.
       -1   -1    0    0    0  501  0.00000000000E+00  0.00000000000E+00 -0.59297054111E+03  0.59297054113E+03  0.50400001928E-02 0.  1.
    10030    2    1    2    0    0  0.00000000000E+00  0.00000000000E+00  0.16562314493E+04  0.28421725316E+04  0.23097277081E+04 0.  0.
        1    1    3    3  502    0  0.39334410010E+03  0.87130828048E+03  0.16254079006E+04  0.18856957718E+04  0.50400001928E-02 0. -1.
       -1    1    3    3    0  502 -0.39334410010E+03 -0.87130828048E+03  0.30823548770E+02  0.95647675973E+03  0.50400001928E-02 0.  1.
</event>
<event>
 5   0  0.5632156E-05  0.2121381E+04  0.7818609E-02  0.8551883E-01
        1   -1    0    0  501    0  0.00000000000E+00  0.00000000000E+00  0.10436506870E+04  0.10436506870E+04  0.50400001928E-02 0. -1.
       -1   -1    0    0    0  501  0.00000000000E+00  0.00000000000E+00 -0.10780086269E+04  0.10780086269E+04  0.50400001928E-02 0.  1.
    10030    2    1    2    0    0  0.00000000000E+00  0.00000000000E+00 -0.34357939948E+02  0.21216593139E+04  0.21213811011E+04 0.  0.
        4    1    3    3  502    0  0.92278621384E+02 -0.79983210660E+02 -0.10709537932E+04  0.10778943816E+04  0.12699999809E+01 0.  1.
       -4    1    3    3    0  502 -0.92278621384E+02  0.79983210660E+02  0.10365958532E+04  0.10437649322E+04  0.12699999809E+01 0. -1.
</event>
<event>
 5   0  0.1281432E-04  0.1588456E+04  0.7818609E-02  0.8827672E-01
       -2   -1    0    0    0  501  0.00000000000E+00  0.00000000000E+00  0.38174086582E+03  0.38174086583E+03  0.25500000920E-02 0. -1.
        2   -1    0    0  501    0  0.00000000000E+00  0.00000000000E+00 -0.16524239883E+04  0.16524239883E+04  0.25500000920E-02 0.  1.
    10030    2    1    2    0    0  0.00000000000E+00  0.00000000000E+00 -0.12706831225E+04  0.20341648541E+04  0.15884555568E+04 0.  0.
        4    1    3    3  502    0 -0.43412193360E+03 -0.12867002062E+01  0.21635633194E+03  0.48505173343E+03  0.12699999809E+01 0. -1.
       -4    1    3    3    0  502  0.43412193360E+03  0.12867002062E+01 -0.14870394544E+04  0.15491131207E+04  0.12699999809E+01 0.  1.
</event>
<event>
 5   0  0.1234988E-04  0.2288845E+04  0.7818609E-02  0.8482332E-01
       -2   -1    0    0    0  501  0.00000000000E+00  0.00000000000E+00  0.13271357013E+04  0.13271357013E+04  0.25500000920E-02 0.  1.
        2   -1    0    0  501    0  0.00000000000E+00  0.00000000000E+00 -0.98686463850E+03  0.98686463851E+03  0.25500000920E-02 0. -1.
    10030    2    1    2    0    0  0.00000000000E+00  0.00000000000E+00  0.34027106280E+03  0.23140003398E+04  0.22888453806E+04 0.  0.
        5    1    3    3  502    0  0.81231401464E+03 -0.15234804051E+03  0.97042688664E+03  0.12746820843E+04  0.46999998093E+01 0.  1.
       -5    1    3    3    0  502 -0.81231401464E+03  0.15234804051E+03 -0.63015582384E+03  0.10393182555E+04  0.46999998093E+01 0. -1.
</event>
<event>
 5   0  0.5632156E-05  0.2344188E+04  0.7818609E-02  0.8460699E-01
       -1   -1    0    0    0  501  0.00000000000E+00  0.00000000000E+00  0.52326696012E+03  0.52326696014E+03  0.50400001928E-02 0. -1.
        1   -1    0    0  501    0  0.00000000000E+00  0.00000000000E+00 -0.26254371072E+04  0.26254371072E+04  0.50400001928E-02 0.  1.
    10030    2    1    2    0    0  0.00000000000E+00  0.00000000000E+00 -0.21021701471E+04  0.31487040673E+04  0.23441881273E+04 0.  0.
        4    1    3    3  502    0 -0.16333175103E+03  0.43528420932E+03 -0.24962873465E+04  0.25392128175E+04  0.12699999809E+01 0.  1.
       -4    1    3    3    0  502  0.16333175103E+03 -0.43528420932E+03  0.39411719941E+03  0.60949124977E+03  0.12699999809E+01 0. -1.
</event>
<event>
 5   0  0.1257524E-04  0.2469276E+04  0.7818609E-02  0.8414014E-01
        2   -1    0    0  501    0  0.00000000000E+00  0.00000000000E+00  0.21101408155E+04  0.21101408155E+04  0.25500000920E-02 0.  1.
       -2   -1    0    0    0  501  0.00000000000E+00  0.00000000000E+00 -0.72238338169E+03  0.72238338170E+03  0.25500000920E-02 0. -1.
    10030    2    1    2    0    0  0.00000000000E+00  0.00000000000E+00  0.13877574338E+04  0.28325241972E+04  0.24692757304E+04 0.  0.
        3    1    3    3  502    0  0.91875038243E+03  0.17209462996E+03  0.16191413332E+04  0.18695821709E+04  0.10100000352E+00 0.  1.
       -3    1    3    3    0  502 -0.91875038243E+03 -0.17209462996E+03 -0.23138389937E+03  0.96294202627E+03  0.10100000352E+00 0. -1.
</event>
<event>
 5   0  0.1237296E-04  0.2265663E+04  0.7818609E-02  0.8491584E-01
       -2   -1    0    0    0  501  0.00000000000E+00  0.00000000000E+00  0.90860493028E+03  0.90860493029E+03  0.25500000920E-02 0.  1.
        2   -1    0    0  501    0  0.00000000000E+00  0.00000000000E+00 -0.14123927328E+04  0.14123927328E+04  0.25500000920E-02 0. -1.
    10030    2    1    2    0    0  0.00000000000E+00  0.00000000000E+00 -0.50378780250E+03  0.23209976631E+04  0.22656628174E+04 0.  0.
        1    1    3    3  502    0  0.55042176659E+03 -0.32491377873E+03 -0.12100302983E+04  0.13684686359E+04  0.50400001928E-02 0. -1.
       -1    1    3    3    0  502 -0.55042176659E+03  0.32491377873E+03  0.70624249576E+03  0.95252902716E+03  0.50400001928E-02 0.  1.
</event>
<event>
 5   0  0.1270613E-04  0.2340494E+04  0.7818609E-02  0.8462124E-01
        2   -1    0    0  501    0  0.00000000000E+00  0.00000000000E+00  0.14085676763E+04  0.14085676763E+04  0.25500000920E-02 0. -1.
       -2   -1    0    0    0  501  0.00000000000E+00  0.00000000000E+00 -0.97224841423E+03  0.97224841424E+03  0.25500000920E-02 0.  1.
    10030    2    1    2    0    0  0.00000000000E+00  0.00000000000E+00  0.43631926203E+03  0.23808160905E+04  0.23404936997E+04 0.  0.
        2    1    3    3  502    0  0.94554317947E+03  0.64892729900E+03 -0.18920325652E+02  0.11469596865E+04  0.25500000920E-02 0.  1.
       -2    1    3    3    0  502 -0.94554317947E+03 -0.64892729900E+03  0.45523958769E+03  0.12338564041E+04  0.25500000920E-02 0. -1.
</event>
<event>
 5   0  0.4489500E-05  0.1715546E+04  0.7818609E-02  0.8752547E-01
       -4   -1    0    0    0  501  0.00000000000E+00  0.00000000000E+00  0.14298708191E+04  0.14298713831E+04  0.12699999809E+01 0.  1.
        4   -1    0    0  501    0  0.00000000000E+00  0.00000000000E+00 -0.51457272305E+03  0.51457429027E+03  0.12699999809E+01 0. -1.
    10030    2    1    2    0    0  0.00000000000E+00  0.00000000000E+00  0.91529809608E+03  0.19444456734E+04  0.17155460857E+04 0.  0.
        1    1    3    3  502    0 -0.53186422562E+01 -0.50968181770E+03  0.12396072813E+04  0.13403096863E+04  0.50400001928E-02 0.  1.
       -1    1    3    3    0  502  0.53186422562E+01  0.50968181770E+03 -0.32430918525E+03  0.60413598710E+03  0.50400001928E-02 0. -1.
</event>
<event>
 5   0  0.5632156E-05  0.2012288E+04  0.7818609E-02  0.8600897E-01
        1   -1    0    0  501    0  0.00000000000E+00  0.00000000000E+00  0.10473635356E+04  0.10473635356E+04  0.50400001928E-02 0.  1.
       -1   -1    0    0    0  501  0.00000000000E+00  0.00000000000E+00 -0.96654662636E+03  0.96654662637E+03  0.50400001928E-02 0. -1.
    10030    2    1    2    0    0  0.00000000000E+00  0.00000000000E+00  0.80816909271E+02  0.20139101620E+04  0.20122879436E+04 0.  0.
        4    1    3    3  502    0 -0.24095067299E+03  0.61825897906E+03  0.79733998265E+03  0.10373302525E+04  0.12699999809E+01 0.  1.
       -4    1    3    3    0  502  0.24095067299E+03 -0.61825897906E+03 -0.71652307338E+03  0.97657990947E+03  0.12699999809E+01 0. -1.
</event>
<event>
 5   0  0.1234988E-04  0.2303802E+04  0.7818609E-02  0.8476423E-01
       -2   -1    0    0    0  501  0.00000000000E+00  0.00000000000E+00  0.92163102401E+03  0.92163102401E+03  0.25500000920E-02 0. -1.
        2   -1    0    0  501    0  0.00000000000E+00  0.00000000000E+00 -0.14397046247E+04  0.14397046247E+04  0.25500000920E-02 0.  1.
    10030    2    1    2    0    0  0.00000000000E+00  0.00000000000E+00 -0.51807360068E+03  0.23613356487E+04  0.23038024633E+04 0.  0.
        5    1    3    3  502    0  0.98320720097E+03 -0.40770522907E+03 -0.71041430870E+03  0.12796993920E+04  0.46999998093E+01 0. -1.
       -5    1    3    3    0  502 -0.98320720097E+03  0.40770522907E+03  0.19234070802E+03  0.10816362567E+04  0.46999998093E+01 0.  1.
</event>
<event>
 5   0  0.1234988E-04  0.1983612E+04  0.7818609E-02  0.8614321E-01
        2   -1    0    0  501    0  0.00000000000E+00  0.00000000000E+00  0.10238393209E+04  0.10238393209E+04  0.25500000920E-02 0. -1.
       -2   -1    0    0    0  501  0.00000000000E+00  0.00000000000E+00 -0.96077454623E+03  0.96077454623E+03  0.25500000920E-02 0.  1.
    10030    2    1    2    0    0  0.00000000000E+00  0.00000000000E+00  0.63064774648E+02  0.19846138671E+04  0.19836116141E+04 0.  0.
        5    1    3    3  502    0  0.12058668039E+03  0.73106560024E+03 -0.62808716790E+03  0.97134630273E+03  0.46999998093E+01 0.  1.
       -5    1    3    3    0  502 -0.12058668039E+03 -0.73106560024E+03  0.69115194255E+03  0.10132675644E+04  0.46999998093E+01 0. -1.
</event>
<event>
 5   0  0.5924654E-05  0.2320701E+04  0.7818609E-02  0.8469804E-01
       -1   -1    0    0    0  501  0.00000000000E+00  0.00000000000E+00  0.11090752097E+04  0.11090752097E+04  0.50400001928E-02 0.  1.
        1   -1    0    0  501    0  0.00000000000E+00  0.00000000000E+00 -0.12139959283E+04  0.12139959283E+04  0.50400001928E-02 0. -1.
    10030    2    1    2    0    0  0.00000000000E+00  0.00000000000E+00 -0.10492071859E+03  0.23230711379E+04  0.23207005741E+04 0.  0.
        5    1    3    3  502    0 -0.24064835176E+03 -0.92055575217E+03 -0.71725935337E+03  0.11915609896E+04  0.46999998093E+01 0.  1.
       -5    1    3    3    0  502  0.24064835176E+03  0.92055575217E+03  0.61233863478E+03  0.11315101483E+04  0.46999998093E+01 0. -1.
</event>
<event>
 5   0  0.5632156E-05  0.1943835E+04  0.7818609E-02  0.8633339E-01
       -1   -1    0    0    0  501  0.00000000000E+00  0.00000000000E+00  0.57175591937E+03  0.57175591939E+03  0.50400001928E-02 0. -1.
        1   -1    0    0  501    0  0.00000000000E+00  0.00000000000E+00 -0.16521448782E+04  0.16521448782E+04  0.50400001928E-02 0.  1.
    10030    2    1    2    0    0  0.00000000000E+00  0.00000000000E+00 -0.10803889588E+04  0.22239007976E+04  0.19438349866E+04 0.  0.
        4    1    3    3  502    0 -0.34186411896E+02 -0.16589432836E+02  0.57090479927E+03  0.57216940041E+03  0.12699999809E+01 0. -1.
       -4    1    3    3    0  502  0.34186411896E+02  0.16589432836E+02 -0.16512937581E+04  0.16517313972E+04  0.12699999809E+01 0.  1.
</event>
<event>
 5   0  0.5663790E-05  0.2263147E+04  0.7818609E-02  0.8492595E-01
        1   -1    0    0  501    0  0.00000000000E+00  0.00000000000E+00  0.14349690264E+04  0.14349690264E+04  0.50400001928E-02 0.  1.
       -1   -1    0    0    0  501  0.00000000000E+00  0.00000000000E+00 -0.89232503297E+03  0.89232503298E+03  0.50400001928E-02 0. -1.
    10030    2    1    2    0    0  0.00000000000E+00  0.00000000000E+00  0.54264399341E+03  0.23272940594E+04  0.22631471749E+04 0.  0.
        3    1    3    3  502    0 -0.48885200943E+03 -0.10120813951E+04  0.13655893917E+03  0.11322249739E+04  0.10100000352E+00 0. -1.
       -3    1    3    3    0  502  0.48885200943E+03  0.10120813951E+04  0.40608505424E+03  0.11950690854E+04  0.10100000352E+00 0.  1.
</event>
<event>
 5   0  0.5924654E-05  0.2278404E+04  0.7818609E-02  0.8486485E-01
       -1   -1    0    0    0  501  0.00000000000E+00  0.00000000000E+00  0.43107528749E+03  0.43107528752E+03  0.50400001928E-02 0. -1.
        1   -1    0    0  501    0  0.00000000000E+00  0.00000000000E+00 -0.30105682755E+04  0.30105682755E+04  0.50400001928E-02 0.  1.
    10030    2    1    2    0    0  0.00000000000E+00  0.00000000000E+00 -0.25794929880E+04  0.34416435630E+04  0.22784043407E+04 0.  0.
        5    1    3    3  502    0  0.59177568298E+03  0.34758663852E+03 -0.26632215138E+04  0.27502337813E+04  0.46999998093E+01 0.  1.
       -5    1    3    3    0  502 -0.59177568298E+03 -0.34758663852E+03  0.83728525792E+02  0.69140978173E+03  0.46999998093E+01 0. -1.
</event>
<event>
 5   0  0.5642466E-05  0.2258125E+04  0.7818609E-02  0.8494617E-01
        1   -1    0    0  501    0  0.00000000000E+00  0.00000000000E+00  0.12253088679E+04  0.12253088680E+04  0.50400001928E-02 0.  1.
       -1   -1    0    0    0  501  0.00000000000E+00  0.00000000000E+00 -0.10403765400E+04  0.10403765400E+04  0.50400001928E-02 0. -1.
    10030    2    1    2    0    0  0.00000000000E+00  0.00000000000E+00  0.18493232792E+03  0.22656854080E+04  0.22581254177E+04 0.  0.
        1    1    3    3  502    0 -0.36108795397E+03 -0.13224855451E+03 -0.97264726016E+03  0.10459048157E+04  0.50400001928E-02 0. -1.
       -1    1    3    3    0  502  0.36108795397E+03  0.13224855451E+03  0.11575795881E+04  0.12197805923E+04  0.50400001928E-02 0.  1.
</event>
<event>
 5   0  0.4489500E-05  0.2298532E+04  0.7818609E-02  0.8478500E-01
        3   -1    0    0  501    0  0.00000000000E+00  0.00000000000E+00  0.88592517293E+03  0.88592517869E+03  0.10100000352E+00 0. -1.
       -3   -1    0    0    0  501  0.00000000000E+00  0.00000000000E+00 -0.14908846752E+04  0.14908846786E+04  0.10100000352E+00 0.  1.
    10030    2    1    2    0    0  0.00000000000E+00  0.00000000000E+00 -0.60495950227E+03  0.23768098573E+04  0.22985319442E+04 0.  0.
        4    1    3    3  502    0  0.10039453644E+04  0.32523812746E+03 -0.77308813685E+03  0.13081869187E+04  0.12699999809E+01 0.  1.
       -4    1    3    3    0  502 -0.10039453644E+04 -0.32523812746E+03  0.16812863457E+03  0.10686229386E+04  0.12699999809E+01 0. -1.
</event>
<event>
 5   0  0.1237296E-04  0.2232138E+04  0.7818609E-02  0.8505170E-01
        2   -1    0    0  501    0  0.00000000000E+00  0.00000000000E+00  0.10941989441E+04  0.10941989441E+04  0.25500000920E-02 0. -1.
       -2   -1    0    0    0  501  0.00000000000E+00  0.00000000000E+00 -0.11383757113E+04  0.11383757113E+04  0.25500000920E-02 0.  1.
    10030    2    1    2    0    0  0.00000000000E+00  0.00000000000E+00 -0.44176767226E+02  0.22325746553E+04  0.22321375417E+04 0.  0.
        1    1    3    3  502    0 -0.11303273278E+03  0.79776888445E+03 -0.79450764445E+03  0.11315714687E+04  0.50400001928E-02 0.  1.
       -1    1    3    3    0  502  0.11303273278E+03 -0.79776888445E+03  0.75033087722E+03  0.11010031866E+04  0.50400001928E-02 0. -1.
</event>
<event>
 5   0  0.5642466E-05  0.2184553E+04  0.7818609E-02  0.8524885E-01
       -1   -1    0    0    0  501  0.00000000000E+00  0.00000000000E+00  0.59357332583E+03  0.59357332585E+03  0.50400001928E-02 0. -1.
        1   -1    0    0  501    0  0.00000000000E+00  0.00000000000E+00 -0.20099751360E+04  0.20099751360E+04  0.50400001928E-02 0.  1.
    10030    2    1    2    0    0  0.00000000000E+00  0.00000000000E+00 -0.14164018102E+04  0.26035484619E+04  0.21845527014E+04 0.  0.
        1    1    3    3  502    0 -0.44327691208E+03  0.66405333970E+03 -0.15965563054E+04  0.17850639471E+04  0.50400001928E-02 0.  1.
       -1    1    3    3    0  502  0.44327691208E+03 -0.66405333970E+03  0.18015449525E+03  0.81848451478E+03  0.50400001928E-02 0. -1.
</event>
<event>
 5   0  0.1281432E-04  0.2275330E+04  0.7818609E-02  0.8487712E-01
       -2   -1    0    0    0  501  0.00000000000E+00  0.00000000000E+00  0.86792540971E+03  0.86792540971E+03  0.25500000920E-02 0. -1.
        2   -1    0    0  501    0  0.00000000000E+00  0.00000000000E+00 -0.14912359415E+04  0.14912359415E+04  0.25500000920E-02 0.  1.
    10030    2    1    2    0    0  0.00000000000E+00  0.00000000000E+00 -0.62331053183E+03  0.23591613513E+04  0.22753299238E+04 0.  0.
        4    1    3    3  502    0  0.52989935550E+03  0.98855161422E+03 -0.50907076172E+03  0.12317395318E+04  0.12699999809E+01 0.  1.
       -4    1    3    3    0  502 -0.52989935550E+03 -0.98855161422E+03 -0.11423977011E+03  0.11274218194E+04  0.12699999809E+01 0. -1.
</event>
<event>
 5   0  0.1234988E-04  0.1245794E+04  0.7818609E-02  0.9073691E-01
        2   -1    0    0  501    0  0.00000000000E+00  0.00000000000E+00  0.80616459510E+03  0.80616459511E+03  0.25500000920E-02 0.  1.
       -2   -1    0    0    0  501  0.00000000000E+00  0.00000000000E+00 -0.48129220912E+03  0.48129220913E+03  0.25500000920E-02 0. -1.
    10030    2    1    2    0    0  0.00000000000E+00  0.00000000000E+00  0.32487238598E+03  0.12874568042E+04  0.12457941064E+04 0.  0.
        5    1    3    3  502    0  0.19463060846E+03 -0.52365059459E+03  0.44712598137E+03  0.71556603621E+03  0.46999998093E+01 0.  1.
       -5    1    3    3    0  502 -0.19463060846E+03  0.52365059459E+03 -0.12225359539E+03  0.57189076802E+03  0.46999998093E+01 0. -1.
</event>
<event>
 5   0  0.5843670E-05  0.2007064E+04  0.7818609E-02  0.8603325E-01
       -1   -1    0    0    0  501  0.00000000000E+00  0.00000000000E+00  0.15325494143E+04  0.15325494143E+04  0.50400001928E-02 0.  1.
        1   -1    0    0  501    0  0.00000000000E+00  0.00000000000E+00 -0.65712469701E+03  0.65712469703E+03  0.50400001928E-02 0. -1.
    10030    2    1    2    0    0  0.00000000000E+00  0.00000000000E+00  0.87542471727E+03  0.21896741113E+04  0.20070635959E+04 0.  0.
        2    1    3    3  502    0 -0.37556733737E+03  0.27498151253E+03 -0.53222720906E+03  0.70705831386E+03  0.25500000920E-02 0. -1.
       -2    1    3    3    0  502  0.37556733737E+03 -0.27498151253E+03  0.14076519263E+04  0.14826157974E+04  0.25500000920E-02 0.  1.
</event>
<event>
 5   0  0.5642466E-05  0.1978769E+04  0.7818609E-02  0.8616612E-01
       -1   -1    0    0    0  501  0.00000000000E+00  0.00000000000E+00  0.95886855079E+03  0.95886855081E+03  0.50400001928E-02 0. -1.
        1   -1    0    0  501    0  0.00000000000E+00  0.00000000000E+00 -0.10208718639E+04  0.10208718639E+04  0.50400001928E-02 0.  1.
    10030    2    1    2    0    0  0.00000000000E+00  0.00000000000E+00 -0.62003313107E+02  0.19797404147E+04  0.19787692384E+04 0.  0.
        1    1    3    3  502    0 -0.18956456328E+03 -0.89534764853E+03 -0.40708478924E+03  0.10016487214E+04  0.50400001928E-02 0. -1.
       -1    1    3    3    0  502  0.18956456328E+03  0.89534764853E+03  0.34508147614E+03  0.97809169334E+03  0.50400001928E-02 0.  1.
</event>
<event>
 5   0  0.1270613E-04  0.2277472E+04  0.7818609E-02  0.8486857E-01
        2   -1    0    0  501    0  0.00000000000E+00  0.00000000000E+00  0.11343981855E+04  0.11343981855E+04  0.25500000920E-02 0. -1.
       -2   -1    0    0    0  501  0.00000000000E+00  0.00000000000E+00 -0.11430905708E+04  0.11430905708E+04  0.25500000920E-02 0.  1.
    10030    2    1    2    0    0  0.00000000000E+00  0.00000000000E+00 -0.86923852253E+01  0.22774887563E+04  0.22774721683E+04 0.  0.
        2    1    3    3  502    0  0.33225788408E+03  0.10884247415E+04  0.36349925444E+02  0.11385890552E+04  0.25500000920E-02 0. -1.
       -2    1    3    3    0  502 -0.33225788408E+03 -0.10884247415E+04 -0.45042310669E+02  0.11388997011E+04  0.25500000920E-02 0.  1.
</event>
<event>
 5   0  0.5663790E-05  0.2207283E+04  0.7818609E-02  0.8515403E-01
        1   -1    0    0  501    0  0.00000000000E+00  0.00000000000E+00  0.93420536384E+03  0.93420536385E+03  0.50400001928E-02 0.  1.
       -1   -1    0    0    0  501  0.00000000000E+00  0.00000000000E+00 -0.13038083365E+04  0.13038083365E+04  0.50400001928E-02 0. -1.
    10030    2    1    2    0    0  0.00000000000E+00  0.00000000000E+00 -0.36960297264E+03  0.22380137003E+04  0.22072831639E+04 0.  0.
        3    1    3    3  502    0  0.41307413720E+02  0.30146977627E+03  0.89083316247E+03  0.94136818620E+03  0.10100000352E+00 0.  1.
       -3    1    3    3    0  502 -0.41307413720E+02 -0.30146977627E+03 -0.12604361351E+04  0.12966455141E+04  0.10100000352E+00 0. -1.
</event>
<event>
 5   0  0.5663790E-05  0.2423403E+04  0.7818609E-02  0.8430794E-01
        1   -1    0    0  501    0  0.00000000000E+00  0.00000000000E+00  0.89873083212E+03  0.89873083213E+03  0.50400001928E-02 0.  1.
       -1   -1    0    0    0  501  0.00000000000E+00  0.00000000000E+00 -0.16336594253E+04  0.16336594253E+04  0.50400001928E-02 0. -1.
    10030    2    1    2    0    0  0.00000000000E+00  0.00000000000E+00 -0.73492859321E+03  0.25323902575E+04  0.24234026448E+04 0.  0.
        3    1    3    3  502    0  0.27010194640E+03 -0.13398040254E+03  0.85890588064E+03  0.91028848818E+03  0.10100000352E+00 0.  1.
       -3    1    3    3    0  502 -0.27010194640E+03  0.13398040254E+03 -0.15938344738E+04  0.16221017693E+04  0.10100000352E+00 0. -1.
</event>
<event>
 5   0  0.1270613E-04  0.2320403E+04  0.7818609E-02  0.8469920E-01
        2   -1    0    0  501    0  0.00000000000E+00  0.00000000000E+00  0.15311925601E+04  0.15311925601E+04  0.25500000920E-02 0. -1.
       -2   -1    0    0    0  501  0.00000000000E+00  0.00000000000E+00 -0.87909731644E+03  0.87909731644E+03  0.25500000920E-02 0.  1.
    10030    2    1    2    0    0  0.00000000000E+00  0.00000000000E+00  0.65209524367E+03  0.24102898766E+04  0.23204027845E+04 0.  0.
        2    1    3    3  502    0  0.21868593874E+02  0.12324758648E+03 -0.87206285169E+03  0.88100046554E+03  0.25500000920E-02 0.  1.
       -2    1    3    3    0  502 -0.21868593874E+02 -0.12324758648E+03  0.15241580954E+04  0.15292894110E+04  0.25500000920E-02 0. -1.
</event>
<event>
 5   0  0.5663790E-05  0.1292200E+04  0.7818609E-02  0.9035774E-01
       -1   -1    0    0    0  501  0.00000000000E+00  0.00000000000E+00  0.24359968585E+03  0.24359968590E+03  0.50400001928E-02 0. -1.
        1   -1    0    0  501    0  0.00000000000E+00  0.00000000000E+00 -0.17136524650E+04  0.17136524650E+04  0.50400001928E-02 0.  1.
    10030    2    1    2    0    0  0.00000000000E+00  0.00000000000E+00 -0.14700527792E+04  0.19572521509E+04  0.12921999879E+04 0.  0.
        3    1    3    3  502    0 -0.31556313044E+03 -0.51031747893E+03 -0.10980448394E+04  0.12512819419E+04  0.10100000352E+00 0.  1.
       -3    1    3    3    0  502  0.31556313044E+03  0.51031747893E+03 -0.37200793982E+03  0.70597020907E+03  0.10100000352E+00 0. -1.
</event>
<event>
 5   0  0.1257524E-04  0.1184916E+04  0.7818609E-02  0.9126163E-01
       -2   -1    0    0    0  501  0.00000000000E+00  0.00000000000E+00  0.39591749889E+03  0.39591749890E+03  0.25500000920E-02 0. -1.
        2   -1    0    0  501    0  0.00000000000E+00  0.00000000000E+00 -0.88656530128E+03  0.88656530129E+03  0.25500000920E-02 0.  1.
    10030    2    1    2    0    0  0.00000000000E+00  0.00000000000E+00 -0.49064780240E+03  0.12824828002E+04  0.11849163965E+04 0.  0.
        3    1    3    3  502    0  0.34519272340E+03  0.19310188706E+03  0.23208554867E+03  0.45859575573E+03  0.10100000352E+00 0. -1.
       -3    1    3    3    0  502 -0.34519272340E+03 -0.19310188706E+03 -0.72273335106E+03  0.82388704445E+03  0.10100000352E+00 0.  1.
</event>
<event>
 5   0  0.1257524E-04  0.1316145E+04  0.7818609E-02  0.9016859E-01
       -2   -1    0    0    0  501  0.00000000000E+00  0.00000000000E+00  0.33082721662E+03  0.33082721663E+03  0.25500000920E-02 0. -1.
        2   -1    0    0  501    0  0.00000000000E+00  0.00000000000E+00 -0.13090206198E+04  0.13090206198E+04  0.25500000920E-02 0.  1.
    10030    2    1    2    0    0  0.00000000000E+00  0.00000000000E+00 -0.97819340321E+03  0.16398478365E+04  0.13161453539E+04 0.  0.
        3    1    3    3  502    0  0.10275944755E+03  0.57201699634E+03 -0.87372267102E+03  0.10493589778E+04  0.10100000352E+00 0. -1.
       -3    1    3    3    0  502 -0.10275944755E+03 -0.57201699634E+03 -0.10447073219E+03  0.59048885869E+03  0.10100000352E+00 0.  1.
</event>
<event>
 5   0  0.1270613E-04  0.2292590E+04  0.7818609E-02  0.8480849E-01
       -2   -1    0    0    0  501  0.00000000000E+00  0.00000000000E+00  0.11840389462E+04  0.11840389462E+04  0.25500000920E-02 0.  1.
        2   -1    0    0  501    0  0.00000000000E+00  0.00000000000E+00 -0.11097541036E+04  0.11097541036E+04  0.25500000920E-02 0. -1.
    10030    2    1    2    0    0  0.00000000000E+00  0.00000000000E+00  0.74284842619E+02  0.22937930498E+04  0.22925898712E+04 0.  0.
        2    1    3    3  502    0 -0.16664952508E+02  0.11061121698E+04  0.33768353191E+03  0.11566295953E+04  0.25500000920E-02 0. -1.
       -2    1    3    3    0  502  0.16664952508E+02 -0.11061121698E+04 -0.26339868929E+03  0.11371634546E+04  0.25500000920E-02 0.  1.
</event>
<event>
 5   0  0.5632156E-05  0.1535529E+04  0.7818609E-02  0.8861165E-01
       -1   -1    0    0    0  501  0.00000000000E+00  0.00000000000E+00  0.11375304704E+04  0.11375304704E+04  0.50400001928E-02 0.  1.
        1   -1    0    0  501    0  0.00000000000E+00  0.00000000000E+00 -0.51819443423E+03  0.51819443425E+03  0.50400001928E-02 0. -1.
    10030    2    1    2    0    0  0.00000000000E+00  0.00000000000E+00  0.61933603617E+03  0.16557249047E+04  0.15355285195E+04 0.  0.
        4    1    3    3  502    0  0.56961751967E+03  0.40427166800E+03 -0.33963523376E+02  0.69932455561E+03  0.12699999809E+01 0. -1.
       -4    1    3    3    0  502 -0.56961751967E+03 -0.40427166800E+03  0.65329955955E+03  0.95640034905E+03  0.12699999809E+01 0.  1.
</event>
<event>
 5   0  0.1237296E-04  0.2324675E+04  0.7818609E-02  0.8468255E-01
        2   -1    0    0  501    0  0.00000000000E+00  0.00000000000E+00  0.10830598896E+04  0.10830598896E+04  0.25500000920E-02 0.  1.
       -2   -1    0    0    0  501  0.00000000000E+00  0.00000000000E+00 -0.12474184197E+04  0.12474184197E+04  0.25500000920E-02 0. -1.
    10030    2    1    2    0    0  0.00000000000E+00  0.00000000000E+00 -0.16435853011E+03  0.23304783092E+04  0.23246753372E+04 0.  0.
        1    1    3    3  502    0  0.66099338282E+03 -0.80355630955E+03 -0.60155927053E+03  0.12018687743E+04  0.50400001928E-02 0.  1.
       -1    1    3    3    0  502 -0.66099338282E+03  0.80355630955E+03  0.43720074042E+03  0.11286095349E+04  0.50400001928E-02 0. -1.
</event>
<event>
 5   0  0.1270613E-04  0.2182569E+04  0.7818609E-02  0.8525718E-01
        2   -1    0    0  501    0  0.00000000000E+00  0.00000000000E+00  0.19039701256E+04  0.19039701256E+04  0.25500000920E-02 0. -1.
       -2   -1    0    0    0  501  0.00000000000E+00  0.00000000000E+00 -0.62548354922E+03  0.62548354923E+03  0.25500000920E-02 0.  1.
    10030    2    1    2    0    0  0.00000000000E+00  0.00000000000E+00  0.12784865764E+04  0.25294536749E+04  0.21825691208E+04 0.  0.
        2    1    3    3  502    0  0.10338453265E+04 -0.95878431274E+01  0.10439982573E+04  0.14693061108E+04  0.25500000920E-02 0. -1.
       -2    1    3    3    0  502 -0.10338453265E+04  0.95878431274E+01  0.23448831913E+03  0.10601475641E+04  0.25500000920E-02 0.  1.
</event>
<event>
 5   0  0.1237296E-04  0.1529780E+04  0.7818609E-02  0.8864887E-01
        2   -1    0    0  501    0  0.00000000000E+00  0.00000000000E+00  0.67827751093E+03  0.67827751093E+03  0.25500000920E-02 0.  1.
       -2   -1    0    0    0  501  0.00000000000E+00  0.00000000000E+00 -0.86256275365E+03  0.86256275365E+03  0.25500000920E-02 0. -1.
    10030    2    1    2    0    0  0.00000000000E+00  0.00000000000E+00 -0.18428524272E+03  0.15408402646E+04  0.15297802686E+04 0.  0.
        1    1    3    3  502    0 -0.29995996271E+03 -0.46093001739E+03 -0.62761051326E+03  0.83446235179E+03  0.50400001928E-02 0. -1.
       -1    1    3    3    0  502  0.29995996271E+03  0.46093001739E+03  0.44332527054E+03  0.70637791280E+03  0.50400001928E-02 0.  1.
</event>
<event>
 5   0  0.1257524E-04  0.2449990E+04  0.7818609E-02  0.8421022E-01
       -2   -1    0    0    0  501  0.00000000000E+00  0.00000000000E+00  0.20559965498E+04  0.20559965498E+04  0.25500000920E-02 0.  1.
        2   -1    0    0  501    0  0.00000000000E+00  0.00000000000E+00 -0.72987128623E+03  0.72987128624E+03  0.25500000920E-02 0. -1.
    10030    2    1    2    0    0  0.00000000000E+00  0.00000000000E+00  0.13261252636E+04  0.27858678361E+04  0.24499900786E+04 0.  0.
        3    1    3    3  502    0 -0.59384028609E+03  0.48415017218E+02 -0.55401129274E+03  0.81358393664E+03  0.10100000352E+00 0. -1.
       -3    1    3    3    0  502  0.59384028609E+03 -0.48415017218E+02  0.18801365563E+04  0.19722838994E+04  0.10100000352E+00 0.  1.
</event>
<event>
 5   0  0.5843670E-05  0.2259176E+04  0.7818609E-02  0.8494194E-01
        1   -1    0    0  501    0  0.00000000000E+00  0.00000000000E+00  0.21891460819E+04  0.21891460819E+04  0.50400001928E-02 0.  1.
       -1   -1    0    0    0  501  0.00000000000E+00  0.00000000000E+00 -0.58286140553E+03  0.58286140555E+03  0.50400001928E-02 0. -1.
    10030    2    1    2    0    0  0.00000000000E+00  0.00000000000E+00  0.16062846763E+04  0.27720074874E+04  0.22591757455E+04 0.  0.
        2    1    3    3  502    0  0.74760395745E+03 -0.79318584195E+03  0.43933480616E+03  0.11751895715E+04  0.25500000920E-02 0.  1.
       -2    1    3    3    0  502 -0.74760395745E+03  0.79318584195E+03  0.11669498702E+04  0.15968179159E+04  0.25500000920E-02 0. -1.
</event>
<event>
 5   0  0.1237296E-04  0.1321989E+04  0.7818609E-02  0.9012307E-01
       -2   -1    0    0    0  501  0.00000000000E+00  0.00000000000E+00  0.41410583458E+03  0.41410583459E+03  0.25500000920E-02 0. -1.
        2   -1    0    0  501    0  0.00000000000E+00  0.00000000000E+00 -0.10550776676E+04  0.10550776676E+04  0.25500000920E-02 0.  1.
    10030    2    1    2    0    0  0.00000000000E+00  0.00000000000E+00 -0.64097183301E+03  0.14691835022E+04  0.13219891347E+04 0.  0.
        1    1    3    3  502    0 -0.58804757871E+03 -0.17964908525E+03 -0.50907731298E+02  0.61698083097E+03  0.50400001928E-02 0. -1.
       -1    1    3    3    0  502  0.58804757871E+03  0.17964908525E+03 -0.59006410171E+03  0.85220267120E+03  0.50400001928E-02 0.  1.
</event>
<event>
 5   0  0.1281432E-04  0.2225479E+04  0.7818609E-02  0.8507897E-01
        2   -1    0    0  501    0  0.00000000000E+00  0.00000000000E+00  0.12941891087E+04  0.12941891087E+04  0.25500000920E-02 0. -1.
       -2   -1    0    0    0  501  0.00000000000E+00  0.00000000000E+00 -0.95673013915E+03  0.95673013915E+03  0.25500000920E-02 0.  1.
    10030    2    1    2    0    0  0.00000000000E+00  0.00000000000E+00  0.33745896954E+03  0.22509192478E+04  0.22254794774E+04 0.  0.
        4    1    3    3  502    0  0.19860682303E+03 -0.71074414911E+03 -0.67360880405E+03  0.99917583510E+03  0.12699999809E+01 0.  1.
       -4    1    3    3    0  502 -0.19860682303E+03  0.71074414911E+03  0.10110677736E+04  0.12517434127E+04  0.12699999809E+01 0. -1.
</event>
<event>
 5   0  0.5642466E-05  0.2301486E+04  0.7818609E-02  0.8477335E-01
        1   -1    0    0  501    0  0.00000000000E+00  0.00000000000E+00  0.11631418529E+04  0.11631418529E+04  0.50400001928E-02 0. -1.
       -1   -1    0    0    0  501  0.00000000000E+00  0.00000000000E+00 -0.11384767809E+04  0.11384767809E+04  0.50400001928E-02 0.  1.
    10030    2    1    2    0    0  0.00000000000E+00  0.00000000000E+00  0.24665071960E+02  0.23016186338E+04  0.23014864696E+04 0.  0.
        1    1    3    3  502    0  0.57453064458E+03 -0.19643027929E+03  0.98990576812E+03  0.11612853852E+04  0.50400001928E-02 0. -1.
       -1    1    3    3    0  502 -0.57453064458E+03  0.19643027929E+03 -0.96524069616E+03  0.11403332485E+04  0.50400001928E-02 0.  1.
</event>
<event>
 5   0  0.5843670E-05  0.2336134E+04  0.7818609E-02  0.8463809E-01
        1   -1    0    0  501    0  0.00000000000E+00  0.00000000000E+00  0.11187221739E+04  0.11187221739E+04  0.50400001928E-02 0. -1.
       -1   -1    0    0    0  501  0.00000000000E+00  0.00000000000E+00 -0.12195887321E+04  0.12195887321E+04  0.50400001928E-02 0.  1.
    10030    2    1    2    0    0  0.00000000000E+00  0.00000000000E+00 -0.10086655815E+03  0.23383109060E+04  0.23361343777E+04 0.  0.
        2    1    3    3  502    0 -0.19811557773E+03 -0.72258235706E+03 -0.94737413440E+03  0.12078463459E+04  0.25500000920E-02 0.  1.
       -2    1    3    3    0  502  0.19811557773E+03  0.72258235706E+03  0.84650757625E+03  0.11304645601E+04  0.25500000920E-02 0. -1.
</event>
<event>
 5   0  0.5924654E-05  0.2231540E+04  0.7818609E-02  0.8505414E-01
       -1   -1    0    0    0  501  0.00000000000E+00  0.00000000000E+00  0.10369112450E+04  0.10369112450E+04  0.50400001928E-02 0. -1.
        1   -1    0    0  501    0  0.00000000000E+00  0.00000000000E+00 -0.12006263960E+04  0.12006263960E+04  0.50400001928E-02 0.  1.
    10030    2    1    2    0    0  0.00000000000E+00  0.00000000000E+00 -0.16371515099E+03  0.22375376410E+04  0.22315402852E+04 0.  0.
        5    1    3    3  502    0  0.22699045160E+03  0.43203980484E+03  0.92420228007E+03  0.10451578840E+04  0.46999998093E+01 0. -1.
       -5    1    3    3    0  502 -0.22699045160E+03 -0.43203980484E+03 -0.10879174311E+04  0.11923797570E+04  0.46999998093E+01 0.  1.
</event>
<event>
 5   0  0.4489500E-05  0.2011485E+04  0.7818609E-02  0.8601270E-01
        3   -1    0    0  501    0  0.00000000000E+00  0.00000000000E+00  0.36108996332E+03  0.36108997745E+03  0.10100000352E+00 0.  1.
       -3   -1    0    0    0  501  0.00000000000E+00  0.00000000000E+00 -0.28012912635E+04  0.28012912654E+04  0.10100000352E+00 0. -1.
    10030    2    1    2    0    0  0.00000000000E+00  0.00000000000E+00 -0.24402013002E+04  0.31623812428E+04  0.20114852073E+04 0.  0.
        2    1    3    3  502    0 -0.70001881439E+03 -0.58039706484E+03 -0.54456262351E+03  0.10599224237E+04  0.25500000920E-02 0.  1.
       -2    1    3    3    0  502  0.70001881439E+03  0.58039706484E+03 -0.18956386767E+04  0.21024588191E+04  0.25500000920E-02 0. -1.
</event>
<event>
 5   0  0.5663790E-05  0.1943467E+04  0.7818609E-02  0.8633517E-01
       -1   -1    0    0    0  501  0.00000000000E+00  0.00000000000E+00  0.28451162213E+03  0.28451162218E+03  0.50400001928E-02 0.  1.
        1   -1    0    0  501    0  0.00000000000E+00  0.00000000000E+00 -0.33189021106E+04  0.33189021106E+04  0.50400001928E-02 0. -1.
    10030    2    1    2    0    0  0.00000000000E+00  0.00000000000E+00 -0.30343904885E+04  0.36034137328E+04  0.19434672349E+04 0.  0.
        3    1    3    3  502    0 -0.65803424913E+03 -0.68699771587E+03 -0.18847186362E+04  0.21111938050E+04  0.10100000352E+00 0.  1.
       -3    1    3    3    0  502  0.65803424913E+03  0.68699771587E+03 -0.11496718523E+04  0.14922199277E+04  0.10100000352E+00 0. -1.
</event>
<event>
 5   0  0.1281432E-04  0.2174277E+04  0.7818609E-02  0.8529211E-01
        2   -1    0    0  501    0  0.00000000000E+00  0.00000000000E+00  0.16832399709E+04  0.16832399709E+04  0.25500000920E-02 0. -1.
       -2   -1    0    0    0  501  0.00000000000E+00  0.00000000000E+00 -0.70214032416E+03  0.70214032416E+03  0.25500000920E-02 0.  1.
    10030    2    1    2    0    0  0.00000000000E+00  0.00000000000E+00  0.98109964679E+03  0.23853802951E+04  0.21742774973E+04 0.  0.
        4    1    3    3  502    0 -0.42735966178E+02  0.59071498506E+03  0.14907084904E+04  0.16040523596E+04  0.12699999809E+01 0. -1.
       -4    1    3    3    0  502  0.42735966178E+02 -0.59071498506E+03 -0.50960884357E+03  0.78132793545E+03  0.12699999809E+01 0.  1.
</event>
<event>
 5   0  0.5642466E-05  0.2355047E+04  0.7818609E-02  0.8456528E-01
       -1   -1    0    0    0  501  0.00000000000E+00  0.00000000000E+00  0.98296839741E+03  0.98296839743E+03  0.50400001928E-02 0.  1.
        1   -1    0    0  501    0  0.00000000000E+00  0.00000000000E+00 -0.14105864286E+04  0.14105864286E+04  0.50400001928E-02 0. -1.
    10030    2    1    2    0    0  0.00000000000E+00  0.00000000000E+00 -0.42761803119E+03  0.23935548260E+04  0.23550472447E+04 0.  0.
        1    1    3    3  502    0  0.11259595268E+04 -0.15846277391E+03  0.97245187958E+02  0.11412063500E+04  0.50400001928E-02 0.  1.
       -1    1    3    3    0  502 -0.11259595268E+04  0.15846277391E+03 -0.52486321914E+03  0.12523484761E+04  0.50400001928E-02 0. -1.
</event>
<event>
 5   0  0.1234988E-04  0.2514754E+04  0.7818609E-02  0.8397748E-01
        2   -1    0    0  501    0  0.00000000000E+00  0.00000000000E+00  0.22868366452E+04  0.22868366452E+04  0.25500000920E-02 0. -1.
       -2   -1    0    0    0  501  0.00000000000E+00  0.00000000000E+00 -0.69134687953E+03  0.69134687954E+03  0.25500000920E-02 0.  1.
    10030    2    1    2    0    0  0.00000000000E+00  0.00000000000E+00  0.15954897656E+04  0.29781835247E+04  0.25147543647E+04 0.  0.
        5    1    3    3  502    0 -0.56013711329E+03 -0.52141533069E+03  0.19792709483E+04  0.21220657647E+04  0.46999998093E+01 0. -1.
       -5    1    3    3    0  502  0.56013711329E+03  0.52141533069E+03 -0.38378118272E+03  0.85611775999E+03  0.46999998093E+01 0.  1.
</event>
<event>
 5   0  0.1234988E-04  0.2313642E+04  0.7818609E-02  0.8472561E-01
        2   -1    0    0  501    0  0.00000000000E+00  0.00000000000E+00  0.14013732138E+04  0.14013732139E+04  0.25500000920E-02 0.  1.
       -2   -1    0    0    0  501  0.00000000000E+00  0.00000000000E+00 -0.95494561003E+03  0.95494561003E+03  0.25500000920E-02 0. -1.
    10030    2    1    2    0    0  0.00000000000E+00  0.00000000000E+00  0.44642760382E+03  0.23563188239E+04  0.23136423220E+04 0.  0.
        5    1    3    3  502    0 -0.21964724692E+03  0.63085878873E+03 -0.73865691173E+03  0.99592361536E+03  0.46999998093E+01 0. -1.
       -5    1    3    3    0  502  0.21964724692E+03 -0.63085878873E+03  0.11850845155E+04  0.13603952085E+04  0.46999998093E+01 0.  1.
</event>
<event>
 5   0  0.1234988E-04  0.2321643E+04  0.7818609E-02  0.8469436E-01
       -2   -1    0    0    0  501  0.00000000000E+00  0.00000000000E+00  0.16839216597E+04  0.16839216597E+04  0.25500000920E-02 0. -1.
        2   -1    0    0  501    0  0.00000000000E+00  0.00000000000E+00 -0.80021949207E+03  0.80021949208E+03  0.25500000920E-02 0.  1.
    10030    2    1    2    0    0  0.00000000000E+00  0.00000000000E+00  0.88370216763E+03  0.24841411518E+04  0.23216433277E+04 0.  0.
        5    1    3    3  502    0 -0.48084447406E+03  0.90660682097E+03 -0.13865072096E+03  0.10355643140E+04  0.46999998093E+01 0.  1.
       -5    1    3    3    0  502  0.48084447406E+03 -0.90660682097E+03  0.10223528886E+04  0.14485768377E+04  0.46999998093E+01 0. -1.
</event>
<event>
 5   0  0.1270613E-04  0.2331094E+04  0.7818609E-02  0.8465761E-01
       -2   -1    0    0    0  501  0.00000000000E+00  0.00000000000E+00  0.10884881645E+04  0.10884881645E+04  0.25500000920E-02 0.  1.
        2   -1    0    0  501    0  0.00000000000E+00  0.00000000000E+00 -0.12480616773E+04  0.12480616773E+04  0.25500000920E-02 0. -1.
    10030    2    1    2    0    0  0.00000000000E+00  0.00000000000E+00 -0.15957351281E+03  0.23365498419E+04  0.23310944763E+04 0.  0.
        2    1    3    3  502    0 -0.26259118995E+03 -0.20202048547E+03  0.10402960604E+04  0.10917794204E+04  0.25500000920E-02 0.  1.
       -2    1    3    3    0  502  0.26259118995E+03  0.20202048547E+03 -0.11998695732E+04  0.12447704215E+04  0.25500000920E-02 0. -1.
</event>
<event>
 5   0  0.5632156E-05  0.2252835E+04  0.7818609E-02  0.8496753E-01
        1   -1    0    0  501    0  0.00000000000E+00  0.00000000000E+00  0.12318790969E+04  0.12318790969E+04  0.50400001928E-02 0. -1.
       -1   -1    0    0    0  501  0.00000000000E+00  0.00000000000E+00 -0.10299843385E+04  0.10299843385E+04  0.50400001928E-02 0.  1.
    10030    2    1    2    0    0  0.00000000000E+00  0.00000000000E+00  0.20189475846E+03  0.22618634354E+04  0.22528348157E+04 0.  0.
        4    1    3    3  502    0  0.87207624148E+03  0.71284535103E+03  0.88687858641E+02  0.11298374284E+04  0.12699999809E+01 0.  1.
       -4    1    3    3    0  502 -0.87207624148E+03 -0.71284535103E+03  0.11320689982E+03  0.11320260070E+04  0.12699999809E+01 0. -1.
</event>
<event>
 5   0  0.1237296E-04  0.2359675E+04  0.7818609E-02  0.8454757E-01
       -2   -1    0    0    0  501  0.00000000000E+00  0.00000000000E+00  0.12171661755E+04  0.12171661755E+04  0.25500000920E-02 0. -1.
        2   -1    0    0  501    0  0.00000000000E+00  0.00000000000E+00 -0.11436536952E+04  0.11436536952E+04  0.25500000920E-02 0.  1.
    10030    2    1    2    0    0  0.00000000000E+00  0.00000000000E+00  0.73512480304E+02  0.23608198706E+04  0.23596750575E+04 0.  0.
        1    1    3    3  502    0  0.90369584025E+03 -0.27065763895E+03 -0.67217406176E+03  0.11583348819E+04  0.50400001928E-02 0.  1.
       -1    1    3    3    0  502 -0.90369584025E+03  0.27065763895E+03  0.74568654207E+03  0.12024849888E+04  0.50400001928E-02 0. -1.
</event>
<event>
 5   0  0.1234988E-04  0.2255882E+04  0.7818609E-02  0.8495522E-01
        2   -1    0    0  501    0  0.00000000000E+00  0.00000000000E+00  0.24240424220E+04  0.24240424220E+04  0.25500000920E-02 0. -1.
       -2   -1    0    0    0  501  0.00000000000E+00  0.00000000000E+00 -0.52484694545E+03  0.52484694545E+03  0.25500000920E-02 0.  1.
    10030    2    1    2    0    0  0.00000000000E+00  0.00000000000E+00  0.18991954766E+04  0.29488893675E+04  0.22558823204E+04 0.  0.
        5    1    3    3  502    0 -0.75579927523E+03  0.13356511238E+03  0.20300418232E+04  0.21702912426E+04  0.46999998093E+01 0. -1.
       -5    1    3    3    0  502  0.75579927523E+03 -0.13356511238E+03 -0.13084634661E+03  0.77859812491E+03  0.46999998093E+01 0.  1.
</event>
<event>
 5   0  0.1281432E-04  0.1709074E+04  0.7818609E-02  0.8756206E-01
       -2   -1    0    0    0  501  0.00000000000E+00  0.00000000000E+00  0.39294300549E+03  0.39294300550E+03  0.25500000920E-02 0. -1.
        2   -1    0    0  501    0  0.00000000000E+00  0.00000000000E+00 -0.18583703584E+04  0.18583703584E+04  0.25500000920E-02 0.  1.
    10030    2    1    2    0    0  0.00000000000E+00  0.00000000000E+00 -0.14654273529E+04  0.22513133639E+04  0.17090741751E+04 0.  0.
        4    1    3    3  502    0  0.70308354781E+03  0.15297451023E+03 -0.12547567146E+03  0.73039265673E+03  0.12699999809E+01 0. -1.
       -4    1    3    3    0  502 -0.70308354781E+03 -0.15297451023E+03 -0.13399516815E+04  0.15209207072E+04  0.12699999809E+01 0.  1.
</event>
<event>
 5   0  0.1257524E-04  0.2334690E+04  0.7818609E-02  0.8464368E-01
        2   -1    0    0  501    0  0.00000000000E+00  0.00000000000E+00  0.24740723025E+04  0.24740723025E+04  0.25500000920E-02 0. -1.
       -2   -1    0    0    0  501  0.00000000000E+00  0.00000000000E+00 -0.55078995138E+03  0.55078995138E+03  0.25500000920E-02 0.  1.
    10030    2    1    2    0    0  0.00000000000E+00  0.00000000000E+00  0.19232823512E+04  0.30248622539E+04  0.23346898408E+04 0.  0.
        3    1    3    3  502    0  0.43233934359E+03  0.99132528950E+03  0.39237883494E+03  0.11504800293E+04  0.10100000352E+00 0.  1.
       -3    1    3    3    0  502 -0.43233934359E+03 -0.99132528950E+03  0.15309035162E+04  0.18743822246E+04  0.10100000352E+00 0. -1.
</event>
<event>
 5   0  0.1234988E-04  0.2380619E+04  0.7818609E-02  0.8446795E-01
        2   -1    0    0  501    0  0.00000000000E+00  0.00000000000E+00  0.13821537182E+04  0.13821537182E+04  0.25500000920E-02 0. -1.
       -2   -1    0    0    0  501  0.00000000000E+00  0.00000000000E+00 -0.10250934804E+04  0.10250934804E+04  0.25500000920E-02 0.  1.
    10030    2    1    2    0    0  0.00000000000E+00  0.00000000000E+00  0.35706023780E+03  0.24072471986E+04  0.23806190501E+04 0.  0.
        5    1    3    3  502    0  0.53400930766E+03  0.26405969616E+03 -0.86349198924E+03  0.10490633772E+04  0.46999998093E+01 0.  1.
       -5    1    3    3    0  502 -0.53400930766E+03 -0.26405969616E+03  0.12205522270E+04  0.13581838214E+04  0.46999998093E+01 0. -1.
</event>
<event>
 5   0  0.5632156E-05  0.2318973E+04  0.7818609E-02  0.8470478E-01
       -1   -1    0    0    0  501  0.00000000000E+00  0.00000000000E+00  0.67594025357E+03  0.67594025359E+03  0.50400001928E-02 0.  1.
        1   -1    0    0  501    0  0.00000000000E+00  0.00000000000E+00 -0.19889468021E+04  0.19889468021E+04  0.50400001928E-02 0. -1.
    10030    2    1    2    0    0  0.00000000000E+00  0.00000000000E+00 -0.13130065486E+04  0.26648870557E+04  0.23189732261E+04 0.  0.
        4    1    3    3  502    0  0.71756927575E+03  0.56562239963E+03  0.16382253282E+03  0.92826386315E+03  0.12699999809E+01 0.  1.
       -4    1    3    3    0  502 -0.71756927575E+03 -0.56562239963E+03 -0.14768290814E+04  0.17366231926E+04  0.12699999809E+01 0. -1.
</event>
<event>
 5   0  0.5663790E-05  0.2365052E+04  0.7818609E-02  0.8452705E-01
       -1   -1    0    0    0  501  0.00000000000E+00  0.00000000000E+00  0.11067081397E+04  0.11067081397E+04  0.50400001928E-02 0.  1.
        1   -1    0    0  501    0  0.00000000000E+00  0.00000000000E+00 -0.12635376890E+04  0.12635376890E+04  0.50400001928E-02 0. -1.
    10030    2    1    2    0    0  0.00000000000E+00  0.00000000000E+00 -0.15682954930E+03  0.23702458288E+04  0.23650517502E+04 0.  0.
        3    1    3    3  502    0 -0.18655805337E+03 -0.11370880499E+03 -0.12431348350E+04  0.12621877150E+04  0.10100000352E+00 0. -1.
       -3    1    3    3    0  502  0.18655805337E+03  0.11370880499E+03  0.10863052857E+04  0.11080581138E+04  0.10100000352E+00 0.  1.
</event>
<event>
 5   0  0.5924654E-05  0.2240460E+04  0.7818609E-02  0.8501774E-01
       -1   -1    0    0    0  501  0.00000000000E+00  0.00000000000E+00  0.13382525136E+04  0.13382525136E+04  0.50400001928E-02 0.  1.
        1   -1    0    0  501    0  0.00000000000E+00  0.00000000000E+00 -0.93772695640E+03  0.93772695642E+03  0.50400001928E-02 0. -1.
    10030    2    1    2    0    0  0.00000000000E+00  0.00000000000E+00  0.40052555717E+03  0.22759794700E+04  0.22404601817E+04 0.  0.
        5    1    3    3  502    0  0.46941394323E+03  0.97913798949E+03  0.48000589571E+03  0.11872187677E+04  0.46999998093E+01 0. -1.
       -5    1    3    3    0  502 -0.46941394323E+03 -0.97913798949E+03 -0.79480338540E+02  0.10887607023E+04  0.46999998093E+01 0.  1.
</event>
<event>
 5   0  0.1237296E-04  0.2311158E+04  0.7818609E-02  0.8473535E-01
        2   -1    0    0  501    0  0.00000000000E+00  0.00000000000E+00  0.14879131596E+04  0.14879131596E+04  0.25500000920E-02 0.  1.
       -2   -1    0    0    0  501  0.00000000000E+00  0.00000000000E+00 -0.89747382161E+03  0.89747382162E+03  0.25500000920E-02 0. -1.
    10030    2    1    2    0    0  0.00000000000E+00  0.00000000000E+00  0.59043933799E+03  0.23853869812E+04  0.23111582461E+04 0.  0.
        1    1    3    3  502    0  0.39519899375E+03  0.10515303420E+03  0.14107299578E+04  0.14688085032E+04  0.50400001928E-02 0.  1.
       -1    1    3    3    0  502 -0.39519899375E+03 -0.10515303420E+03 -0.82029061984E+03  0.91657847798E+03  0.50400001928E-02 0. -1.
</event>
<event>
 5   0  0.1234988E-04  0.2286264E+04  0.7818609E-02  0.8483357E-01
        2   -1    0    0  501    0  0.00000000000E+00  0.00000000000E+00  0.73314616257E+03  0.73314616258E+03  0.25500000920E-02 0.  1.
       -2   -1    0    0    0  501  0.00000000000E+00  0.00000000000E+00 -0.17823878801E+04  0.17823878801E+04  0.25500000920E-02 0. -1.
    10030    2    1    2    0    0  0.00000000000E+00  0.00000000000E+00 -0.10492417176E+04  0.25155340427E+04  0.22862640570E+04 0.  0.
        5    1    3    3  502    0 -0.71040646841E+02 -0.11040534969E+04 -0.84112701487E+03  0.13897833078E+04  0.46999998093E+01 0. -1.
       -5    1    3    3    0  502  0.71040646841E+02  0.11040534969E+04 -0.20811470269E+03  0.11257507349E+04  0.46999998093E+01 0.  1.
</event>
<event>
 5   0  0.5924654E-05  0.2204551E+04  0.7818609E-02  0.8516536E-01
        1   -1    0    0  501    0  0.00000000000E+00  0.00000000000E+00  0.10018450737E+04  0.10018450737E+04  0.50400001928E-02 0.  1.
       -1   -1    0    0    0  501  0.00000000000E+00  0.00000000000E+00 -0.12127739698E+04  0.12127739698E+04  0.50400001928E-02 0. -1.
    10030    2    1    2    0    0  0.00000000000E+00  0.00000000000E+00 -0.21092889603E+03  0.22146190435E+04  0.22045513169E+04 0.  0.
        5    1    3    3  502    0  0.38251204456E+02 -0.58441166984E+03  0.83260375648E+03  0.10179642724E+04  0.46999998093E+01 0.  1.
       -5    1    3    3    0  502 -0.38251204456E+02  0.58441166984E+03 -0.10435326525E+04  0.11966547712E+04  0.46999998093E+01 0. -1.
</event>
<event>
 5   0  0.5642466E-05  0.2341544E+04  0.7818609E-02  0.8461719E-01
        1   -1    0    0  501    0  0.00000000000E+00  0.00000000000E+00  0.18004629029E+04  0.18004629029E+04  0.50400001928E-02 0. -1.
       -1   -1    0    0    0  501  0.00000000000E+00  0.00000000000E+00 -0.76130803870E+03  0.76130803872E+03  0.50400001928E-02 0.  1.
    10030    2    1    2    0    0  0.00000000000E+00  0.00000000000E+00  0.10391548642E+04  0.25617709416E+04  0.23415438338E+04 0.  0.
        1    1    3    3  502    0 -0.32477741407E+03  0.68349561051E+03  0.14969403251E+04  0.16773422296E+04  0.50400001928E-02 0. -1.
       -1    1    3    3    0  502  0.32477741407E+03 -0.68349561051E+03 -0.45778546095E+03  0.88442871197E+03  0.50400001928E-02 0.  1.
</event>
<event>
 5   0  0.1281432E-04  0.2182866E+04  0.7818609E-02  0.8525594E-01
       -2   -1    0    0    0  501  0.00000000000E+00  0.00000000000E+00  0.95205047649E+03  0.95205047650E+03  0.25500000920E-02 0. -1.
        2   -1    0    0  501    0  0.00000000000E+00  0.00000000000E+00 -0.12512212692E+04  0.12512212692E+04  0.25500000920E-02 0.  1.
    10030    2    1    2    0    0  0.00000000000E+00  0.00000000000E+00 -0.29917079266E+03  0.22032717457E+04  0.21828658278E+04 0.  0.
        4    1    3    3  502    0  0.38143366893E+03  0.83921546112E+03 -0.73938510710E+03  0.11817217031E+04  0.12699999809E+01 0.  1.
       -4    1    3    3    0  502 -0.38143366893E+03 -0.83921546112E+03  0.44021431444E+03  0.10215500426E+04  0.12699999809E+01 0. -1.
</event>
<event>
 5   0  0.5642466E-05  0.2288789E+04  0.7818609E-02  0.8482355E-01
        1   -1    0    0  501    0  0.00000000000E+00  0.00000000000E+00  0.99795967144E+03  0.99795967146E+03  0.50400001928E-02 0.  1.
       -1   -1    0    0    0  501  0.00000000000E+00  0.00000000000E+00 -0.13123165223E+04  0.13123165223E+04  0.50400001928E-02 0. -1.
    10030    2    1    2    0    0  0.00000000000E+00  0.00000000000E+00 -0.31435685083E+03  0.23102761937E+04  0.22887891693E+04 0.  0.
        1    1    3    3  502    0  0.88965845317E+02 -0.10111258908E+04 -0.69067454754E+03  0.12277303529E+04  0.50400001928E-02 0. -1.
       -1    1    3    3    0  502 -0.88965845317E+02  0.10111258908E+04  0.37631769671E+03  0.10825458409E+04  0.50400001928E-02 0.  1.
</event>
<event>
 5   0  0.1281432E-04  0.2158563E+04  0.7818609E-02  0.8535876E-01
       -2   -1    0    0    0  501  0.00000000000E+00  0.00000000000E+00  0.42956131240E+03  0.42956131241E+03  0.25500000920E-02 0.  1.
        2   -1    0    0  501    0  0.00000000000E+00  0.00000000000E+00 -0.27117173668E+04  0.27117173668E+04  0.25500000920E-02 0. -1.
    10030    2    1    2    0    0  0.00000000000E+00  0.00000000000E+00 -0.22821560544E+04  0.31412786792E+04  0.21585632916E+04 0.  0.
        4    1    3    3  502    0 -0.35527808887E+03  0.22387248562E+03 -0.25879539872E+04  0.26218025980E+04  0.12699999809E+01 0. -1.
       -4    1    3    3    0  502  0.35527808887E+03 -0.22387248562E+03  0.30579793284E+03  0.51947608114E+03  0.12699999809E+01 0.  1.
</event>
<event>
 5   0  0.1237296E-04  0.2238305E+04  0.7818609E-02  0.8502652E-01
       -2   -1    0    0    0  501  0.00000000000E+00  0.00000000000E+00  0.66606876829E+03  0.66606876830E+03  0.25500000920E-02 0.  1.
        2   -1    0    0  501    0  0.00000000000E+00  0.00000000000E+00 -0.18804399920E+04  0.18804399920E+04  0.25500000920E-02 0. -1.
    10030    2    1    2    0    0  0.00000000000E+00  0.00000000000E+00 -0.12143712237E+04  0.25465087603E+04  0.22383050278E+04 0.  0.
        1    1    3    3  502    0  0.64941315828E+03  0.53058706457E+03  0.23597028058E+03  0.87117280524E+03  0.50400001928E-02 0.  1.
       -1    1    3    3    0  502 -0.64941315828E+03 -0.53058706457E+03 -0.14503415043E+04  0.16753359550E+04  0.50400001928E-02 0. -1.
</event>
<event>
 5   0  0.1234988E-04  0.2216822E+04  0.7818609E-02  0.8511459E-01
        2   -1    0    0  501    0  0.00000000000E+00  0.00000000000E+00  0.12348504769E+04  0.12348504770E+04  0.25500000920E-02 0. -1.
       -2   -1    0    0    0  501  0.00000000000E+00  0.00000000000E+00 -0.99491757097E+03  0.99491757098E+03  0.25500000920E-02 0.  1.
    10030    2    1    2    0    0  0.00000000000E+00  0.00000000000E+00  0.23993290598E+03  0.22297680479E+04  0.22168215418E+04 0.  0.
        5    1    3    3  502    0 -0.16874576784E+03  0.66966339617E+03 -0.75206163328E+03  0.10210499442E+04  0.46999998093E+01 0.  1.
       -5    1    3    3    0  502  0.16874576784E+03 -0.66966339617E+03  0.99199453926E+03  0.12087181037E+04  0.46999998093E+01 0. -1.
</event>
<event>
 5   0  0.5642466E-05  0.2389454E+04  0.7818609E-02  0.8443462E-01
       -1   -1    0    0    0  501  0.00000000000E+00  0.00000000000E+00  0.75799273138E+03  0.75799273140E+03  0.50400001928E-02 0. -1.
        1   -1    0    0  501    0  0.00000000000E+00  0.00000000000E+00 -0.18830953859E+04  0.18830953859E+04  0.50400001928E-02 0.  1.
    10030    2    1    2    0    0  0.00000000000E+00  0.00000000000E+00 -0.11251026545E+04  0.26410881173E+04  0.23894540088E+04 0.  0.
        1    1    3    3  502    0 -0.20136445115E+03 -0.11659449953E+04 -0.74550352399E+03  0.13984816333E+04  0.50400001928E-02 0. -1.
       -1    1    3    3    0  502  0.20136445115E+03  0.11659449953E+04 -0.37959913051E+03  0.12426064840E+04  0.50400001928E-02 0.  1.
</event>
<event>
 5   0  0.5924654E-05  0.2295619E+04  0.7818609E-02  0.8479650E-01
       -1   -1    0    0    0  501  0.00000000000E+00  0.00000000000E+00  0.13082995719E+04  0.13082995719E+04  0.50400001928E-02 0.  1.
        1   -1    0    0  501    0  0.00000000000E+00  0.00000000000E+00 -0.10070070410E+04  0.10070070410E+04  0.50400001928E-02 0. -1.
    10030    2    1    2    0    0  0.00000000000E+00  0.00000000000E+00  0.30129253091E+03  0.23153066129E+04  0.22956192024E+04 0.  0.
        5    1    3    3  502    0 -0.62915918998E+03 -0.20985683539E+03  0.10954638488E+04  0.12806031047E+04  0.46999998093E+01 0.  1.
       -5    1    3    3    0  502  0.62915918998E+03  0.20985683539E+03 -0.79417131792E+03  0.10347035082E+04  0.46999998093E+01 0. -1.
</event>
<event>
 5   0  0.1281432E-04  0.2320339E+04  0.7818609E-02  0.8469944E-01
       -2   -1    0    0    0  501  0.00000000000E+00  0.00000000000E+00  0.12251894516E+04  0.12251894516E+04  0.25500000920E-02 0. -1.
        2   -1    0    0  501    0  0.00000000000E+00  0.00000000000E+00 -0.10986005355E+04  0.10986005355E+04  0.25500000920E-02 0.  1.
    10030    2    1    2    0    0  0.00000000000E+00  0.00000000000E+00  0.12658891615E+03  0.23237899871E+04  0.23203394473E+04 0.  0.
        4    1    3    3  502    0  0.83756461328E+03  0.18377841085E+03 -0.71934266956E+03  0.11192606823E+04  0.12699999809E+01 0.  1.
       -4    1    3    3    0  502 -0.83756461328E+03 -0.18377841085E+03  0.84593158571E+03  0.12045293049E+04  0.12699999809E+01 0. -1.
</event>
<event>
 5   0  0.5632156E-05  0.2329444E+04  0.7818609E-02  0.8466402E-01
       -1   -1    0    0    0  501  0.00000000000E+00  0.00000000000E+00  0.94815001004E+03  0.94815001005E+03  0.50400001928E-02 0. -1.
        1   -1    0    0  501    0  0.00000000000E+00  0.00000000000E+00 -0.14307620122E+04  0.14307620122E+04  0.50400001928E-02 0.  1.
    10030    2    1    2    0    0  0.00000000000E+00  0.00000000000E+00 -0.48261200214E+03  0.23789120222E+04  0.23294437244E+04 0.  0.
        4    1    3    3  502    0  0.15936093823E+03  0.42894721822E+03 -0.13351179334E+04  0.14113586127E+04  0.12699999809E+01 0.  1.
       -4    1    3    3    0  502 -0.15936093823E+03 -0.42894721822E+03  0.85250593124E+03  0.96755340956E+03  0.12699999809E+01 0. -1.
</event>
<event>
 5   0  0.1281432E-04  0.1506221E+04  0.7818609E-02  0.8880326E-01
        2   -1    0    0  501    0  0.00000000000E+00  0.00000000000E+00  0.15911420767E+04  0.15911420767E+04  0.25500000920E-02 0. -1.
       -2   -1    0    0    0  501  0.00000000000E+00  0.00000000000E+00 -0.35645817058E+03  0.35645817059E+03  0.25500000920E-02 0.  1.
    10030    2    1    2    0    0  0.00000000000E+00  0.00000000000E+00  0.12346839062E+04  0.19476002473E+04  0.15062212239E+04 0.  0.
        4    1    3    3  502    0 -0.20135811597E+03 -0.51846719468E+03  0.12738951411E+04  0.13900229373E+04  0.12699999809E+01 0. -1.
       -4    1    3    3    0  502  0.20135811597E+03  0.51846719468E+03 -0.39211234921E+02  0.55757731004E+03  0.12699999809E+01 0.  1.
</event>
<event>
 5   0  0.5843670E-05  0.2294276E+04  0.7818609E-02  0.8480181E-01
       -1   -1    0    0    0  501  0.00000000000E+00  0.00000000000E+00  0.11117601273E+04  0.11117601273E+04  0.50400001928E-02 0.  1.
        1   -1    0    0  501    0  0.00000000000E+00  0.00000000000E+00 -0.11836420827E+04  0.11836420827E+04  0.50400001928E-02 0. -1.
    10030    2    1    2    0    0  0.00000000000E+00  0.00000000000E+00 -0.71881955378E+02  0.22954022100E+04  0.22942764197E+04 0.  0.
        2    1    3    3  502    0 -0.26560815603E+03 -0.49766934216E+03 -0.10352822521E+04  0.11789961018E+04  0.25500000920E-02 0. -1.
       -2    1    3    3    0  502  0.26560815603E+03  0.49766934216E+03  0.96340029668E+03  0.11164061082E+04  0.25500000920E-02 0.  1.
</event>
<event>
 5   0  0.1237296E-04  0.2445718E+04  0.7818609E-02  0.8422583E-01
       -2   -1    0    0    0  501  0.00000000000E+00  0.00000000000E+00  0.12323819100E+04  0.12323819100E+04  0.25500000920E-02 0.  1.
        2   -1    0    0  501    0  0.00000000000E+00  0.00000000000E+00 -0.12134093457E+04  0.12134093457E+04  0.25500000920E-02 0. -1.
    10030    2    1    2    0    0  0.00000000000E+00  0.00000000000E+00  0.18972564293E+02  0.24457912557E+04  0.24457176674E+04 0.  0.
        1    1    3    3  502    0 -0.31696015288E+03 -0.94580895211E+03 -0.69790012273E+03  0.12174082691E+04  0.50400001928E-02 0. -1.
       -1    1    3    3    0  502  0.31696015288E+03  0.94580895211E+03  0.71687268702E+03  0.12283829866E+04  0.50400001928E-02 0.  1.
</event>
<event>
 5   0  0.5642466E-05  0.2342613E+04  0.7818609E-02  0.8461307E-01
       -1   -1    0    0    0  501  0.00000000000E+00  0.00000000000E+00  0.63030577533E+03  0.63030577535E+03  0.50400001928E-02 0. -1.
        1   -1    0    0  501    0  0.00000000000E+00  0.00000000000E+00 -0.21766555139E+04  0.21766555139E+04  0.50400001928E-02 0.  1.
    10030    2    1    2    0    0  0.00000000000E+00  0.00000000000E+00 -0.15463497386E+04  0.28069612893E+04  0.23426126793E+04 0.  0.
        1    1    3    3  502    0 -0.64764669559E+02 -0.81058789456E+03  0.23696743034E+03  0.84699513593E+03  0.50400001928E-02 0. -1.
       -1    1    3    3    0  502  0.64764669559E+02  0.81058789456E+03 -0.17833171689E+04  0.19599661533E+04  0.50400001928E-02 0.  1.
</event>
<event>
 5   0  0.5642466E-05  0.1640835E+04  0.7818609E-02  0.8795847E-01
       -1   -1    0    0    0  501  0.00000000000E+00  0.00000000000E+00  0.96021205108E+03  0.96021205109E+03  0.50400001928E-02 0.  1.
        1   -1    0    0  501    0  0.00000000000E+00  0.00000000000E+00 -0.70097520674E+03  0.70097520676E+03  0.50400001928E-02 0. -1.
    10030    2    1    2    0    0  0.00000000000E+00  0.00000000000E+00  0.25923684433E+03  0.16611872579E+04  0.16408349595E+04 0.  0.
        1    1    3    3  502    0 -0.56202558184E+03  0.42875734228E+03  0.55117145961E+03  0.89637915589E+03  0.50400001928E-02 0.  1.
       -1    1    3    3    0  502  0.56202558184E+03 -0.42875734228E+03 -0.29193461528E+03  0.76480810196E+03  0.50400001928E-02 0. -1.
</event>
<event>
 5   0  0.5663790E-05  0.2201177E+04  0.7818609E-02  0.8517938E-01
       -1   -1    0    0    0  501  0.00000000000E+00  0.00000000000E+00  0.17123227469E+04  0.17123227469E+04  0.50400001928E-02 0.  1.
        1   -1    0    0  501    0  0.00000000000E+00  0.00000000000E+00 -0.70739870060E+03  0.70739870061E+03  0.50400001928E-02 0. -1.
    10030    2    1    2    0    0  0.00000000000E+00  0.00000000000E+00  0.10049240463E+04  0.24197214475E+04  0.22011768545E+04 0.  0.
        3    1    3    3  502    0  0.56642795765E+03  0.15527656342E+03  0.15256501229E+04  0.16347965470E+04  0.10100000352E+00 0.  1.
       -3    1    3    3    0  502 -0.56642795765E+03 -0.15527656342E+03 -0.52072607662E+03  0.78492490050E+03  0.10100000352E+00 0. -1.
</event>
<event>
 5   0  0.1257524E-04  0.2415867E+04  0.7818609E-02  0.8433587E-01
        2   -1    0    0  501    0  0.00000000000E+00  0.00000000000E+00  0.17755537252E+04  0.17755537252E+04  0.25500000920E-02 0. -1.
       -2   -1    0    0    0  501  0.00000000000E+00  0.00000000000E+00 -0.82177377605E+03  0.82177377606E+03  0.25500000920E-02 0.  1.
    10030    2    1    2    0    0  0.00000000000E+00  0.00000000000E+00  0.95377994913E+03  0.25973275012E+04  0.24158671233E+04 0.  0.
        3    1    3    3  502    0 -0.31593965809E+03  0.45189654053E+03 -0.67858032436E+03  0.87435668792E+03  0.10100000352E+00 0.  1.
       -3    1    3    3    0  502  0.31593965809E+03 -0.45189654053E+03  0.16323602735E+04  0.17229708133E+04  0.10100000352E+00 0. -1.
</event>
<event>
 5   0  0.1270613E-04  0.2315391E+04  0.7818609E-02  0.8471877E-01
       -2   -1    0    0    0  501  0.00000000000E+00  0.00000000000E+00  0.89244663826E+03  0.89244663826E+03  0.25500000920E-02 0. -1.
        2   -1    0    0  501    0  0.00000000000E+00  0.00000000000E+00 -0.15017808071E+04  0.15017808071E+04  0.25500000920E-02 0.  1.
    10030    2    1    2    0    0  0.00000000000E+00  0.00000000000E+00 -0.60933416886E+03  0.23942274454E+04  0.23153913127E+04 0.  0.
        2    1    3    3  502    0  0.26389329452E+03 -0.88826094498E+03  0.41294489518E+03  0.10144804896E+04  0.25500000920E-02 0. -1.
       -2    1    3    3    0  502 -0.26389329452E+03  0.88826094498E+03 -0.10222790640E+04  0.13797469558E+04  0.25500000920E-02 0.  1.
</event>
<event>
 5   0  0.5843670E-05  0.2156398E+04  0.7818609E-02  0.8536799E-01
       -1   -1    0    0    0  501  0.00000000000E+00  0.00000000000E+00  0.71008269625E+03  0.71008269626E+03  0.50400001928E-02 0. -1.
        1   -1    0    0  501    0  0.00000000000E+00  0.00000000000E+00 -0.16371517449E+04  0.16371517449E+04  0.50400001928E-02 0.  1.
    10030    2    1    2    0    0  0.00000000000E+00  0.00000000000E+00 -0.92706904865E+03  0.23472344412E+04  0.21563980386E+04 0.  0.
        2    1    3    3  502    0  0.63957185465E+03  0.43221596194E+03  0.35584501297E+03  0.84999321661E+03  0.25500000920E-02 0. -1.
       -2    1    3    3    0  502 -0.63957185465E+03 -0.43221596194E+03 -0.12829140616E+04  0.14972412246E+04  0.25500000920E-02 0.  1.
</event>
<event>
 5   0  0.1237296E-04  0.2363234E+04  0.7818609E-02  0.8453398E-01
        2   -1    0    0  501    0  0.00000000000E+00  0.00000000000E+00  0.16556748676E+04  0.16556748676E+04  0.25500000920E-02 0. -1.
       -2   -1    0    0    0  501  0.00000000000E+00  0.00000000000E+00 -0.84329250814E+03  0.84329250815E+03  0.25500000920E-02 0.  1.
    10030    2    1    2    0    0  0.00000000000E+00  0.00000000000E+00  0.81238235945E+03  0.24989673757E+04  0.23632335575E+04 0.  0.
        1    1    3    3  502    0 -0.10110642442E+04 -0.38632986236E+03  0.90746089185E+03  0.14124400655E+04  0.50400001928E-02 0. -1.
       -1    1    3    3    0  502  0.10110642442E+04  0.38632986236E+03 -0.95078532399E+02  0.10865273102E+04  0.50400001928E-02 0.  1.
</event>
<event>
 5   0  0.1234988E-04  0.2413991E+04  0.7818609E-02  0.8434284E-01
       -2   -1    0    0    0  501  0.00000000000E+00  0.00000000000E+00  0.55756003565E+03  0.55756003566E+03  0.25500000920E-02 0. -1.
        2   -1    0    0  501    0  0.00000000000E+00  0.00000000000E+00 -0.26128807596E+04  0.26128807596E+04  0.25500000920E-02 0.  1.
    10030    2    1    2    0    0  0.00000000000E+00  0.00000000000E+00 -0.20553207240E+04  0.31704407953E+04  0.24139907949E+04 0.  0.
        5    1    3    3  502    0 -0.10638759044E+04 -0.50738533137E+03 -0.13689926548E+04  0.18064979361E+04  0.46999998093E+01 0.  1.
       -5    1    3    3    0  502  0.10638759044E+04  0.50738533137E+03 -0.68632806924E+03  0.13639428592E+04  0.46999998093E+01 0. -1.
</event>
<event>
 5   0  0.5632156E-05  0.2247494E+04  0.7818609E-02  0.8498916E-01
       -1   -1    0    0    0  501  0.00000000000E+00  0.00000000000E+00  0.61625648072E+03  0.61625648074E+03  0.50400001928E-02 0.  1.
        1   -1    0    0  501    0  0.00000000000E+00  0.00000000000E+00 -0.20491582345E+04  0.20491582345E+04  0.50400001928E-02 0. -1.
    10030    2    1    2    0    0  0.00000000000E+00  0.00000000000E+00 -0.14329017538E+04  0.26654147152E+04  0.22474937526E+04 0.  0.
        4    1    3    3  502    0 -0.75043234783E+03  0.78979279051E+03 -0.10431452103E+04  0.15083351429E+04  0.12699999809E+01 0.  1.
       -4    1    3    3    0  502  0.75043234783E+03 -0.78979279051E+03 -0.38975654343E+03  0.11570795723E+04  0.12699999809E+01 0. -1.
</event>
<event>
 5   0  0.1237296E-04  0.2312984E+04  0.7818609E-02  0.8472819E-01
        2   -1    0    0  501    0  0.00000000000E+00  0.00000000000E+00  0.19237109562E+04  0.19237109562E+04  0.25500000920E-02 0. -1.
       -2   -1    0    0    0  501  0.00000000000E+00  0.00000000000E+00 -0.69525733993E+03  0.69525733993E+03  0.25500000920E-02 0.  1.
    10030    2    1    2    0    0  0.00000000000E+00  0.00000000000E+00  0.12284536162E+04  0.26189682961E+04  0.23129843598E+04 0.  0.
        1    1    3    3  502    0  0.11438949537E+04 -0.88154150523E+02  0.44933439518E+03  0.12321396910E+04  0.50400001928E-02 0. -1.
       -1    1    3    3    0  502 -0.11438949537E+04  0.88154150523E+02  0.77911922105E+03  0.13868286051E+04  0.50400001928E-02 0.  1.
</event>
<event>
 5   0  0.5642466E-05  0.2281132E+04  0.7818609E-02  0.8485398E-01
       -1   -1    0    0    0  501  0.00000000000E+00  0.00000000000E+00  0.15719336009E+04  0.15719336009E+04  0.50400001928E-02 0.  1.
        1   -1    0    0  501    0  0.00000000000E+00  0.00000000000E+00 -0.82757368491E+03  0.82757368493E+03  0.50400001928E-02 0. -1.
    10030    2    1    2    0    0  0.00000000000E+00  0.00000000000E+00  0.74435991597E+03  0.23995072858E+04  0.22811320721E+04 0.  0.
        1    1    3    3  502    0 -0.12545798286E+03 -0.41902377937E+03 -0.73584372757E+03  0.85602956991E+03  0.50400001928E-02 0. -1.
       -1    1    3    3    0  502  0.12545798286E+03  0.41902377937E+03  0.14802036435E+04  0.15434777159E+04  0.50400001928E-02 0.  1.
</event>
<event>
 5   0  0.1237296E-04  0.2250823E+04  0.7818609E-02  0.8497567E-01
       -2   -1    0    0    0  501  0.00000000000E+00  0.00000000000E+00  0.10571660611E+04  0.10571660611E+04  0.25500000920E-02 0.  1.
        2   -1    0    0  501    0  0.00000000000E+00  0.00000000000E+00 -0.11980629603E+04  0.11980629603E+04  0.25500000920E-02 0. -1.
    10030    2    1    2    0    0  0.00000000000E+00  0.00000000000E+00 -0.14089689924E+03  0.22552290214E+04  0.22508234055E+04 0.  0.
        1    1    3    3  502    0  0.36660740717E+03  0.73890327682E+03 -0.83756602530E+03  0.11755406800E+04  0.50400001928E-02 0. -1.
       -1    1    3    3    0  502 -0.36660740717E+03 -0.73890327682E+03  0.69666912606E+03  0.10796883415E+04  0.50400001928E-02 0.  1.
</event>
<event>
 5   0  0.5632156E-05  0.2267978E+04  0.7818609E-02  0.8490655E-01
        1   -1    0    0  501    0  0.00000000000E+00  0.00000000000E+00  0.94535116165E+03  0.94535116167E+03  0.50400001928E-02 0.  1.
       -1   -1    0    0    0  501  0.00000000000E+00  0.00000000000E+00 -0.13602679157E+04  0.13602679158E+04  0.50400001928E-02 0. -1.
    10030    2    1    2    0    0  0.00000000000E+00  0.00000000000E+00 -0.41491675409E+03  0.23056190774E+04  0.22679778256E+04 0.  0.
        4    1    3    3  502    0 -0.91529140178E+03 -0.66802623534E+03 -0.16300809284E+03  0.11448103129E+04  0.12699999809E+01 0.  1.
       -4    1    3    3    0  502  0.91529140178E+03  0.66802623534E+03 -0.25190866125E+03  0.11608087645E+04  0.12699999809E+01 0. -1.
</event>
<event>
 5   0  0.1270613E-04  0.2321940E+04  0.7818609E-02  0.8469320E-01
       -2   -1    0    0    0  501  0.00000000000E+00  0.00000000000E+00  0.64883547168E+03  0.64883547169E+03  0.25500000920E-02 0.  1.
        2   -1    0    0  501    0  0.00000000000E+00  0.00000000000E+00 -0.20773388883E+04  0.20773388884E+04  0.25500000920E-02 0. -1.
    10030    2    1    2    0    0  0.00000000000E+00  0.00000000000E+00 -0.14285034167E+04  0.27261743600E+04  0.23219398420E+04 0.  0.
        2    1    3    3  502    0 -0.10239841815E+03  0.45808264333E+03  0.53245974829E+03  0.70981584070E+03  0.25500000920E-02 0.  1.
       -2    1    3    3    0  502  0.10239841815E+03 -0.45808264333E+03 -0.19609631650E+04  0.20163585193E+04  0.25500000920E-02 0. -1.
</event>
<event>
 5   0  0.1270613E-04  0.2291667E+04  0.7818609E-02  0.8481214E-01
       -2   -1    0    0    0  501  0.00000000000E+00  0.00000000000E+00  0.10484420167E+04  0.10484420167E+04  0.25500000920E-02 0. -1.
        2   -1    0    0  501    0  0.00000000000E+00  0.00000000000E+00 -0.12522720840E+04  0.12522720840E+04  0.25500000920E-02 0.  1.
    10030    2    1    2    0    0  0.00000000000E+00  0.00000000000E+00 -0.20383006728E+03  0.23007141007E+04  0.22916672264E+04 0.  0.
        2    1    3    3  502    0  0.65864778716E+03 -0.71445238986E+03 -0.71149862098E+03  0.12043626582E+04  0.25500000920E-02 0.  1.
       -2    1    3    3    0  502 -0.65864778716E+03  0.71445238986E+03  0.50766855370E+03  0.10963514424E+04  0.25500000920E-02 0. -1.
</event>
<event>
 5   0  0.5632156E-05  0.2294677E+04  0.7818609E-02  0.8480023E-01
        1   -1    0    0  501    0  0.00000000000E+00  0.00000000000E+00  0.15452333573E+04  0.15452333573E+04  0.50400001928E-02 0.  1.
       -1   -1    0    0    0  501  0.00000000000E+00  0.00000000000E+00 -0.85190087691E+03  0.85190087693E+03  0.50400001928E-02 0. -1.
    10030    2    1    2    0    0  0.00000000000E+00  0.00000000000E+00  0.69333248041E+03  0.23971342343E+04  0.22946770162E+04 0.  0.
        4    1    3    3  502    0 -0.10749332312E+03  0.87528527773E+03  0.11134029457E+04  0.14203333638E+04  0.12699999809E+01 0.  1.
       -4    1    3    3    0  502  0.10749332312E+03 -0.87528527773E+03 -0.42007046525E+03  0.97680087049E+03  0.12699999809E+01 0. -1.
</event>
<event>
 5   0  0.5924654E-05  0.2294940E+04  0.7818609E-02  0.8479919E-01
        1   -1    0    0  501    0  0.00000000000E+00  0.00000000000E+00  0.13557170939E+04  0.13557170939E+04  0.50400001928E-02 0. -1.
       -1   -1    0    0    0  501  0.00000000000E+00  0.00000000000E+00 -0.97121111843E+03  0.97121111845E+03  0.50400001928E-02 0.  1.
    10030    2    1    2    0    0  0.00000000000E+00  0.00000000000E+00  0.38450597543E+03  0.23269282123E+04  0.22949400995E+04 0.  0.
        5    1    3    3  502    0 -0.20912604927E+03  0.16209421358E+03 -0.93984795791E+03  0.97639362583E+03  0.46999998093E+01 0.  1.
       -5    1    3    3    0  502  0.20912604927E+03 -0.16209421358E+03  0.13243539333E+04  0.13505345865E+04  0.46999998093E+01 0. -1.
</event>
<event>
 5   0  0.5843670E-05  0.2282356E+04  0.7818609E-02  0.8484911E-01
       -1   -1    0    0    0  501  0.00000000000E+00  0.00000000000E+00  0.14813568413E+04  0.14813568413E+04  0.50400001928E-02 0.  1.
        1   -1    0    0  501    0  0.00000000000E+00  0.00000000000E+00 -0.87911789105E+03  0.87911789107E+03  0.50400001928E-02 0. -1.
    10030    2    1    2    0    0  0.00000000000E+00  0.00000000000E+00  0.60223895021E+03  0.23604747323E+04  0.22823560653E+04 0.  0.
        2    1    3    3  502    0  0.53190172662E+03 -0.97021913512E+03  0.59004243758E+03  0.12539516319E+04  0.25500000920E-02 0.  1.
       -2    1    3    3    0  502 -0.53190172662E+03  0.97021913512E+03  0.12196512628E+02  0.11065231005E+04  0.25500000920E-02 0. -1.
</event>
<event>
 5   0  0.1257524E-04  0.1486351E+04  0.7818609E-02  0.8893580E-01
        2   -1    0    0  501    0  0.00000000000E+00  0.00000000000E+00  0.15722253507E+04  0.15722253507E+04  0.25500000920E-02 0. -1.
       -2   -1    0    0    0  501  0.00000000000E+00  0.00000000000E+00 -0.35129197697E+03  0.35129197698E+03  0.25500000920E-02 0.  1.
    10030    2    1    2    0    0  0.00000000000E+00  0.00000000000E+00  0.12209333737E+04  0.19235173277E+04  0.14863514412E+04 0.  0.
        3    1    3    3  502    0 -0.70332705929E+03 -0.11902302285E+03  0.88029836677E+03  0.11330316223E+04  0.10100000352E+00 0. -1.
       -3    1    3    3    0  502  0.70332705929E+03  0.11902302285E+03  0.34063500694E+03  0.79048570541E+03  0.10100000352E+00 0.  1.
</event>
<event>
 5   0  0.5843670E-05  0.2298575E+04  0.7818609E-02  0.8478483E-01
       -1   -1    0    0    0  501  0.00000000000E+00  0.00000000000E+00  0.81435796875E+03  0.81435796876E+03  0.50400001928E-02 0. -1.
        1   -1    0    0  501    0  0.00000000000E+00  0.00000000000E+00 -0.16219667260E+04  0.16219667260E+04  0.50400001928E-02 0.  1.
    10030    2    1    2    0    0  0.00000000000E+00  0.00000000000E+00 -0.80760875720E+03  0.24363246947E+04  0.22985748005E+04 0.  0.
        2    1    3    3  502    0  0.11144681402E+04 -0.11898897857E+03 -0.67333463617E+03  0.13075079903E+04  0.25500000920E-02 0.  1.
       -2    1    3    3    0  502 -0.11144681402E+04  0.11898897857E+03 -0.13427412104E+03  0.11288167044E+04  0.25500000920E-02 0. -1.
</event>
<event>
 5   0  0.5642466E-05  0.2269523E+04  0.7818609E-02  0.8490036E-01
       -1   -1    0    0    0  501  0.00000000000E+00  0.00000000000E+00  0.79144562937E+03  0.79144562939E+03  0.50400001928E-02 0. -1.
        1   -1    0    0  501    0  0.00000000000E+00  0.00000000000E+00 -0.16270023773E+04  0.16270023773E+04  0.50400001928E-02 0.  1.
    10030    2    1    2    0    0  0.00000000000E+00  0.00000000000E+00 -0.83555674792E+03  0.24184480067E+04  0.22695232279E+04 0.  0.
        1    1    3    3  502    0  0.10167517264E+04 -0.22093035945E+03  0.64806790985E+02  0.10424942288E+04  0.50400001928E-02 0. -1.
       -1    1    3    3    0  502 -0.10167517264E+04  0.22093035945E+03 -0.90036353890E+03  0.13759537779E+04  0.50400001928E-02 0.  1.
</event>
<event>
 5   0  0.1237296E-04  0.2390299E+04  0.7818609E-02  0.8443144E-01
       -2   -1    0    0    0  501  0.00000000000E+00  0.00000000000E+00  0.13155644825E+04  0.13155644825E+04  0.25500000920E-02 0. -1.
        2   -1    0    0  501    0  0.00000000000E+00  0.00000000000E+00 -0.10857561866E+04  0.10857561866E+04  0.25500000920E-02 0.  1.
    10030    2    1    2    0    0  0.00000000000E+00  0.00000000000E+00  0.22980829592E+03  0.24013206690E+04  0.23902989568E+04 0.  0.
        1    1    3    3  502    0  0.51226409432E+03  0.77415745688E+03  0.87113539680E+03  0.12730322659E+04  0.50400001928E-02 0. -1.
       -1    1    3    3    0  502 -0.51226409432E+03 -0.77415745688E+03 -0.64132710088E+03  0.11282884032E+04  0.50400001928E-02 0.  1.
</event>
<event>
 5   0  0.5924654E-05  0.2284457E+04  0.7818609E-02  0.8484075E-01
       -1   -1    0    0    0  501  0.00000000000E+00  0.00000000000E+00  0.12054484532E+04  0.12054484532E+04  0.50400001928E-02 0.  1.
        1   -1    0    0  501    0  0.00000000000E+00  0.00000000000E+00 -0.10823239960E+04  0.10823239961E+04  0.50400001928E-02 0. -1.
    10030    2    1    2    0    0  0.00000000000E+00  0.00000000000E+00  0.12312445711E+03  0.22877724492E+04  0.22844568605E+04 0.  0.
        5    1    3    3  502    0  0.32195758158E+03 -0.96601947435E+03 -0.45669576094E+03  0.11159943625E+04  0.46999998093E+01 0. -1.
       -5    1    3    3    0  502 -0.32195758158E+03  0.96601947435E+03  0.57982021805E+03  0.11717780867E+04  0.46999998093E+01 0.  1.
</event>
<event>
 5   0  0.5924654E-05  0.2273386E+04  0.7818609E-02  0.8488489E-01
        1   -1    0    0  501    0  0.00000000000E+00  0.00000000000E+00  0.21656951886E+04  0.21656951886E+04  0.50400001928E-02 0. -1.
       -1   -1    0    0    0  501  0.00000000000E+00  0.00000000000E+00 -0.59660806580E+03  0.59660806582E+03  0.50400001928E-02 0.  1.
    10030    2    1    2    0    0  0.00000000000E+00  0.00000000000E+00  0.15690871228E+04  0.27623032545E+04  0.22733862124E+04 0.  0.
        5    1    3    3  502    0 -0.80069527090E+02 -0.11015559903E+04  0.45802789859E+03  0.11956790434E+04  0.46999998093E+01 0. -1.
       -5    1    3    3    0  502  0.80069527090E+02  0.11015559903E+04  0.11110592243E+04  0.15666242111E+04  0.46999998093E+01 0.  1.
</event>
<event>
 5   0  0.1270613E-04  0.2232569E+04  0.7818609E-02  0.8504993E-01
       -2   -1    0    0    0  501  0.00000000000E+00  0.00000000000E+00  0.12020959515E+04  0.12020959515E+04  0.25500000920E-02 0. -1.
        2   -1    0    0  501    0  0.00000000000E+00  0.00000000000E+00 -0.10365985758E+04  0.10365985758E+04  0.25500000920E-02 0.  1.
    10030    2    1    2    0    0  0.00000000000E+00  0.00000000000E+00  0.16549737573E+03  0.22386945273E+04  0.22325688802E+04 0.  0.
        2    1    3    3  502    0  0.11144350874E+04  0.57087960953E+02  0.11226330582E+03  0.11215291566E+04  0.25500000920E-02 0. -1.
       -2    1    3    3    0  502 -0.11144350874E+04 -0.57087960953E+02  0.53234069914E+02  0.11171653707E+04  0.25500000920E-02 0.  1.
</event>
<event>
 5   0  0.1270613E-04  0.2230567E+04  0.7818609E-02  0.8505812E-01
        2   -1    0    0  501    0  0.00000000000E+00  0.00000000000E+00  0.78962119758E+03  0.78962119759E+03  0.25500000920E-02 0. -1.
       -2   -1    0    0    0  501  0.00000000000E+00  0.00000000000E+00 -0.15752589026E+04  0.15752589026E+04  0.25500000920E-02 0.  1.
    10030    2    1    2    0    0  0.00000000000E+00  0.00000000000E+00 -0.78563770502E+03  0.23648801002E+04  0.22305674804E+04 0.  0.
        2    1    3    3  502    0 -0.35158950184E+02 -0.11098874613E+04 -0.28278363568E+03  0.11458852094E+04  0.25500000920E-02 0. -1.
       -2    1    3    3    0  502  0.35158950184E+02  0.11098874613E+04 -0.50285406934E+03  0.12189948907E+04  0.25500000920E-02 0.  1.
</event>
<event>
 5   0  0.5663790E-05  0.2292779E+04  0.7818609E-02  0.8480774E-01
        1   -1    0    0  501    0  0.00000000000E+00  0.00000000000E+00  0.15738154056E+04  0.15738154056E+04  0.50400001928E-02 0.  1.
       -1   -1    0    0    0  501  0.00000000000E+00  0.00000000000E+00 -0.83504614533E+03  0.83504614535E+03  0.50400001928E-02 0. -1.
    10030    2    1    2    0    0  0.00000000000E+00  0.00000000000E+00  0.73876926030E+03  0.24088615510E+04  0.22927786531E+04 0.  0.
        3    1    3    3  502    0 -0.26508449143E+03 -0.43133986413E+03  0.14499943262E+04  0.15358409495E+04  0.10100000352E+00 0.  1.
       -3    1    3    3    0  502  0.26508449143E+03  0.43133986413E+03 -0.71122506592E+03  0.87302060146E+03  0.10100000352E+00 0. -1.
</event>
<event>
 5   0  0.1234988E-04  0.2323370E+04  0.7818609E-02  0.8468763E-01
        2   -1    0    0  501    0  0.00000000000E+00  0.00000000000E+00  0.84318011078E+03  0.84318011079E+03  0.25500000920E-02 0. -1.
       -2   -1    0    0    0  501  0.00000000000E+00  0.00000000000E+00 -0.16005033057E+04  0.16005033057E+04  0.25500000920E-02 0.  1.
    10030    2    1    2    0    0  0.00000000000E+00  0.00000000000E+00 -0.75732319487E+03  0.24436834164E+04  0.23233704436E+04 0.  0.
        5    1    3    3  502    0 -0.68594345755E+03 -0.35938291685E+03 -0.12894213292E+04  0.15040957290E+04  0.46999998093E+01 0.  1.
       -5    1    3    3    0  502  0.68594345755E+03  0.35938291685E+03  0.53209813430E+03  0.93958768744E+03  0.46999998093E+01 0. -1.
</event>
<event>
 5   0  0.5632156E-05  0.2397174E+04  0.7818609E-02  0.8440562E-01
        1   -1    0    0  501    0  0.00000000000E+00  0.00000000000E+00  0.17560813452E+04  0.17560813452E+04  0.50400001928E-02 0.  1.
       -1   -1    0    0    0  501  0.00000000000E+00  0.00000000000E+00 -0.81807733359E+03  0.81807733361E+03  0.50400001928E-02 0. -1.
    10030    2    1    2    0    0  0.00000000000E+00  0.00000000000E+00  0.93800401161E+03  0.25741586788E+04  0.23971736228E+04 0.  0.
        4    1    3    3  502    0  0.49478670892E+03  0.70259203154E+03  0.13662512110E+04  0.16140301839E+04  0.12699999809E+01 0.  1.
       -4    1    3    3    0  502 -0.49478670892E+03 -0.70259203154E+03 -0.42824719937E+03  0.96012849493E+03  0.12699999809E+01 0. -1.
</event>
<event>
 5   0  0.1270613E-04  0.1152829E+04  0.7818609E-02  0.9155177E-01
       -2   -1    0    0    0  501  0.00000000000E+00  0.00000000000E+00  0.37023574952E+03  0.37023574952E+03  0.25500000920E-02 0.  1.
        2   -1    0    0  501    0  0.00000000000E+00  0.00000000000E+00 -0.89741147424E+03  0.89741147424E+03  0.25500000920E-02 0. -1.
    10030    2    1    2    0    0  0.00000000000E+00  0.00000000000E+00 -0.52717572472E+03  0.12676472238E+04  0.11528292324E+04 0.  0.
        2    1    3    3  502    0  0.48127306973E+03 -0.27743339611E+03 -0.43272840086E+03  0.70416399073E+03  0.25500000920E-02 0. -1.
       -2    1    3    3    0  502 -0.48127306973E+03  0.27743339611E+03 -0.94447323868E+02  0.56348323304E+03  0.25500000920E-02 0.  1.
</event>
<event>
 5   0  0.5663790E-05  0.2342280E+04  0.7818609E-02  0.8461435E-01
       -1   -1    0    0    0  501  0.00000000000E+00  0.00000000000E+00  0.63697501138E+03  0.63697501140E+03  0.50400001928E-02 0.  1.
        1   -1    0    0  501    0  0.00000000000E+00  0.00000000000E+00 -0.21532536366E+04  0.21532536366E+04  0.50400001928E-02 0. -1.
    10030    2    1    2    0    0  0.00000000000E+00  0.00000000000E+00 -0.15162786252E+04  0.27902286480E+04  0.23422798806E+04 0.  0.
        3    1    3    3  502    0 -0.79493547203E+03 -0.28057616127E+03 -0.17265878717E+04  0.19213930040E+04  0.10100000352E+00 0. -1.
       -3    1    3    3    0  502  0.79493547203E+03  0.28057616127E+03  0.21030924646E+03  0.86883564401E+03  0.10100000352E+00 0.  1.
</event>
<event>
 5   0  0.5924654E-05  0.2295105E+04  0.7818609E-02  0.8479854E-01
       -1   -1    0    0    0  501  0.00000000000E+00  0.00000000000E+00  0.17517890472E+04  0.17517890472E+04  0.50400001928E-02 0.  1.
        1   -1    0    0  501    0  0.00000000000E+00  0.00000000000E+00 -0.75173260308E+03  0.75173260310E+03  0.50400001928E-02 0. -1.
    10030    2    1    2    0    0  0.00000000000E+00  0.00000000000E+00  0.10000564441E+04  0.25035216503E+04  0.22951051745E+04 0.  0.
        5    1    3    3  502    0 -0.20880598447E+02  0.30777063949E+02 -0.75106451090E+03  0.75199947912E+03  0.46999998093E+01 0. -1.
       -5    1    3    3    0  502  0.20880598447E+02 -0.30777063949E+02  0.17511209551E+04  0.17515221712E+04  0.46999998093E+01 0.  1.
</event>
<event>
 5   0  0.5843670E-05  0.2293858E+04  0.7818609E-02  0.8480347E-01
       -1   -1    0    0    0  501  0.00000000000E+00  0.00000000000E+00  0.74992419317E+03  0.74992419319E+03  0.50400001928E-02 0.  1.
        1   -1    0    0  501    0  0.00000000000E+00  0.00000000000E+00 -0.17541059893E+04  0.17541059893E+04  0.50400001928E-02 0. -1.
    10030    2    1    2    0    0  0.00000000000E+00  0.00000000000E+00 -0.10041817961E+04  0.25040301825E+04  0.22938583381E+04 0.  0.
        2    1    3    3  502    0 -0.19782610193E+03 -0.90352161376E+03 -0.12424339756E+04  0.15489120882E+04  0.25500000920E-02 0. -1.
       -2    1    3    3    0  502  0.19782610193E+03  0.90352161376E+03  0.23825217945E+03  0.95511809435E+03  0.25500000920E-02 0.  1.
</event>
<event>
 5   0  0.5924654E-05  0.2286647E+04  0.7818609E-02  0.8483205E-01
        1   -1    0    0  501    0  0.00000000000E+00  0.00000000000E+00  0.27243675682E+04  0.27243675682E+04  0.50400001928E-02 0. -1.
       -1   -1    0    0    0  501  0.00000000000E+00  0.00000000000E+00 -0.47981366095E+03  0.47981366098E+03  0.50400001928E-02 0.  1.
    10030    2    1    2    0    0  0.00000000000E+00  0.00000000000E+00  0.22445539072E+04  0.32041812292E+04  0.22866471321E+04 0.  0.
        5    1    3    3  502    0  0.85859300254E+03  0.20624325709E+03  0.21399492123E+04  0.23149779581E+04  0.46999998093E+01 0. -1.
       -5    1    3    3    0  502 -0.85859300254E+03 -0.20624325709E+03  0.10460469491E+03  0.88920327108E+03  0.46999998093E+01 0.  1.
</event>
<event>
 5   0  0.1270613E-04  0.2062121E+04  0.7818609E-02  0.8578115E-01
        2   -1    0    0  501    0  0.00000000000E+00  0.00000000000E+00  0.19580765061E+04  0.19580765061E+04  0.25500000920E-02 0. -1.
       -2   -1    0    0    0  501  0.00000000000E+00  0.00000000000E+00 -0.54292363467E+03  0.54292363467E+03  0.25500000920E-02 0.  1.
    10030    2    1    2    0    0  0.00000000000E+00  0.00000000000E+00  0.14151528714E+04  0.25010001408E+04  0.20621212512E+04 0.  0.
        2    1    3    3  502    0  0.45792534118E+03  0.41431008870E+03  0.17089776756E+04  0.18171277234E+04  0.25500000920E-02 0. -1.
       -2    1    3    3    0  502 -0.45792534118E+03 -0.41431008870E+03 -0.29382480412E+03  0.68387241735E+03  0.25500000920E-02 0.  1.
</event>
<event>
 5   0  0.1270613E-04  0.2357713E+04  0.7818609E-02  0.8455507E-01
       -2   -1    0    0    0  501  0.00000000000E+00  0.00000000000E+00  0.10415413935E+04  0.10415413935E+04  0.25500000920E-02 0. -1.
        2   -1    0    0  501    0  0.00000000000E+00  0.00000000000E+00 -0.13342750870E+04  0.13342750870E+04  0.25500000920E-02 0.  1.
    10030    2    1    2    0    0  0.00000000000E+00  0.00000000000E+00 -0.29273369351E+03  0.23758164806E+04  0.23577130729E+04 0.  0.
        2    1    3    3  502    0  0.10077685082E+04 -0.50266043240E+03 -0.49752195198E+03  0.12311754420E+04  0.25500000920E-02 0.  1.
       -2    1    3    3    0  502 -0.10077685082E+04  0.50266043240E+03  0.20478825848E+03  0.11446410386E+04  0.25500000920E-02 0. -1.
</event>
<event>
 5   0  0.5632156E-05  0.2315361E+04  0.7818609E-02  0.8471889E-01
       -1   -1    0    0    0  501  0.00000000000E+00  0.00000000000E+00  0.10421434194E+04  0.10421434194E+04  0.50400001928E-02 0. -1.
        1   -1    0    0  501    0  0.00000000000E+00  0.00000000000E+00 -0.12860271323E+04  0.12860271323E+04  0.50400001928E-02 0.  1.
    10030    2    1    2    0    0  0.00000000000E+00  0.00000000000E+00 -0.24388371291E+03  0.23281705518E+04  0.23153614950E+04 0.  0.
        4    1    3    3  502    0  0.12965601327E+03  0.77760845617E+02 -0.12760570432E+04  0.12849827319E+04  0.12699999809E+01 0.  1.
       -4    1    3    3    0  502 -0.12965601327E+03 -0.77760845617E+02  0.10321733303E+04  0.10431878199E+04  0.12699999809E+01 0. -1.
</event>
<event>
 5   0  0.1281432E-04  0.1833425E+04  0.7818609E-02  0.8688724E-01
        2   -1    0    0  501    0  0.00000000000E+00  0.00000000000E+00  0.54427790671E+03  0.54427790672E+03  0.25500000920E-02 0.  1.
       -2   -1    0    0    0  501  0.00000000000E+00  0.00000000000E+00 -0.15439936569E+04  0.15439936569E+04  0.25500000920E-02 0. -1.
    10030    2    1    2    0    0  0.00000000000E+00  0.00000000000E+00 -0.99971575016E+03  0.20882715636E+04  0.18334248123E+04 0.  0.
        4    1    3    3  502    0  0.75847577478E+02  0.13150547406E+03 -0.15295756286E+04  0.15370913314E+04  0.12699999809E+01 0. -1.
       -4    1    3    3    0  502 -0.75847577478E+02 -0.13150547406E+03  0.52985987840E+03  0.55118023219E+03  0.12699999809E+01 0.  1.
</event>
<event>
 5   0  0.5924654E-05  0.1492389E+04  0.7818609E-02  0.8889530E-01
       -1   -1    0    0    0  501  0.00000000000E+00  0.00000000000E+00  0.12130752745E+04  0.12130752745E+04  0.50400001928E-02 0. -1.
        1   -1    0    0  501    0  0.00000000000E+00  0.00000000000E+00 -0.45900372676E+03  0.45900372679E+03  0.50400001928E-02 0.  1.
    10030    2    1    2    0    0  0.00000000000E+00  0.00000000000E+00  0.75407154775E+03  0.16720790013E+04  0.14923887856E+04 0.  0.
        5    1    3    3  502    0  0.71114217572E+03 -0.22526452186E+03  0.39697403023E+03  0.84503122402E+03  0.46999998093E+01 0. -1.
       -5    1    3    3    0  502 -0.71114217572E+03  0.22526452186E+03  0.35709751752E+03  0.82704777729E+03  0.46999998093E+01 0.  1.
</event>
<event>
 5   0  0.5924654E-05  0.2266740E+04  0.7818609E-02  0.8491152E-01
        1   -1    0    0  501    0  0.00000000000E+00  0.00000000000E+00  0.24159971382E+04  0.24159971382E+04  0.50400001928E-02 0. -1.
       -1   -1    0    0    0  501  0.00000000000E+00  0.00000000000E+00 -0.53167615982E+03  0.53167615985E+03  0.50400001928E-02 0.  1.
    10030    2    1    2    0    0  0.00000000000E+00  0.00000000000E+00  0.18843209783E+04  0.29476732980E+04  0.22667404621E+04 0.  0.
        5    1    3    3  502    0  0.33721246118E+03 -0.10818218326E+04  0.96990720699E+03  0.14915739344E+04  0.46999998093E+01 0.  1.
       -5    1    3    3    0  502 -0.33721246118E+03  0.10818218326E+04  0.91441377135E+03  0.14560993636E+04  0.46999998093E+01 0. -1.
</event>
<event>
 5   0  0.5663790E-05  0.2205226E+04  0.7818609E-02  0.8516256E-01
        1   -1    0    0  501    0  0.00000000000E+00  0.00000000000E+00  0.14199723190E+04  0.14199723190E+04  0.50400001928E-02 0. -1.
       -1   -1    0    0    0  501  0.00000000000E+00  0.00000000000E+00 -0.85618238490E+03  0.85618238491E+03  0.50400001928E-02 0.  1.
    10030    2    1    2    0    0  0.00000000000E+00  0.00000000000E+00  0.56378993406E+03  0.22761547039E+04  0.22052258719E+04 0.  0.
        3    1    3    3  502    0  0.81264399546E+03 -0.61074245078E+03  0.72266484533E+03  0.12472534199E+04  0.10100000352E+00 0.  1.
       -3    1    3    3    0  502 -0.81264399546E+03  0.61074245078E+03 -0.15887491127E+03  0.10289012840E+04  0.10100000352E+00 0. -1.
</event>
<event>
 5   0  0.1270613E-04  0.1598480E+04  0.7818609E-02  0.8821483E-01
       -2   -1    0    0    0  501  0.00000000000E+00  0.00000000000E+00  0.85981168606E+03  0.85981168606E+03  0.25500000920E-02 0. -1.
        2   -1    0    0  501    0  0.00000000000E+00  0.00000000000E+00 -0.74293509098E+03  0.74293509099E+03  0.25500000920E-02 0.  1.
    10030    2    1    2    0    0  0.00000000000E+00  0.00000000000E+00  0.11687659507E+03  0.16027467770E+04  0.15984796192E+04 0.  0.
        2    1    3    3  502    0 -0.13292572957E+03  0.74387583442E+03 -0.20257136062E+03  0.78233986398E+03  0.25500000920E-02 0.  1.
       -2    1    3    3    0  502  0.13292572957E+03 -0.74387583442E+03  0.31944795569E+03  0.82040691307E+03  0.25500000920E-02 0. -1.
</event>
<event>
 5   0  0.5642466E-05  0.2305214E+04  0.7818609E-02  0.8475868E-01
        1   -1    0    0  501    0  0.00000000000E+00  0.00000000000E+00  0.20362213391E+04  0.20362213391E+04  0.50400001928E-02 0. -1.
       -1   -1    0    0    0  501  0.00000000000E+00  0.00000000000E+00 -0.65243536648E+03  0.65243536650E+03  0.50400001928E-02 0.  1.
    10030    2    1    2    0    0  0.00000000000E+00  0.00000000000E+00  0.13837859726E+04  0.26886567056E+04  0.23052139299E+04 0.  0.
        1    1    3    3  502    0 -0.27237822397E+03  0.25887441471E+03 -0.57898482100E+03  0.69023856924E+03  0.50400001928E-02 0.  1.
       -1    1    3    3    0  502  0.27237822397E+03 -0.25887441471E+03  0.19627707936E+04  0.19984181364E+04  0.50400001928E-02 0. -1.
</event>
<event>
 5   0  0.1270613E-04  0.2276816E+04  0.7818609E-02  0.8487119E-01
        2   -1    0    0  501    0  0.00000000000E+00  0.00000000000E+00  0.14432554903E+04  0.14432554903E+04  0.25500000920E-02 0. -1.
       -2   -1    0    0    0  501  0.00000000000E+00  0.00000000000E+00 -0.89795105144E+03  0.89795105144E+03  0.25500000920E-02 0.  1.
    10030    2    1    2    0    0  0.00000000000E+00  0.00000000000E+00  0.54530443884E+03  0.23412065417E+04  0.22768160092E+04 0.  0.
        2    1    3    3  502    0 -0.76159166627E+03  0.80821253436E+03  0.53022257635E+03  0.12305955255E+04  0.25500000920E-02 0. -1.
       -2    1    3    3    0  502  0.76159166627E+03 -0.80821253436E+03  0.15081862486E+02  0.11106110162E+04  0.25500000920E-02 0.  1.
</event>
<event>
 5   0  0.1270613E-04  0.1978454E+04  0.7818609E-02  0.8616761E-01
        2   -1    0    0  501    0  0.00000000000E+00  0.00000000000E+00  0.13119024237E+04  0.13119024237E+04  0.25500000920E-02 0. -1.
       -2   -1    0    0    0  501  0.00000000000E+00  0.00000000000E+00 -0.74591652259E+03  0.74591652259E+03  0.25500000920E-02 0.  1.
    10030    2    1    2    0    0  0.00000000000E+00  0.00000000000E+00  0.56598590113E+03  0.20578189463E+04  0.19784536324E+04 0.  0.
        2    1    3    3  502    0  0.28809879062E+02  0.67840114652E+03  0.10312336314E+04  0.12347068183E+04  0.25500000920E-02 0. -1.
       -2    1    3    3    0  502 -0.28809879062E+02 -0.67840114652E+03 -0.46524773024E+03  0.82311212798E+03  0.25500000920E-02 0.  1.
</event>
<event>
 5   0  0.5663790E-05  0.2313838E+04  0.7818609E-02  0.8472485E-01
        1   -1    0    0  501    0  0.00000000000E+00  0.00000000000E+00  0.27807700473E+04  0.27807700473E+04  0.50400001928E-02 0. -1.
       -1   -1    0    0    0  501  0.00000000000E+00  0.00000000000E+00 -0.48132783191E+03  0.48132783194E+03  0.50400001928E-02 0.  1.
    10030    2    1    2    0    0  0.00000000000E+00  0.00000000000E+00  0.22994422154E+04  0.32620978793E+04  0.23138383850E+04 0.  0.
        3    1    3    3  502    0  0.83913550646E+03  0.55187536903E+03  0.19592913121E+04  0.22017123511E+04  0.10100000352E+00 0. -1.
       -3    1    3    3    0  502 -0.83913550646E+03 -0.55187536903E+03  0.34015090334E+03  0.10603855282E+04  0.10100000352E+00 0.  1.
</event>
<event>
 5   0  0.5642466E-05  0.1835417E+04  0.7818609E-02  0.8687689E-01
        1   -1    0    0  501    0  0.00000000000E+00  0.00000000000E+00  0.17009653837E+04  0.17009653837E+04  0.50400001928E-02 0.  1.
       -1   -1    0    0    0  501  0.00000000000E+00  0.00000000000E+00 -0.49512404745E+03  0.49512404747E+03  0.50400001928E-02 0. -1.
    10030    2    1    2    0    0  0.00000000000E+00  0.00000000000E+00  0.12058413363E+04  0.21960894312E+04  0.18354169721E+04 0.  0.
        1    1    3    3  502    0  0.49959604866E+03 -0.46550823163E+03 -0.13066088642E+03  0.69524556296E+03  0.50400001928E-02 0.  1.
       -1    1    3    3    0  502 -0.49959604866E+03  0.46550823163E+03  0.13365022227E+04  0.15008438682E+04  0.50400001928E-02 0. -1.
</event>
<event>
 5   0  0.5663790E-05  0.1823671E+04  0.7818609E-02  0.8693812E-01
       -1   -1    0    0    0  501  0.00000000000E+00  0.00000000000E+00  0.95423741172E+03  0.95423741173E+03  0.50400001928E-02 0. -1.
        1   -1    0    0  501    0  0.00000000000E+00  0.00000000000E+00 -0.87131762520E+03  0.87131762521E+03  0.50400001928E-02 0.  1.
    10030    2    1    2    0    0  0.00000000000E+00  0.00000000000E+00  0.82919786520E+02  0.18255550369E+04  0.18236708864E+04 0.  0.
        3    1    3    3  502    0  0.43544482136E+02  0.67563924184E+03  0.65287678804E+03  0.94054910430E+03  0.10100000352E+00 0. -1.
       -3    1    3    3    0  502 -0.43544482136E+02 -0.67563924184E+03 -0.56995700152E+03  0.88500593265E+03  0.10100000352E+00 0.  1.
</event>
<event>
 5   0  0.5924654E-05  0.1987982E+04  0.7818609E-02  0.8612260E-01
       -1   -1    0    0    0  501  0.00000000000E+00  0.00000000000E+00  0.87755753536E+03  0.87755753538E+03  0.50400001928E-02 0.  1.
        1   -1    0    0  501    0  0.00000000000E+00  0.00000000000E+00 -0.11258723242E+04  0.11258723242E+04  0.50400001928E-02 0. -1.
    10030    2    1    2    0    0  0.00000000000E+00  0.00000000000E+00 -0.24831478881E+03  0.20034298596E+04  0.19879816317E+04 0.  0.
        5    1    3    3  502    0 -0.55450292923E+03 -0.12500182102E+02 -0.95541004650E+03  0.11047444048E+04  0.46999998093E+01 0. -1.
       -5    1    3    3    0  502  0.55450292923E+03  0.12500182102E+02  0.70709525769E+03  0.89868545472E+03  0.46999998093E+01 0.  1.
</event>
<event>
 5   0  0.5632156E-05  0.2308552E+04  0.7818609E-02  0.8474557E-01
       -1   -1    0    0    0  501  0.00000000000E+00  0.00000000000E+00  0.63855514383E+03  0.63855514385E+03  0.50400001928E-02 0. -1.
        1   -1    0    0  501    0  0.00000000000E+00  0.00000000000E+00 -0.20865118412E+04  0.20865118412E+04  0.50400001928E-02 0.  1.
    10030    2    1    2    0    0  0.00000000000E+00  0.00000000000E+00 -0.14479566973E+04  0.27250669850E+04  0.23085518135E+04 0.  0.
        4    1    3    3  502    0 -0.10949922867E+04  0.36425124021E+03 -0.75439988399E+03  0.13786978900E+04  0.12699999809E+01 0. -1.
       -4    1    3    3    0  502  0.10949922867E+04 -0.36425124021E+03 -0.69355681334E+03  0.13463690951E+04  0.12699999809E+01 0.  1.
</event>
<event>
 5   0  0.5632156E-05  0.2281341E+04  0.7818609E-02  0.8485314E-01
       -1   -1    0    0    0  501  0.00000000000E+00  0.00000000000E+00  0.14796831515E+04  0.14796831516E+04  0.50400001928E-02 0.  1.
        1   -1    0    0  501    0  0.00000000000E+00  0.00000000000E+00 -0.87932988914E+03  0.87932988915E+03  0.50400001928E-02 0. -1.
    10030    2    1    2    0    0  0.00000000000E+00  0.00000000000E+00  0.60035326241E+03  0.23590130407E+04  0.22813413788E+04 0.  0.
        4    1    3    3  502    0  0.36627477978E+03 -0.60946327417E+03  0.12224657083E+04  0.14142230085E+04  0.12699999809E+01 0.  1.
       -4    1    3    3    0  502 -0.36627477978E+03  0.60946327417E+03 -0.62211244585E+03  0.94479003225E+03  0.12699999809E+01 0. -1.
</event>
<event>
 5   0  0.1237296E-04  0.1962563E+04  0.7818609E-02  0.8624327E-01
        2   -1    0    0  501    0  0.00000000000E+00  0.00000000000E+00  0.14892155958E+04  0.14892155958E+04  0.25500000920E-02 0. -1.
       -2   -1    0    0    0  501  0.00000000000E+00  0.00000000000E+00 -0.64659071292E+03  0.64659071293E+03  0.25500000920E-02 0.  1.
    10030    2    1    2    0    0  0.00000000000E+00  0.00000000000E+00  0.84262488291E+03  0.21358063088E+04  0.19625625838E+04 0.  0.
        1    1    3    3  502    0  0.91444497101E+03  0.25104432809E+01  0.80867855816E+03  0.12207280278E+04  0.50400001928E-02 0. -1.
       -1    1    3    3    0  502 -0.91444497101E+03 -0.25104432809E+01  0.33946324748E+02  0.91507828098E+03  0.50400001928E-02 0.  1.
</event>
<event>
 5   0  0.1257524E-04  0.2268036E+04  0.7818609E-02  0.8490632E-01
        2   -1    0    0  501    0  0.00000000000E+00  0.00000000000E+00  0.96134373988E+03  0.96134373988E+03  0.25500000920E-02 0.  1.
       -2   -1    0    0    0  501  0.00000000000E+00  0.00000000000E+00 -0.13377075757E+04  0.13377075757E+04  0.25500000920E-02 0. -1.
    10030    2    1    2    0    0  0.00000000000E+00  0.00000000000E+00 -0.37636383581E+03  0.22990513156E+04  0.22680359818E+04 0.  0.
        3    1    3    3  502    0 -0.11262933804E+03  0.39776678794E+03  0.88223822038E+03  0.97429362775E+03  0.10100000352E+00 0.  1.
       -3    1    3    3    0  502  0.11262933804E+03 -0.39776678794E+03 -0.12586020562E+04  0.13247576878E+04  0.10100000352E+00 0. -1.
</event>
<event>
 5   0  0.5924654E-05  0.2249585E+04  0.7818609E-02  0.8498069E-01
       -1   -1    0    0    0  501  0.00000000000E+00  0.00000000000E+00  0.58858830837E+03  0.58858830839E+03  0.50400001928E-02 0. -1.
        1   -1    0    0  501    0  0.00000000000E+00  0.00000000000E+00 -0.21494785852E+04  0.21494785852E+04  0.50400001928E-02 0.  1.
    10030    2    1    2    0    0  0.00000000000E+00  0.00000000000E+00 -0.15608902768E+04  0.27380668936E+04  0.22495848189E+04 0.  0.
        5    1    3    3  502    0  0.89607245043E+03 -0.58313100074E+03 -0.35505702651E+03  0.11265323708E+04  0.46999998093E+01 0. -1.
       -5    1    3    3    0  502 -0.89607245043E+03  0.58313100074E+03 -0.12058332503E+04  0.16115345227E+04  0.46999998093E+01 0.  1.
</event>
<event>
 5   0  0.1270613E-04  0.2229065E+04  0.7818609E-02  0.8506427E-01
        2   -1    0    0  501    0  0.00000000000E+00  0.00000000000E+00  0.19516525053E+04  0.19516525053E+04  0.25500000920E-02 0. -1.
       -2   -1    0    0    0  501  0.00000000000E+00  0.00000000000E+00 -0.63647736841E+03  0.63647736842E+03  0.25500000920E-02 0.  1.
    10030    2    1    2    0    0  0.00000000000E+00  0.00000000000E+00  0.13151751369E+04  0.25881298737E+04  0.22290649615E+04 0.  0.
        2    1    3    3  502    0  0.12722201303E+03 -0.88440207487E+03  0.14311079396E+04  0.16871343768E+04  0.25500000920E-02 0. -1.
       -2    1    3    3    0  502 -0.12722201303E+03  0.88440207487E+03 -0.11593280274E+03  0.90099549688E+03  0.25500000920E-02 0.  1.
</event>
<event>
 5   0  0.1281432E-04  0.2316370E+04  0.7818609E-02  0.8471495E-01
        2   -1    0    0  501    0  0.00000000000E+00  0.00000000000E+00  0.67812392574E+03  0.67812392574E+03  0.25500000920E-02 0.  1.
       -2   -1    0    0    0  501  0.00000000000E+00  0.00000000000E+00 -0.19780929888E+04  0.19780929888E+04  0.25500000920E-02 0. -1.
    10030    2    1    2    0    0  0.00000000000E+00  0.00000000000E+00 -0.12999690630E+04  0.26562169145E+04  0.23163697313E+04 0.  0.
        4    1    3    3  502    0  0.11382038827E+04 -0.77062358689E+02 -0.42080237308E+03  0.12159452848E+04  0.12699999809E+01 0.  1.
       -4    1    3    3    0  502 -0.11382038827E+04  0.77062358689E+02 -0.87916668997E+03  0.14402716297E+04  0.12699999809E+01 0. -1.
</event>
<event>
 5   0  0.5632156E-05  0.2324841E+04  0.7818609E-02  0.8468190E-01
        1   -1    0    0  501    0  0.00000000000E+00  0.00000000000E+00  0.15738018847E+04  0.15738018847E+04  0.50400001928E-02 0. -1.
       -1   -1    0    0    0  501  0.00000000000E+00  0.00000000000E+00 -0.85857176516E+03  0.85857176517E+03  0.50400001928E-02 0.  1.
    10030    2    1    2    0    0  0.00000000000E+00  0.00000000000E+00  0.71523011951E+03  0.24323736498E+04  0.23248413814E+04 0.  0.
        4    1    3    3  502    0 -0.49538604982E+03  0.12133318651E+03 -0.73525236984E+03  0.89483335921E+03  0.12699999809E+01 0.  1.
       -4    1    3    3    0  502  0.49538604982E+03 -0.12133318651E+03  0.14504824893E+04  0.15375402906E+04  0.12699999809E+01 0. -1.
</event>
<event>
 5   0  0.1234988E-04  0.2302149E+04  0.7818609E-02  0.8477074E-01
       -2   -1    0    0    0  501  0.00000000000E+00  0.00000000000E+00  0.12358029840E+04  0.12358029840E+04  0.25500000920E-02 0. -1.
        2   -1    0    0  501    0  0.00000000000E+00  0.00000000000E+00 -0.10721554080E+04  0.10721554080E+04  0.25500000920E-02 0.  1.
    10030    2    1    2    0    0  0.00000000000E+00  0.00000000000E+00  0.16364757598E+03  0.23079583920E+04  0.23021493023E+04 0.  0.
        5    1    3    3  502    0 -0.10715639867E+04 -0.71527536497E+02  0.49709745956E+03  0.11834244971E+04  0.46999998093E+01 0. -1.
       -5    1    3    3    0  502  0.10715639867E+04  0.71527536497E+02 -0.33344988358E+03  0.11245338949E+04  0.46999998093E+01 0.  1.
</event>
<event>
 5   0  0.1237296E-04  0.2249453E+04  0.7818609E-02  0.8498122E-01
        2   -1    0    0  501    0  0.00000000000E+00  0.00000000000E+00  0.95195417333E+03  0.95195417333E+03  0.25500000920E-02 0.  1.
       -2   -1    0    0    0  501  0.00000000000E+00  0.00000000000E+00 -0.13288554831E+04  0.13288554831E+04  0.25500000920E-02 0. -1.
    10030    2    1    2    0    0  0.00000000000E+00  0.00000000000E+00 -0.37690130974E+03  0.22808096564E+04  0.22494528427E+04 0.  0.
        1    1    3    3  502    0 -0.63893444507E+03  0.11138920390E+03 -0.11201530143E+04  0.12943676276E+04  0.50400001928E-02 0. -1.
       -1    1    3    3    0  502  0.63893444507E+03 -0.11138920390E+03  0.74325170457E+03  0.98644202882E+03  0.50400001928E-02 0.  1.
</event>
<event>
 5   0  0.5632156E-05  0.2005143E+04  0.7818609E-02  0.8604220E-01
        1   -1    0    0  501    0  0.00000000000E+00  0.00000000000E+00  0.13772221901E+04  0.13772221902E+04  0.50400001928E-02 0.  1.
       -1   -1    0    0    0  501  0.00000000000E+00  0.00000000000E+00 -0.72983802072E+03  0.72983802074E+03  0.50400001928E-02 0. -1.
    10030    2    1    2    0    0  0.00000000000E+00  0.00000000000E+00  0.64738416943E+03  0.21070602109E+04  0.20051425060E+04 0.  0.
        4    1    3    3  502    0 -0.13772697532E+03 -0.26391276542E+03  0.13297078104E+04  0.13626236243E+04  0.12699999809E+01 0.  1.
       -4    1    3    3    0  502  0.13772697532E+03  0.26391276542E+03 -0.68232364100E+03  0.74443658659E+03  0.12699999809E+01 0. -1.
</event>
<event>
 5   0  0.5642466E-05  0.2529337E+04  0.7818609E-02  0.8392608E-01
        1   -1    0    0  501    0  0.00000000000E+00  0.00000000000E+00  0.12945589692E+04  0.12945589692E+04  0.50400001928E-02 0.  1.
       -1   -1    0    0    0  501  0.00000000000E+00  0.00000000000E+00 -0.12354681505E+04  0.12354681505E+04  0.50400001928E-02 0. -1.
    10030    2    1    2    0    0  0.00000000000E+00  0.00000000000E+00  0.59090818762E+02  0.25300271197E+04  0.25293369688E+04 0.  0.
        1    1    3    3  502    0 -0.48845499998E+03  0.58510574512E+03 -0.97991247296E+03  0.12414368589E+04  0.50400001928E-02 0. -1.
       -1    1    3    3    0  502  0.48845499998E+03 -0.58510574512E+03  0.10390032917E+04  0.12885902608E+04  0.50400001928E-02 0.  1.
</event>
<event>
 5   0  0.1281432E-04  0.1923043E+04  0.7818609E-02  0.8643471E-01
        2   -1    0    0  501    0  0.00000000000E+00  0.00000000000E+00  0.12337795091E+04  0.12337795091E+04  0.25500000920E-02 0.  1.
       -2   -1    0    0    0  501  0.00000000000E+00  0.00000000000E+00 -0.74934254983E+03  0.74934254984E+03  0.25500000920E-02 0. -1.
    10030    2    1    2    0    0  0.00000000000E+00  0.00000000000E+00  0.48443695925E+03  0.19831220589E+04  0.19230428838E+04 0.  0.
        4    1    3    3  502    0  0.93194606286E+03 -0.15277335176E+03  0.42858160479E+03  0.10370858045E+04  0.12699999809E+01 0. -1.
       -4    1    3    3    0  502 -0.93194606286E+03  0.15277335176E+03  0.55855354463E+02  0.94603625439E+03  0.12699999809E+01 0.  1.
</event>
<event>
 5   0  0.1257524E-04  0.2116161E+04  0.7818609E-02  0.8554158E-01
       -2   -1    0    0    0  501  0.00000000000E+00  0.00000000000E+00  0.11257707403E+04  0.11257707403E+04  0.25500000920E-02 0.  1.
        2   -1    0    0  501    0  0.00000000000E+00  0.00000000000E+00 -0.99446024183E+03  0.99446024183E+03  0.25500000920E-02 0. -1.
    10030    2    1    2    0    0  0.00000000000E+00  0.00000000000E+00  0.13131049843E+03  0.21202309821E+04  0.21161609037E+04 0.  0.
        3    1    3    3  502    0  0.42505476623E+03  0.85643446830E+03  0.51971854570E+03  0.10882366148E+04  0.10100000352E+00 0.  1.
       -3    1    3    3    0  502 -0.42505476623E+03 -0.85643446830E+03 -0.38840804727E+03  0.10319943673E+04  0.10100000352E+00 0. -1.
</event>
<event>
 5   0  0.1270613E-04  0.2300794E+04  0.7818609E-02  0.8477608E-01
        2   -1    0    0  501    0  0.00000000000E+00  0.00000000000E+00  0.11964728746E+04  0.11964728746E+04  0.25500000920E-02 0. -1.
       -2   -1    0    0    0  501  0.00000000000E+00  0.00000000000E+00 -0.11060950619E+04  0.11060950619E+04  0.25500000920E-02 0.  1.
    10030    2    1    2    0    0  0.00000000000E+00  0.00000000000E+00  0.90377812712E+02  0.23025679366E+04  0.23007935486E+04 0.  0.
        2    1    3    3  502    0 -0.11751119074E+03  0.11295406486E+04 -0.13864211792E+03  0.11440684392E+04  0.25500000920E-02 0.  1.
       -2    1    3    3    0  502  0.11751119074E+03 -0.11295406486E+04  0.22901993064E+03  0.11584994973E+04  0.25500000920E-02 0. -1.
</event>
<event>
 5   0  0.1270613E-04  0.2419054E+04  0.7818609E-02  0.8432404E-01
        2   -1    0    0  501    0  0.00000000000E+00  0.00000000000E+00  0.13675789174E+04  0.13675789175E+04  0.25500000920E-02 0. -1.
       -2   -1    0    0    0  501  0.00000000000E+00  0.00000000000E+00 -0.10697414704E+04  0.10697414704E+04  0.25500000920E-02 0.  1.
    10030    2    1    2    0    0  0.00000000000E+00  0.00000000000E+00  0.29783744710E+03  0.24373203878E+04  0.24190542631E+04 0.  0.
        2    1    3    3  502    0  0.62627055401E+03 -0.44809388556E+03  0.10886742584E+04  0.13334971233E+04  0.25500000920E-02 0. -1.
       -2    1    3    3    0  502 -0.62627055401E+03  0.44809388556E+03 -0.79083681128E+03  0.11038232645E+04  0.25500000920E-02 0.  1.
</event>
<event>
 5   0  0.1281432E-04  0.1779649E+04  0.7818609E-02  0.8717197E-01
       -2   -1    0    0    0  501  0.00000000000E+00  0.00000000000E+00  0.78140776422E+03  0.78140776422E+03  0.25500000920E-02 0.  1.
        2   -1    0    0  501    0  0.00000000000E+00  0.00000000000E+00 -0.10132833117E+04  0.10132833117E+04  0.25500000920E-02 0. -1.
    10030    2    1    2    0    0  0.00000000000E+00  0.00000000000E+00 -0.23187554749E+03  0.17946910759E+04  0.17796487823E+04 0.  0.
        4    1    3    3  502    0 -0.40353854569E+03 -0.65984840595E+03 -0.55959099517E+03  0.95466589521E+03  0.12699999809E+01 0. -1.
       -4    1    3    3    0  502  0.40353854569E+03  0.65984840595E+03  0.32771544768E+03  0.84002518072E+03  0.12699999809E+01 0.  1.
</event>
<event>
 5   0  0.1234988E-04  0.2317196E+04  0.7818609E-02  0.8471172E-01
        2   -1    0    0  501    0  0.00000000000E+00  0.00000000000E+00  0.11992363276E+04  0.11992363276E+04  0.25500000920E-02 0. -1.
       -2   -1    0    0    0  501  0.00000000000E+00  0.00000000000E+00 -0.11193371381E+04  0.11193371381E+04  0.25500000920E-02 0.  1.
    10030    2    1    2    0    0  0.00000000000E+00  0.00000000000E+00  0.79899189569E+02  0.23185734657E+04  0.23171963739E+04 0.  0.
        5    1    3    3  502    0  0.99696760210E+03  0.29508024223E+03 -0.47153999675E+03  0.11416605483E+04  0.46999998093E+01 0.  1.
       -5    1    3    3    0  502 -0.99696760210E+03 -0.29508024223E+03  0.55143918632E+03  0.11769129174E+04  0.46999998093E+01 0. -1.
</event>
<event>
 5   0  0.1234988E-04  0.2320128E+04  0.7818609E-02  0.8470027E-01
        2   -1    0    0  501    0  0.00000000000E+00  0.00000000000E+00  0.14730488345E+04  0.14730488346E+04  0.25500000920E-02 0. -1.
       -2   -1    0    0    0  501  0.00000000000E+00  0.00000000000E+00 -0.91358061102E+03  0.91358061103E+03  0.25500000920E-02 0.  1.
    10030    2    1    2    0    0  0.00000000000E+00  0.00000000000E+00  0.55946822352E+03  0.23866294456E+04  0.23201283192E+04 0.  0.
        5    1    3    3  502    0  0.11076717254E+04 -0.29089912745E+03  0.46987764797E+03  0.12378877363E+04  0.46999998093E+01 0. -1.
       -5    1    3    3    0  502 -0.11076717254E+04  0.29089912745E+03  0.89590575556E+02  0.11487417093E+04  0.46999998093E+01 0.  1.
</event>
<event>
 5   0  0.1257524E-04  0.2289330E+04  0.7818609E-02  0.8482140E-01
       -2   -1    0    0    0  501  0.00000000000E+00  0.00000000000E+00  0.90824614970E+03  0.90824614970E+03  0.25500000920E-02 0.  1.
        2   -1    0    0  501    0  0.00000000000E+00  0.00000000000E+00 -0.14426247026E+04  0.14426247026E+04  0.25500000920E-02 0. -1.
    10030    2    1    2    0    0  0.00000000000E+00  0.00000000000E+00 -0.53437855290E+03  0.23508708523E+04  0.22893303227E+04 0.  0.
        3    1    3    3  502    0 -0.17877857435E+03  0.43130254204E+03 -0.13404030554E+04  0.14193886087E+04  0.10100000352E+00 0. -1.
       -3    1    3    3    0  502  0.17877857435E+03 -0.43130254204E+03  0.80602450247E+03  0.93148224363E+03  0.10100000352E+00 0.  1.
</event>
<event>
 5   0  0.5642466E-05  0.2325682E+04  0.7818609E-02  0.8467863E-01
       -1   -1    0    0    0  501  0.00000000000E+00  0.00000000000E+00  0.52250682665E+03  0.52250682667E+03  0.50400001928E-02 0. -1.
        1   -1    0    0  501    0  0.00000000000E+00  0.00000000000E+00 -0.25879081663E+04  0.25879081663E+04  0.50400001928E-02 0.  1.
    10030    2    1    2    0    0  0.00000000000E+00  0.00000000000E+00 -0.20654013397E+04  0.31104149930E+04  0.23256824234E+04 0.  0.
        1    1    3    3  502    0  0.68255954244E+03  0.31114324757E+03 -0.22210511682E+04  0.23443050018E+04  0.50400001928E-02 0.  1.
       -1    1    3    3    0  502 -0.68255954244E+03 -0.31114324757E+03  0.15564982855E+03  0.76610999121E+03  0.50400001928E-02 0. -1.
</event>
<event>
 5   0  0.5642466E-05  0.2299347E+04  0.7818609E-02  0.8478179E-01
        1   -1    0    0  501    0  0.00000000000E+00  0.00000000000E+00  0.10860080404E+04  0.10860080404E+04  0.50400001928E-02 0. -1.
       -1   -1    0    0    0  501  0.00000000000E+00  0.00000000000E+00 -0.12170713491E+04  0.12170713491E+04  0.50400001928E-02 0.  1.
    10030    2    1    2    0    0  0.00000000000E+00  0.00000000000E+00 -0.13106330876E+03  0.23030793895E+04  0.22993470994E+04 0.  0.
        1    1    3    3  502    0  0.39606968980E+03  0.90805130824E+03  0.51878555798E+03  0.11182874553E+04  0.50400001928E-02 0. -1.
       -1    1    3    3    0  502 -0.39606968980E+03 -0.90805130824E+03 -0.64984886674E+03  0.11847919341E+04  0.50400001928E-02 0.  1.
</event>
<event>
 5   0  0.1270613E-04  0.2397002E+04  0.7818609E-02  0.8440627E-01
        2   -1    0    0  501    0  0.00000000000E+00  0.00000000000E+00  0.13666545183E+04  0.13666545183E+04  0.25500000920E-02 0.  1.
       -2   -1    0    0    0  501  0.00000000000E+00  0.00000000000E+00 -0.10510373277E+04  0.10510373277E+04  0.25500000920E-02 0. -1.
    10030    2    1    2    0    0  0.00000000000E+00  0.00000000000E+00  0.31561719056E+03  0.24176918460E+04  0.23970022218E+04 0.  0.
        2    1    3    3  502    0  0.68898324086E+03  0.90523893821E+03 -0.22260658571E+03  0.11591846848E+04  0.25500000920E-02 0. -1.
       -2    1    3    3    0  502 -0.68898324086E+03 -0.90523893821E+03  0.53822377627E+03  0.12585071612E+04  0.25500000920E-02 0.  1.
</event>
<event>
 5   0  0.1281432E-04  0.2362570E+04  0.7818609E-02  0.8453651E-01
       -2   -1    0    0    0  501  0.00000000000E+00  0.00000000000E+00  0.60531611509E+03  0.60531611510E+03  0.25500000920E-02 0.  1.
        2   -1    0    0  501    0  0.00000000000E+00  0.00000000000E+00 -0.23052975706E+04  0.23052975706E+04  0.25500000920E-02 0. -1.
    10030    2    1    2    0    0  0.00000000000E+00  0.00000000000E+00 -0.16999814555E+04  0.29106136857E+04  0.23625695923E+04 0.  0.
        4    1    3    3  502    0  0.49955053489E+03  0.66455810413E+03 -0.18838502168E+04  0.20591458090E+04  0.12699999809E+01 0. -1.
       -4    1    3    3    0  502 -0.49955053489E+03 -0.66455810413E+03  0.18386876131E+03  0.85146787664E+03  0.12699999809E+01 0.  1.
</event>
<event>
 5   0  0.5924654E-05  0.2385609E+04  0.7818609E-02  0.8444911E-01
        1   -1    0    0  501    0  0.00000000000E+00  0.00000000000E+00  0.16701128365E+04  0.16701128365E+04  0.50400001928E-02 0. -1.
       -1   -1    0    0    0  501  0.00000000000E+00  0.00000000000E+00 -0.85190822225E+03  0.85190822226E+03  0.50400001928E-02 0.  1.
    10030    2    1    2    0    0  0.00000000000E+00  0.00000000000E+00  0.81820461425E+03  0.25220210588E+04  0.23856092367E+04 0.  0.
        5    1    3    3  502    0 -0.77417874188E+03 -0.88921101246E+03  0.60030840769E+03  0.13230424118E+04  0.46999998093E+01 0.  1.
       -5    1    3    3    0  502  0.77417874188E+03  0.88921101246E+03  0.21789620657E+03  0.11989786470E+04  0.46999998093E+01 0. -1.
</event>
<event>
 5   0  0.4489500E-05  0.1705377E+04  0.7818609E-02  0.8758304E-01
        3   -1    0    0  501    0  0.00000000000E+00  0.00000000000E+00  0.14632323466E+04  0.14632323501E+04  0.10100000352E+00 0. -1.
       -3   -1    0    0    0  501  0.00000000000E+00  0.00000000000E+00 -0.49689815377E+03  0.49689816403E+03  0.10100000352E+00 0.  1.
    10030    2    1    2    0    0  0.00000000000E+00  0.00000000000E+00  0.96633419284E+03  0.19601305141E+04  0.17053767502E+04 0.  0.
        3    1    3    3  502    0 -0.78182011034E+03  0.26725699000E+03  0.24095403278E+03  0.86065547100E+03  0.10100000352E+00 0. -1.
       -3    1    3    3    0  502  0.78182011034E+03 -0.26725699000E+03  0.72538016006E+03  0.10994750431E+04  0.10100000352E+00 0.  1.
</event>
<event>
 5   0  0.1237296E-04  0.2272322E+04  0.7818609E-02  0.8488915E-01
       -2   -1    0    0    0  501  0.00000000000E+00  0.00000000000E+00  0.18329393490E+04  0.18329393490E+04  0.25500000920E-02 0.  1.
        2   -1    0    0  501    0  0.00000000000E+00  0.00000000000E+00 -0.70425773816E+03  0.70425773816E+03  0.25500000920E-02 0. -1.
    10030    2    1    2    0    0  0.00000000000E+00  0.00000000000E+00  0.11286816108E+04  0.25371970871E+04  0.22723219139E+04 0.  0.
        1    1    3    3  502    0 -0.38325171480E+03  0.10695606020E+04  0.55935212973E+03  0.12663793125E+04  0.50400001928E-02 0. -1.
       -1    1    3    3    0  502  0.38325171480E+03 -0.10695606020E+04  0.56932948110E+03  0.12708177746E+04  0.50400001928E-02 0.  1.
</event>
<event>
 5   0  0.5924654E-05  0.2363688E+04  0.7818609E-02  0.8453225E-01
       -1   -1    0    0    0  501  0.00000000000E+00  0.00000000000E+00  0.12570120864E+04  0.12570120864E+04  0.50400001928E-02 0. -1.
        1   -1    0    0  501    0  0.00000000000E+00  0.00000000000E+00 -0.11111709206E+04  0.11111709206E+04  0.50400001928E-02 0.  1.
    10030    2    1    2    0    0  0.00000000000E+00  0.00000000000E+00  0.14584116574E+03  0.23681830070E+04  0.23636880313E+04 0.  0.
        5    1    3    3  502    0 -0.37524551074E+03 -0.90829152427E+03 -0.58478074921E+03  0.11435879070E+04  0.46999998093E+01 0.  1.
       -5    1    3    3    0  502  0.37524551074E+03  0.90829152427E+03  0.73062191496E+03  0.12245951000E+04  0.46999998093E+01 0. -1.
</event>
<event>
 5   0  0.5632156E-05  0.2371151E+04  0.7818609E-02  0.8450384E-01
       -1   -1    0    0    0  501  0.00000000000E+00  0.00000000000E+00  0.61615785335E+03  0.61615785337E+03  0.50400001928E-02 0.  1.
        1   -1    0    0  501    0  0.00000000000E+00  0.00000000000E+00 -0.22812167790E+04  0.22812167790E+04  0.50400001928E-02 0. -1.
    10030    2    1    2    0    0  0.00000000000E+00  0.00000000000E+00 -0.16650589256E+04  0.28973746324E+04  0.23711513099E+04 0.  0.
        4    1    3    3  502    0 -0.96952997660E+03  0.17229430196E+03 -0.16392924258E+04  0.19123166506E+04  0.12699999809E+01 0. -1.
       -4    1    3    3    0  502  0.96952997660E+03 -0.17229430196E+03 -0.25766499848E+02  0.98505798176E+03  0.12699999809E+01 0.  1.
</event>
<event>
 5   0  0.5642466E-05  0.2080375E+04  0.7818609E-02  0.8569938E-01
        1   -1    0    0  501    0  0.00000000000E+00  0.00000000000E+00  0.20763871719E+04  0.20763871719E+04  0.50400001928E-02 0.  1.
       -1   -1    0    0    0  501  0.00000000000E+00  0.00000000000E+00 -0.52109285140E+03  0.52109285142E+03  0.50400001928E-02 0. -1.
    10030    2    1    2    0    0  0.00000000000E+00  0.00000000000E+00  0.15552943205E+04  0.25974800234E+04  0.20803754585E+04 0.  0.
        1    1    3    3  502    0 -0.45345657879E+03 -0.68565836875E+03 -0.18149233496E+02  0.82224063521E+03  0.50400001928E-02 0. -1.
       -1    1    3    3    0  502  0.45345657879E+03  0.68565836875E+03  0.15734435540E+04  0.17752393881E+04  0.50400001928E-02 0.  1.
</event>
<event>
 5   0  0.5642466E-05  0.2312693E+04  0.7818609E-02  0.8472933E-01
       -1   -1    0    0    0  501  0.00000000000E+00  0.00000000000E+00  0.88437030845E+03  0.88437030847E+03  0.50400001928E-02 0.  1.
        1   -1    0    0  501    0  0.00000000000E+00  0.00000000000E+00 -0.15119656231E+04  0.15119656231E+04  0.50400001928E-02 0. -1.
    10030    2    1    2    0    0  0.00000000000E+00  0.00000000000E+00 -0.62759531468E+03  0.23963359316E+04  0.23126932391E+04 0.  0.
        1    1    3    3  502    0 -0.73514736051E+03 -0.88278381217E+03 -0.17716263719E+03  0.11623835429E+04  0.50400001928E-02 0.  1.
       -1    1    3    3    0  502  0.73514736051E+03  0.88278381217E+03 -0.45043267749E+03  0.12339523887E+04  0.50400001928E-02 0. -1.
</event>
<event>
 5   0  0.5642466E-05  0.2300473E+04  0.7818609E-02  0.8477735E-01
        1   -1    0    0  501    0  0.00000000000E+00  0.00000000000E+00  0.46881331546E+03  0.46881331549E+03  0.50400001928E-02 0. -1.
       -1   -1    0    0    0  501  0.00000000000E+00  0.00000000000E+00 -0.28221122634E+04  0.28221122635E+04  0.50400001928E-02 0.  1.
    10030    2    1    2    0    0  0.00000000000E+00  0.00000000000E+00 -0.23532989480E+04  0.32909255789E+04  0.23004728270E+04 0.  0.
        1    1    3    3  502    0 -0.60735684589E+03 -0.91326102532E+03 -0.16724431297E+04  0.19999985152E+04  0.50400001928E-02 0. -1.
       -1    1    3    3    0  502  0.60735684589E+03  0.91326102532E+03 -0.68085581826E+03  0.12909270637E+04  0.50400001928E-02 0.  1.
</event>
<event>
 5   0  0.4489500E-05  0.2298587E+04  0.7818609E-02  0.8478478E-01
       -4   -1    0    0    0  501  0.00000000000E+00  0.00000000000E+00  0.16099237397E+04  0.16099242407E+04  0.12699999809E+01 0. -1.
        4   -1    0    0  501    0  0.00000000000E+00  0.00000000000E+00 -0.82045729440E+03  0.82045827732E+03  0.12699999809E+01 0.  1.
    10030    2    1    2    0    0  0.00000000000E+00  0.00000000000E+00  0.78946644533E+03  0.24303825180E+04  0.22985869388E+04 0.  0.
        5    1    3    3  502    0 -0.88715867116E+03 -0.31664060196E+03 -0.30145887782E+03  0.98904566307E+03  0.46999998093E+01 0.  1.
       -5    1    3    3    0  502  0.88715867116E+03  0.31664060196E+03  0.10909253231E+04  0.14413368549E+04  0.46999998093E+01 0. -1.
</event>
<event>
 5   0  0.5924654E-05  0.2228354E+04  0.7818609E-02  0.8506718E-01
       -1   -1    0    0    0  501  0.00000000000E+00  0.00000000000E+00  0.94301403472E+03  0.94301403474E+03  0.50400001928E-02 0.  1.
        1   -1    0    0  501    0  0.00000000000E+00  0.00000000000E+00 -0.13164073636E+04  0.13164073636E+04  0.50400001928E-02 0. -1.
    10030    2    1    2    0    0  0.00000000000E+00  0.00000000000E+00 -0.37339332887E+03  0.22594213983E+04  0.22283542082E+04 0.  0.
        5    1    3    3  502    0  0.10729830183E+04  0.19798051486E+03 -0.41540670453E+03  0.11675074569E+04  0.46999998093E+01 0. -1.
       -5    1    3    3    0  502 -0.10729830183E+04 -0.19798051486E+03  0.42013375661E+02  0.10919139414E+04  0.46999998093E+01 0.  1.
</event>
<event>
 5   0  0.1257524E-04  0.2289164E+04  0.7818609E-02  0.8482206E-01
        2   -1    0    0  501    0  0.00000000000E+00  0.00000000000E+00  0.18926740399E+04  0.18926740399E+04  0.25500000920E-02 0.  1.
       -2   -1    0    0    0  501  0.00000000000E+00  0.00000000000E+00 -0.69217821073E+03  0.69217821073E+03  0.25500000920E-02 0. -1.
    10030    2    1    2    0    0  0.00000000000E+00  0.00000000000E+00  0.12004958292E+04  0.25848522506E+04  0.22891638040E+04 0.  0.
        3    1    3    3  502    0 -0.97852748819E+03  0.32076072044E+03  0.11644530314E+04  0.15544627231E+04  0.10100000352E+00 0.  1.
       -3    1    3    3    0  502  0.97852748819E+03 -0.32076072044E+03  0.36042797723E+02  0.10303895275E+04  0.10100000352E+00 0. -1.
</event>
<event>
 5   0  0.5663790E-05  0.2347030E+04  0.7818609E-02  0.8459605E-01
       -1   -1    0    0    0  501  0.00000000000E+00  0.00000000000E+00  0.16810266361E+04  0.16810266361E+04  0.50400001928E-02 0.  1.
        1   -1    0    0  501    0  0.00000000000E+00  0.00000000000E+00 -0.81922389860E+03  0.81922389862E+03  0.50400001928E-02 0. -1.
    10030    2    1    2    0    0  0.00000000000E+00  0.00000000000E+00  0.86180273751E+03  0.25002505347E+04  0.23470297778E+04 0.  0.
        3    1    3    3  502    0 -0.26500382717E+03 -0.71397073004E+03  0.13820241321E+04  0.15779644938E+04  0.10100000352E+00 0.  1.
       -3    1    3    3    0  502  0.26500382717E+03  0.71397073004E+03 -0.52022139458E+03  0.92228604095E+03  0.10100000352E+00 0. -1.
</event>
<event>
 5   0  0.5843670E-05  0.2248951E+04  0.7818609E-02  0.8498325E-01
       -1   -1    0    0    0  501  0.00000000000E+00  0.00000000000E+00  0.75471176796E+03  0.75471176797E+03  0.50400001928E-02 0. -1.
        1   -1    0    0  501    0  0.00000000000E+00  0.00000000000E+00 -0.16754014627E+04  0.16754014627E+04  0.50400001928E-02 0.  1.
    10030    2    1    2    0    0  0.00000000000E+00  0.00000000000E+00 -0.92068969474E+03  0.24301132307E+04  0.22489510444E+04 0.  0.
        2    1    3    3  502    0 -0.48984693529E+03 -0.32495050195E+03  0.57546775257E+03  0.82262140927E+03  0.25500000920E-02 0. -1.
       -2    1    3    3    0  502  0.48984693529E+03  0.32495050195E+03 -0.14961574473E+04  0.16074918214E+04  0.25500000920E-02 0.  1.
</event>
<event>
 5   0  0.1234988E-04  0.2145284E+04  0.7818609E-02  0.8541554E-01
        2   -1    0    0  501    0  0.00000000000E+00  0.00000000000E+00  0.11914446223E+04  0.11914446223E+04  0.25500000920E-02 0. -1.
       -2   -1    0    0    0  501  0.00000000000E+00  0.00000000000E+00 -0.96568559749E+03  0.96568559749E+03  0.25500000920E-02 0.  1.
    10030    2    1    2    0    0  0.00000000000E+00  0.00000000000E+00  0.22575902481E+03  0.21571302198E+04  0.21452840483E+04 0.  0.
        5    1    3    3  502    0  0.92312386015E+02 -0.27418249515E+03  0.11514630876E+04  0.11872602702E+04  0.46999998093E+01 0. -1.
       -5    1    3    3    0  502 -0.92312386015E+02  0.27418249515E+03 -0.92570406275E+03  0.96986994956E+03  0.46999998093E+01 0.  1.
</event>
<event>
 5   0  0.1257524E-04  0.2266463E+04  0.7818609E-02  0.8491263E-01
        2   -1    0    0  501    0  0.00000000000E+00  0.00000000000E+00  0.16493909752E+04  0.16493909752E+04  0.25500000920E-02 0. -1.
       -2   -1    0    0    0  501  0.00000000000E+00  0.00000000000E+00 -0.77859849702E+03  0.77859849703E+03  0.25500000920E-02 0.  1.
    10030    2    1    2    0    0  0.00000000000E+00  0.00000000000E+00  0.87079247814E+03  0.24279894722E+04  0.22664627368E+04 0.  0.
        3    1    3    3  502    0 -0.67047670705E+03  0.88792894832E+03  0.66579734721E+03  0.12966275293E+04  0.10100000352E+00 0. -1.
       -3    1    3    3    0  502  0.67047670705E+03 -0.88792894832E+03  0.20499513094E+03  0.11313619429E+04  0.10100000352E+00 0.  1.
</event>
<event>
 5   0  0.5642466E-05  0.2134190E+04  0.7818609E-02  0.8546330E-01
       -1   -1    0    0    0  501  0.00000000000E+00  0.00000000000E+00  0.96694846348E+03  0.96694846349E+03  0.50400001928E-02 0. -1.
        1   -1    0    0  501    0  0.00000000000E+00  0.00000000000E+00 -0.11776134413E+04  0.11776134413E+04  0.50400001928E-02 0.  1.
    10030    2    1    2    0    0  0.00000000000E+00  0.00000000000E+00 -0.21066497783E+03  0.21445619048E+04  0.21341897832E+04 0.  0.
        1    1    3    3  502    0 -0.56580447614E+03  0.68882434770E+03  0.48409975541E+03  0.10143797417E+04  0.50400001928E-02 0. -1.
       -1    1    3    3    0  502  0.56580447614E+03 -0.68882434770E+03 -0.69476473324E+03  0.11301821631E+04  0.50400001928E-02 0.  1.
</event>
<event>
 5   0  0.1281432E-04  0.2325450E+04  0.7818609E-02  0.8467954E-01
        2   -1    0    0  501    0  0.00000000000E+00  0.00000000000E+00  0.13594425008E+04  0.13594425008E+04  0.25500000920E-02 0.  1.
       -2   -1    0    0    0  501  0.00000000000E+00  0.00000000000E+00 -0.99447348841E+03  0.99447348842E+03  0.25500000920E-02 0. -1.
    10030    2    1    2    0    0  0.00000000000E+00  0.00000000000E+00  0.36496901240E+03  0.23539159892E+04  0.23254500864E+04 0.  0.
        4    1    3    3  502    0  0.65345803438E+02 -0.18011259754E+03  0.13433521103E+04  0.13569477245E+04  0.12699999809E+01 0.  1.
       -4    1    3    3    0  502 -0.65345803438E+02  0.18011259754E+03 -0.97838309789E+03  0.99696826477E+03  0.12699999809E+01 0. -1.
</event>
<event>
 5   0  0.1237296E-04  0.2386609E+04  0.7818609E-02  0.8444534E-01
       -2   -1    0    0    0  501  0.00000000000E+00  0.00000000000E+00  0.77021746483E+03  0.77021746484E+03  0.25500000920E-02 0. -1.
        2   -1    0    0  501    0  0.00000000000E+00  0.00000000000E+00 -0.18487961923E+04  0.18487961923E+04  0.25500000920E-02 0.  1.
    10030    2    1    2    0    0  0.00000000000E+00  0.00000000000E+00 -0.10785787275E+04  0.26190136571E+04  0.23866085697E+04 0.  0.
        1    1    3    3  502    0 -0.11375750019E+04  0.21441995603E+02 -0.14447926198E+03  0.11469136416E+04  0.50400001928E-02 0. -1.
       -1    1    3    3    0  502  0.11375750019E+04 -0.21441995603E+02 -0.93409946549E+03  0.14721000155E+04  0.50400001928E-02 0.  1.
</event>
<event>
 5   0  0.1257524E-04  0.2211173E+04  0.7818609E-02  0.8513792E-01
       -2   -1    0    0    0  501  0.00000000000E+00  0.00000000000E+00  0.76649688669E+03  0.76649688669E+03  0.25500000920E-02 0.  1.
        2   -1    0    0  501    0  0.00000000000E+00  0.00000000000E+00 -0.15946861083E+04  0.15946861083E+04  0.25500000920E-02 0. -1.
    10030    2    1    2    0    0  0.00000000000E+00  0.00000000000E+00 -0.82818922161E+03  0.23611829950E+04  0.22111733874E+04 0.  0.
        3    1    3    3  502    0 -0.20522565291E+03 -0.14385311261E+03  0.73576340539E+03  0.77727671105E+03  0.10100000352E+00 0.  1.
       -3    1    3    3    0  502  0.20522565291E+03  0.14385311261E+03 -0.15639526270E+04  0.15839062839E+04  0.10100000352E+00 0. -1.
</event>
<event>
 5   0  0.5924654E-05  0.2305778E+04  0.7818609E-02  0.8475646E-01
       -1   -1    0    0    0  501  0.00000000000E+00  0.00000000000E+00  0.83242172324E+03  0.83242172325E+03  0.50400001928E-02 0. -1.
        1   -1    0    0  501    0  0.00000000000E+00  0.00000000000E+00 -0.15967305962E+04  0.15967305962E+04  0.50400001928E-02 0.  1.
    10030    2    1    2    0    0  0.00000000000E+00  0.00000000000E+00 -0.76430887300E+03  0.24291523195E+04  0.23057781632E+04 0.  0.
        5    1    3    3  502    0  0.68581561093E+02  0.10288366377E+04 -0.92542363723E+03  0.13855104677E+04  0.46999998093E+01 0.  1.
       -5    1    3    3    0  502 -0.68581561093E+02 -0.10288366377E+04  0.16111476424E+03  0.10436418518E+04  0.46999998093E+01 0. -1.
</event>
<event>
 5   0  0.5843670E-05  0.2243648E+04  0.7818609E-02  0.8500477E-01
        1   -1    0    0  501    0  0.00000000000E+00  0.00000000000E+00  0.64421070200E+03  0.64421070202E+03  0.50400001928E-02 0. -1.
       -1   -1    0    0    0  501  0.00000000000E+00  0.00000000000E+00 -0.19535365271E+04  0.19535365271E+04  0.50400001928E-02 0.  1.
    10030    2    1    2    0    0  0.00000000000E+00  0.00000000000E+00 -0.13093258251E+04  0.25977472291E+04  0.22436480451E+04 0.  0.
        2    1    3    3  502    0 -0.13774443536E+03 -0.89490529467E+03 -0.14215055218E+04  0.16853803620E+04  0.25500000920E-02 0.  1.
       -2    1    3    3    0  502  0.13774443536E+03  0.89490529467E+03  0.11217969674E+03  0.91236686715E+03  0.25500000920E-02 0. -1.
</event>
<event>
 5   0  0.5642466E-05  0.2165140E+04  0.7818609E-02  0.8533079E-01
       -1   -1    0    0    0  501  0.00000000000E+00  0.00000000000E+00  0.96274211529E+03  0.96274211531E+03  0.50400001928E-02 0.  1.
        1   -1    0    0  501    0  0.00000000000E+00  0.00000000000E+00 -0.12173118524E+04  0.12173118524E+04  0.50400001928E-02 0. -1.
    10030    2    1    2    0    0  0.00000000000E+00  0.00000000000E+00 -0.25456973707E+03  0.21800539677E+04  0.21651396147E+04 0.  0.
        1    1    3    3  502    0 -0.39095959460E+03  0.88395480468E+03  0.36365133160E+03  0.10326992749E+04  0.50400001928E-02 0.  1.
       -1    1    3    3    0  502  0.39095959460E+03 -0.88395480468E+03 -0.61822106868E+03  0.11473546928E+04  0.50400001928E-02 0. -1.
</event>
<event>
 5   0  0.1270613E-04  0.1940588E+04  0.7818609E-02  0.8634913E-01
        2   -1    0    0  501    0  0.00000000000E+00  0.00000000000E+00  0.14693103336E+04  0.14693103336E+04  0.25500000920E-02 0. -1.
       -2   -1    0    0    0  501  0.00000000000E+00  0.00000000000E+00 -0.64075673138E+03  0.64075673139E+03  0.25500000920E-02 0.  1.
    10030    2    1    2    0    0  0.00000000000E+00  0.00000000000E+00  0.82855360219E+03  0.21100670650E+04  0.19405880415E+04 0.  0.
        2    1    3    3  502    0 -0.48244937923E+02 -0.23340288274E+03 -0.60843337682E+03  0.65344904449E+03  0.25500000920E-02 0.  1.
       -2    1    3    3    0  502  0.48244937923E+02  0.23340288274E+03  0.14369869790E+04  0.14566180205E+04  0.25500000920E-02 0. -1.
</event>
<event>
 5   0  0.1281432E-04  0.1278410E+04  0.7818609E-02  0.9046864E-01
        2   -1    0    0  501    0  0.00000000000E+00  0.00000000000E+00  0.73322138824E+03  0.73322138824E+03  0.25500000920E-02 0. -1.
       -2   -1    0    0    0  501  0.00000000000E+00  0.00000000000E+00 -0.55724361587E+03  0.55724361588E+03  0.25500000920E-02 0.  1.
    10030    2    1    2    0    0  0.00000000000E+00  0.00000000000E+00  0.17597777237E+03  0.12904650041E+04  0.12784098523E+04 0.  0.
        4    1    3    3  502    0  0.24766059979E+03  0.29160627938E+03 -0.42890554003E+03  0.57474478687E+03  0.12699999809E+01 0.  1.
       -4    1    3    3    0  502 -0.24766059979E+03 -0.29160627938E+03  0.60488331240E+03  0.71572021725E+03  0.12699999809E+01 0. -1.
</event>
<event>
 5   0  0.5843670E-05  0.2315454E+04  0.7818609E-02  0.8471853E-01
        1   -1    0    0  501    0  0.00000000000E+00  0.00000000000E+00  0.22439466099E+04  0.22439466099E+04  0.50400001928E-02 0. -1.
       -1   -1    0    0    0  501  0.00000000000E+00  0.00000000000E+00 -0.59731001399E+03  0.59731001401E+03  0.50400001928E-02 0.  1.
    10030    2    1    2    0    0  0.00000000000E+00  0.00000000000E+00  0.16466365959E+04  0.28412566239E+04  0.23154539779E+04 0.  0.
        2    1    3    3  502    0 -0.56252461574E+03  0.31582173985E+03 -0.35631382709E+03  0.73697819374E+03  0.25500000920E-02 0.  1.
       -2    1    3    3    0  502  0.56252461574E+03 -0.31582173985E+03  0.20029504230E+04  0.21042784301E+04  0.25500000920E-02 0. -1.
</event>
<event>
 5   0  0.5924654E-05  0.2300337E+04  0.7818609E-02  0.8477788E-01
       -1   -1    0    0    0  501  0.00000000000E+00  0.00000000000E+00  0.73426173621E+03  0.73426173623E+03  0.50400001928E-02 0.  1.
        1   -1    0    0  501    0  0.00000000000E+00  0.00000000000E+00 -0.18016567419E+04  0.18016567419E+04  0.50400001928E-02 0. -1.
    10030    2    1    2    0    0  0.00000000000E+00  0.00000000000E+00 -0.10673950056E+04  0.25359184781E+04  0.23003370252E+04 0.  0.
        5    1    3    3  502    0  0.35981238528E+03 -0.80763536726E+03  0.27725027884E+03  0.92662270971E+03  0.46999998093E+01 0.  1.
       -5    1    3    3    0  502 -0.35981238528E+03  0.80763536726E+03 -0.13446452845E+04  0.16092957684E+04  0.46999998093E+01 0. -1.
</event>
<event>
 5   0  0.5843670E-05  0.2310384E+04  0.7818609E-02  0.8473838E-01
        1   -1    0    0  501    0  0.00000000000E+00  0.00000000000E+00  0.15632306105E+04  0.15632306105E+04  0.50400001928E-02 0.  1.
       -1   -1    0    0    0  501  0.00000000000E+00  0.00000000000E+00 -0.85366040351E+03  0.85366040352E+03  0.50400001928E-02 0. -1.
    10030    2    1    2    0    0  0.00000000000E+00  0.00000000000E+00  0.70957020695E+03  0.24168910140E+04  0.23103835818E+04 0.  0.
        2    1    3    3  502    0  0.46143611396E+03 -0.51869868513E+03  0.13206564212E+04  0.14920137386E+04  0.25500000920E-02 0.  1.
       -2    1    3    3    0  502 -0.46143611396E+03  0.51869868513E+03 -0.61108621429E+03  0.92487727538E+03  0.25500000920E-02 0. -1.
</event>
<event>
 5   0  0.4489500E-05  0.2312585E+04  0.7818609E-02  0.8472975E-01
       -3   -1    0    0    0  501  0.00000000000E+00  0.00000000000E+00  0.19039992153E+04  0.19039992179E+04  0.10100000352E+00 0. -1.
        3   -1    0    0  501    0  0.00000000000E+00  0.00000000000E+00 -0.70221282504E+03  0.70221283230E+03  0.10100000352E+00 0.  1.
    10030    2    1    2    0    0  0.00000000000E+00  0.00000000000E+00  0.12017863902E+04  0.26062120502E+04  0.23125852899E+04 0.  0.
        1    1    3    3  502    0 -0.87384683191E+03  0.57338528409E+03  0.11582972728E+04  0.15601383086E+04  0.50400001928E-02 0. -1.
       -1    1    3    3    0  502  0.87384683191E+03 -0.57338528409E+03  0.43489117409E+02  0.10460737417E+04  0.50400001928E-02 0.  1.
</event>
<event>
 5   0  0.1270613E-04  0.1175280E+04  0.7818609E-02  0.9134773E-01
       -2   -1    0    0    0  501  0.00000000000E+00  0.00000000000E+00  0.14075496938E+03  0.14075496941E+03  0.25500000920E-02 0.  1.
        2   -1    0    0  501    0  0.00000000000E+00  0.00000000000E+00 -0.24533478467E+04  0.24533478467E+04  0.25500000920E-02 0. -1.
    10030    2    1    2    0    0  0.00000000000E+00  0.00000000000E+00 -0.23125928773E+04  0.25941028161E+04  0.11752802237E+04 0.  0.
        2    1    3    3  502    0 -0.31300953234E+03  0.37685404067E+02 -0.61715820540E+02  0.32125379302E+03  0.25500000920E-02 0.  1.
       -2    1    3    3    0  502  0.31300953234E+03 -0.37685404067E+02 -0.22508770567E+04  0.22728490230E+04  0.25500000920E-02 0. -1.
</event>
<event>
 5   0  0.1257524E-04  0.2186746E+04  0.7818609E-02  0.8523965E-01
        2   -1    0    0  501    0  0.00000000000E+00  0.00000000000E+00  0.28627347901E+04  0.28627347901E+04  0.25500000920E-02 0.  1.
       -2   -1    0    0    0  501  0.00000000000E+00  0.00000000000E+00 -0.41759513112E+03  0.41759513113E+03  0.25500000920E-02 0. -1.
    10030    2    1    2    0    0  0.00000000000E+00  0.00000000000E+00  0.24451396590E+04  0.32803299212E+04  0.21867456277E+04 0.  0.
        3    1    3    3  502    0  0.88251439016E+03 -0.24478785946E+03  0.32663230698E+03  0.97233811976E+03  0.10100000352E+00 0. -1.
       -3    1    3    3    0  502 -0.88251439016E+03  0.24478785946E+03  0.21185073520E+04  0.23079918015E+04  0.10100000352E+00 0.  1.
</event>
<event>
 5   0  0.1270613E-04  0.2293390E+04  0.7818609E-02  0.8480532E-01
        2   -1    0    0  501    0  0.00000000000E+00  0.00000000000E+00  0.20273300163E+04  0.20273300163E+04  0.25500000920E-02 0.  1.
       -2   -1    0    0    0  501  0.00000000000E+00  0.00000000000E+00 -0.64859190489E+03  0.64859190490E+03  0.25500000920E-02 0. -1.
    10030    2    1    2    0    0  0.00000000000E+00  0.00000000000E+00  0.13787381114E+04  0.26759219212E+04  0.22933903611E+04 0.  0.
        2    1    3    3  502    0 -0.86882240536E+02 -0.10255726934E+04  0.12792217437E+04  0.16418758000E+04  0.25500000920E-02 0. -1.
       -2    1    3    3    0  502  0.86882240536E+02  0.10255726934E+04  0.99516367729E+02  0.10340461212E+04  0.25500000920E-02 0.  1.
</event>
<event>
 5   0  0.5663790E-05  0.2295602E+04  0.7818609E-02  0.8479657E-01
       -1   -1    0    0    0  501  0.00000000000E+00  0.00000000000E+00  0.10876841021E+04  0.10876841021E+04  0.50400001928E-02 0.  1.
        1   -1    0    0  501    0  0.00000000000E+00  0.00000000000E+00 -0.12112407689E+04  0.12112407689E+04  0.50400001928E-02 0. -1.
    10030    2    1    2    0    0  0.00000000000E+00  0.00000000000E+00 -0.12355666685E+03  0.22989248710E+04  0.22956021677E+04 0.  0.
        3    1    3    3  502    0  0.41753224137E+03 -0.93708369923E+03 -0.57729355189E+03  0.11771690139E+04  0.10100000352E+00 0. -1.
       -3    1    3    3    0  502 -0.41753224137E+03  0.93708369923E+03  0.45373688504E+03  0.11217558571E+04  0.10100000352E+00 0.  1.
</event>
<event>
 5   0  0.5924654E-05  0.2306801E+04  0.7818609E-02  0.8475245E-01
       -1   -1    0    0    0  501  0.00000000000E+00  0.00000000000E+00  0.89616518143E+03  0.89616518145E+03  0.50400001928E-02 0. -1.
        1   -1    0    0  501    0  0.00000000000E+00  0.00000000000E+00 -0.14844721377E+04  0.14844721377E+04  0.50400001928E-02 0.  1.
    10030    2    1    2    0    0  0.00000000000E+00  0.00000000000E+00 -0.58830695625E+03  0.23806373191E+04  0.23068005918E+04 0.  0.
        5    1    3    3  502    0  0.32045467725E+03 -0.20444833599E+03  0.82965560407E+03  0.91260113610E+03  0.46999998093E+01 0. -1.
       -5    1    3    3    0  502 -0.32045467725E+03  0.20444833599E+03 -0.14179625603E+04  0.14680361830E+04  0.46999998093E+01 0.  1.
</event>
<event>
 5   0  0.1234988E-04  0.2345818E+04  0.7818609E-02  0.8460072E-01
        2   -1    0    0  501    0  0.00000000000E+00  0.00000000000E+00  0.12303380283E+04  0.12303380283E+04  0.25500000920E-02 0.  1.
       -2   -1    0    0    0  501  0.00000000000E+00  0.00000000000E+00 -0.11181609464E+04  0.11181609465E+04  0.25500000920E-02 0. -1.
    10030    2    1    2    0    0  0.00000000000E+00  0.00000000000E+00  0.11217708188E+03  0.23484989748E+04  0.23458183512E+04 0.  0.
        5    1    3    3  502    0  0.99812204112E+03  0.22410538261E+03 -0.51834671642E+03  0.11468113358E+04  0.46999998093E+01 0. -1.
       -5    1    3    3    0  502 -0.99812204112E+03 -0.22410538261E+03  0.63052379830E+03  0.12016876390E+04  0.46999998093E+01 0.  1.
</event>
<event>
 5   0  0.5924654E-05  0.2329525E+04  0.7818609E-02  0.8466370E-01
       -1   -1    0    0    0  501  0.00000000000E+00  0.00000000000E+00  0.65612610777E+03  0.65612610779E+03  0.50400001928E-02 0.  1.
        1   -1    0    0  501    0  0.00000000000E+00  0.00000000000E+00 -0.20676993999E+04  0.20676993999E+04  0.50400001928E-02 0. -1.
    10030    2    1    2    0    0  0.00000000000E+00  0.00000000000E+00 -0.14115732921E+04  0.27238255077E+04  0.23295248952E+04 0.  0.
        5    1    3    3  502    0  0.22262875478E+03 -0.60837291062E+03 -0.18375988630E+04  0.19484539594E+04  0.46999998093E+01 0. -1.
       -5    1    3    3    0  502 -0.22262875478E+03  0.60837291062E+03  0.42602557085E+03  0.77537154826E+03  0.46999998093E+01 0.  1.
</event>
<event>
 5   0  0.5843670E-05  0.2263028E+04  0.7818609E-02  0.8492643E-01
        1   -1    0    0  501    0  0.00000000000E+00  0.00000000000E+00  0.17193551199E+04  0.17193551199E+04  0.50400001928E-02 0.  1.
       -1   -1    0    0    0  501  0.00000000000E+00  0.00000000000E+00 -0.74465355101E+03  0.74465355103E+03  0.50400001928E-02 0. -1.
    10030    2    1    2    0    0  0.00000000000E+00  0.00000000000E+00  0.97470156886E+03  0.24640086709E+04  0.22630279676E+04 0.  0.
        2    1    3    3  502    0 -0.18525141197E+02 -0.11031497561E+04  0.21397188226E+03  0.11238623277E+04  0.25500000920E-02 0. -1.
       -2    1    3    3    0  502  0.18525141197E+02  0.11031497561E+04  0.76072968660E+03  0.13401463432E+04  0.25500000920E-02 0.  1.
</event>
<event>
 5   0  0.1234988E-04  0.2216638E+04  0.7818609E-02  0.8511535E-01
        2   -1    0    0  501    0  0.00000000000E+00  0.00000000000E+00  0.18911268676E+04  0.18911268676E+04  0.25500000920E-02 0.  1.
       -2   -1    0    0    0  501  0.00000000000E+00  0.00000000000E+00 -0.64954454912E+03  0.64954454912E+03  0.25500000920E-02 0. -1.
    10030    2    1    2    0    0  0.00000000000E+00  0.00000000000E+00  0.12415823185E+04  0.25406714167E+04  0.22166381288E+04 0.  0.
        5    1    3    3  502    0 -0.91599250592E+03 -0.51485640246E+03  0.10247772127E+04  0.14677567277E+04  0.46999998093E+01 0. -1.
       -5    1    3    3    0  502  0.91599250592E+03  0.51485640246E+03  0.21680510582E+03  0.10729146890E+04  0.46999998093E+01 0.  1.
</event>
<event>
 5   0  0.5642466E-05  0.2513458E+04  0.7818609E-02  0.8398207E-01
        1   -1    0    0  501    0  0.00000000000E+00  0.00000000000E+00  0.17945918636E+04  0.17945918636E+04  0.50400001928E-02 0.  1.
       -1   -1    0    0    0  501  0.00000000000E+00  0.00000000000E+00 -0.88007080576E+03  0.88007080577E+03  0.50400001928E-02 0. -1.
    10030    2    1    2    0    0  0.00000000000E+00  0.00000000000E+00  0.91452105781E+03  0.26746626694E+04  0.25134581018E+04 0.  0.
        1    1    3    3  502    0 -0.30965839939E+03 -0.23134197639E+03 -0.81524413432E+03  0.90223635092E+03  0.50400001928E-02 0. -1.
       -1    1    3    3    0  502  0.30965839939E+03  0.23134197639E+03  0.17297651921E+04  0.17724263184E+04  0.50400001928E-02 0.  1.
</event>
<event>
 5   0  0.1257524E-04  0.1619975E+04  0.7818609E-02  0.8808369E-01
       -2   -1    0    0    0  501  0.00000000000E+00  0.00000000000E+00  0.83107831664E+03  0.83107831664E+03  0.25500000920E-02 0.  1.
        2   -1    0    0  501    0  0.00000000000E+00  0.00000000000E+00 -0.78943228660E+03  0.78943228660E+03  0.25500000920E-02 0. -1.
    10030    2    1    2    0    0  0.00000000000E+00  0.00000000000E+00  0.41646030038E+02  0.16205106032E+04  0.16199753774E+04 0.  0.
        3    1    3    3  502    0 -0.29265467525E+03 -0.43350044075E+03 -0.59785578108E+03  0.79435567365E+03  0.10100000352E+00 0. -1.
       -3    1    3    3    0  502  0.29265467525E+03  0.43350044075E+03  0.63950181112E+03  0.82615492960E+03  0.10100000352E+00 0.  1.
</event>
<event>
 5   0  0.1237296E-04  0.1849797E+04  0.7818609E-02  0.8680257E-01
        2   -1    0    0  501    0  0.00000000000E+00  0.00000000000E+00  0.12422948658E+04  0.12422948658E+04  0.25500000920E-02 0. -1.
       -2   -1    0    0    0  501  0.00000000000E+00  0.00000000000E+00 -0.68859457015E+03  0.68859457016E+03  0.25500000920E-02 0.  1.
    10030    2    1    2    0    0  0.00000000000E+00  0.00000000000E+00  0.55370029563E+03  0.19308894359E+04  0.18497972852E+04 0.  0.
        1    1    3    3  502    0  0.24367170366E+03  0.19544188424E+03 -0.63186742727E+03  0.70486159985E+03  0.50400001928E-02 0.  1.
       -1    1    3    3    0  502 -0.24367170366E+03 -0.19544188424E+03  0.11855677229E+04  0.12260278361E+04  0.50400001928E-02 0. -1.
</event>
<event>
 5   0  0.1257524E-04  0.2145192E+04  0.7818609E-02  0.8541593E-01
        2   -1    0    0  501    0  0.00000000000E+00  0.00000000000E+00  0.82607150810E+03  0.82607150810E+03  0.25500000920E-02 0. -1.
       -2   -1    0    0    0  501  0.00000000000E+00  0.00000000000E+00 -0.13926912505E+04  0.13926912505E+04  0.25500000920E-02 0.  1.
    10030    2    1    2    0    0  0.00000000000E+00  0.00000000000E+00 -0.56661974237E+03  0.22187627586E+04  0.21451923565E+04 0.  0.
        3    1    3    3  502    0  0.70835163181E+03  0.78658368999E+03 -0.46241513682E+03  0.11551206450E+04  0.10100000352E+00 0.  1.
       -3    1    3    3    0  502 -0.70835163181E+03 -0.78658368999E+03 -0.10420460555E+03  0.10636421135E+04  0.10100000352E+00 0. -1.
</event>
<event>
 5   0  0.4489500E-05  0.2285022E+04  0.7818609E-02  0.8483850E-01
        4   -1    0    0  501    0  0.00000000000E+00  0.00000000000E+00  0.84738123769E+03  0.84738218938E+03  0.12699999809E+01 0.  1.
       -4   -1    0    0    0  501  0.00000000000E+00  0.00000000000E+00 -0.15404277459E+04  0.15404282694E+04  0.12699999809E+01 0. -1.
    10030    2    1    2    0    0  0.00000000000E+00  0.00000000000E+00 -0.69304650818E+03  0.23878104588E+04  0.22850219527E+04 0.  0.
        5    1    3    3  502    0 -0.69908541801E+03  0.83961982594E+03 -0.69565940083E+03  0.12952397329E+04  0.46999998093E+01 0. -1.
       -5    1    3    3    0  502  0.69908541801E+03 -0.83961982594E+03  0.26128926449E+01  0.10925707259E+04  0.46999998093E+01 0.  1.
</event>
<event>
 5   0  0.1281432E-04  0.2304152E+04  0.7818609E-02  0.8476286E-01
        2   -1    0    0  501    0  0.00000000000E+00  0.00000000000E+00  0.17365565301E+04  0.17365565301E+04  0.25500000920E-02 0.  1.
       -2   -1    0    0    0  501  0.00000000000E+00  0.00000000000E+00 -0.76431694793E+03  0.76431694794E+03  0.25500000920E-02 0. -1.
    10030    2    1    2    0    0  0.00000000000E+00  0.00000000000E+00  0.97223958218E+03  0.25008734781E+04  0.23041524142E+04 0.  0.
        4    1    3    3  502    0 -0.23067049493E+03 -0.11074336497E+04  0.24916981789E+03  0.11583200666E+04  0.12699999809E+01 0.  1.
       -4    1    3    3    0  502  0.23067049493E+03  0.11074336497E+04  0.72306976429E+03  0.13425534114E+04  0.12699999809E+01 0. -1.
</event>
<event>
 5   0  0.5924654E-05  0.2098079E+04  0.7818609E-02  0.8562090E-01
        1   -1    0    0  501    0  0.00000000000E+00  0.00000000000E+00  0.14186173941E+04  0.14186173941E+04  0.50400001928E-02 0. -1.
       -1   -1    0    0    0  501  0.00000000000E+00  0.00000000000E+00 -0.77574388288E+03  0.77574388290E+03  0.50400001928E-02 0.  1.
    10030    2    1    2    0    0  0.00000000000E+00  0.00000000000E+00  0.64287351125E+03  0.21943612770E+04  0.20980788981E+04 0.  0.
        5    1    3    3  502    0  0.79458762076E+03  0.25428489393E+03 -0.34369661644E+03  0.90231909461E+03  0.46999998093E+01 0.  1.
       -5    1    3    3    0  502 -0.79458762076E+03 -0.25428489393E+03  0.98657012769E+03  0.12920421824E+04  0.46999998093E+01 0. -1.
</event>
<event>
 5   0  0.1234988E-04  0.2313011E+04  0.7818609E-02  0.8472809E-01
       -2   -1    0    0    0  501  0.00000000000E+00  0.00000000000E+00  0.74726561398E+03  0.74726561398E+03  0.25500000920E-02 0.  1.
        2   -1    0    0  501    0  0.00000000000E+00  0.00000000000E+00 -0.17898660230E+04  0.17898660230E+04  0.25500000920E-02 0. -1.
    10030    2    1    2    0    0  0.00000000000E+00  0.00000000000E+00 -0.10426004091E+04  0.25371316370E+04  0.23130113123E+04 0.  0.
        5    1    3    3  502    0 -0.88413114195E+02 -0.73375703881E+03 -0.14970237006E+04  0.16695263762E+04  0.46999998093E+01 0. -1.
       -5    1    3    3    0  502  0.88413114195E+02  0.73375703881E+03  0.45442329150E+03  0.86760526083E+03  0.46999998093E+01 0.  1.
</event>
<event>
 5   0  0.4489500E-05  0.1617821E+04  0.7818609E-02  0.8809674E-01
        3   -1    0    0  501    0  0.00000000000E+00  0.00000000000E+00  0.93034987226E+03  0.93034987774E+03  0.10100000352E+00 0.  1.
       -3   -1    0    0    0  501  0.00000000000E+00  0.00000000000E+00 -0.70332285015E+03  0.70332285740E+03  0.10100000352E+00 0. -1.
    10030    2    1    2    0    0  0.00000000000E+00  0.00000000000E+00  0.22702702211E+03  0.16336727351E+04  0.16178211696E+04 0.  0.
        4    1    3    3  502    0  0.34211534193E+03 -0.25746563528E+03 -0.57950766304E+03  0.72052911458E+03  0.12699999809E+01 0. -1.
       -4    1    3    3    0  502 -0.34211534193E+03  0.25746563528E+03  0.80653468515E+03  0.91314362057E+03  0.12699999809E+01 0.  1.
</event>
<event>
 5   0  0.5843670E-05  0.2135579E+04  0.7818609E-02  0.8545731E-01
        1   -1    0    0  501    0  0.00000000000E+00  0.00000000000E+00  0.30802950864E+04  0.30802950864E+04  0.50400001928E-02 0.  1.
       -1   -1    0    0    0  501  0.00000000000E+00  0.00000000000E+00 -0.37015087475E+03  0.37015087479E+03  0.50400001928E-02 0. -1.
    10030    2    1    2    0    0  0.00000000000E+00  0.00000000000E+00  0.27101442117E+04  0.34504459612E+04  0.21355785360E+04 0.  0.
        2    1    3    3  502    0 -0.17918566333E+03  0.81604170535E+03  0.28073458777E+03  0.88138724497E+03  0.25500000920E-02 0. -1.
       -2    1    3    3    0  502  0.17918566333E+03 -0.81604170535E+03  0.24294096239E+04  0.25690587163E+04  0.25500000920E-02 0.  1.
</event>
<event>
 5   0  0.5663790E-05  0.2128089E+04  0.7818609E-02  0.8548970E-01
       -1   -1    0    0    0  501  0.00000000000E+00  0.00000000000E+00  0.13039791316E+04  0.13039791316E+04  0.50400001928E-02 0.  1.
        1   -1    0    0  501    0  0.00000000000E+00  0.00000000000E+00 -0.86825834163E+03  0.86825834164E+03  0.50400001928E-02 0. -1.
    10030    2    1    2    0    0  0.00000000000E+00  0.00000000000E+00  0.43572078996E+03  0.21722374732E+04  0.21280890567E+04 0.  0.
        3    1    3    3  502    0  0.46887168685E+02 -0.96350088602E+03  0.67624037833E+03  0.11780634208E+04  0.10100000352E+00 0.  1.
       -3    1    3    3    0  502 -0.46887168685E+02  0.96350088602E+03 -0.24051958837E+03  0.99417405244E+03  0.10100000352E+00 0. -1.
</event>
<event>
 5   0  0.5924654E-05  0.2261756E+04  0.7818609E-02  0.8493155E-01
        1   -1    0    0  501    0  0.00000000000E+00  0.00000000000E+00  0.15385723195E+04  0.15385723196E+04  0.50400001928E-02 0. -1.
       -1   -1    0    0    0  501  0.00000000000E+00  0.00000000000E+00 -0.83121534636E+03  0.83121534637E+03  0.50400001928E-02 0.  1.
    10030    2    1    2    0    0  0.00000000000E+00  0.00000000000E+00  0.70735697319E+03  0.23697876659E+04  0.22617558874E+04 0.  0.
        5    1    3    3  502    0 -0.54422801157E+03  0.92516277844E+03  0.72670700721E+03  0.12962389670E+04  0.46999998093E+01 0. -1.
       -5    1    3    3    0  502  0.54422801157E+03 -0.92516277844E+03 -0.19350034017E+02  0.10735486989E+04  0.46999998093E+01 0.  1.
</event>
<event>
 5   0  0.1234988E-04  0.2210637E+04  0.7818609E-02  0.8514014E-01
        2   -1    0    0  501    0  0.00000000000E+00  0.00000000000E+00  0.19835674111E+04  0.19835674112E+04  0.25500000920E-02 0. -1.
       -2   -1    0    0    0  501  0.00000000000E+00  0.00000000000E+00 -0.61592488724E+03  0.61592488724E+03  0.25500000920E-02 0.  1.
    10030    2    1    2    0    0  0.00000000000E+00  0.00000000000E+00  0.13676425239E+04  0.25994922984E+04  0.22106365907E+04 0.  0.
        5    1    3    3  502    0 -0.28753720035E+03 -0.93132515575E+03  0.70926608408E+02  0.97729057147E+03  0.46999998093E+01 0.  1.
       -5    1    3    3    0  502  0.28753720035E+03  0.93132515575E+03  0.12967159155E+04  0.16222017269E+04  0.46999998093E+01 0. -1.
</event>
<event>
 5   0  0.5642466E-05  0.2362981E+04  0.7818609E-02  0.8453495E-01
       -1   -1    0    0    0  501  0.00000000000E+00  0.00000000000E+00  0.73817161548E+03  0.73817161549E+03  0.50400001928E-02 0. -1.
        1   -1    0    0  501    0  0.00000000000E+00  0.00000000000E+00 -0.18910498915E+04  0.18910498915E+04  0.50400001928E-02 0.  1.
    10030    2    1    2    0    0  0.00000000000E+00  0.00000000000E+00 -0.11528782760E+04  0.26292215070E+04  0.23629806206E+04 0.  0.
        1    1    3    3  502    0  0.60572265887E+03  0.18537165230E+03  0.53325588060E+03  0.82802440976E+03  0.50400001928E-02 0. -1.
       -1    1    3    3    0  502 -0.60572265887E+03 -0.18537165230E+03 -0.16861341566E+04  0.18011970972E+04  0.50400001928E-02 0.  1.
</event>
<event>
 5   0  0.5924654E-05  0.2301820E+04  0.7818609E-02  0.8477204E-01
       -1   -1    0    0    0  501  0.00000000000E+00  0.00000000000E+00  0.11893110540E+04  0.11893110540E+04  0.50400001928E-02 0.  1.
        1   -1    0    0  501    0  0.00000000000E+00  0.00000000000E+00 -0.11137485366E+04  0.11137485366E+04  0.50400001928E-02 0. -1.
    10030    2    1    2    0    0  0.00000000000E+00  0.00000000000E+00  0.75562517416E+02  0.23030595906E+04  0.23018196680E+04 0.  0.
        5    1    3    3  502    0  0.13485322028E+03 -0.27670037990E+03  0.11473524193E+04  0.11879344070E+04  0.46999998093E+01 0.  1.
       -5    1    3    3    0  502 -0.13485322028E+03  0.27670037990E+03 -0.10717899019E+04  0.11151251836E+04  0.46999998093E+01 0. -1.
</event>
<event>
 5   0  0.5632156E-05  0.2283175E+04  0.7818609E-02  0.8484585E-01
       -1   -1    0    0    0  501  0.00000000000E+00  0.00000000000E+00  0.15279837340E+04  0.15279837340E+04  0.50400001928E-02 0.  1.
        1   -1    0    0  501    0  0.00000000000E+00  0.00000000000E+00 -0.85290307952E+03  0.85290307953E+03  0.50400001928E-02 0. -1.
    10030    2    1    2    0    0  0.00000000000E+00  0.00000000000E+00  0.67508065443E+03  0.23808868135E+04  0.22831750105E+04 0.  0.
        4    1    3    3  502    0  0.41426918181E+03  0.83946498879E+03  0.10188783456E+04  0.13836311353E+04  0.12699999809E+01 0.  1.
       -4    1    3    3    0  502 -0.41426918181E+03 -0.83946498879E+03 -0.34379769119E+03  0.99725567823E+03  0.12699999809E+01 0. -1.
</event>
<event>
 5   0  0.5843670E-05  0.2217477E+04  0.7818609E-02  0.8511189E-01
        1   -1    0    0  501    0  0.00000000000E+00  0.00000000000E+00  0.14318831795E+04  0.14318831795E+04  0.50400001928E-02 0. -1.
       -1   -1    0    0    0  501  0.00000000000E+00  0.00000000000E+00 -0.85852033063E+03  0.85852033064E+03  0.50400001928E-02 0.  1.
    10030    2    1    2    0    0  0.00000000000E+00  0.00000000000E+00  0.57336284886E+03  0.22904035101E+04  0.22174767829E+04 0.  0.
        2    1    3    3  502    0 -0.18062322878E+03  0.54118676213E+03  0.12686269507E+04  0.13910148102E+04  0.25500000920E-02 0. -1.
       -2    1    3    3    0  502  0.18062322878E+03 -0.54118676213E+03 -0.69526410181E+03  0.89938869992E+03  0.25500000920E-02 0.  1.
</event>
<event>
 5   0  0.1270613E-04  0.2512824E+04  0.7818609E-02  0.8398431E-01
        2   -1    0    0  501    0  0.00000000000E+00  0.00000000000E+00  0.84938856290E+03  0.84938856291E+03  0.25500000920E-02 0.  1.
       -2   -1    0    0    0  501  0.00000000000E+00  0.00000000000E+00 -0.18584788976E+04  0.18584788976E+04  0.25500000920E-02 0. -1.
    10030    2    1    2    0    0  0.00000000000E+00  0.00000000000E+00 -0.10090903347E+04  0.27078674606E+04  0.25128236867E+04 0.  0.
        2    1    3    3  502    0 -0.52829745291E+03  0.99679953786E+03  0.91431149789E+02  0.11318423797E+04  0.25500000920E-02 0. -1.
       -2    1    3    3    0  502  0.52829745291E+03 -0.99679953786E+03 -0.11005214845E+04  0.15760250808E+04  0.25500000920E-02 0.  1.
</event>
<event>
 5   0  0.1257524E-04  0.1258267E+04  0.7818609E-02  0.9063330E-01
       -2   -1    0    0    0  501  0.00000000000E+00  0.00000000000E+00  0.34268678819E+03  0.34268678820E+03  0.25500000920E-02 0.  1.
        2   -1    0    0  501    0  0.00000000000E+00  0.00000000000E+00 -0.11550172913E+04  0.11550172913E+04  0.25500000920E-02 0. -1.
    10030    2    1    2    0    0  0.00000000000E+00  0.00000000000E+00 -0.81233050313E+03  0.14977040795E+04  0.12582673259E+04 0.  0.
        3    1    3    3  502    0 -0.40397957018E+03 -0.30670490441E+01  0.16789593921E+03  0.43749052163E+03  0.10100000352E+00 0.  1.
       -3    1    3    3    0  502  0.40397957018E+03  0.30670490441E+01 -0.98022644234E+03  0.10602135579E+04  0.10100000352E+00 0. -1.
</event>
<event>
 5   0  0.1281432E-04  0.2247391E+04  0.7818609E-02  0.8498958E-01
       -2   -1    0    0    0  501  0.00000000000E+00  0.00000000000E+00  0.85645729037E+03  0.85645729037E+03  0.25500000920E-02 0.  1.
        2   -1    0    0  501    0  0.00000000000E+00  0.00000000000E+00 -0.14743196412E+04  0.14743196412E+04  0.25500000920E-02 0. -1.
    10030    2    1    2    0    0  0.00000000000E+00  0.00000000000E+00 -0.61786235081E+03  0.23307769315E+04  0.22473912032E+04 0.  0.
        4    1    3    3  502    0  0.46482739389E+03  0.19210754955E+02  0.75188747527E+03  0.88417755433E+03  0.12699999809E+01 0.  1.
       -4    1    3    3    0  502 -0.46482739389E+03 -0.19210754955E+02 -0.13697498261E+04  0.14465993772E+04  0.12699999809E+01 0. -1.
</event>
<event>
 5   0  0.5663790E-05  0.2286402E+04  0.7818609E-02  0.8483302E-01
       -1   -1    0    0    0  501  0.00000000000E+00  0.00000000000E+00  0.89489931705E+03  0.89489931707E+03  0.50400001928E-02 0.  1.
        1   -1    0    0  501    0  0.00000000000E+00  0.00000000000E+00 -0.14603974270E+04  0.14603974270E+04  0.50400001928E-02 0. -1.
    10030    2    1    2    0    0  0.00000000000E+00  0.00000000000E+00 -0.56549810999E+03  0.23552967441E+04  0.22864021170E+04 0.  0.
        3    1    3    3  502    0 -0.84997064235E+03  0.48571792755E+03 -0.89090820556E+03  0.13236651536E+04  0.10100000352E+00 0. -1.
       -3    1    3    3    0  502  0.84997064235E+03 -0.48571792755E+03  0.32541009557E+03  0.10316315905E+04  0.10100000352E+00 0.  1.
</event>
<event>
 5   0  0.1237296E-04  0.2139451E+04  0.7818609E-02  0.8544061E-01
       -2   -1    0    0    0  501  0.00000000000E+00  0.00000000000E+00  0.66399331228E+03  0.66399331229E+03  0.25500000920E-02 0. -1.
        2   -1    0    0  501    0  0.00000000000E+00  0.00000000000E+00 -0.17233798494E+04  0.17233798494E+04  0.25500000920E-02 0.  1.
    10030    2    1    2    0    0  0.00000000000E+00  0.00000000000E+00 -0.10593865371E+04  0.23873731617E+04  0.21394510460E+04 0.  0.
        1    1    3    3  502    0 -0.10364492358E+04 -0.13591431648E+03 -0.78320461329E+03  0.13061811460E+04  0.50400001928E-02 0. -1.
       -1    1    3    3    0  502  0.10364492358E+04  0.13591431648E+03 -0.27618192385E+03  0.10811920157E+04  0.50400001928E-02 0.  1.
</event>
<event>
 5   0  0.1234988E-04  0.1904912E+04  0.7818609E-02  0.8652415E-01
        2   -1    0    0  501    0  0.00000000000E+00  0.00000000000E+00  0.12163232183E+04  0.12163232183E+04  0.25500000920E-02 0.  1.
       -2   -1    0    0    0  501  0.00000000000E+00  0.00000000000E+00 -0.74583184008E+03  0.74583184008E+03  0.25500000920E-02 0. -1.
    10030    2    1    2    0    0  0.00000000000E+00  0.00000000000E+00  0.47049137818E+03  0.19621550583E+04  0.19049121597E+04 0.  0.
        5    1    3    3  502    0 -0.51602410984E+03 -0.36100454164E+03  0.97124181027E+03  0.11575568690E+04  0.46999998093E+01 0.  1.
       -5    1    3    3    0  502  0.51602410984E+03  0.36100454164E+03 -0.50075043209E+03  0.80459818932E+03  0.46999998093E+01 0. -1.
</event>
<event>
 5   0  0.5632156E-05  0.2231627E+04  0.7818609E-02  0.8505378E-01
        1   -1    0    0  501    0  0.00000000000E+00  0.00000000000E+00  0.15270958162E+04  0.15270958162E+04  0.50400001928E-02 0.  1.
       -1   -1    0    0    0  501  0.00000000000E+00  0.00000000000E+00 -0.81529918455E+03  0.81529918456E+03  0.50400001928E-02 0. -1.
    10030    2    1    2    0    0  0.00000000000E+00  0.00000000000E+00  0.71179663169E+03  0.23423950008E+04  0.22316271855E+04 0.  0.
        4    1    3    3  502    0 -0.66454028181E+03  0.49318292744E+03 -0.42971379720E+03  0.93246916650E+03  0.12699999809E+01 0. -1.
       -4    1    3    3    0  502  0.66454028181E+03 -0.49318292744E+03  0.11415104289E+04  0.14099258343E+04  0.12699999809E+01 0.  1.
</event>
<event>
 5   0  0.5843670E-05  0.2305751E+04  0.7818609E-02  0.8475657E-01
        1   -1    0    0  501    0  0.00000000000E+00  0.00000000000E+00  0.12368357963E+04  0.12368357963E+04  0.50400001928E-02 0. -1.
       -1   -1    0    0    0  501  0.00000000000E+00  0.00000000000E+00 -0.10746150115E+04  0.10746150115E+04  0.50400001928E-02 0.  1.
    10030    2    1    2    0    0  0.00000000000E+00  0.00000000000E+00  0.16222078480E+03  0.23114508078E+04  0.23057513425E+04 0.  0.
        2    1    3    3  502    0  0.11374709826E+04 -0.18783458595E+03  0.81607014599E+02  0.11557602575E+04  0.25500000920E-02 0. -1.
       -2    1    3    3    0  502 -0.11374709826E+04  0.18783458595E+03  0.80613770204E+02  0.11556905503E+04  0.25500000920E-02 0.  1.
</event>
<event>
 5   0  0.5843670E-05  0.2337053E+04  0.7818609E-02  0.8463453E-01
        1   -1    0    0  501    0  0.00000000000E+00  0.00000000000E+00  0.24160975944E+04  0.24160975944E+04  0.50400001928E-02 0. -1.
       -1   -1    0    0    0  501  0.00000000000E+00  0.00000000000E+00 -0.56514863771E+03  0.56514863773E+03  0.50400001928E-02 0.  1.
    10030    2    1    2    0    0  0.00000000000E+00  0.00000000000E+00  0.18509489566E+04  0.29812462321E+04  0.23370530709E+04 0.  0.
        2    1    3    3  502    0 -0.62817505024E+03  0.63607837989E+03 -0.34445806650E+02  0.89464300853E+03  0.25500000920E-02 0.  1.
       -2    1    3    3    0  502  0.62817505024E+03 -0.63607837989E+03  0.18853947633E+04  0.20866032236E+04  0.25500000920E-02 0. -1.
</event>
<event>
 5   0  0.5663790E-05  0.2399355E+04  0.7818609E-02  0.8439745E-01
       -1   -1    0    0    0  501  0.00000000000E+00  0.00000000000E+00  0.81223941952E+03  0.81223941954E+03  0.50400001928E-02 0. -1.
        1   -1    0    0  501    0  0.00000000000E+00  0.00000000000E+00 -0.17719240544E+04  0.17719240544E+04  0.50400001928E-02 0.  1.
    10030    2    1    2    0    0  0.00000000000E+00  0.00000000000E+00 -0.95968463492E+03  0.25841634740E+04  0.23993553846E+04 0.  0.
        3    1    3    3  502    0  0.10747737702E+04  0.53299840998E+03 -0.47901292187E+03  0.12917737231E+04  0.10100000352E+00 0. -1.
       -3    1    3    3    0  502 -0.10747737702E+04 -0.53299840998E+03 -0.48067171305E+03  0.12923897509E+04  0.10100000352E+00 0.  1.
</event>
<event>
 5   0  0.5843670E-05  0.1761052E+04  0.7818609E-02  0.8727290E-01
       -1   -1    0    0    0  501  0.00000000000E+00  0.00000000000E+00  0.51265820809E+03  0.51265820812E+03  0.50400001928E-02 0. -1.
        1   -1    0    0  501    0  0.00000000000E+00  0.00000000000E+00 -0.15123652675E+04  0.15123652675E+04  0.50400001928E-02 0.  1.
    10030    2    1    2    0    0  0.00000000000E+00  0.00000000000E+00 -0.99970705942E+03  0.20250234756E+04  0.17610524899E+04 0.  0.
        2    1    3    3  502    0  0.22776733954E+03 -0.76421884233E+03 -0.70497771421E+02  0.80054877160E+03  0.25500000920E-02 0. -1.
       -2    1    3    3    0  502 -0.22776733954E+03  0.76421884233E+03 -0.92920928800E+03  0.12244747040E+04  0.25500000920E-02 0.  1.
</event>
<event>
 5   0  0.1270613E-04  0.2295360E+04  0.7818609E-02  0.8479753E-01
       -2   -1    0    0    0  501  0.00000000000E+00  0.00000000000E+00  0.11520158021E+04  0.11520158021E+04  0.25500000920E-02 0. -1.
        2   -1    0    0  501    0  0.00000000000E+00  0.00000000000E+00 -0.11433606347E+04  0.11433606347E+04  0.25500000920E-02 0.  1.
    10030    2    1    2    0    0  0.00000000000E+00  0.00000000000E+00  0.86551674379E+01  0.22953764368E+04  0.22953601187E+04 0.  0.
        2    1    3    3  502    0 -0.79253105655E+03  0.73172342002E+03 -0.38765081394E+03  0.11462101869E+04  0.25500000920E-02 0.  1.
       -2    1    3    3    0  502  0.79253105655E+03 -0.73172342002E+03  0.39630598138E+03  0.11491662499E+04  0.25500000920E-02 0. -1.
</event>
<event>
 5   0  0.1270613E-04  0.1242014E+04  0.7818609E-02  0.9076856E-01
        2   -1    0    0  501    0  0.00000000000E+00  0.00000000000E+00  0.14204477836E+04  0.14204477836E+04  0.25500000920E-02 0.  1.
       -2   -1    0    0    0  501  0.00000000000E+00  0.00000000000E+00 -0.27149867106E+03  0.27149867107E+03  0.25500000920E-02 0. -1.
    10030    2    1    2    0    0  0.00000000000E+00  0.00000000000E+00  0.11489491125E+04  0.16919464547E+04  0.12420139863E+04 0.  0.
        2    1    3    3  502    0  0.55252746842E+03 -0.28281978703E+03  0.54805758170E+03  0.82803426750E+03  0.25500000920E-02 0. -1.
       -2    1    3    3    0  502 -0.55252746842E+03  0.28281978703E+03  0.60089153083E+03  0.86391218716E+03  0.25500000920E-02 0.  1.
</event>
<event>
 5   0  0.1257524E-04  0.1893482E+04  0.7818609E-02  0.8658108E-01
        2   -1    0    0  501    0  0.00000000000E+00  0.00000000000E+00  0.18877556768E+04  0.18877556768E+04  0.25500000920E-02 0.  1.
       -2   -1    0    0    0  501  0.00000000000E+00  0.00000000000E+00 -0.47480637198E+03  0.47480637198E+03  0.25500000920E-02 0. -1.
    10030    2    1    2    0    0  0.00000000000E+00  0.00000000000E+00  0.14129493048E+04  0.23625620487E+04  0.18934818975E+04 0.  0.
        3    1    3    3  502    0  0.46886995570E+02 -0.42522749209E+03 -0.34732649247E+03  0.55104674299E+03  0.10100000352E+00 0. -1.
       -3    1    3    3    0  502 -0.46886995570E+02  0.42522749209E+03  0.17602757972E+04  0.18115153057E+04  0.10100000352E+00 0.  1.
</event>
<event>
 5   0  0.5642466E-05  0.2230742E+04  0.7818609E-02  0.8505741E-01
       -1   -1    0    0    0  501  0.00000000000E+00  0.00000000000E+00  0.71802869192E+03  0.71802869193E+03  0.50400001928E-02 0.  1.
        1   -1    0    0  501    0  0.00000000000E+00  0.00000000000E+00 -0.17325937742E+04  0.17325937742E+04  0.50400001928E-02 0. -1.
    10030    2    1    2    0    0  0.00000000000E+00  0.00000000000E+00 -0.10145650822E+04  0.24506224661E+04  0.22307416178E+04 0.  0.
        1    1    3    3  502    0  0.10155690481E+04  0.43804979917E+03 -0.34890598126E+03  0.11597428602E+04  0.50400001928E-02 0. -1.
       -1    1    3    3    0  502 -0.10155690481E+04 -0.43804979917E+03 -0.66565910098E+03  0.12908796059E+04  0.50400001928E-02 0.  1.
</event>
<event>
 5   0  0.5843670E-05  0.1659993E+04  0.7818609E-02  0.8784517E-01
        1   -1    0    0  501    0  0.00000000000E+00  0.00000000000E+00  0.83597966574E+03  0.83597966576E+03  0.50400001928E-02 0. -1.
       -1   -1    0    0    0  501  0.00000000000E+00  0.00000000000E+00 -0.82405584873E+03  0.82405584874E+03  0.50400001928E-02 0.  1.
    10030    2    1    2    0    0  0.00000000000E+00  0.00000000000E+00  0.11923817017E+02  0.16600355145E+04  0.16599926903E+04 0.  0.
        2    1    3    3  502    0 -0.30235286406E+03 -0.33118608842E+03 -0.69247751026E+03  0.82500095866E+03  0.25500000920E-02 0.  1.
       -2    1    3    3    0  502  0.30235286406E+03  0.33118608842E+03  0.70440132728E+03  0.83503455584E+03  0.25500000920E-02 0. -1.
</event>
<event>
 5   0  0.5843670E-05  0.2196661E+04  0.7818609E-02  0.8519819E-01
        1   -1    0    0  501    0  0.00000000000E+00  0.00000000000E+00  0.11492877710E+04  0.11492877711E+04  0.50400001928E-02 0.  1.
       -1   -1    0    0    0  501  0.00000000000E+00  0.00000000000E+00 -0.10496328658E+04  0.10496328659E+04  0.50400001928E-02 0. -1.
    10030    2    1    2    0    0  0.00000000000E+00  0.00000000000E+00  0.99654905200E+02  0.21989206369E+04  0.21966613001E+04 0.  0.
        2    1    3    3  502    0  0.96894237482E+03  0.33425567420E+03 -0.34523532242E+03  0.10815561055E+04  0.25500000920E-02 0. -1.
       -2    1    3    3    0  502 -0.96894237482E+03 -0.33425567420E+03  0.44489022762E+03  0.11173645314E+04  0.25500000920E-02 0.  1.
</event>
<event>
 5   0  0.1257524E-04  0.2288509E+04  0.7818609E-02  0.8482466E-01
       -2   -1    0    0    0  501  0.00000000000E+00  0.00000000000E+00  0.79469293456E+03  0.79469293457E+03  0.25500000920E-02 0. -1.
        2   -1    0    0  501    0  0.00000000000E+00  0.00000000000E+00 -0.16475776671E+04  0.16475776671E+04  0.25500000920E-02 0.  1.
    10030    2    1    2    0    0  0.00000000000E+00  0.00000000000E+00 -0.85288473251E+03  0.24422706016E+04  0.22885089741E+04 0.  0.
        3    1    3    3  502    0 -0.29769052527E+03 -0.10131838737E+04 -0.89668046369E+03  0.13853508852E+04  0.10100000352E+00 0. -1.
       -3    1    3    3    0  502  0.29769052527E+03  0.10131838737E+04  0.43795731184E+02  0.10569197165E+04  0.10100000352E+00 0.  1.
</event>
<event>
 5   0  0.1270613E-04  0.2340849E+04  0.7818609E-02  0.8461987E-01
       -2   -1    0    0    0  501  0.00000000000E+00  0.00000000000E+00  0.10209577959E+04  0.10209577959E+04  0.25500000920E-02 0.  1.
        2   -1    0    0  501    0  0.00000000000E+00  0.00000000000E+00 -0.13417729077E+04  0.13417729077E+04  0.25500000920E-02 0. -1.
    10030    2    1    2    0    0  0.00000000000E+00  0.00000000000E+00 -0.32081511184E+03  0.23627307036E+04  0.23408490002E+04 0.  0.
        2    1    3    3  502    0 -0.11048899625E+04  0.19820898154E+03  0.17408864953E+03  0.11359469563E+04  0.25500000920E-02 0.  1.
       -2    1    3    3    0  502  0.11048899625E+04 -0.19820898154E+03 -0.49490376137E+03  0.12267837473E+04  0.25500000920E-02 0. -1.
</event>
<event>
 5   0  0.1270613E-04  0.2292402E+04  0.7818609E-02  0.8480923E-01
       -2   -1    0    0    0  501  0.00000000000E+00  0.00000000000E+00  0.89437111706E+03  0.89437111706E+03  0.25500000920E-02 0.  1.
        2   -1    0    0  501    0  0.00000000000E+00  0.00000000000E+00 -0.14689387836E+04  0.14689387836E+04  0.25500000920E-02 0. -1.
    10030    2    1    2    0    0  0.00000000000E+00  0.00000000000E+00 -0.57456766654E+03  0.23633099007E+04  0.22924017281E+04 0.  0.
        2    1    3    3  502    0 -0.10492342134E+04  0.35187072521E+03 -0.59496297805E+03  0.12564578732E+04  0.25500000920E-02 0. -1.
       -2    1    3    3    0  502  0.10492342134E+04 -0.35187072521E+03  0.20395311505E+02  0.11068520274E+04  0.25500000920E-02 0.  1.
</event>
<event>
 5   0  0.5632156E-05  0.2270530E+04  0.7818609E-02  0.8489632E-01
       -1   -1    0    0    0  501  0.00000000000E+00  0.00000000000E+00  0.49448643874E+03  0.49448643876E+03  0.50400001928E-02 0.  1.
        1   -1    0    0  501    0  0.00000000000E+00  0.00000000000E+00 -0.26063931995E+04  0.26063931995E+04  0.50400001928E-02 0. -1.
    10030    2    1    2    0    0  0.00000000000E+00  0.00000000000E+00 -0.21119067608E+04  0.31008796383E+04  0.22705295340E+04 0.  0.
        4    1    3    3  502    0 -0.47844032312E+03 -0.77700368598E+03 -0.13353474664E+03  0.92221093697E+03  0.12699999809E+01 0.  1.
       -4    1    3    3    0  502  0.47844032312E+03  0.77700368598E+03 -0.19783720141E+04  0.21786687013E+04  0.12699999809E+01 0. -1.
</event>
<event>
 5   0  0.5924654E-05  0.2260216E+04  0.7818609E-02  0.8493775E-01
       -1   -1    0    0    0  501  0.00000000000E+00  0.00000000000E+00  0.53101836291E+03  0.53101836294E+03  0.50400001928E-02 0.  1.
        1   -1    0    0  501    0  0.00000000000E+00  0.00000000000E+00 -0.24050839232E+04  0.24050839232E+04  0.50400001928E-02 0. -1.
    10030    2    1    2    0    0  0.00000000000E+00  0.00000000000E+00 -0.18740655603E+04  0.29361022862E+04  0.22602156779E+04 0.  0.
        5    1    3    3  502    0  0.82559710463E+03  0.56722097848E+03 -0.16167297792E+04  0.19018905033E+04  0.46999998093E+01 0. -1.
       -5    1    3    3    0  502 -0.82559710463E+03 -0.56722097848E+03 -0.25733578114E+03  0.10342117829E+04  0.46999998093E+01 0.  1.
</event>
<event>
 5   0  0.1237296E-04  0.2319015E+04  0.7818609E-02  0.8470461E-01
       -2   -1    0    0    0  501  0.00000000000E+00  0.00000000000E+00  0.10914796444E+04  0.10914796444E+04  0.25500000920E-02 0.  1.
        2   -1    0    0  501    0  0.00000000000E+00  0.00000000000E+00 -0.12317748243E+04  0.12317748243E+04  0.25500000920E-02 0. -1.
    10030    2    1    2    0    0  0.00000000000E+00  0.00000000000E+00 -0.14029517988E+03  0.23232544687E+04  0.23190145728E+04 0.  0.
        1    1    3    3  502    0  0.73661616141E+03  0.28423635329E+03  0.78055949847E+03  0.11102552880E+04  0.50400001928E-02 0.  1.
       -1    1    3    3    0  502 -0.73661616141E+03 -0.28423635329E+03 -0.92085467835E+03  0.12129991807E+04  0.50400001928E-02 0. -1.
</event>
<event>
 5   0  0.1257524E-04  0.2289147E+04  0.7818609E-02  0.8482213E-01
        2   -1    0    0  501    0  0.00000000000E+00  0.00000000000E+00  0.77669617930E+03  0.77669617931E+03  0.25500000920E-02 0.  1.
       -2   -1    0    0    0  501  0.00000000000E+00  0.00000000000E+00 -0.16866935513E+04  0.16866935513E+04  0.25500000920E-02 0. -1.
    10030    2    1    2    0    0  0.00000000000E+00  0.00000000000E+00 -0.90999737198E+03  0.24633897306E+04  0.22891469476E+04 0.  0.
        3    1    3    3  502    0 -0.37673715033E+03  0.29331165200E+03  0.66441421431E+03  0.81817410373E+03  0.10100000352E+00 0.  1.
       -3    1    3    3    0  502  0.37673715033E+03 -0.29331165200E+03 -0.15744115863E+04  0.16452156269E+04  0.10100000352E+00 0. -1.
</event>
<event>
 5   0  0.4489500E-05  0.2330497E+04  0.7818609E-02  0.8465993E-01
       -4   -1    0    0    0  501  0.00000000000E+00  0.00000000000E+00  0.11504898431E+04  0.11504905440E+04  0.12699999809E+01 0. -1.
        4   -1    0    0  501    0  0.00000000000E+00  0.00000000000E+00 -0.11801946721E+04  0.11801953554E+04  0.12699999809E+01 0.  1.
    10030    2    1    2    0    0  0.00000000000E+00  0.00000000000E+00 -0.29704828996E+02  0.23306858994E+04  0.23304965962E+04 0.  0.
        3    1    3    3  502    0  0.55667146161E+03  0.85330170726E+03 -0.58040402280E+03  0.11725509625E+04  0.10100000352E+00 0.  1.
       -3    1    3    3    0  502 -0.55667146161E+03 -0.85330170726E+03  0.55069919380E+03  0.11581349369E+04  0.10100000352E+00 0. -1.
</event>
<event>
 5   0  0.1257524E-04  0.2116207E+04  0.7818609E-02  0.8554138E-01
        2   -1    0    0  501    0  0.00000000000E+00  0.00000000000E+00  0.13190860596E+04  0.13190860596E+04  0.25500000920E-02 0. -1.
       -2   -1    0    0    0  501  0.00000000000E+00  0.00000000000E+00 -0.84875633693E+03  0.84875633693E+03  0.25500000920E-02 0.  1.
    10030    2    1    2    0    0  0.00000000000E+00  0.00000000000E+00  0.47032972266E+03  0.21678423965E+04  0.21162066553E+04 0.  0.
        3    1    3    3  502    0 -0.20858344598E+03 -0.72189601794E+03 -0.52795599024E+03  0.91835638642E+03  0.10100000352E+00 0.  1.
       -3    1    3    3    0  502  0.20858344598E+03  0.72189601794E+03  0.99828571290E+03  0.12494860101E+04  0.10100000352E+00 0. -1.
</event>
<event>
 5   0  0.1270613E-04  0.1837296E+04  0.7818609E-02  0.8686713E-01
        2   -1    0    0  501    0  0.00000000000E+00  0.00000000000E+00  0.26693830503E+04  0.26693830503E+04  0.25500000920E-02 0. -1.
       -2   -1    0    0    0  501  0.00000000000E+00  0.00000000000E+00 -0.31614587349E+03  0.31614587350E+03  0.25500000920E-02 0.  1.
    10030    2    1    2    0    0  0.00000000000E+00  0.00000000000E+00  0.23532371768E+04  0.29855289238E+04  0.18372963138E+04 0.  0.
        2    1    3    3  502    0  0.52081975454E+03  0.22111118623E+03  0.60367355397E+00  0.56581245817E+03  0.25500000920E-02 0.  1.
       -2    1    3    3    0  502 -0.52081975454E+03 -0.22111118623E+03  0.23526335033E+04  0.24197164657E+04  0.25500000920E-02 0. -1.
</event>
<event>
 5   0  0.1257524E-04  0.2361754E+04  0.7818609E-02  0.8453963E-01
        2   -1    0    0  501    0  0.00000000000E+00  0.00000000000E+00  0.76323597429E+03  0.76323597429E+03  0.25500000920E-02 0.  1.
       -2   -1    0    0    0  501  0.00000000000E+00  0.00000000000E+00 -0.18270498504E+04  0.18270498504E+04  0.25500000920E-02 0. -1.
    10030    2    1    2    0    0  0.00000000000E+00  0.00000000000E+00 -0.10638138761E+04  0.25902858247E+04  0.23617537320E+04 0.  0.
        3    1    3    3  502    0  0.64198253834E+03 -0.41531604667E+03 -0.15188975066E+04  0.17004936472E+04  0.10100000352E+00 0. -1.
       -3    1    3    3    0  502 -0.64198253834E+03  0.41531604667E+03  0.45508363055E+03  0.88979217751E+03  0.10100000352E+00 0.  1.
</event>
<event>
 5   0  0.5663790E-05  0.2290724E+04  0.7818609E-02  0.8481588E-01
        1   -1    0    0  501    0  0.00000000000E+00  0.00000000000E+00  0.11962223373E+04  0.11962223374E+04  0.50400001928E-02 0. -1.
       -1   -1    0    0    0  501  0.00000000000E+00  0.00000000000E+00 -0.10966638859E+04  0.10966638859E+04  0.50400001928E-02 0.  1.
    10030    2    1    2    0    0  0.00000000000E+00  0.00000000000E+00  0.99558451453E+02  0.22928862233E+04  0.22907237606E+04 0.  0.
        3    1    3    3  502    0  0.92168341667E+03 -0.52403554221E+03  0.48347829273E+03  0.11652745770E+04  0.10100000352E+00 0. -1.
       -3    1    3    3    0  502 -0.92168341667E+03  0.52403554221E+03 -0.38391984127E+03  0.11276116463E+04  0.10100000352E+00 0.  1.
</event>
<event>
 5   0  0.5924654E-05  0.2261042E+04  0.7818609E-02  0.8493442E-01
       -1   -1    0    0    0  501  0.00000000000E+00  0.00000000000E+00  0.10039961502E+04  0.10039961502E+04  0.50400001928E-02 0. -1.
        1   -1    0    0  501    0  0.00000000000E+00  0.00000000000E+00 -0.12729910369E+04  0.12729910369E+04  0.50400001928E-02 0.  1.
    10030    2    1    2    0    0  0.00000000000E+00  0.00000000000E+00 -0.26899488674E+03  0.22769871871E+04  0.22610423262E+04 0.  0.
        5    1    3    3  502    0 -0.19707960518E+03 -0.10905965675E+04 -0.35926361274E+03  0.11650466416E+04  0.46999998093E+01 0.  1.
       -5    1    3    3    0  502  0.19707960518E+03  0.10905965675E+04  0.90268726002E+02  0.11119405454E+04  0.46999998093E+01 0. -1.
</event>
<event>
 5   0  0.1237296E-04  0.2315258E+04  0.7818609E-02  0.8471929E-01
       -2   -1    0    0    0  501  0.00000000000E+00  0.00000000000E+00  0.87321299785E+03  0.87321299785E+03  0.25500000920E-02 0.  1.
        2   -1    0    0  501    0  0.00000000000E+00  0.00000000000E+00 -0.15346828347E+04  0.15346828347E+04  0.25500000920E-02 0. -1.
    10030    2    1    2    0    0  0.00000000000E+00  0.00000000000E+00 -0.66146983690E+03  0.24078958326E+04  0.23152580840E+04 0.  0.
        1    1    3    3  502    0  0.14669538873E+03 -0.62599823081E+03  0.67044148087E+03  0.92891608951E+03  0.50400001928E-02 0.  1.
       -1    1    3    3    0  502 -0.14669538873E+03  0.62599823081E+03 -0.13319113178E+04  0.14789797431E+04  0.50400001928E-02 0. -1.
</event>
<event>
 5   0  0.5843670E-05  0.2325329E+04  0.7818609E-02  0.8468001E-01
       -1   -1    0    0    0  501  0.00000000000E+00  0.00000000000E+00  0.14858181725E+04  0.14858181725E+04  0.50400001928E-02 0. -1.
        1   -1    0    0  501    0  0.00000000000E+00  0.00000000000E+00 -0.90979411828E+03  0.90979411830E+03  0.50400001928E-02 0.  1.
    10030    2    1    2    0    0  0.00000000000E+00  0.00000000000E+00  0.57602405419E+03  0.23956122908E+04  0.23253289094E+04 0.  0.
        2    1    3    3  502    0 -0.33037947624E+03 -0.49020354556E+03  0.13194410601E+04  0.14458128598E+04  0.25500000920E-02 0. -1.
       -2    1    3    3    0  502  0.33037947624E+03  0.49020354556E+03 -0.74341700592E+03  0.94979943099E+03  0.25500000920E-02 0.  1.
</event>
<event>
 5   0  0.1270613E-04  0.2342303E+04  0.7818609E-02  0.8461426E-01
        2   -1    0    0  501    0  0.00000000000E+00  0.00000000000E+00  0.11398790567E+04  0.11398790567E+04  0.25500000920E-02 0. -1.
       -2   -1    0    0    0  501  0.00000000000E+00  0.00000000000E+00 -0.12032820375E+04  0.12032820375E+04  0.25500000920E-02 0.  1.
    10030    2    1    2    0    0  0.00000000000E+00  0.00000000000E+00 -0.63402980778E+02  0.23431610942E+04  0.23423031348E+04 0.  0.
        2    1    3    3  502    0 -0.58732187423E+03 -0.39099118677E+03  0.90340017623E+03  0.11462778766E+04  0.25500000920E-02 0. -1.
       -2    1    3    3    0  502  0.58732187423E+03  0.39099118677E+03 -0.96680315701E+03  0.11968832176E+04  0.25500000920E-02 0.  1.
</event>
<event>
 5   0  0.5642466E-05  0.2273574E+04  0.7818609E-02  0.8488414E-01
        1   -1    0    0  501    0  0.00000000000E+00  0.00000000000E+00  0.17292888591E+04  0.17292888591E+04  0.50400001928E-02 0.  1.
       -1   -1    0    0    0  501  0.00000000000E+00  0.00000000000E+00 -0.74729273677E+03  0.74729273678E+03  0.50400001928E-02 0. -1.
    10030    2    1    2    0    0  0.00000000000E+00  0.00000000000E+00  0.98199612236E+03  0.24765815959E+04  0.22735742823E+04 0.  0.
        1    1    3    3  502    0  0.10558252507E+04  0.16421053474E+03  0.91365511358E+03  0.14058796984E+04  0.50400001928E-02 0.  1.
       -1    1    3    3    0  502 -0.10558252507E+04 -0.16421053474E+03  0.68341008784E+02  0.10707018975E+04  0.50400001928E-02 0. -1.
</event>
<event>
 5   0  0.1281432E-04  0.2325576E+04  0.7818609E-02  0.8467905E-01
       -2   -1    0    0    0  501  0.00000000000E+00  0.00000000000E+00  0.12713082831E+04  0.12713082831E+04  0.25500000920E-02 0. -1.
        2   -1    0    0  501    0  0.00000000000E+00  0.00000000000E+00 -0.10635308839E+04  0.10635308839E+04  0.25500000920E-02 0.  1.
    10030    2    1    2    0    0  0.00000000000E+00  0.00000000000E+00  0.20777739918E+03  0.23348391670E+04  0.23255757326E+04 0.  0.
        4    1    3    3  502    0  0.81244799241E+03 -0.43612282975E+03 -0.60731079945E+03  0.11041299213E+04  0.12699999809E+01 0.  1.
       -4    1    3    3    0  502 -0.81244799241E+03  0.43612282975E+03  0.81508819863E+03  0.12307092457E+04  0.12699999809E+01 0. -1.
</event>
<event>
 5   0  0.5632156E-05  0.1526258E+04  0.7818609E-02  0.8867177E-01
        1   -1    0    0  501    0  0.00000000000E+00  0.00000000000E+00  0.11234993579E+04  0.11234993580E+04  0.50400001928E-02 0.  1.
       -1   -1    0    0    0  501  0.00000000000E+00  0.00000000000E+00 -0.51834964589E+03  0.51834964592E+03  0.50400001928E-02 0. -1.
    10030    2    1    2    0    0  0.00000000000E+00  0.00000000000E+00  0.60514971205E+03  0.16418490039E+04  0.15262575069E+04 0.  0.
        4    1    3    3  502    0  0.47763603497E+03  0.28106421820E+03  0.86693165697E+03  0.10289341026E+04  0.12699999809E+01 0.  1.
       -4    1    3    3    0  502 -0.47763603497E+03 -0.28106421820E+03 -0.26178194493E+03  0.61291490130E+03  0.12699999809E+01 0. -1.
</event>
<event>
 5   0  0.1234988E-04  0.2286880E+04  0.7818609E-02  0.8483112E-01
       -2   -1    0    0    0  501  0.00000000000E+00  0.00000000000E+00  0.54114164183E+03  0.54114164184E+03  0.25500000920E-02 0. -1.
        2   -1    0    0  501    0  0.00000000000E+00  0.00000000000E+00 -0.24161053956E+04  0.24161053956E+04  0.25500000920E-02 0.  1.
    10030    2    1    2    0    0  0.00000000000E+00  0.00000000000E+00 -0.18749637537E+04  0.29572470374E+04  0.22868801810E+04 0.  0.
        5    1    3    3  502    0 -0.37130204236E+02  0.38459686320E+03  0.45415099537E+03  0.59629574529E+03  0.46999998093E+01 0. -1.
       -5    1    3    3    0  502  0.37130204236E+02 -0.38459686320E+03 -0.23291147491E+04  0.23609512921E+04  0.46999998093E+01 0.  1.
</event>
<event>
 5   0  0.5843670E-05  0.2252780E+04  0.7818609E-02  0.8496775E-01
       -1   -1    0    0    0  501  0.00000000000E+00  0.00000000000E+00  0.11866789471E+04  0.11866789471E+04  0.50400001928E-02 0. -1.
        1   -1    0    0  501    0  0.00000000000E+00  0.00000000000E+00 -0.10691640630E+04  0.10691640630E+04  0.50400001928E-02 0.  1.
    10030    2    1    2    0    0  0.00000000000E+00  0.00000000000E+00  0.11751488405E+03  0.22558430101E+04  0.22527800466E+04 0.  0.
        2    1    3    3  502    0  0.43238447160E+03 -0.10346570986E+04 -0.47607700423E+02  0.11223805666E+04  0.25500000920E-02 0. -1.
       -2    1    3    3    0  502 -0.43238447160E+03  0.10346570986E+04  0.16512258447E+03  0.11334624436E+04  0.25500000920E-02 0.  1.
</event>
<event>
 5   0  0.5663790E-05  0.2313377E+04  0.7818609E-02  0.8472665E-01
       -1   -1    0    0    0  501  0.00000000000E+00  0.00000000000E+00  0.70983256062E+03  0.70983256063E+03  0.50400001928E-02 0. -1.
        1   -1    0    0  501    0  0.00000000000E+00  0.00000000000E+00 -0.18848512227E+04  0.18848512227E+04  0.50400001928E-02 0.  1.
    10030    2    1    2    0    0  0.00000000000E+00  0.00000000000E+00 -0.11750186621E+04  0.25946837834E+04  0.23133774183E+04 0.  0.
        3    1    3    3  502    0  0.41261030070E+03  0.10601610392E+04 -0.82208214862E+03  0.14035696486E+04  0.10100000352E+00 0.  1.
       -3    1    3    3    0  502 -0.41261030070E+03 -0.10601610392E+04 -0.35293651349E+03  0.11911141347E+04  0.10100000352E+00 0. -1.
</event>
<event>
 5   0  0.1237296E-04  0.2368287E+04  0.7818609E-02  0.8451473E-01
       -2   -1    0    0    0  501  0.00000000000E+00  0.00000000000E+00  0.11158431528E+04  0.11158431528E+04  0.25500000920E-02 0. -1.
        2   -1    0    0  501    0  0.00000000000E+00  0.00000000000E+00 -0.12566244178E+04  0.12566244178E+04  0.25500000920E-02 0.  1.
    10030    2    1    2    0    0  0.00000000000E+00  0.00000000000E+00 -0.14078126500E+03  0.23724675705E+04  0.23682869354E+04 0.  0.
        1    1    3    3  502    0 -0.59249572922E+02 -0.11577582384E+04 -0.31223158348E+03  0.12005845294E+04  0.50400001928E-02 0. -1.
       -1    1    3    3    0  502  0.59249572922E+02  0.11577582384E+04  0.17145031848E+03  0.11718830412E+04  0.50400001928E-02 0.  1.
</event>
<event>
 5   0  0.5663790E-05  0.2303955E+04  0.7818609E-02  0.8476363E-01
       -1   -1    0    0    0  501  0.00000000000E+00  0.00000000000E+00  0.43350298888E+03  0.43350298891E+03  0.50400001928E-02 0.  1.
        1   -1    0    0  501    0  0.00000000000E+00  0.00000000000E+00 -0.30612286243E+04  0.30612286243E+04  0.50400001928E-02 0. -1.
    10030    2    1    2    0    0  0.00000000000E+00  0.00000000000E+00 -0.26277256354E+04  0.34947316132E+04  0.23039546509E+04 0.  0.
        3    1    3    3  502    0 -0.53478333423E+03  0.97127205770E+03 -0.17879552343E+04  0.21038409053E+04  0.10100000352E+00 0. -1.
       -3    1    3    3    0  502  0.53478333423E+03 -0.97127205770E+03 -0.83977040113E+03  0.13908907079E+04  0.10100000352E+00 0.  1.
</event>
<event>
 5   0  0.1237296E-04  0.2321115E+04  0.7818609E-02  0.8469642E-01
        2   -1    0    0  501    0  0.00000000000E+00  0.00000000000E+00  0.12735600613E+04  0.12735600613E+04  0.25500000920E-02 0.  1.
       -2   -1    0    0    0  501  0.00000000000E+00  0.00000000000E+00 -0.10575813230E+04  0.10575813231E+04  0.25500000920E-02 0. -1.
    10030    2    1    2    0    0  0.00000000000E+00  0.00000000000E+00  0.21597873829E+03  0.23311413844E+04  0.23211146759E+04 0.  0.
        1    1    3    3  502    0  0.52449128122E+03 -0.12244905365E+03  0.11404420528E+04  0.12612267641E+04  0.50400001928E-02 0.  1.
       -1    1    3    3    0  502 -0.52449128122E+03  0.12244905365E+03 -0.92446331448E+03  0.10699146203E+04  0.50400001928E-02 0. -1.
</event>
<event>
 5   0  0.5663790E-05  0.2289209E+04  0.7818609E-02  0.8482188E-01
        1   -1    0    0  501    0  0.00000000000E+00  0.00000000000E+00  0.12336327724E+04  0.12336327724E+04  0.50400001928E-02 0. -1.
       -1   -1    0    0    0  501  0.00000000000E+00  0.00000000000E+00 -0.10620012463E+04  0.10620012463E+04  0.50400001928E-02 0.  1.
    10030    2    1    2    0    0  0.00000000000E+00  0.00000000000E+00  0.17163152609E+03  0.22956340187E+04  0.22892090702E+04 0.  0.
        3    1    3    3  502    0  0.98392965499E+03  0.11321815688E+03  0.66117130237E+03  0.11908330774E+04  0.10100000352E+00 0. -1.
       -3    1    3    3    0  502 -0.98392965499E+03 -0.11321815688E+03 -0.48953977628E+03  0.11048009412E+04  0.10100000352E+00 0.  1.
</event>
<event>
 5   0  0.5924654E-05  0.2303454E+04  0.7818609E-02  0.8476560E-01
        1   -1    0    0  501    0  0.00000000000E+00  0.00000000000E+00  0.17448005402E+04  0.17448005402E+04  0.50400001928E-02 0.  1.
       -1   -1    0    0    0  501  0.00000000000E+00  0.00000000000E+00 -0.76024469908E+03  0.76024469909E+03  0.50400001928E-02 0. -1.
    10030    2    1    2    0    0  0.00000000000E+00  0.00000000000E+00  0.98455584112E+03  0.25050452393E+04  0.23034542424E+04 0.  0.
        5    1    3    3  502    0  0.12037655761E+03  0.47427406382E+03 -0.64157343399E+03  0.80688596744E+03  0.46999998093E+01 0. -1.
       -5    1    3    3    0  502 -0.12037655761E+03 -0.47427406382E+03  0.16261292751E+04  0.16981592719E+04  0.46999998093E+01 0.  1.
</event>
<event>
 5   0  0.1281432E-04  0.2266042E+04  0.7818609E-02  0.8491432E-01
        2   -1    0    0  501    0  0.00000000000E+00  0.00000000000E+00  0.96795825304E+03  0.96795825304E+03  0.25500000920E-02 0.  1.
       -2   -1    0    0    0  501  0.00000000000E+00  0.00000000000E+00 -0.13262311798E+04  0.13262311798E+04  0.25500000920E-02 0. -1.
    10030    2    1    2    0    0  0.00000000000E+00  0.00000000000E+00 -0.35827292675E+03  0.22941894328E+04  0.22660418495E+04 0.  0.
        4    1    3    3  502    0 -0.68953058733E+03  0.14378362360E+03 -0.10776333678E+04  0.12874088121E+04  0.12699999809E+01 0. -1.
       -4    1    3    3    0  502  0.68953058733E+03 -0.14378362360E+03  0.71936044101E+03  0.10067806207E+04  0.12699999809E+01 0.  1.
</event>
<event>
 5   0  0.1270613E-04  0.2313794E+04  0.7818609E-02  0.8472502E-01
       -2   -1    0    0    0  501  0.00000000000E+00  0.00000000000E+00  0.48021453083E+03  0.48021453084E+03  0.25500000920E-02 0. -1.
        2   -1    0    0  501    0  0.00000000000E+00  0.00000000000E+00 -0.27871106937E+04  0.27871106937E+04  0.25500000920E-02 0.  1.
    10030    2    1    2    0    0  0.00000000000E+00  0.00000000000E+00 -0.23068961629E+04  0.32673252246E+04  0.23137943333E+04 0.  0.
        2    1    3    3  502    0 -0.76617322728E+03 -0.35490550036E+02  0.69578503569E+02  0.77014424721E+03  0.25500000920E-02 0. -1.
       -2    1    3    3    0  502  0.76617322728E+03  0.35490550036E+02 -0.23764746665E+04  0.24971809774E+04  0.25500000920E-02 0.  1.
</event>
<event>
 5   0  0.5632156E-05  0.2149042E+04  0.7818609E-02  0.8539942E-01
       -1   -1    0    0    0  501  0.00000000000E+00  0.00000000000E+00  0.94211279625E+03  0.94211279627E+03  0.50400001928E-02 0. -1.
        1   -1    0    0  501    0  0.00000000000E+00  0.00000000000E+00 -0.12255384474E+04  0.12255384474E+04  0.50400001928E-02 0.  1.
    10030    2    1    2    0    0  0.00000000000E+00  0.00000000000E+00 -0.28342565114E+03  0.21676512437E+04  0.21490420690E+04 0.  0.
        4    1    3    3  502    0 -0.47193956399E+03 -0.80789193994E+03  0.39123500733E+03  0.10141414016E+04  0.12699999809E+01 0. -1.
       -4    1    3    3    0  502  0.47193956399E+03  0.80789193994E+03 -0.67466065847E+03  0.11535098420E+04  0.12699999809E+01 0.  1.
</event>
<event>
 5   0  0.1234988E-04  0.1842816E+04  0.7818609E-02  0.8683856E-01
        2   -1    0    0  501    0  0.00000000000E+00  0.00000000000E+00  0.82266620887E+03  0.82266620888E+03  0.25500000920E-02 0.  1.
       -2   -1    0    0    0  501  0.00000000000E+00  0.00000000000E+00 -0.10320013046E+04  0.10320013046E+04  0.25500000920E-02 0. -1.
    10030    2    1    2    0    0  0.00000000000E+00  0.00000000000E+00 -0.20933509574E+03  0.18546675135E+04  0.18428158897E+04 0.  0.
        5    1    3    3  502    0  0.32866682499E+03 -0.62471527479E+03 -0.70065796620E+03  0.99460280113E+03  0.46999998093E+01 0. -1.
       -5    1    3    3    0  502 -0.32866682499E+03  0.62471527479E+03  0.49132287046E+03  0.86006471236E+03  0.46999998093E+01 0.  1.
</event>
<event>
 5   0  0.5642466E-05  0.2342694E+04  0.7818609E-02  0.8461275E-01
       -1   -1    0    0    0  501  0.00000000000E+00  0.00000000000E+00  0.77533979575E+03  0.77533979576E+03  0.50400001928E-02 0. -1.
        1   -1    0    0  501    0  0.00000000000E+00  0.00000000000E+00 -0.17696168579E+04  0.17696168579E+04  0.50400001928E-02 0.  1.
    10030    2    1    2    0    0  0.00000000000E+00  0.00000000000E+00 -0.99427706219E+03  0.25449566537E+04  0.23426944941E+04 0.  0.
        1    1    3    3  502    0  0.44969542019E+03 -0.54392678802E+03  0.51843998532E+03  0.87570676603E+03  0.50400001928E-02 0. -1.
       -1    1    3    3    0  502 -0.44969542019E+03  0.54392678802E+03 -0.15127170475E+04  0.16692498877E+04  0.50400001928E-02 0.  1.
</event>
<event>
 5   0  0.1281432E-04  0.2246344E+04  0.7818609E-02  0.8499382E-01
        2   -1    0    0  501    0  0.00000000000E+00  0.00000000000E+00  0.11358218109E+04  0.11358218109E+04  0.25500000920E-02 0.  1.
       -2   -1    0    0    0  501  0.00000000000E+00  0.00000000000E+00 -0.11106633528E+04  0.11106633528E+04  0.25500000920E-02 0. -1.
    10030    2    1    2    0    0  0.00000000000E+00  0.00000000000E+00  0.25158458073E+02  0.22464851636E+04  0.22463442840E+04 0.  0.
        4    1    3    3  502    0 -0.11434239595E+03  0.35657797949E+03  0.10715564039E+04  0.11351021005E+04  0.12699999809E+01 0.  1.
       -4    1    3    3    0  502  0.11434239595E+03 -0.35657797949E+03 -0.10463979458E+04  0.11113830631E+04  0.12699999809E+01 0. -1.
</event>
<event>
 5   0  0.5843670E-05  0.2060217E+04  0.7818609E-02  0.8578973E-01
       -1   -1    0    0    0  501  0.00000000000E+00  0.00000000000E+00  0.96381577337E+03  0.96381577338E+03  0.50400001928E-02 0. -1.
        1   -1    0    0  501    0  0.00000000000E+00  0.00000000000E+00 -0.11009610186E+04  0.11009610186E+04  0.50400001928E-02 0.  1.
    10030    2    1    2    0    0  0.00000000000E+00  0.00000000000E+00 -0.13714524525E+03  0.20647767920E+04  0.20602170717E+04 0.  0.
        2    1    3    3  502    0 -0.24188546687E+03  0.99283637555E+03  0.61680198986E+02  0.10237368288E+04  0.25500000920E-02 0. -1.
       -2    1    3    3    0  502  0.24188546687E+03 -0.99283637555E+03 -0.19882544423E+03  0.10410399632E+04  0.25500000920E-02 0.  1.
</event>
<event>
 5   0  0.5843670E-05  0.2288902E+04  0.7818609E-02  0.8482310E-01
        1   -1    0    0  501    0  0.00000000000E+00  0.00000000000E+00  0.22257161650E+04  0.22257161650E+04  0.50400001928E-02 0. -1.
       -1   -1    0    0    0  501  0.00000000000E+00  0.00000000000E+00 -0.58847019375E+03  0.58847019377E+03  0.50400001928E-02 0.  1.
    10030    2    1    2    0    0  0.00000000000E+00  0.00000000000E+00  0.16372459713E+04  0.28141863588E+04  0.22889015906E+04 0.  0.
        2    1    3    3  502    0 -0.11175833350E+04  0.80923740684E+02  0.11049295865E+04  0.15736615118E+04  0.25500000920E-02 0.  1.
       -2    1    3    3    0  502  0.11175833350E+04 -0.80923740684E+02  0.53231638477E+03  0.12405248470E+04  0.25500000920E-02 0. -1.
</event>
<event>
 5   0  0.1270613E-04  0.2292204E+04  0.7818609E-02  0.8481001E-01
       -2   -1    0    0    0  501  0.00000000000E+00  0.00000000000E+00  0.97982547424E+03  0.97982547424E+03  0.25500000920E-02 0.  1.
        2   -1    0    0  501    0  0.00000000000E+00  0.00000000000E+00 -0.13405951214E+04  0.13405951214E+04  0.25500000920E-02 0. -1.
    10030    2    1    2    0    0  0.00000000000E+00  0.00000000000E+00 -0.36076964718E+03  0.23204205957E+04  0.22922035255E+04 0.  0.
        2    1    3    3  502    0 -0.76627010738E+03  0.45923712058E+03 -0.90719285043E+03  0.12732114821E+04  0.25500000920E-02 0. -1.
       -2    1    3    3    0  502  0.76627010738E+03 -0.45923712058E+03  0.54642320325E+03  0.10472091135E+04  0.25500000920E-02 0.  1.
</event>
<event>
 5   0  0.5924654E-05  0.2337056E+04  0.7818609E-02  0.8463452E-01
       -1   -1    0    0    0  501  0.00000000000E+00  0.00000000000E+00  0.14092970850E+04  0.14092970850E+04  0.50400001928E-02 0. -1.
        1   -1    0    0  501    0  0.00000000000E+00  0.00000000000E+00 -0.96889298173E+03  0.96889298174E+03  0.50400001928E-02 0.  1.
    10030    2    1    2    0    0  0.00000000000E+00  0.00000000000E+00  0.44040410329E+03  0.23781900668E+04  0.23370563150E+04 0.  0.
        5    1    3    3  502    0  0.57627798376E+03  0.39875211353E+03  0.11717192960E+04  0.13653013445E+04  0.46999998093E+01 0. -1.
       -5    1    3    3    0  502 -0.57627798376E+03 -0.39875211353E+03 -0.73131519272E+03  0.10128887223E+04  0.46999998093E+01 0.  1.
</event>
<event>
 5   0  0.5632156E-05  0.1382918E+04  0.7818609E-02  0.8966277E-01
        1   -1    0    0  501    0  0.00000000000E+00  0.00000000000E+00  0.99092533779E+03  0.99092533781E+03  0.50400001928E-02 0. -1.
       -1   -1    0    0    0  501  0.00000000000E+00  0.00000000000E+00 -0.48249389666E+03  0.48249389669E+03  0.50400001928E-02 0.  1.
    10030    2    1    2    0    0  0.00000000000E+00  0.00000000000E+00  0.50843144113E+03  0.14734192345E+04  0.13829178248E+04 0.  0.
        4    1    3    3  502    0  0.39898614643E+03 -0.11823018622E+03 -0.33414147586E+03  0.53368573221E+03  0.12699999809E+01 0.  1.
       -4    1    3    3    0  502 -0.39898614643E+03  0.11823018622E+03  0.84257291699E+03  0.93973350229E+03  0.12699999809E+01 0. -1.
</event>
<event>
 5   0  0.5924654E-05  0.2398846E+04  0.7818609E-02  0.8439936E-01
        1   -1    0    0  501    0  0.00000000000E+00  0.00000000000E+00  0.16311343958E+04  0.16311343958E+04  0.50400001928E-02 0. -1.
       -1   -1    0    0    0  501  0.00000000000E+00  0.00000000000E+00 -0.88197276548E+03  0.88197276549E+03  0.50400001928E-02 0.  1.
    10030    2    1    2    0    0  0.00000000000E+00  0.00000000000E+00  0.74916163030E+03  0.25131071613E+04  0.23988464844E+04 0.  0.
        5    1    3    3  502    0 -0.26167718236E+03 -0.23688773340E+03 -0.82631899482E+03  0.89856325164E+03  0.46999998093E+01 0.  1.
       -5    1    3    3    0  502  0.26167718236E+03  0.23688773340E+03  0.15754806251E+04  0.16145439096E+04  0.46999998093E+01 0. -1.
</event>
<event>
 5   0  0.1270613E-04  0.1914973E+04  0.7818609E-02  0.8647439E-01
        2   -1    0    0  501    0  0.00000000000E+00  0.00000000000E+00  0.29280023329E+04  0.29280023329E+04  0.25500000920E-02 0. -1.
       -2   -1    0    0    0  501  0.00000000000E+00  0.00000000000E+00 -0.31310777841E+03  0.31310777842E+03  0.25500000920E-02 0.  1.
    10030    2    1    2    0    0  0.00000000000E+00  0.00000000000E+00  0.26148945545E+04  0.32411101113E+04  0.19149729039E+04 0.  0.
        2    1    3    3  502    0  0.20268321532E+03 -0.43784606215E+03 -0.92321279449E+02  0.49123607212E+03  0.25500000920E-02 0.  1.
       -2    1    3    3    0  502 -0.20268321532E+03  0.43784606215E+03  0.27072158340E+04  0.27498740392E+04  0.25500000920E-02 0. -1.
</event>
<event>
 5   0  0.1270613E-04  0.1389717E+04  0.7818609E-02  0.8961296E-01
        2   -1    0    0  501    0  0.00000000000E+00  0.00000000000E+00  0.11161208469E+04  0.11161208469E+04  0.25500000920E-02 0. -1.
       -2   -1    0    0    0  501  0.00000000000E+00  0.00000000000E+00 -0.43259472780E+03  0.43259472780E+03  0.25500000920E-02 0.  1.
    10030    2    1    2    0    0  0.00000000000E+00  0.00000000000E+00  0.68352611912E+03  0.15487155747E+04  0.13897165092E+04 0.  0.
        2    1    3    3  502    0 -0.41326566902E+03  0.50803103097E+03  0.60059438160E+03  0.88859307494E+03  0.25500000920E-02 0. -1.
       -2    1    3    3    0  502  0.41326566902E+03 -0.50803103097E+03  0.82931737516E+02  0.66012249978E+03  0.25500000920E-02 0.  1.
</event>
<event>
 5   0  0.5642466E-05  0.2214866E+04  0.7818609E-02  0.8512266E-01
       -1   -1    0    0    0  501  0.00000000000E+00  0.00000000000E+00  0.57458310240E+03  0.57458310243E+03  0.50400001928E-02 0.  1.
        1   -1    0    0  501    0  0.00000000000E+00  0.00000000000E+00 -0.21344315500E+04  0.21344315500E+04  0.50400001928E-02 0. -1.
    10030    2    1    2    0    0  0.00000000000E+00  0.00000000000E+00 -0.15598484476E+04  0.27090146525E+04  0.22148664085E+04 0.  0.
        1    1    3    3  502    0  0.24491565513E+03 -0.91319235515E+03 -0.14852057053E+04  0.17606078333E+04  0.50400001928E-02 0. -1.
       -1    1    3    3    0  502 -0.24491565513E+03  0.91319235515E+03 -0.74642742348E+02  0.94840681917E+03  0.50400001928E-02 0.  1.
</event>
<event>
 5   0  0.1257524E-04  0.2589672E+04  0.7818609E-02  0.8371718E-01
       -2   -1    0    0    0  501  0.00000000000E+00  0.00000000000E+00  0.22038042955E+04  0.22038042955E+04  0.25500000920E-02 0. -1.
        2   -1    0    0  501    0  0.00000000000E+00  0.00000000000E+00 -0.76077548379E+03  0.76077548379E+03  0.25500000920E-02 0.  1.
    10030    2    1    2    0    0  0.00000000000E+00  0.00000000000E+00  0.14430288117E+04  0.29645797793E+04  0.25896720094E+04 0.  0.
        3    1    3    3  502    0 -0.97358516160E+03  0.36025186655E+03 -0.16444526283E+03  0.10510431622E+04  0.10100000352E+00 0. -1.
       -3    1    3    3    0  502  0.97358516160E+03 -0.36025186655E+03  0.16074740745E+04  0.19135366170E+04  0.10100000352E+00 0.  1.
</event>
<event>
 5   0  0.1257524E-04  0.2303299E+04  0.7818609E-02  0.8476622E-01
        2   -1    0    0  501    0  0.00000000000E+00  0.00000000000E+00  0.12142347279E+04  0.12142347279E+04  0.25500000920E-02 0.  1.
       -2   -1    0    0    0  501  0.00000000000E+00  0.00000000000E+00 -0.10922900121E+04  0.10922900122E+04  0.25500000920E-02 0. -1.
    10030    2    1    2    0    0  0.00000000000E+00  0.00000000000E+00  0.12194471577E+03  0.23065247401E+04  0.23032989087E+04 0.  0.
        3    1    3    3  502    0  0.22646382676E+03  0.10927815532E+04  0.34569267809E+03  0.11683153794E+04  0.10100000352E+00 0.  1.
       -3    1    3    3    0  502 -0.22646382676E+03 -0.10927815532E+04 -0.22374796232E+03  0.11382093607E+04  0.10100000352E+00 0. -1.
</event>
<event>
 5   0  0.1281432E-04  0.1663590E+04  0.7818609E-02  0.8782407E-01
        2   -1    0    0  501    0  0.00000000000E+00  0.00000000000E+00  0.16424981045E+04  0.16424981045E+04  0.25500000920E-02 0.  1.
       -2   -1    0    0    0  501  0.00000000000E+00  0.00000000000E+00 -0.42123810681E+03  0.42123810682E+03  0.25500000920E-02 0. -1.
    10030    2    1    2    0    0  0.00000000000E+00  0.00000000000E+00  0.12212599977E+04  0.20637362113E+04  0.16635898437E+04 0.  0.
        4    1    3    3  502    0 -0.22859599941E+03 -0.78709914782E+03  0.78650565601E+03  0.11359462836E+04  0.12699999809E+01 0. -1.
       -4    1    3    3    0  502  0.22859599941E+03  0.78709914782E+03  0.43475434170E+03  0.92778992772E+03  0.12699999809E+01 0.  1.
</event>
<event>
 5   0  0.5632156E-05  0.2355780E+04  0.7818609E-02  0.8456247E-01
       -1   -1    0    0    0  501  0.00000000000E+00  0.00000000000E+00  0.92429404494E+03  0.92429404496E+03  0.50400001928E-02 0.  1.
        1   -1    0    0  501    0  0.00000000000E+00  0.00000000000E+00 -0.15010645522E+04  0.15010645522E+04  0.50400001928E-02 0. -1.
    10030    2    1    2    0    0  0.00000000000E+00  0.00000000000E+00 -0.57677050721E+03  0.24253585971E+04  0.23557801482E+04 0.  0.
        4    1    3    3  502    0  0.46136871754E+03  0.47577112587E+03  0.71413263105E+03  0.97427218239E+03  0.12699999809E+01 0.  1.
       -4    1    3    3    0  502 -0.46136871754E+03 -0.47577112587E+03 -0.12909031383E+04  0.14510864147E+04  0.12699999809E+01 0. -1.
</event>
<event>
 5   0  0.5632156E-05  0.2320038E+04  0.7818609E-02  0.8470062E-01
        1   -1    0    0  501    0  0.00000000000E+00  0.00000000000E+00  0.11016539933E+04  0.11016539933E+04  0.50400001928E-02 0. -1.
       -1   -1    0    0    0  501  0.00000000000E+00  0.00000000000E+00 -0.12214757019E+04  0.12214757019E+04  0.50400001928E-02 0.  1.
    10030    2    1    2    0    0  0.00000000000E+00  0.00000000000E+00 -0.11982170867E+03  0.23231296952E+04  0.23200375727E+04 0.  0.
        4    1    3    3  502    0  0.61678358202E+03  0.93582917360E+03 -0.35938092116E+03  0.11770108277E+04  0.12699999809E+01 0.  1.
       -4    1    3    3    0  502 -0.61678358202E+03 -0.93582917360E+03  0.23955921249E+03  0.11461188675E+04  0.12699999809E+01 0. -1.
</event>
<event>
 5   0  0.1234988E-04  0.2278127E+04  0.7818609E-02  0.8486596E-01
       -2   -1    0    0    0  501  0.00000000000E+00  0.00000000000E+00  0.10310362039E+04  0.10310362039E+04  0.25500000920E-02 0.  1.
        2   -1    0    0  501    0  0.00000000000E+00  0.00000000000E+00 -0.12584089393E+04  0.12584089393E+04  0.25500000920E-02 0. -1.
    10030    2    1    2    0    0  0.00000000000E+00  0.00000000000E+00 -0.22737273546E+03  0.22894451432E+04  0.22781265775E+04 0.  0.
        5    1    3    3  502    0 -0.61288808843E+03  0.70444342900E+03  0.54191260968E+03  0.10796127640E+04  0.46999998093E+01 0.  1.
       -5    1    3    3    0  502  0.61288808843E+03 -0.70444342900E+03 -0.76928534514E+03  0.12098323792E+04  0.46999998093E+01 0. -1.
</event>
<event>
 5   0  0.5632156E-05  0.2304295E+04  0.7818609E-02  0.8476230E-01
        1   -1    0    0  501    0  0.00000000000E+00  0.00000000000E+00  0.19372293792E+04  0.19372293792E+04  0.50400001928E-02 0. -1.
       -1   -1    0    0    0  501  0.00000000000E+00  0.00000000000E+00 -0.68522792019E+03  0.68522792020E+03  0.50400001928E-02 0.  1.
    10030    2    1    2    0    0  0.00000000000E+00  0.00000000000E+00  0.12520014590E+04  0.26224572994E+04  0.23042948236E+04 0.  0.
        4    1    3    3  502    0  0.13199724745E+03 -0.11252868154E+04  0.86404144454E+03  0.14248729491E+04  0.12699999809E+01 0. -1.
       -4    1    3    3    0  502 -0.13199724745E+03  0.11252868154E+04  0.38796001449E+03  0.11975843503E+04  0.12699999809E+01 0.  1.
</event>
<event>
 5   0  0.1257524E-04  0.2246005E+04  0.7818609E-02  0.8499520E-01
        2   -1    0    0  501    0  0.00000000000E+00  0.00000000000E+00  0.77459507830E+03  0.77459507831E+03  0.25500000920E-02 0. -1.
       -2   -1    0    0    0  501  0.00000000000E+00  0.00000000000E+00 -0.16281204855E+04  0.16281204855E+04  0.25500000920E-02 0.  1.
    10030    2    1    2    0    0  0.00000000000E+00  0.00000000000E+00 -0.85352540724E+03  0.24027155638E+04  0.22460045548E+04 0.  0.
        3    1    3    3  502    0  0.89338267423E+03 -0.52491935771E+03 -0.88994013575E+03  0.13658939893E+04  0.10100000352E+00 0.  1.
       -3    1    3    3    0  502 -0.89338267423E+03  0.52491935771E+03  0.36414728510E+02  0.10368215745E+04  0.10100000352E+00 0. -1.
</event>
<event>
 5   0  0.1257524E-04  0.2323314E+04  0.7818609E-02  0.8468785E-01
       -2   -1    0    0    0  501  0.00000000000E+00  0.00000000000E+00  0.10042153722E+04  0.10042153722E+04  0.25500000920E-02 0. -1.
        2   -1    0    0  501    0  0.00000000000E+00  0.00000000000E+00 -0.13437827138E+04  0.13437827138E+04  0.25500000920E-02 0.  1.
    10030    2    1    2    0    0  0.00000000000E+00  0.00000000000E+00 -0.33956734159E+03  0.23479980860E+04  0.23233142345E+04 0.  0.
        3    1    3    3  502    0  0.11052833923E+04  0.24571792139E+03  0.92625836533E+02  0.11360493959E+04  0.10100000352E+00 0. -1.
       -3    1    3    3    0  502 -0.11052833923E+04 -0.24571792139E+03 -0.43219317812E+03  0.12119486901E+04  0.10100000352E+00 0.  1.
</event>
<event>
 5   0  0.5632156E-05  0.2304998E+04  0.7818609E-02  0.8475953E-01
       -1   -1    0    0    0  501  0.00000000000E+00  0.00000000000E+00  0.80445418323E+03  0.80445418325E+03  0.50400001928E-02 0. -1.
        1   -1    0    0  501    0  0.00000000000E+00  0.00000000000E+00 -0.16511248488E+04  0.16511248488E+04  0.50400001928E-02 0.  1.
    10030    2    1    2    0    0  0.00000000000E+00  0.00000000000E+00 -0.84667066559E+03  0.24555790321E+04  0.23049983008E+04 0.  0.
        4    1    3    3  502    0 -0.39557348976E+03  0.99671992163E+02 -0.15716381468E+04  0.16237182543E+04  0.12699999809E+01 0.  1.
       -4    1    3    3    0  502  0.39557348976E+03 -0.99671992163E+02  0.72496748126E+03  0.83186077778E+03  0.12699999809E+01 0. -1.
</event>
<event>
 5   0  0.5663790E-05  0.2211360E+04  0.7818609E-02  0.8513715E-01
       -1   -1    0    0    0  501  0.00000000000E+00  0.00000000000E+00  0.86814198264E+03  0.86814198265E+03  0.50400001928E-02 0. -1.
        1   -1    0    0  501    0  0.00000000000E+00  0.00000000000E+00 -0.14082126129E+04  0.14082126129E+04  0.50400001928E-02 0.  1.
    10030    2    1    2    0    0  0.00000000000E+00  0.00000000000E+00 -0.54007063030E+03  0.22763545956E+04  0.22113602057E+04 0.  0.
        3    1    3    3  502    0 -0.19898631859E+03  0.60801547890E+03  0.65827352830E+03  0.91793378074E+03  0.10100000352E+00 0. -1.
       -3    1    3    3    0  502  0.19898631859E+03 -0.60801547890E+03 -0.11983441586E+04  0.13584208149E+04  0.10100000352E+00 0.  1.
</event>
<event>
 5   0  0.5632156E-05  0.2188346E+04  0.7818609E-02  0.8523295E-01
       -1   -1    0    0    0  501  0.00000000000E+00  0.00000000000E+00  0.96756293889E+03  0.96756293890E+03  0.50400001928E-02 0. -1.
        1   -1    0    0  501    0  0.00000000000E+00  0.00000000000E+00 -0.12373502478E+04  0.12373502478E+04  0.50400001928E-02 0.  1.
    10030    2    1    2    0    0  0.00000000000E+00  0.00000000000E+00 -0.26978730891E+03  0.22049131867E+04  0.21883457151E+04 0.  0.
        4    1    3    3  502    0 -0.64932733484E+03 -0.50772698123E+03  0.59013732821E+03  0.10137437321E+04  0.12699999809E+01 0. -1.
       -4    1    3    3    0  502  0.64932733484E+03  0.50772698123E+03 -0.85992463712E+03  0.11911694546E+04  0.12699999809E+01 0.  1.
</event>
<event>
 5   0  0.1234988E-04  0.2341942E+04  0.7818609E-02  0.8461565E-01
        2   -1    0    0  501    0  0.00000000000E+00  0.00000000000E+00  0.11430341685E+04  0.11430341685E+04  0.25500000920E-02 0. -1.
       -2   -1    0    0    0  501  0.00000000000E+00  0.00000000000E+00 -0.11995906814E+04  0.11995906814E+04  0.25500000920E-02 0.  1.
    10030    2    1    2    0    0  0.00000000000E+00  0.00000000000E+00 -0.56556512975E+02  0.23426248499E+04  0.23419420463E+04 0.  0.
        5    1    3    3  502    0 -0.67107187588E+03 -0.90308013834E+03 -0.35281058939E+03  0.11791474042E+04  0.46999998093E+01 0.  1.
       -5    1    3    3    0  502  0.67107187588E+03  0.90308013834E+03  0.29625407642E+03  0.11634774457E+04  0.46999998093E+01 0. -1.
</event>
<event>
 5   0  0.5632156E-05  0.2350940E+04  0.7818609E-02  0.8458103E-01
        1   -1    0    0  501    0  0.00000000000E+00  0.00000000000E+00  0.18820284878E+04  0.18820284878E+04  0.50400001928E-02 0. -1.
       -1   -1    0    0    0  501  0.00000000000E+00  0.00000000000E+00 -0.73417069376E+03  0.73417069378E+03  0.50400001928E-02 0.  1.
    10030    2    1    2    0    0  0.00000000000E+00  0.00000000000E+00  0.11478577941E+04  0.26161991816E+04  0.23509403741E+04 0.  0.
        4    1    3    3  502    0 -0.11640930419E+04  0.98338905068E+02  0.42906669971E+03  0.12445412794E+04  0.12699999809E+01 0.  1.
       -4    1    3    3    0  502  0.11640930419E+04 -0.98338905068E+02  0.71879109434E+03  0.13716579022E+04  0.12699999809E+01 0. -1.
</event>
<event>
 5   0  0.4489500E-05  0.1530207E+04  0.7818609E-02  0.8864610E-01
       -3   -1    0    0    0  501  0.00000000000E+00  0.00000000000E+00  0.37562149186E+03  0.37562150544E+03  0.10100000352E+00 0. -1.
        3   -1    0    0  501    0  0.00000000000E+00  0.00000000000E+00 -0.15584399040E+04  0.15584399073E+04  0.10100000352E+00 0.  1.
    10030    2    1    2    0    0  0.00000000000E+00  0.00000000000E+00 -0.11828184121E+04  0.19340614127E+04  0.15302072252E+04 0.  0.
        3    1    3    3  502    0 -0.24743116139E+03  0.68522481385E+03 -0.29599670778E+03  0.78636460141E+03  0.10100000352E+00 0. -1.
       -3    1    3    3    0  502  0.24743116139E+03 -0.68522481385E+03 -0.88682170437E+03  0.11476968113E+04  0.10100000352E+00 0.  1.
</event>
<event>
 5   0  0.5843670E-05  0.1839630E+04  0.7818609E-02  0.8685504E-01
        1   -1    0    0  501    0  0.00000000000E+00  0.00000000000E+00  0.14242052262E+04  0.14242052262E+04  0.50400001928E-02 0.  1.
       -1   -1    0    0    0  501  0.00000000000E+00  0.00000000000E+00 -0.59405735615E+03  0.59405735617E+03  0.50400001928E-02 0. -1.
    10030    2    1    2    0    0  0.00000000000E+00  0.00000000000E+00  0.83014787001E+03  0.20182625823E+04  0.18396299533E+04 0.  0.
        2    1    3    3  502    0 -0.43884010118E+03 -0.55329310522E+03 -0.23151483534E+03  0.74317764611E+03  0.25500000920E-02 0. -1.
       -2    1    3    3    0  502  0.43884010118E+03  0.55329310522E+03  0.10616627053E+04  0.12750849362E+04  0.25500000920E-02 0.  1.
</event>
<event>
 5   0  0.5924654E-05  0.2224266E+04  0.7818609E-02  0.8508396E-01
       -1   -1    0    0    0  501  0.00000000000E+00  0.00000000000E+00  0.16303326007E+04  0.16303326008E+04  0.50400001928E-02 0.  1.
        1   -1    0    0  501    0  0.00000000000E+00  0.00000000000E+00 -0.75864243352E+03  0.75864243354E+03  0.50400001928E-02 0. -1.
    10030    2    1    2    0    0  0.00000000000E+00  0.00000000000E+00  0.87169016722E+03  0.23889750343E+04  0.22242657141E+04 0.  0.
        5    1    3    3  502    0  0.87215273860E+03 -0.57780304230E+03  0.30669151709E+02  0.10466467609E+04  0.46999998093E+01 0. -1.
       -5    1    3    3    0  502 -0.87215273860E+03  0.57780304230E+03  0.84102101551E+03  0.13423282734E+04  0.46999998093E+01 0.  1.
</event>
<event>
 5   0  0.1270613E-04  0.2301066E+04  0.7818609E-02  0.8477501E-01
        2   -1    0    0  501    0  0.00000000000E+00  0.00000000000E+00  0.13479099483E+04  0.13479099483E+04  0.25500000920E-02 0.  1.
       -2   -1    0    0    0  501  0.00000000000E+00  0.00000000000E+00 -0.98205819801E+03  0.98205819801E+03  0.25500000920E-02 0. -1.
    10030    2    1    2    0    0  0.00000000000E+00  0.00000000000E+00  0.36585175029E+03  0.23299681463E+04  0.23010658530E+04 0.  0.
        2    1    3    3  502    0  0.46094208898E+03 -0.66234339578E+03 -0.64747220086E+03  0.10345949131E+04  0.25500000920E-02 0. -1.
       -2    1    3    3    0  502 -0.46094208898E+03  0.66234339578E+03  0.10133239512E+04  0.12953732332E+04  0.25500000920E-02 0.  1.
</event>
<event>
 5   0  0.1281432E-04  0.2263919E+04  0.7818609E-02  0.8492285E-01
        2   -1    0    0  501    0  0.00000000000E+00  0.00000000000E+00  0.98286649406E+03  0.98286649407E+03  0.25500000920E-02 0. -1.
       -2   -1    0    0    0  501  0.00000000000E+00  0.00000000000E+00 -0.13036684413E+04  0.13036684413E+04  0.25500000920E-02 0.  1.
    10030    2    1    2    0    0  0.00000000000E+00  0.00000000000E+00 -0.32080194725E+03  0.22865349354E+04  0.22639187533E+04 0.  0.
        4    1    3    3  502    0 -0.17557096754E+03  0.42851597848E+03 -0.12036179614E+04  0.12896313110E+04  0.12699999809E+01 0.  1.
       -4    1    3    3    0  502  0.17557096754E+03 -0.42851597848E+03  0.88281601417E+03  0.99690362434E+03  0.12699999809E+01 0. -1.
</event>
<event>
 5   0  0.1257524E-04  0.1759198E+04  0.7818609E-02  0.8728304E-01
       -2   -1    0    0    0  501  0.00000000000E+00  0.00000000000E+00  0.97565574165E+03  0.97565574165E+03  0.25500000920E-02 0. -1.
        2   -1    0    0  501    0  0.00000000000E+00  0.00000000000E+00 -0.79299900599E+03  0.79299900600E+03  0.25500000920E-02 0.  1.
    10030    2    1    2    0    0  0.00000000000E+00  0.00000000000E+00  0.18265673565E+03  0.17686547476E+04  0.17591975822E+04 0.  0.
        3    1    3    3  502    0 -0.84652629468E+03 -0.91571556952E+02  0.31319981780E+03  0.90724101191E+03  0.10100000352E+00 0. -1.
       -3    1    3    3    0  502  0.84652629468E+03  0.91571556952E+02 -0.13054308214E+03  0.86141373574E+03  0.10100000352E+00 0.  1.
</event>
<event>
 5   0  0.5632156E-05  0.2328369E+04  0.7818609E-02  0.8466819E-01
       -1   -1    0    0    0  501  0.00000000000E+00  0.00000000000E+00  0.85475179708E+03  0.85475179710E+03  0.50400001928E-02 0.  1.
        1   -1    0    0  501    0  0.00000000000E+00  0.00000000000E+00 -0.15856360586E+04  0.15856360586E+04  0.50400001928E-02 0. -1.
    10030    2    1    2    0    0  0.00000000000E+00  0.00000000000E+00 -0.73088426150E+03  0.24403878557E+04  0.23283687600E+04 0.  0.
        4    1    3    3  502    0 -0.35241076496E+03 -0.47123955002E+03 -0.14182917899E+04  0.15355172662E+04  0.12699999809E+01 0. -1.
       -4    1    3    3    0  502  0.35241076496E+03  0.47123955002E+03  0.68740752836E+03  0.90487058948E+03  0.12699999809E+01 0.  1.
</event>
<event>
 5   0  0.5663790E-05  0.2281428E+04  0.7818609E-02  0.8485280E-01
        1   -1    0    0  501    0  0.00000000000E+00  0.00000000000E+00  0.11553811257E+04  0.11553811257E+04  0.50400001928E-02 0.  1.
       -1   -1    0    0    0  501  0.00000000000E+00  0.00000000000E+00 -0.11262332557E+04  0.11262332557E+04  0.50400001928E-02 0. -1.
    10030    2    1    2    0    0  0.00000000000E+00  0.00000000000E+00  0.29147870018E+02  0.22816143814E+04  0.22814281902E+04 0.  0.
        3    1    3    3  502    0  0.46397517363E+03 -0.10072870376E+04 -0.25252181890E+03  0.11373950136E+04  0.10100000352E+00 0. -1.
       -3    1    3    3    0  502 -0.46397517363E+03  0.10072870376E+04  0.28166968892E+03  0.11442193678E+04  0.10100000352E+00 0.  1.
</event>
<event>
 5   0  0.5924654E-05  0.2311029E+04  0.7818609E-02  0.8473585E-01
       -1   -1    0    0    0  501  0.00000000000E+00  0.00000000000E+00  0.10393828729E+04  0.10393828729E+04  0.50400001928E-02 0. -1.
        1   -1    0    0  501    0  0.00000000000E+00  0.00000000000E+00 -0.12846212641E+04  0.12846212641E+04  0.50400001928E-02 0.  1.
    10030    2    1    2    0    0  0.00000000000E+00  0.00000000000E+00 -0.24523839122E+03  0.23240041370E+04  0.23110286368E+04 0.  0.
        5    1    3    3  502    0 -0.17529658838E+03 -0.89251560878E+03  0.59403784947E+03  0.10863774954E+04  0.46999998093E+01 0.  1.
       -5    1    3    3    0  502  0.17529658838E+03  0.89251560878E+03 -0.83927624069E+03  0.12376266416E+04  0.46999998093E+01 0. -1.
</event>
<event>
 5   0  0.5924654E-05  0.2321557E+04  0.7818609E-02  0.8469470E-01
        1   -1    0    0  501    0  0.00000000000E+00  0.00000000000E+00  0.14447639174E+04  0.14447639175E+04  0.50400001928E-02 0. -1.
       -1   -1    0    0    0  501  0.00000000000E+00  0.00000000000E+00 -0.93261353381E+03  0.93261353382E+03  0.50400001928E-02 0.  1.
    10030    2    1    2    0    0  0.00000000000E+00  0.00000000000E+00  0.51215038363E+03  0.23773774513E+04  0.23215567041E+04 0.  0.
        5    1    3    3  502    0 -0.68933508227E+03  0.27089395198E+02  0.12120456384E+04  0.13946302057E+04  0.46999998093E+01 0. -1.
       -5    1    3    3    0  502  0.68933508227E+03 -0.27089395198E+02 -0.69989525481E+03  0.98274724557E+03  0.46999998093E+01 0.  1.
</event>
<event>
 5   0  0.1270613E-04  0.2324197E+04  0.7818609E-02  0.8468441E-01
       -2   -1    0    0    0  501  0.00000000000E+00  0.00000000000E+00  0.62898353235E+03  0.62898353236E+03  0.25500000920E-02 0. -1.
        2   -1    0    0  501    0  0.00000000000E+00  0.00000000000E+00 -0.21470719564E+04  0.21470719564E+04  0.25500000920E-02 0.  1.
    10030    2    1    2    0    0  0.00000000000E+00  0.00000000000E+00 -0.15180884241E+04  0.27760554888E+04  0.23241969825E+04 0.  0.
        2    1    3    3  502    0  0.76561506135E+03  0.59524413530E+03  0.57459957879E+01  0.96980153601E+03  0.25500000920E-02 0. -1.
       -2    1    3    3    0  502 -0.76561506135E+03 -0.59524413530E+03 -0.15238344199E+04  0.18062539528E+04  0.25500000920E-02 0.  1.
</event>
<event>
 5   0  0.1270613E-04  0.2286359E+04  0.7818609E-02  0.8483319E-01
        2   -1    0    0  501    0  0.00000000000E+00  0.00000000000E+00  0.22537507283E+04  0.22537507283E+04  0.25500000920E-02 0. -1.
       -2   -1    0    0    0  501  0.00000000000E+00  0.00000000000E+00 -0.57985971407E+03  0.57985971408E+03  0.25500000920E-02 0.  1.
    10030    2    1    2    0    0  0.00000000000E+00  0.00000000000E+00  0.16738910142E+04  0.28336104424E+04  0.22863588983E+04 0.  0.
        2    1    3    3  502    0 -0.40240895264E+03 -0.10571539095E+04  0.10419151219E+04  0.15378863660E+04  0.25500000920E-02 0. -1.
       -2    1    3    3    0  502  0.40240895264E+03  0.10571539095E+04  0.63197589232E+03  0.12957240763E+04  0.25500000920E-02 0.  1.
</event>
<event>
 5   0  0.5663790E-05  0.2126617E+04  0.7818609E-02  0.8549608E-01
       -1   -1    0    0    0  501  0.00000000000E+00  0.00000000000E+00  0.10383875308E+04  0.10383875309E+04  0.50400001928E-02 0. -1.
        1   -1    0    0  501    0  0.00000000000E+00  0.00000000000E+00 -0.10888272917E+04  0.10888272917E+04  0.50400001928E-02 0.  1.
    10030    2    1    2    0    0  0.00000000000E+00  0.00000000000E+00 -0.50439760837E+02  0.21272148225E+04  0.21266167336E+04 0.  0.
        3    1    3    3  502    0  0.48306944324E+03 -0.48872906640E+03  0.78643452932E+03  0.10443617508E+04  0.10100000352E+00 0. -1.
       -3    1    3    3    0  502 -0.48306944324E+03  0.48872906640E+03 -0.83687429016E+03  0.10828530718E+04  0.10100000352E+00 0.  1.
</event>
<event>
 5   0  0.5642466E-05  0.2332164E+04  0.7818609E-02  0.8465346E-01
        1   -1    0    0  501    0  0.00000000000E+00  0.00000000000E+00  0.88157352722E+03  0.88157352723E+03  0.50400001928E-02 0. -1.
       -1   -1    0    0    0  501  0.00000000000E+00  0.00000000000E+00 -0.15424089792E+04  0.15424089792E+04  0.50400001928E-02 0.  1.
    10030    2    1    2    0    0  0.00000000000E+00  0.00000000000E+00 -0.66083545194E+03  0.24239825064E+04  0.23321637371E+04 0.  0.
        1    1    3    3  502    0 -0.11100833961E+04 -0.70101822985E+02 -0.69426798867E+03  0.13111855139E+04  0.50400001928E-02 0.  1.
       -1    1    3    3    0  502  0.11100833961E+04  0.70101822985E+02  0.33432536732E+02  0.11127969925E+04  0.50400001928E-02 0. -1.
</event>
<event>
 5   0  0.1237296E-04  0.2331056E+04  0.7818609E-02  0.8465776E-01
       -2   -1    0    0    0  501  0.00000000000E+00  0.00000000000E+00  0.14384574273E+04  0.14384574273E+04  0.25500000920E-02 0.  1.
        2   -1    0    0  501    0  0.00000000000E+00  0.00000000000E+00 -0.94438313831E+03  0.94438313831E+03  0.25500000920E-02 0. -1.
    10030    2    1    2    0    0  0.00000000000E+00  0.00000000000E+00  0.49407428902E+03  0.23828405656E+04  0.23310555030E+04 0.  0.
        1    1    3    3  502    0 -0.48638862605E+02  0.43949316196E+03 -0.85531432167E+03  0.96285126954E+03  0.50400001928E-02 0. -1.
       -1    1    3    3    0  502  0.48638862605E+02 -0.43949316196E+03  0.13493886107E+04  0.14199892961E+04  0.50400001928E-02 0.  1.
</event>
<event>
 5   0  0.1234988E-04  0.2278559E+04  0.7818609E-02  0.8486423E-01
        2   -1    0    0  501    0  0.00000000000E+00  0.00000000000E+00  0.15655637284E+04  0.15655637284E+04  0.25500000920E-02 0.  1.
       -2   -1    0    0    0  501  0.00000000000E+00  0.00000000000E+00 -0.82906715706E+03  0.82906715706E+03  0.25500000920E-02 0. -1.
    10030    2    1    2    0    0  0.00000000000E+00  0.00000000000E+00  0.73649657130E+03  0.23946308854E+04  0.22785587282E+04 0.  0.
        5    1    3    3  502    0  0.36568771407E+03  0.13351316413E+03  0.14934828212E+04  0.15433944073E+04  0.46999998093E+01 0.  1.
       -5    1    3    3    0  502 -0.36568771407E+03 -0.13351316413E+03 -0.75698624988E+03  0.85123647815E+03  0.46999998093E+01 0. -1.
</event>
<event>
 5   0  0.5843670E-05  0.2303837E+04  0.7818609E-02  0.8476410E-01
       -1   -1    0    0    0  501  0.00000000000E+00  0.00000000000E+00  0.11463899806E+04  0.11463899806E+04  0.50400001928E-02 0.  1.
        1   -1    0    0  501    0  0.00000000000E+00  0.00000000000E+00 -0.11574739571E+04  0.11574739571E+04  0.50400001928E-02 0. -1.
    10030    2    1    2    0    0  0.00000000000E+00  0.00000000000E+00 -0.11083976505E+02  0.23038639377E+04  0.23038372748E+04 0.  0.
        2    1    3    3  502    0 -0.94339856837E+03 -0.57693567122E+03 -0.32813046961E+03  0.11534839542E+04  0.25500000920E-02 0. -1.
       -2    1    3    3    0  502  0.94339856837E+03  0.57693567122E+03  0.31704649311E+03  0.11503799835E+04  0.25500000920E-02 0.  1.
</event>
<event>
 5   0  0.5843670E-05  0.2315173E+04  0.7818609E-02  0.8471962E-01
        1   -1    0    0  501    0  0.00000000000E+00  0.00000000000E+00  0.12373731493E+04  0.12373731493E+04  0.50400001928E-02 0. -1.
       -1   -1    0    0    0  501  0.00000000000E+00  0.00000000000E+00 -0.10829448436E+04  0.10829448436E+04  0.50400001928E-02 0.  1.
    10030    2    1    2    0    0  0.00000000000E+00  0.00000000000E+00  0.15442830563E+03  0.23203179929E+04  0.23151733167E+04 0.  0.
        2    1    3    3  502    0 -0.49406901167E+03 -0.62239822184E+03  0.92082279031E+03  0.12163052027E+04  0.25500000920E-02 0. -1.
       -2    1    3    3    0  502  0.49406901167E+03  0.62239822184E+03 -0.76639448468E+03  0.11040127902E+04  0.25500000920E-02 0.  1.
</event>
<event>
 5   0  0.5663790E-05  0.2078089E+04  0.7818609E-02  0.8570957E-01
       -1   -1    0    0    0  501  0.00000000000E+00  0.00000000000E+00  0.97374060734E+03  0.97374060735E+03  0.50400001928E-02 0.  1.
        1   -1    0    0  501    0  0.00000000000E+00  0.00000000000E+00 -0.11087278274E+04  0.11087278274E+04  0.50400001928E-02 0. -1.
    10030    2    1    2    0    0  0.00000000000E+00  0.00000000000E+00 -0.13498722008E+03  0.20824684348E+04  0.20780888413E+04 0.  0.
        3    1    3    3  502    0  0.65733388174E+03  0.74909792507E+03 -0.36201395252E+03  0.10603252546E+04  0.10100000352E+00 0.  1.
       -3    1    3    3    0  502 -0.65733388174E+03 -0.74909792507E+03  0.22702673244E+03  0.10221431802E+04  0.10100000352E+00 0. -1.
</event>
<event>
 5   0  0.1257524E-04  0.2233934E+04  0.7818609E-02  0.8504435E-01
        2   -1    0    0  501    0  0.00000000000E+00  0.00000000000E+00  0.14471996829E+04  0.14471996829E+04  0.25500000920E-02 0. -1.
       -2   -1    0    0    0  501  0.00000000000E+00  0.00000000000E+00 -0.86208927751E+03  0.86208927751E+03  0.25500000920E-02 0.  1.
    10030    2    1    2    0    0  0.00000000000E+00  0.00000000000E+00  0.58511040542E+03  0.23092889604E+04  0.22339340447E+04 0.  0.
        3    1    3    3  502    0  0.17046870764E+03 -0.11013053788E+04  0.21463209936E+03  0.11349009057E+04  0.10100000352E+00 0. -1.
       -3    1    3    3    0  502 -0.17046870764E+03  0.11013053788E+04  0.37047830606E+03  0.11743880547E+04  0.10100000352E+00 0.  1.
</event>
<event>
 5   0  0.5924654E-05  0.2387623E+04  0.7818609E-02  0.8444152E-01
       -1   -1    0    0    0  501  0.00000000000E+00  0.00000000000E+00  0.13392300839E+04  0.13392300839E+04  0.50400001928E-02 0.  1.
        1   -1    0    0  501    0  0.00000000000E+00  0.00000000000E+00 -0.10641833088E+04  0.10641833088E+04  0.50400001928E-02 0. -1.
    10030    2    1    2    0    0  0.00000000000E+00  0.00000000000E+00  0.27504677512E+03  0.24034133927E+04  0.23876233388E+04 0.  0.
        5    1    3    3  502    0 -0.56937100048E+03  0.63103827060E+03 -0.70633535796E+03  0.11051354501E+04  0.46999998093E+01 0. -1.
       -5    1    3    3    0  502  0.56937100048E+03 -0.63103827060E+03  0.98138213309E+03  0.12982779426E+04  0.46999998093E+01 0.  1.
</event>
<event>
 5   0  0.5843670E-05  0.2342046E+04  0.7818609E-02  0.8461525E-01
       -1   -1    0    0    0  501  0.00000000000E+00  0.00000000000E+00  0.10104169074E+04  0.10104169074E+04  0.50400001928E-02 0. -1.
        1   -1    0    0  501    0  0.00000000000E+00  0.00000000000E+00 -0.13571574002E+04  0.13571574002E+04  0.50400001928E-02 0.  1.
    10030    2    1    2    0    0  0.00000000000E+00  0.00000000000E+00 -0.34674049287E+03  0.23675743076E+04  0.23420459288E+04 0.  0.
        2    1    3    3  502    0 -0.51922128357E+03  0.63202946515E+03  0.67376325595E+03  0.10597211479E+04  0.25500000920E-02 0. -1.
       -2    1    3    3    0  502  0.51922128357E+03 -0.63202946515E+03 -0.10205037488E+04  0.13078531598E+04  0.25500000920E-02 0.  1.
</event>
<event>
 5   0  0.1257524E-04  0.2358140E+04  0.7818609E-02  0.8455344E-01
        2   -1    0    0  501    0  0.00000000000E+00  0.00000000000E+00  0.16704961707E+04  0.16704961707E+04  0.25500000920E-02 0. -1.
       -2   -1    0    0    0  501  0.00000000000E+00  0.00000000000E+00 -0.83221131445E+03  0.83221131445E+03  0.25500000920E-02 0.  1.
    10030    2    1    2    0    0  0.00000000000E+00  0.00000000000E+00  0.83828485625E+03  0.25027074852E+04  0.23581397872E+04 0.  0.
        3    1    3    3  502    0 -0.28704207070E+03  0.59309621893E+03  0.14568637554E+04  0.15989397385E+04  0.10100000352E+00 0. -1.
       -3    1    3    3    0  502  0.28704207070E+03 -0.59309621893E+03 -0.61857889915E+03  0.90376774668E+03  0.10100000352E+00 0.  1.
</event>
<event>
 5   0  0.1234988E-04  0.2209199E+04  0.7818609E-02  0.8514609E-01
        2   -1    0    0  501    0  0.00000000000E+00  0.00000000000E+00  0.15609353770E+04  0.15609353770E+04  0.25500000920E-02 0.  1.
       -2   -1    0    0    0  501  0.00000000000E+00  0.00000000000E+00 -0.78167210734E+03  0.78167210734E+03  0.25500000920E-02 0. -1.
    10030    2    1    2    0    0  0.00000000000E+00  0.00000000000E+00  0.77926326963E+03  0.23426074843E+04  0.22091986290E+04 0.  0.
        5    1    3    3  502    0  0.80832304672E+03  0.39040059843E+03 -0.29291459370E+03  0.94425622811E+03  0.46999998093E+01 0. -1.
       -5    1    3    3    0  502 -0.80832304672E+03 -0.39040059843E+03  0.10721778633E+04  0.13983512562E+04  0.46999998093E+01 0.  1.
</event>
<event>
 5   0  0.1234988E-04  0.2230990E+04  0.7818609E-02  0.8505639E-01
        2   -1    0    0  501    0  0.00000000000E+00  0.00000000000E+00  0.93662236139E+03  0.93662236139E+03  0.25500000920E-02 0.  1.
       -2   -1    0    0    0  501  0.00000000000E+00  0.00000000000E+00 -0.13285281114E+04  0.13285281114E+04  0.25500000920E-02 0. -1.
    10030    2    1    2    0    0  0.00000000000E+00  0.00000000000E+00 -0.39190574999E+03  0.22651504728E+04  0.22309900375E+04 0.  0.
        5    1    3    3  502    0 -0.88635488538E+03 -0.66756760596E+03 -0.80031320053E+02  0.11125190306E+04  0.46999998093E+01 0. -1.
       -5    1    3    3    0  502  0.88635488538E+03  0.66756760596E+03 -0.31187442994E+03  0.11526314421E+04  0.46999998093E+01 0.  1.
</event>
<event>
 5   0  0.1234988E-04  0.2481730E+04  0.7818609E-02  0.8409524E-01
       -2   -1    0    0    0  501  0.00000000000E+00  0.00000000000E+00  0.15127548382E+04  0.15127548382E+04  0.25500000920E-02 0. -1.
        2   -1    0    0  501    0  0.00000000000E+00  0.00000000000E+00 -0.10178419580E+04  0.10178419580E+04  0.25500000920E-02 0.  1.
    10030    2    1    2    0    0  0.00000000000E+00  0.00000000000E+00  0.49491288021E+03  0.25305967963E+04  0.24817295151E+04 0.  0.
        5    1    3    3  502    0  0.40042995347E+03  0.70444807086E+03 -0.71079906935E+03  0.10778908290E+04  0.46999998093E+01 0.  1.
       -5    1    3    3    0  502 -0.40042995347E+03 -0.70444807086E+03  0.12057119496E+04  0.14527059673E+04  0.46999998093E+01 0. -1.
</event>
<event>
 5   0  0.1270613E-04  0.2235858E+04  0.7818609E-02  0.8503650E-01
        2   -1    0    0  501    0  0.00000000000E+00  0.00000000000E+00  0.13849556933E+04  0.13849556933E+04  0.25500000920E-02 0. -1.
       -2   -1    0    0    0  501  0.00000000000E+00  0.00000000000E+00 -0.90238609890E+03  0.90238609890E+03  0.25500000920E-02 0.  1.
    10030    2    1    2    0    0  0.00000000000E+00  0.00000000000E+00  0.48256959444E+03  0.22873417922E+04  0.22358575673E+04 0.  0.
        2    1    3    3  502    0 -0.11143497197E+04 -0.65470966404E+02  0.30353846689E+03  0.11568048004E+04  0.25500000920E-02 0. -1.
       -2    1    3    3    0  502  0.11143497197E+04  0.65470966404E+02  0.17903112755E+03  0.11305369919E+04  0.25500000920E-02 0.  1.
</event>
<event>
 5   0  0.1281432E-04  0.2339390E+04  0.7818609E-02  0.8462550E-01
        2   -1    0    0  501    0  0.00000000000E+00  0.00000000000E+00  0.17094547857E+04  0.17094547857E+04  0.25500000920E-02 0.  1.
       -2   -1    0    0    0  501  0.00000000000E+00  0.00000000000E+00 -0.80036451532E+03  0.80036451533E+03  0.25500000920E-02 0. -1.
    10030    2    1    2    0    0  0.00000000000E+00  0.00000000000E+00  0.90909027037E+03  0.25098193010E+04  0.23393904770E+04 0.  0.
        4    1    3    3  502    0  0.66050587647E+03 -0.61864152160E+03  0.12496144613E+04  0.15428944422E+04  0.12699999809E+01 0.  1.
       -4    1    3    3    0  502 -0.66050587647E+03  0.61864152160E+03 -0.34052419090E+03  0.96692485881E+03  0.12699999809E+01 0. -1.
</event>
<event>
 5   0  0.1257524E-04  0.2179803E+04  0.7818609E-02  0.8526882E-01
        2   -1    0    0  501    0  0.00000000000E+00  0.00000000000E+00  0.14335751681E+04  0.14335751681E+04  0.25500000920E-02 0.  1.
       -2   -1    0    0    0  501  0.00000000000E+00  0.00000000000E+00 -0.82861736962E+03  0.82861736963E+03  0.25500000920E-02 0. -1.
    10030    2    1    2    0    0  0.00000000000E+00  0.00000000000E+00  0.60495779846E+03  0.22621925377E+04  0.21798030048E+04 0.  0.
        3    1    3    3  502    0 -0.48196587323E+02  0.88118130501E+03  0.96624861735E+03  0.13086022329E+04  0.10100000352E+00 0.  1.
       -3    1    3    3    0  502  0.48196587323E+02 -0.88118130501E+03 -0.36129081889E+03  0.95359030477E+03  0.10100000352E+00 0. -1.
</event>
<event>
 5   0  0.1234988E-04  0.2325811E+04  0.7818609E-02  0.8467813E-01
       -2   -1    0    0    0  501  0.00000000000E+00  0.00000000000E+00  0.13109595129E+04  0.13109595129E+04  0.25500000920E-02 0. -1.
        2   -1    0    0  501    0  0.00000000000E+00  0.00000000000E+00 -0.10315718799E+04  0.10315718799E+04  0.25500000920E-02 0.  1.
    10030    2    1    2    0    0  0.00000000000E+00  0.00000000000E+00  0.27938763298E+03  0.23425313928E+04  0.23258107998E+04 0.  0.
        5    1    3    3  502    0  0.64094250806E+03 -0.84012275161E+03 -0.34929972179E+03  0.11129447075E+04  0.46999998093E+01 0.  1.
       -5    1    3    3    0  502 -0.64094250806E+03  0.84012275161E+03  0.62868735477E+03  0.12295866852E+04  0.46999998093E+01 0. -1.
</event>
<event>
 5   0  0.1237296E-04  0.2284685E+04  0.7818609E-02  0.8483984E-01
        2   -1    0    0  501    0  0.00000000000E+00  0.00000000000E+00  0.14281069876E+04  0.14281069876E+04  0.25500000920E-02 0.  1.
       -2   -1    0    0    0  501  0.00000000000E+00  0.00000000000E+00 -0.91375962392E+03  0.91375962393E+03  0.25500000920E-02 0. -1.
    10030    2    1    2    0    0  0.00000000000E+00  0.00000000000E+00  0.51434736370E+03  0.23418666116E+04  0.22846851021E+04 0.  0.
        1    1    3    3  502    0  0.11503359627E+03 -0.82960890411E+03 -0.53909763489E+03  0.99604714850E+03  0.50400001928E-02 0. -1.
       -1    1    3    3    0  502 -0.11503359627E+03  0.82960890411E+03  0.10534449986E+04  0.13458194631E+04  0.50400001928E-02 0.  1.
</event>
<event>
 5   0  0.4489500E-05  0.2315859E+04  0.7818609E-02  0.8471694E-01
       -3   -1    0    0    0  501  0.00000000000E+00  0.00000000000E+00  0.10360988387E+04  0.10360988436E+04  0.10100000352E+00 0. -1.
        3   -1    0    0  501    0  0.00000000000E+00  0.00000000000E+00 -0.12940862523E+04  0.12940862562E+04  0.10100000352E+00 0.  1.
    10030    2    1    2    0    0  0.00000000000E+00  0.00000000000E+00 -0.25798741364E+03  0.23301850998E+04  0.23158594720E+04 0.  0.
        4    1    3    3  502    0  0.72838026074E+03  0.25624285302E+03  0.73924703100E+03  0.10689649151E+04  0.12699999809E+01 0. -1.
       -4    1    3    3    0  502 -0.72838026074E+03 -0.25624285302E+03 -0.99723444464E+03  0.12612201848E+04  0.12699999809E+01 0.  1.
</event>
<event>
 5   0  0.1237296E-04  0.2257358E+04  0.7818609E-02  0.8494926E-01
        2   -1    0    0  501    0  0.00000000000E+00  0.00000000000E+00  0.20939990502E+04  0.20939990502E+04  0.25500000920E-02 0. -1.
       -2   -1    0    0    0  501  0.00000000000E+00  0.00000000000E+00 -0.60836541721E+03  0.60836541722E+03  0.25500000920E-02 0.  1.
    10030    2    1    2    0    0  0.00000000000E+00  0.00000000000E+00  0.14856336330E+04  0.27023644674E+04  0.22573582842E+04 0.  0.
        1    1    3    3  502    0  0.45495228758E+03  0.28914320836E+03 -0.44429968591E+03  0.69856108526E+03  0.50400001928E-02 0.  1.
       -1    1    3    3    0  502 -0.45495228758E+03 -0.28914320836E+03  0.19299333189E+04  0.20038033821E+04  0.50400001928E-02 0. -1.
</event>
<event>
 5   0  0.5843670E-05  0.2321753E+04  0.7818609E-02  0.8469393E-01
       -1   -1    0    0    0  501  0.00000000000E+00  0.00000000000E+00  0.64916901149E+03  0.64916901151E+03  0.50400001928E-02 0.  1.
        1   -1    0    0  501    0  0.00000000000E+00  0.00000000000E+00 -0.20759376392E+04  0.20759376392E+04  0.50400001928E-02 0. -1.
    10030    2    1    2    0    0  0.00000000000E+00  0.00000000000E+00 -0.14267686277E+04  0.27251066508E+04  0.23217531180E+04 0.  0.
        2    1    3    3  502    0  0.59939375501E+03 -0.66777924247E+02  0.45085815298E+03  0.75299750254E+03  0.25500000920E-02 0.  1.
       -2    1    3    3    0  502 -0.59939375501E+03  0.66777924247E+02 -0.18776267807E+04  0.19721091482E+04  0.25500000920E-02 0. -1.
</event>
<event>
 5   0  0.1257524E-04  0.2293560E+04  0.7818609E-02  0.8480465E-01
       -2   -1    0    0    0  501  0.00000000000E+00  0.00000000000E+00  0.68290454877E+03  0.68290454878E+03  0.25500000920E-02 0. -1.
        2   -1    0    0  501    0  0.00000000000E+00  0.00000000000E+00 -0.19257513251E+04  0.19257513251E+04  0.25500000920E-02 0.  1.
    10030    2    1    2    0    0  0.00000000000E+00  0.00000000000E+00 -0.12428467763E+04  0.26086558739E+04  0.22935599750E+04 0.  0.
        3    1    3    3  502    0  0.60947988605E+03  0.23514483431E+03  0.45058367174E+03  0.79358961690E+03  0.10100000352E+00 0. -1.
       -3    1    3    3    0  502 -0.60947988605E+03 -0.23514483431E+03 -0.16934304481E+04  0.18150662570E+04  0.10100000352E+00 0.  1.
</event>
<event>
 5   0  0.5632156E-05  0.2321459E+04  0.7818609E-02  0.8469508E-01
       -1   -1    0    0    0  501  0.00000000000E+00  0.00000000000E+00  0.13479722452E+04  0.13479722452E+04  0.50400001928E-02 0.  1.
        1   -1    0    0  501    0  0.00000000000E+00  0.00000000000E+00 -0.99949620992E+03  0.99949620993E+03  0.50400001928E-02 0. -1.
    10030    2    1    2    0    0  0.00000000000E+00  0.00000000000E+00  0.34847603528E+03  0.23474684551E+04  0.23214591534E+04 0.  0.
        4    1    3    3  502    0 -0.10406359276E+04  0.36021435394E+03 -0.19677049098E+03  0.11186589085E+04  0.12699999809E+01 0.  1.
       -4    1    3    3    0  502  0.10406359276E+04 -0.36021435394E+03  0.54524652626E+03  0.12288095466E+04  0.12699999809E+01 0. -1.
</event>
<event>
 5   0  0.5642466E-05  0.2249914E+04  0.7818609E-02  0.8497935E-01
       -1   -1    0    0    0  501  0.00000000000E+00  0.00000000000E+00  0.84696362881E+03  0.84696362882E+03  0.50400001928E-02 0.  1.
        1   -1    0    0  501    0  0.00000000000E+00  0.00000000000E+00 -0.14941944565E+04  0.14941944565E+04  0.50400001928E-02 0. -1.
    10030    2    1    2    0    0  0.00000000000E+00  0.00000000000E+00 -0.64723082767E+03  0.23411580853E+04  0.22499140953E+04 0.  0.
        1    1    3    3  502    0 -0.65307974563E+03  0.43854484729E+03  0.51316998296E+03  0.93924340225E+03  0.50400001928E-02 0.  1.
       -1    1    3    3    0  502  0.65307974563E+03 -0.43854484729E+03 -0.11604008106E+04  0.14019146831E+04  0.50400001928E-02 0. -1.
</event>
<event>
 5   0  0.5924654E-05  0.2199006E+04  0.7818609E-02  0.8518842E-01
       -1   -1    0    0    0  501  0.00000000000E+00  0.00000000000E+00  0.15143260061E+04  0.15143260061E+04  0.50400001928E-02 0.  1.
        1   -1    0    0  501    0  0.00000000000E+00  0.00000000000E+00 -0.79831363035E+03  0.79831363036E+03  0.50400001928E-02 0. -1.
    10030    2    1    2    0    0  0.00000000000E+00  0.00000000000E+00  0.71601237571E+03  0.23126396364E+04  0.21990062223E+04 0.  0.
        5    1    3    3  502    0 -0.88865304287E+03 -0.54884331127E+03  0.71919457249E+03  0.12681467321E+04  0.46999998093E+01 0. -1.
       -5    1    3    3    0  502  0.88865304287E+03  0.54884331127E+03 -0.31821967787E+01  0.10444929044E+04  0.46999998093E+01 0.  1.
</event>
<event>
 5   0  0.1281432E-04  0.2251176E+04  0.7818609E-02  0.8497424E-01
        2   -1    0    0  501    0  0.00000000000E+00  0.00000000000E+00  0.30272552835E+04  0.30272552835E+04  0.25500000920E-02 0.  1.
       -2   -1    0    0    0  501  0.00000000000E+00  0.00000000000E+00 -0.41851380375E+03  0.41851380376E+03  0.25500000920E-02 0. -1.
    10030    2    1    2    0    0  0.00000000000E+00  0.00000000000E+00  0.26087414798E+04  0.34457690873E+04  0.22511758027E+04 0.  0.
        4    1    3    3  502    0 -0.17115724034E+03  0.41652088245E+03  0.28833653408E+04  0.29183183082E+04  0.12699999809E+01 0.  1.
       -4    1    3    3    0  502  0.17115724034E+03 -0.41652088245E+03 -0.27462386102E+03  0.52745077911E+03  0.12699999809E+01 0. -1.
</event>
<event>
 5   0  0.5843670E-05  0.2270900E+04  0.7818609E-02  0.8489484E-01
        1   -1    0    0  501    0  0.00000000000E+00  0.00000000000E+00  0.14967527088E+04  0.14967527088E+04  0.50400001928E-02 0. -1.
       -1   -1    0    0    0  501  0.00000000000E+00  0.00000000000E+00 -0.86136262163E+03  0.86136262165E+03  0.50400001928E-02 0.  1.
    10030    2    1    2    0    0  0.00000000000E+00  0.00000000000E+00  0.63539008717E+03  0.23581153305E+04  0.22709001187E+04 0.  0.
        2    1    3    3  502    0  0.44350655157E+03 -0.17558880759E+03 -0.75227462180E+03  0.89075619406E+03  0.25500000920E-02 0.  1.
       -2    1    3    3    0  502 -0.44350655157E+03  0.17558880759E+03  0.13876647090E+04  0.14673591364E+04  0.25500000920E-02 0. -1.
</event>
<event>
 5   0  0.1270613E-04  0.2379244E+04  0.7818609E-02  0.8447315E-01
        2   -1    0    0  501    0  0.00000000000E+00  0.00000000000E+00  0.81206923735E+03  0.81206923735E+03  0.25500000920E-02 0. -1.
       -2   -1    0    0    0  501  0.00000000000E+00  0.00000000000E+00 -0.17427095322E+04  0.17427095322E+04  0.25500000920E-02 0.  1.
    10030    2    1    2    0    0  0.00000000000E+00  0.00000000000E+00 -0.93064029483E+03  0.25547787695E+04  0.23792442504E+04 0.  0.
        2    1    3    3  502    0  0.10172228465E+04  0.52390489445E+03 -0.11575299403E+03  0.11500510482E+04  0.25500000920E-02 0. -1.
       -2    1    3    3    0  502 -0.10172228465E+04 -0.52390489445E+03 -0.81488730080E+03  0.14047277213E+04  0.25500000920E-02 0.  1.
</event>
<event>
 5   0  0.1237296E-04  0.1340364E+04  0.7818609E-02  0.8998154E-01
       -2   -1    0    0    0  501  0.00000000000E+00  0.00000000000E+00  0.47357619829E+03  0.47357619829E+03  0.25500000920E-02 0. -1.
        2   -1    0    0  501    0  0.00000000000E+00  0.00000000000E+00 -0.94840953769E+03  0.94840953769E+03  0.25500000920E-02 0.  1.
    10030    2    1    2    0    0  0.00000000000E+00  0.00000000000E+00 -0.47483333940E+03  0.14219857360E+04  0.13403644031E+04 0.  0.
        1    1    3    3  502    0  0.41758664726E+03  0.43910662366E+03 -0.54111985459E+03  0.81240626042E+03  0.50400001928E-02 0.  1.
       -1    1    3    3    0  502 -0.41758664726E+03 -0.43910662366E+03  0.66286515183E+02  0.60957947557E+03  0.50400001928E-02 0. -1.
</event>
<event>
 5   0  0.1234988E-04  0.2262669E+04  0.7818609E-02  0.8492787E-01
       -2   -1    0    0    0  501  0.00000000000E+00  0.00000000000E+00  0.10993338837E+04  0.10993338837E+04  0.25500000920E-02 0.  1.
        2   -1    0    0  501    0  0.00000000000E+00  0.00000000000E+00 -0.11642669234E+04  0.11642669234E+04  0.25500000920E-02 0. -1.
    10030    2    1    2    0    0  0.00000000000E+00  0.00000000000E+00 -0.64933039617E+02  0.22636008071E+04  0.22626692896E+04 0.  0.
        5    1    3    3  502    0 -0.25163458645E+03  0.46613329159E+03 -0.10325258914E+04  0.11604878358E+04  0.46999998093E+01 0. -1.
       -5    1    3    3    0  502  0.25163458645E+03 -0.46613329159E+03  0.96759285179E+03  0.11031129713E+04  0.46999998093E+01 0.  1.
</event>
<event>
 5   0  0.5843670E-05  0.2267849E+04  0.7818609E-02  0.8490707E-01
        1   -1    0    0  501    0  0.00000000000E+00  0.00000000000E+00  0.52627253217E+03  0.52627253219E+03  0.50400001928E-02 0.  1.
       -1   -1    0    0    0  501  0.00000000000E+00  0.00000000000E+00 -0.24431920165E+04  0.24431920165E+04  0.50400001928E-02 0. -1.
    10030    2    1    2    0    0  0.00000000000E+00  0.00000000000E+00 -0.19169194844E+04  0.29694645487E+04  0.22678490683E+04 0.  0.
        2    1    3    3  502    0  0.10884495406E+04  0.30541800078E+03 -0.10739692531E+04  0.15592987252E+04  0.25500000920E-02 0. -1.
       -2    1    3    3    0  502 -0.10884495406E+04 -0.30541800078E+03 -0.84295023122E+03  0.14101658236E+04  0.25500000920E-02 0.  1.
</event>
<event>
 5   0  0.5632156E-05  0.2282474E+04  0.7818609E-02  0.8484863E-01
       -1   -1    0    0    0  501  0.00000000000E+00  0.00000000000E+00  0.90438182606E+03  0.90438182607E+03  0.50400001928E-02 0.  1.
        1   -1    0    0  501    0  0.00000000000E+00  0.00000000000E+00 -0.14401242489E+04  0.14401242489E+04  0.50400001928E-02 0. -1.
    10030    2    1    2    0    0  0.00000000000E+00  0.00000000000E+00 -0.53574242282E+03  0.23445060750E+04  0.22824742697E+04 0.  0.
        4    1    3    3  502    0 -0.68577845337E+03  0.42844814271E+03 -0.10950907467E+04  0.13612807405E+04  0.12699999809E+01 0. -1.
       -4    1    3    3    0  502  0.68577845337E+03 -0.42844814271E+03  0.55934832383E+03  0.98322533448E+03  0.12699999809E+01 0.  1.
</event>
<event>
 5   0  0.1281432E-04  0.2338097E+04  0.7818609E-02  0.8463050E-01
        2   -1    0    0  501    0  0.00000000000E+00  0.00000000000E+00  0.13772353246E+04  0.13772353246E+04  0.25500000920E-02 0.  1.
       -2   -1    0    0    0  501  0.00000000000E+00  0.00000000000E+00 -0.99233165301E+03  0.99233165302E+03  0.25500000920E-02 0. -1.
    10030    2    1    2    0    0  0.00000000000E+00  0.00000000000E+00  0.38490367156E+03  0.23695669776E+04  0.23380968382E+04 0.  0.
        4    1    3    3  502    0 -0.70372067504E+03 -0.48468045885E+03 -0.61611797396E+03  0.10534424077E+04  0.12699999809E+01 0. -1.
       -4    1    3    3    0  502  0.70372067504E+03  0.48468045885E+03  0.10010216455E+04  0.13161245699E+04  0.12699999809E+01 0.  1.
</event>
<event>
 5   0  0.1257524E-04  0.2270967E+04  0.7818609E-02  0.8489457E-01
       -2   -1    0    0    0  501  0.00000000000E+00  0.00000000000E+00  0.13931823618E+04  0.13931823618E+04  0.25500000920E-02 0. -1.
        2   -1    0    0  501    0  0.00000000000E+00  0.00000000000E+00 -0.92545129802E+03  0.92545129802E+03  0.25500000920E-02 0.  1.
    10030    2    1    2    0    0  0.00000000000E+00  0.00000000000E+00  0.46773106381E+03  0.23186336598E+04  0.22709666886E+04 0.  0.
        3    1    3    3  502    0 -0.18183714122E+02 -0.78519105791E+03  0.10711186752E+04  0.13282134134E+04  0.10100000352E+00 0. -1.
       -3    1    3    3    0  502  0.18183714122E+02  0.78519105791E+03 -0.60338761138E+03  0.99042024649E+03  0.10100000352E+00 0.  1.
</event>
<event>
 5   0  0.5642466E-05  0.1271273E+04  0.7818609E-02  0.9052661E-01
       -1   -1    0    0    0  501  0.00000000000E+00  0.00000000000E+00  0.45213398623E+03  0.45213398625E+03  0.50400001928E-02 0. -1.
        1   -1    0    0  501    0  0.00000000000E+00  0.00000000000E+00 -0.89361542498E+03  0.89361542499E+03  0.50400001928E-02 0.  1.
    10030    2    1    2    0    0  0.00000000000E+00  0.00000000000E+00 -0.44148143875E+03  0.13457494112E+04  0.12712732268E+04 0.  0.
        1    1    3    3  502    0 -0.16636773414E+03 -0.28432560470E+03 -0.79620025669E+03  0.86165777501E+03  0.50400001928E-02 0.  1.
       -1    1    3    3    0  502  0.16636773414E+03  0.28432560470E+03  0.35471881794E+03  0.48409163624E+03  0.50400001928E-02 0. -1.
</event>
<event>
 5   0  0.5642466E-05  0.2410795E+04  0.7818609E-02  0.8435473E-01
       -1   -1    0    0    0  501  0.00000000000E+00  0.00000000000E+00  0.15820737130E+04  0.15820737130E+04  0.50400001928E-02 0.  1.
        1   -1    0    0  501    0  0.00000000000E+00  0.00000000000E+00 -0.91840445086E+03  0.91840445087E+03  0.50400001928E-02 0. -1.
    10030    2    1    2    0    0  0.00000000000E+00  0.00000000000E+00  0.66366926214E+03  0.25004781639E+04  0.24107953373E+04 0.  0.
        1    1    3    3  502    0  0.70205477556E+03 -0.55416788829E+03  0.11699803056E+04  0.14726971419E+04  0.50400001928E-02 0.  1.
       -1    1    3    3    0  502 -0.70205477556E+03  0.55416788829E+03 -0.50631104348E+03  0.10277810219E+04  0.50400001928E-02 0. -1.
</event>
<event>
 5   0  0.5843670E-05  0.2264971E+04  0.7818609E-02  0.8491862E-01
        1   -1    0    0  501    0  0.00000000000E+00  0.00000000000E+00  0.15059716620E+04  0.15059716621E+04  0.50400001928E-02 0. -1.
       -1   -1    0    0    0  501  0.00000000000E+00  0.00000000000E+00 -0.85162519400E+03  0.85162519402E+03  0.50400001928E-02 0.  1.
    10030    2    1    2    0    0  0.00000000000E+00  0.00000000000E+00  0.65434646804E+03  0.23575968561E+04  0.22649710010E+04 0.  0.
        2    1    3    3  502    0  0.31268188939E+03  0.27465187666E+03 -0.76914156940E+03  0.87451836521E+03  0.25500000920E-02 0.  1.
       -2    1    3    3    0  502 -0.31268188939E+03 -0.27465187666E+03  0.14234880374E+04  0.14830784909E+04  0.25500000920E-02 0. -1.
</event>
<event>
 5   0  0.5843670E-05  0.2209901E+04  0.7818609E-02  0.8514318E-01
       -1   -1    0    0    0  501  0.00000000000E+00  0.00000000000E+00  0.12358455496E+04  0.12358455496E+04  0.50400001928E-02 0. -1.
        1   -1    0    0  501    0  0.00000000000E+00  0.00000000000E+00 -0.98791952959E+03  0.98791952960E+03  0.50400001928E-02 0.  1.
    10030    2    1    2    0    0  0.00000000000E+00  0.00000000000E+00  0.24792601996E+03  0.22237650792E+04  0.22099013136E+04 0.  0.
        2    1    3    3  502    0  0.16480597995E+02  0.11006737035E+04  0.27645541241E+02  0.11011441721E+04  0.25500000920E-02 0.  1.
       -2    1    3    3    0  502 -0.16480597995E+02 -0.11006737035E+04  0.22028047872E+03  0.11226209071E+04  0.25500000920E-02 0. -1.
</event>
<event>
 5   0  0.1234988E-04  0.2024301E+04  0.7818609E-02  0.8595343E-01
        2   -1    0    0  501    0  0.00000000000E+00  0.00000000000E+00  0.16438789071E+04  0.16438789071E+04  0.25500000920E-02 0.  1.
       -2   -1    0    0    0  501  0.00000000000E+00  0.00000000000E+00 -0.62318997827E+03  0.62318997828E+03  0.25500000920E-02 0. -1.
    10030    2    1    2    0    0  0.00000000000E+00  0.00000000000E+00  0.10206889288E+04  0.22670688853E+04  0.20243012230E+04 0.  0.
        5    1    3    3  502    0  0.39708803790E+03  0.62369655058E+02  0.15506459423E+04  0.16019031843E+04  0.46999998093E+01 0.  1.
       -5    1    3    3    0  502 -0.39708803790E+03 -0.62369655058E+02 -0.52995701346E+03  0.66516570103E+03  0.46999998093E+01 0. -1.
</event>
<event>
 5   0  0.5924654E-05  0.2347874E+04  0.7818609E-02  0.8459281E-01
        1   -1    0    0  501    0  0.00000000000E+00  0.00000000000E+00  0.16001893072E+04  0.16001893072E+04  0.50400001928E-02 0.  1.
       -1   -1    0    0    0  501  0.00000000000E+00  0.00000000000E+00 -0.86122835621E+03  0.86122835622E+03  0.50400001928E-02 0. -1.
    10030    2    1    2    0    0  0.00000000000E+00  0.00000000000E+00  0.73896095097E+03  0.24614176634E+04  0.23478742783E+04 0.  0.
        5    1    3    3  502    0  0.54880958564E+03 -0.22488637891E+03 -0.69259700935E+03  0.91185445772E+03  0.46999998093E+01 0. -1.
       -5    1    3    3    0  502 -0.54880958564E+03  0.22488637891E+03  0.14315579603E+04  0.15495632057E+04  0.46999998093E+01 0.  1.
</event>
<event>
 5   0  0.5663790E-05  0.2310129E+04  0.7818609E-02  0.8473938E-01
       -1   -1    0    0    0  501  0.00000000000E+00  0.00000000000E+00  0.12689255865E+04  0.12689255865E+04  0.50400001928E-02 0.  1.
        1   -1    0    0  501    0  0.00000000000E+00  0.00000000000E+00 -0.10514197721E+04  0.10514197721E+04  0.50400001928E-02 0. -1.
    10030    2    1    2    0    0  0.00000000000E+00  0.00000000000E+00  0.21750581435E+03  0.23203453586E+04  0.23101285254E+04 0.  0.
        3    1    3    3  502    0 -0.90419178175E+03  0.18182176518E+03  0.80720698639E+03  0.12256447534E+04  0.10100000352E+00 0.  1.
       -3    1    3    3    0  502  0.90419178175E+03 -0.18182176518E+03 -0.58970117204E+03  0.10947006052E+04  0.10100000352E+00 0. -1.
</event>
<event>
 5   0  0.5663790E-05  0.2454087E+04  0.7818609E-02  0.8419527E-01
       -1   -1    0    0    0  501  0.00000000000E+00  0.00000000000E+00  0.17957336343E+04  0.17957336343E+04  0.50400001928E-02 0.  1.
        1   -1    0    0  501    0  0.00000000000E+00  0.00000000000E+00 -0.83845141838E+03  0.83845141839E+03  0.50400001928E-02 0. -1.
    10030    2    1    2    0    0  0.00000000000E+00  0.00000000000E+00  0.95728221589E+03  0.26341850527E+04  0.24540867244E+04 0.  0.
        3    1    3    3  502    0 -0.25601458671E+03  0.73048437830E+03  0.15006073915E+04  0.16884825877E+04  0.10100000352E+00 0.  1.
       -3    1    3    3    0  502  0.25601458671E+03 -0.73048437830E+03 -0.54332517558E+03  0.94570246493E+03  0.10100000352E+00 0. -1.
</event>
<event>
 5   0  0.5632156E-05  0.2335607E+04  0.7818609E-02  0.8464013E-01
        1   -1    0    0  501    0  0.00000000000E+00  0.00000000000E+00  0.17968489037E+04  0.17968489037E+04  0.50400001928E-02 0.  1.
       -1   -1    0    0    0  501  0.00000000000E+00  0.00000000000E+00 -0.75897577663E+03  0.75897577664E+03  0.50400001928E-02 0. -1.
    10030    2    1    2    0    0  0.00000000000E+00  0.00000000000E+00  0.10378731271E+04  0.25558246804E+04  0.23356068096E+04 0.  0.
        4    1    3    3  502    0  0.96790592602E+03  0.64815123546E+03  0.60931484176E+03  0.13146132872E+04  0.12699999809E+01 0.  1.
       -4    1    3    3    0  502 -0.96790592602E+03 -0.64815123546E+03  0.42855828534E+03  0.12412113932E+04  0.12699999809E+01 0. -1.
</event>
<event>
 5   0  0.1270613E-04  0.2271355E+04  0.7818609E-02  0.8489302E-01
        2   -1    0    0  501    0  0.00000000000E+00  0.00000000000E+00  0.15472896003E+04  0.15472896003E+04  0.25500000920E-02 0.  1.
       -2   -1    0    0    0  501  0.00000000000E+00  0.00000000000E+00 -0.83356300955E+03  0.83356300956E+03  0.25500000920E-02 0. -1.
    10030    2    1    2    0    0  0.00000000000E+00  0.00000000000E+00  0.71372659070E+03  0.23808526098E+04  0.22713549928E+04 0.  0.
        2    1    3    3  502    0 -0.57142221158E+03 -0.19005151266E+03 -0.65242578839E+03  0.88786391452E+03  0.25500000920E-02 0. -1.
       -2    1    3    3    0  502  0.57142221158E+03  0.19005151266E+03  0.13661523791E+04  0.14929886953E+04  0.25500000920E-02 0.  1.
</event>
<event>
 5   0  0.1237296E-04  0.2317288E+04  0.7818609E-02  0.8471136E-01
        2   -1    0    0  501    0  0.00000000000E+00  0.00000000000E+00  0.22226026378E+04  0.22226026378E+04  0.25500000920E-02 0. -1.
       -2   -1    0    0    0  501  0.00000000000E+00  0.00000000000E+00 -0.60400172962E+03  0.60400172963E+03  0.25500000920E-02 0.  1.
    10030    2    1    2    0    0  0.00000000000E+00  0.00000000000E+00  0.16186009081E+04  0.28266043674E+04  0.23172879299E+04 0.  0.
        1    1    3    3  502    0  0.28901833471E+03 -0.14242486499E+03  0.21668555706E+04  0.21906801464E+04  0.50400001928E-02 0. -1.
       -1    1    3    3    0  502 -0.28901833471E+03  0.14242486499E+03 -0.54825466244E+03  0.63592422102E+03  0.50400001928E-02 0.  1.
</event>
<event>
 5   0  0.5924654E-05  0.2194869E+04  0.7818609E-02  0.8520567E-01
        1   -1    0    0  501    0  0.00000000000E+00  0.00000000000E+00  0.96165447946E+03  0.96165447948E+03  0.50400001928E-02 0. -1.
       -1   -1    0    0    0  501  0.00000000000E+00  0.00000000000E+00 -0.12523856419E+04  0.12523856419E+04  0.50400001928E-02 0.  1.
    10030    2    1    2    0    0  0.00000000000E+00  0.00000000000E+00 -0.29073116246E+03  0.22140401214E+04  0.21948688003E+04 0.  0.
        5    1    3    3  502    0  0.12867019519E+03  0.10880592909E+04 -0.20845088640E+03  0.11153039504E+04  0.46999998093E+01 0.  1.
       -5    1    3    3    0  502 -0.12867019519E+03 -0.10880592909E+04 -0.82280276060E+02  0.10987361710E+04  0.46999998093E+01 0. -1.
</event>
<event>
 5   0  0.5843670E-05  0.2318214E+04  0.7818609E-02  0.8470774E-01
       -1   -1    0    0    0  501  0.00000000000E+00  0.00000000000E+00  0.59879616999E+03  0.59879617002E+03  0.50400001928E-02 0.  1.
        1   -1    0    0  501    0  0.00000000000E+00  0.00000000000E+00 -0.22437171968E+04  0.22437171968E+04  0.50400001928E-02 0. -1.
    10030    2    1    2    0    0  0.00000000000E+00  0.00000000000E+00 -0.16449210268E+04  0.28425133669E+04  0.23182141955E+04 0.  0.
        2    1    3    3  502    0  0.46761399623E+03  0.76403870324E+03 -0.17244308318E+04  0.19432137513E+04  0.25500000920E-02 0. -1.
       -2    1    3    3    0  502 -0.46761399623E+03 -0.76403870324E+03  0.79509804939E+02  0.89929961559E+03  0.25500000920E-02 0.  1.
</event>
<event>
 5   0  0.5663790E-05  0.2372430E+04  0.7818609E-02  0.8449898E-01
        1   -1    0    0  501    0  0.00000000000E+00  0.00000000000E+00  0.10785965164E+04  0.10785965164E+04  0.50400001928E-02 0.  1.
       -1   -1    0    0    0  501  0.00000000000E+00  0.00000000000E+00 -0.13045716181E+04  0.13045716181E+04  0.50400001928E-02 0. -1.
    10030    2    1    2    0    0  0.00000000000E+00  0.00000000000E+00 -0.22597510173E+03  0.23831681345E+04  0.23724303173E+04 0.  0.
        3    1    3    3  502    0  0.69727775443E+02 -0.71740902982E+03 -0.10593602659E+04  0.12813203588E+04  0.10100000352E+00 0. -1.
       -3    1    3    3    0  502 -0.69727775443E+02  0.71740902982E+03  0.83338516415E+03  0.11018477757E+04  0.10100000352E+00 0.  1.
</event>
<event>
 5   0  0.1270613E-04  0.2332862E+04  0.7818609E-02  0.8465075E-01
       -2   -1    0    0    0  501  0.00000000000E+00  0.00000000000E+00  0.15449381098E+04  0.15449381098E+04  0.25500000920E-02 0.  1.
        2   -1    0    0  501    0  0.00000000000E+00  0.00000000000E+00 -0.88065783700E+03  0.88065783700E+03  0.25500000920E-02 0. -1.
    10030    2    1    2    0    0  0.00000000000E+00  0.00000000000E+00  0.66428027281E+03  0.24255959468E+04  0.23328624941E+04 0.  0.
        2    1    3    3  502    0  0.73654638276E+03  0.84879187614E+03  0.65699139334E+03  0.13017626181E+04  0.25500000920E-02 0.  1.
       -2    1    3    3    0  502 -0.73654638276E+03 -0.84879187614E+03  0.72888794706E+01  0.11238333287E+04  0.25500000920E-02 0. -1.
</event>
<event>
 5   0  0.1237296E-04  0.2320733E+04  0.7818609E-02  0.8469791E-01
        2   -1    0    0  501    0  0.00000000000E+00  0.00000000000E+00  0.76004527334E+03  0.76004527334E+03  0.25500000920E-02 0. -1.
       -2   -1    0    0    0  501  0.00000000000E+00  0.00000000000E+00 -0.17715392844E+04  0.17715392844E+04  0.25500000920E-02 0.  1.
    10030    2    1    2    0    0  0.00000000000E+00  0.00000000000E+00 -0.10114940111E+04  0.25315845577E+04  0.23207326943E+04 0.  0.
        1    1    3    3  502    0  0.42309522603E+03 -0.10194379828E+04 -0.11518608860E+03  0.11097437569E+04  0.50400001928E-02 0. -1.
       -1    1    3    3    0  502 -0.42309522603E+03  0.10194379828E+04 -0.89630792246E+03  0.14218408008E+04  0.50400001928E-02 0.  1.
</event>
<event>
 5   0  0.5642466E-05  0.2352425E+04  0.7818609E-02  0.8457533E-01
        1   -1    0    0  501    0  0.00000000000E+00  0.00000000000E+00  0.10689771446E+04  0.10689771446E+04  0.50400001928E-02 0.  1.
       -1   -1    0    0    0  501  0.00000000000E+00  0.00000000000E+00 -0.12942048987E+04  0.12942048987E+04  0.50400001928E-02 0. -1.
    10030    2    1    2    0    0  0.00000000000E+00  0.00000000000E+00 -0.22522775411E+03  0.23631820433E+04  0.23524246701E+04 0.  0.
        1    1    3    3  502    0 -0.76439827494E+03  0.37387215167E+03  0.70312797733E+03  0.11038451255E+04  0.50400001928E-02 0.  1.
       -1    1    3    3    0  502  0.76439827494E+03 -0.37387215167E+03 -0.92835573145E+03  0.12593369178E+04  0.50400001928E-02 0. -1.
</event>
<event>
 5   0  0.1270613E-04  0.2413181E+04  0.7818609E-02  0.8434585E-01
        2   -1    0    0  501    0  0.00000000000E+00  0.00000000000E+00  0.14838238431E+04  0.14838238431E+04  0.25500000920E-02 0.  1.
       -2   -1    0    0    0  501  0.00000000000E+00  0.00000000000E+00 -0.98115456854E+03  0.98115456854E+03  0.25500000920E-02 0. -1.
    10030    2    1    2    0    0  0.00000000000E+00  0.00000000000E+00  0.50266927457E+03  0.24649784117E+04  0.24131809237E+04 0.  0.
        2    1    3    3  502    0 -0.66575797742E+02 -0.42026057147E+03  0.14046440616E+04  0.14676771527E+04  0.25500000920E-02 0.  1.
       -2    1    3    3    0  502  0.66575797742E+02  0.42026057147E+03 -0.90197478700E+03  0.99730125898E+03  0.25500000920E-02 0. -1.
</event>
<event>
 5   0  0.5632156E-05  0.2307104E+04  0.7818609E-02  0.8475125E-01
        1   -1    0    0  501    0  0.00000000000E+00  0.00000000000E+00  0.12976209948E+04  0.12976209948E+04  0.50400001928E-02 0. -1.
       -1   -1    0    0    0  501  0.00000000000E+00  0.00000000000E+00 -0.10254782677E+04  0.10254782677E+04  0.50400001928E-02 0.  1.
    10030    2    1    2    0    0  0.00000000000E+00  0.00000000000E+00  0.27214272711E+03  0.23230992625E+04  0.23071039247E+04 0.  0.
        4    1    3    3  502    0  0.29779663612E+03  0.87646248899E+03 -0.55704039025E+03  0.10803540810E+04  0.12699999809E+01 0.  1.
       -4    1    3    3    0  502 -0.29779663612E+03 -0.87646248899E+03  0.82918311737E+03  0.12427451815E+04  0.12699999809E+01 0. -1.
</event>
<event>
 5   0  0.4489500E-05  0.2268948E+04  0.7818609E-02  0.8490266E-01
       -3   -1    0    0    0  501  0.00000000000E+00  0.00000000000E+00  0.81942555301E+03  0.81942555923E+03  0.10100000352E+00 0.  1.
        3   -1    0    0  501    0  0.00000000000E+00  0.00000000000E+00 -0.15706505530E+04  0.15706505562E+04  0.10100000352E+00 0. -1.
    10030    2    1    2    0    0  0.00000000000E+00  0.00000000000E+00 -0.75122499995E+03  0.23900761154E+04  0.22689479582E+04 0.  0.
        5    1    3    3  502    0 -0.43045126138E+02 -0.11334115081E+04 -0.35125697420E+03  0.11873828706E+04  0.46999998093E+01 0.  1.
       -5    1    3    3    0  502  0.43045126138E+02  0.11334115081E+04 -0.39996802575E+03  0.12026932448E+04  0.46999998093E+01 0. -1.
</event>
<event>
 5   0  0.5663790E-05  0.2324249E+04  0.7818609E-02  0.8468421E-01
        1   -1    0    0  501    0  0.00000000000E+00  0.00000000000E+00  0.72697527401E+03  0.72697527402E+03  0.50400001928E-02 0. -1.
       -1   -1    0    0    0  501  0.00000000000E+00  0.00000000000E+00 -0.18577426321E+04  0.18577426321E+04  0.50400001928E-02 0.  1.
    10030    2    1    2    0    0  0.00000000000E+00  0.00000000000E+00 -0.11307673581E+04  0.25847179061E+04  0.23242486606E+04 0.  0.
        3    1    3    3  502    0 -0.81358267204E+03 -0.60540995025E+03 -0.11965190759E+04  0.15684692797E+04  0.10100000352E+00 0.  1.
       -3    1    3    3    0  502  0.81358267204E+03  0.60540995025E+03  0.65751717835E+02  0.10162486264E+04  0.10100000352E+00 0. -1.
</event>
<event>
 5   0  0.1234988E-04  0.2220153E+04  0.7818609E-02  0.8510087E-01
       -2   -1    0    0    0  501  0.00000000000E+00  0.00000000000E+00  0.13560166876E+04  0.13560166877E+04  0.25500000920E-02 0. -1.
        2   -1    0    0  501    0  0.00000000000E+00  0.00000000000E+00 -0.90874229926E+03  0.90874229926E+03  0.25500000920E-02 0.  1.
    10030    2    1    2    0    0  0.00000000000E+00  0.00000000000E+00  0.44727438839E+03  0.22647589869E+04  0.22201528980E+04 0.  0.
        5    1    3    3  502    0  0.35014546962E+02  0.21627902754E+03 -0.88645714067E+03  0.91314346545E+03  0.46999998093E+01 0.  1.
       -5    1    3    3    0  502 -0.35014546962E+02 -0.21627902754E+03  0.13337315291E+04  0.13516155215E+04  0.46999998093E+01 0. -1.
</event>
<event>
 5   0  0.1270613E-04  0.2407093E+04  0.7818609E-02  0.8436853E-01
        2   -1    0    0  501    0  0.00000000000E+00  0.00000000000E+00  0.14574623199E+04  0.14574623199E+04  0.25500000920E-02 0.  1.
       -2   -1    0    0    0  501  0.00000000000E+00  0.00000000000E+00 -0.99386748222E+03  0.99386748222E+03  0.25500000920E-02 0. -1.
    10030    2    1    2    0    0  0.00000000000E+00  0.00000000000E+00  0.46359483764E+03  0.24513298021E+04  0.24070931899E+04 0.  0.
        2    1    3    3  502    0  0.89488179562E+03  0.54859942797E+03 -0.36787883804E+03  0.11122542875E+04  0.25500000920E-02 0. -1.
       -2    1    3    3    0  502 -0.89488179562E+03 -0.54859942797E+03  0.83147367568E+03  0.13390755146E+04  0.25500000920E-02 0.  1.
</event>
<event>
 5   0  0.5924654E-05  0.2318999E+04  0.7818609E-02  0.8470468E-01
       -1   -1    0    0    0  501  0.00000000000E+00  0.00000000000E+00  0.70378804286E+03  0.70378804288E+03  0.50400001928E-02 0. -1.
        1   -1    0    0  501    0  0.00000000000E+00  0.00000000000E+00 -0.19102889841E+04  0.19102889841E+04  0.50400001928E-02 0.  1.
    10030    2    1    2    0    0  0.00000000000E+00  0.00000000000E+00 -0.12065009413E+04  0.26140770270E+04  0.23189985299E+04 0.  0.
        5    1    3    3  502    0 -0.49594848512E+03 -0.55582895513E+03  0.39835237516E+03  0.84475880111E+03  0.46999998093E+01 0. -1.
       -5    1    3    3    0  502  0.49594848512E+03  0.55582895513E+03 -0.16048533164E+04  0.17693182259E+04  0.46999998093E+01 0.  1.
</event>
<event>
 5   0  0.5924654E-05  0.2116434E+04  0.7818609E-02  0.8554039E-01
        1   -1    0    0  501    0  0.00000000000E+00  0.00000000000E+00  0.15414334894E+04  0.15414334894E+04  0.50400001928E-02 0. -1.
       -1   -1    0    0    0  501  0.00000000000E+00  0.00000000000E+00 -0.72648136962E+03  0.72648136963E+03  0.50400001928E-02 0.  1.
    10030    2    1    2    0    0  0.00000000000E+00  0.00000000000E+00  0.81495211982E+03  0.22679148591E+04  0.21164335214E+04 0.  0.
        5    1    3    3  502    0  0.98591750637E+03 -0.12388124354E+03  0.17533978961E+02  0.99383571192E+03  0.46999998093E+01 0. -1.
       -5    1    3    3    0  502 -0.98591750637E+03  0.12388124354E+03  0.79741814086E+03  0.12740791472E+04  0.46999998093E+01 0.  1.
</event>
<event>
 5   0  0.5843670E-05  0.2065255E+04  0.7818609E-02  0.8576705E-01
       -1   -1    0    0    0  501  0.00000000000E+00  0.00000000000E+00  0.14461105697E+04  0.14461105697E+04  0.50400001928E-02 0.  1.
        1   -1    0    0  501    0  0.00000000000E+00  0.00000000000E+00 -0.73737070885E+03  0.73737070887E+03  0.50400001928E-02 0. -1.
    10030    2    1    2    0    0  0.00000000000E+00  0.00000000000E+00  0.70873986084E+03  0.21834812786E+04  0.20652550214E+04 0.  0.
        2    1    3    3  502    0  0.75812012228E+03 -0.55874575384E+03  0.80214377975E+03  0.12370843062E+04  0.25500000920E-02 0.  1.
       -2    1    3    3    0  502 -0.75812012228E+03  0.55874575384E+03 -0.93403918912E+02  0.94639697237E+03  0.25500000920E-02 0. -1.
</event>
<event>
 5   0  0.5642466E-05  0.2144146E+04  0.7818609E-02  0.8542042E-01
        1   -1    0    0  501    0  0.00000000000E+00  0.00000000000E+00  0.22916490923E+04  0.22916490923E+04  0.50400001928E-02 0.  1.
       -1   -1    0    0    0  501  0.00000000000E+00  0.00000000000E+00 -0.50153433568E+03  0.50153433571E+03  0.50400001928E-02 0. -1.
    10030    2    1    2    0    0  0.00000000000E+00  0.00000000000E+00  0.17901147566E+04  0.27931834280E+04  0.21441461752E+04 0.  0.
        1    1    3    3  502    0 -0.53248525927E+02  0.76278166667E+01 -0.49977519269E+03  0.50266174746E+03  0.50400001928E-02 0. -1.
       -1    1    3    3    0  502  0.53248525927E+02 -0.76278166667E+01  0.22898899493E+04  0.22905216805E+04  0.50400001928E-02 0.  1.
</event>
<event>
 5   0  0.1270613E-04  0.2209974E+04  0.7818609E-02  0.8514288E-01
        2   -1    0    0  501    0  0.00000000000E+00  0.00000000000E+00  0.11362387943E+04  0.11362387943E+04  0.25500000920E-02 0. -1.
       -2   -1    0    0    0  501  0.00000000000E+00  0.00000000000E+00 -0.10745948940E+04  0.10745948940E+04  0.25500000920E-02 0.  1.
    10030    2    1    2    0    0  0.00000000000E+00  0.00000000000E+00  0.61643900287E+02  0.22108336882E+04  0.22099741235E+04 0.  0.
        2    1    3    3  502    0  0.70419646126E+03 -0.73678226290E+03 -0.39625819587E+03  0.10935087182E+04  0.25500000920E-02 0.  1.
       -2    1    3    3    0  502 -0.70419646126E+03  0.73678226290E+03  0.45790209616E+03  0.11173249700E+04  0.25500000920E-02 0. -1.
</event>
<event>
 5   0  0.5642466E-05  0.2293408E+04  0.7818609E-02  0.8480525E-01
       -1   -1    0    0    0  501  0.00000000000E+00  0.00000000000E+00  0.95781989860E+03  0.95781989861E+03  0.50400001928E-02 0.  1.
        1   -1    0    0  501    0  0.00000000000E+00  0.00000000000E+00 -0.13728368127E+04  0.13728368127E+04  0.50400001928E-02 0. -1.
    10030    2    1    2    0    0  0.00000000000E+00  0.00000000000E+00 -0.41501691412E+03  0.23306567114E+04  0.22934083080E+04 0.  0.
        1    1    3    3  502    0 -0.98416135493E+03  0.21974054522E+03 -0.76233438072E+03  0.12641254636E+04  0.50400001928E-02 0.  1.
       -1    1    3    3    0  502  0.98416135493E+03 -0.21974054522E+03  0.34731746659E+03  0.10665312477E+04  0.50400001928E-02 0. -1.
</event>
<event>
 5   0  0.1234988E-04  0.1788486E+04  0.7818609E-02  0.8712447E-01
       -2   -1    0    0    0  501  0.00000000000E+00  0.00000000000E+00  0.58782293323E+03  0.58782293323E+03  0.25500000920E-02 0. -1.
        2   -1    0    0  501    0  0.00000000000E+00  0.00000000000E+00 -0.13603934268E+04  0.13603934268E+04  0.25500000920E-02 0.  1.
    10030    2    1    2    0    0  0.00000000000E+00  0.00000000000E+00 -0.77257049359E+03  0.19482163601E+04  0.17884859010E+04 0.  0.
        5    1    3    3  502    0  0.73962047156E+02  0.23807037521E+03  0.54919111460E+03  0.60314248593E+03  0.46999998093E+01 0. -1.
       -5    1    3    3    0  502 -0.73962047156E+02 -0.23807037521E+03 -0.13217616082E+04  0.13450738741E+04  0.46999998093E+01 0.  1.
</event>
<event>
 5   0  0.5663790E-05  0.2311834E+04  0.7818609E-02  0.8473270E-01
        1   -1    0    0  501    0  0.00000000000E+00  0.00000000000E+00  0.14589085038E+04  0.14589085038E+04  0.50400001928E-02 0. -1.
       -1   -1    0    0    0  501  0.00000000000E+00  0.00000000000E+00 -0.91585160036E+03  0.91585160038E+03  0.50400001928E-02 0.  1.
    10030    2    1    2    0    0  0.00000000000E+00  0.00000000000E+00  0.54305690344E+03  0.23747601042E+04  0.23118336342E+04 0.  0.
        3    1    3    3  502    0 -0.25906551502E+03  0.16714410346E+03  0.14158948095E+04  0.14490721908E+04  0.10100000352E+00 0. -1.
       -3    1    3    3    0  502  0.25906551502E+03 -0.16714410346E+03 -0.87283790610E+03  0.92568791335E+03  0.10100000352E+00 0.  1.
</event>
<event>
 5   0  0.5924654E-05  0.2281223E+04  0.7818609E-02  0.8485362E-01
        1   -1    0    0  501    0  0.00000000000E+00  0.00000000000E+00  0.74505094015E+03  0.74505094017E+03  0.50400001928E-02 0.  1.
       -1   -1    0    0    0  501  0.00000000000E+00  0.00000000000E+00 -0.17461820385E+04  0.17461820385E+04  0.50400001928E-02 0. -1.
    10030    2    1    2    0    0  0.00000000000E+00  0.00000000000E+00 -0.10011310983E+04  0.24912329787E+04  0.22812229786E+04 0.  0.
        5    1    3    3  502    0 -0.94454514581E+03 -0.54845382501E+03 -0.14166903614E+03  0.11013897296E+04  0.46999998093E+01 0.  1.
       -5    1    3    3    0  502  0.94454514581E+03  0.54845382501E+03 -0.85946206220E+03  0.13898432491E+04  0.46999998093E+01 0. -1.
</event>
<event>
 5   0  0.5924654E-05  0.2295545E+04  0.7818609E-02  0.8479680E-01
        1   -1    0    0  501    0  0.00000000000E+00  0.00000000000E+00  0.18270910272E+04  0.18270910272E+04  0.50400001928E-02 0.  1.
       -1   -1    0    0    0  501  0.00000000000E+00  0.00000000000E+00 -0.72102679297E+03  0.72102679299E+03  0.50400001928E-02 0. -1.
    10030    2    1    2    0    0  0.00000000000E+00  0.00000000000E+00  0.11060642342E+04  0.25481178202E+04  0.22955448885E+04 0.  0.
        5    1    3    3  502    0 -0.95088477710E+03  0.69617918696E+02  0.12623483206E+04  0.15819525550E+04  0.46999998093E+01 0.  1.
       -5    1    3    3    0  502  0.95088477710E+03 -0.69617918696E+02 -0.15628408637E+03  0.96616526514E+03  0.46999998093E+01 0. -1.
</event>
<event>
 5   0  0.1270613E-04  0.2210972E+04  0.7818609E-02  0.8513875E-01
        2   -1    0    0  501    0  0.00000000000E+00  0.00000000000E+00  0.83664551978E+03  0.83664551978E+03  0.25500000920E-02 0. -1.
       -2   -1    0    0    0  501  0.00000000000E+00  0.00000000000E+00 -0.14607134835E+04  0.14607134835E+04  0.25500000920E-02 0.  1.
    10030    2    1    2    0    0  0.00000000000E+00  0.00000000000E+00 -0.62406796376E+03  0.22973590033E+04  0.22109720864E+04 0.  0.
        2    1    3    3  502    0  0.10207822385E+04 -0.92492687077E+02  0.11833264235E+03  0.10317722083E+04  0.25500000920E-02 0. -1.
       -2    1    3    3    0  502 -0.10207822385E+04  0.92492687077E+02 -0.74240060611E+03  0.12655867950E+04  0.25500000920E-02 0.  1.
</event>
<event>
 5   0  0.5924654E-05  0.2283103E+04  0.7818609E-02  0.8484613E-01
       -1   -1    0    0    0  501  0.00000000000E+00  0.00000000000E+00  0.80651115507E+03  0.80651115509E+03  0.50400001928E-02 0.  1.
        1   -1    0    0  501    0  0.00000000000E+00  0.00000000000E+00 -0.16157742945E+04  0.16157742945E+04  0.50400001928E-02 0. -1.
    10030    2    1    2    0    0  0.00000000000E+00  0.00000000000E+00 -0.80926313947E+03  0.24222854496E+04  0.22831031450E+04 0.  0.
        5    1    3    3  502    0  0.46825104079E+03  0.12472804731E+03  0.69196469966E+03  0.84478006519E+03  0.46999998093E+01 0.  1.
       -5    1    3    3    0  502 -0.46825104079E+03 -0.12472804731E+03 -0.15012278391E+04  0.15775053844E+04  0.46999998093E+01 0. -1.
</event>
<event>
 5   0  0.5642466E-05  0.2407295E+04  0.7818609E-02  0.8436778E-01
        1   -1    0    0  501    0  0.00000000000E+00  0.00000000000E+00  0.15518358594E+04  0.15518358595E+04  0.50400001928E-02 0.  1.
       -1   -1    0    0    0  501  0.00000000000E+00  0.00000000000E+00 -0.93358261953E+03  0.93358261955E+03  0.50400001928E-02 0. -1.
    10030    2    1    2    0    0  0.00000000000E+00  0.00000000000E+00  0.61825323992E+03  0.24854184790E+04  0.24072947362E+04 0.  0.
        1    1    3    3  502    0 -0.53825947225E+03 -0.72668558935E+03 -0.51098926762E+03  0.10387036328E+04  0.50400001928E-02 0. -1.
       -1    1    3    3    0  502  0.53825947225E+03  0.72668558935E+03  0.11292425075E+04  0.14467148462E+04  0.50400001928E-02 0.  1.
</event>
<event>
 5   0  0.1270613E-04  0.1270909E+04  0.7818609E-02  0.9052958E-01
        2   -1    0    0  501    0  0.00000000000E+00  0.00000000000E+00  0.11821415806E+04  0.11821415806E+04  0.25500000920E-02 0.  1.
       -2   -1    0    0    0  501  0.00000000000E+00  0.00000000000E+00 -0.34158570995E+03  0.34158570996E+03  0.25500000920E-02 0. -1.
    10030    2    1    2    0    0  0.00000000000E+00  0.00000000000E+00  0.84055587067E+03  0.15237272906E+04  0.12709093927E+04 0.  0.
        2    1    3    3  502    0  0.30598121208E+03  0.29328475886E+03 -0.14736320696E+03  0.44872749715E+03  0.25500000920E-02 0. -1.
       -2    1    3    3    0  502 -0.30598121208E+03 -0.29328475886E+03  0.98791907762E+03  0.10749997934E+04  0.25500000920E-02 0.  1.
</event>
<event>
 5   0  0.5843670E-05  0.2222913E+04  0.7818609E-02  0.8508951E-01
       -1   -1    0    0    0  501  0.00000000000E+00  0.00000000000E+00  0.83684123890E+03  0.83684123891E+03  0.50400001928E-02 0. -1.
        1   -1    0    0  501    0  0.00000000000E+00  0.00000000000E+00 -0.14761884751E+04  0.14761884751E+04  0.50400001928E-02 0.  1.
    10030    2    1    2    0    0  0.00000000000E+00  0.00000000000E+00 -0.63934723620E+03  0.23130297140E+04  0.22229128569E+04 0.  0.
        2    1    3    3  502    0 -0.47261544469E+03  0.90455586322E+03  0.13833979832E+03  0.10299148353E+04  0.25500000920E-02 0. -1.
       -2    1    3    3    0  502  0.47261544469E+03 -0.90455586322E+03 -0.77768703452E+03  0.12831148787E+04  0.25500000920E-02 0.  1.
</event>
<event>
 5   0  0.5843670E-05  0.1718508E+04  0.7818609E-02  0.8750878E-01
        1   -1    0    0  501    0  0.00000000000E+00  0.00000000000E+00  0.57036127014E+03  0.57036127016E+03  0.50400001928E-02 0.  1.
       -1   -1    0    0    0  501  0.00000000000E+00  0.00000000000E+00 -0.12944735746E+04  0.12944735746E+04  0.50400001928E-02 0. -1.
    10030    2    1    2    0    0  0.00000000000E+00  0.00000000000E+00 -0.72411230450E+03  0.18648348448E+04  0.17185081812E+04 0.  0.
        2    1    3    3  502    0  0.31546276774E+03 -0.88981105231E+02 -0.12239687965E+04  0.12670966852E+04  0.25500000920E-02 0. -1.
       -2    1    3    3    0  502 -0.31546276774E+03  0.88981105231E+02  0.49985649195E+03  0.59773815962E+03  0.25500000920E-02 0.  1.
</event>
<event>
 5   0  0.5632156E-05  0.1361403E+04  0.7818609E-02  0.8982241E-01
        1   -1    0    0  501    0  0.00000000000E+00  0.00000000000E+00  0.81538197945E+03  0.81538197947E+03  0.50400001928E-02 0.  1.
       -1   -1    0    0    0  501  0.00000000000E+00  0.00000000000E+00 -0.56826666694E+03  0.56826666697E+03  0.50400001928E-02 0. -1.
    10030    2    1    2    0    0  0.00000000000E+00  0.00000000000E+00  0.24711531251E+03  0.13836486464E+04  0.13614028056E+04 0.  0.
        4    1    3    3  502    0 -0.50379301257E+03 -0.45771611089E+03  0.11702224847E+03  0.69065711987E+03  0.12699999809E+01 0. -1.
       -4    1    3    3    0  502  0.50379301257E+03  0.45771611089E+03  0.13009306404E+03  0.69299152657E+03  0.12699999809E+01 0.  1.
</event>
<event>
 5   0  0.5632156E-05  0.1507932E+04  0.7818609E-02  0.8879196E-01
        1   -1    0    0  501    0  0.00000000000E+00  0.00000000000E+00  0.68118085372E+03  0.68118085374E+03  0.50400001928E-02 0.  1.
       -1   -1    0    0    0  501  0.00000000000E+00  0.00000000000E+00 -0.83452802250E+03  0.83452802251E+03  0.50400001928E-02 0. -1.
    10030    2    1    2    0    0  0.00000000000E+00  0.00000000000E+00 -0.15334716878E+03  0.15157088762E+04  0.15079317104E+04 0.  0.
        4    1    3    3  502    0 -0.59885709715E+02 -0.74270675396E+03 -0.19243385814E+03  0.76956612664E+03  0.12699999809E+01 0.  1.
       -4    1    3    3    0  502  0.59885709715E+02  0.74270675396E+03  0.39086689358E+02  0.74614274961E+03  0.12699999809E+01 0. -1.
</event>
<event>
 5   0  0.5924654E-05  0.2332241E+04  0.7818609E-02  0.8465316E-01
        1   -1    0    0  501    0  0.00000000000E+00  0.00000000000E+00  0.11301560176E+04  0.11301560176E+04  0.50400001928E-02 0. -1.
       -1   -1    0    0    0  501  0.00000000000E+00  0.00000000000E+00 -0.12032293609E+04  0.12032293609E+04  0.50400001928E-02 0.  1.
    10030    2    1    2    0    0  0.00000000000E+00  0.00000000000E+00 -0.73073343295E+02  0.23333853785E+04  0.23322408990E+04 0.  0.
        5    1    3    3  502    0 -0.24872926642E+03  0.11209437567E+04 -0.24018915464E+03  0.11730703617E+04  0.46999998093E+01 0. -1.
       -5    1    3    3    0  502  0.24872926642E+03 -0.11209437567E+04  0.16711581135E+03  0.11603150167E+04  0.46999998093E+01 0.  1.
</event>
<event>
 5   0  0.5663790E-05  0.2244326E+04  0.7818609E-02  0.8500202E-01
        1   -1    0    0  501    0  0.00000000000E+00  0.00000000000E+00  0.14288061685E+04  0.14288061685E+04  0.50400001928E-02 0.  1.
       -1   -1    0    0    0  501  0.00000000000E+00  0.00000000000E+00 -0.88132986509E+03  0.88132986510E+03  0.50400001928E-02 0. -1.
    10030    2    1    2    0    0  0.00000000000E+00  0.00000000000E+00  0.54747630340E+03  0.23101360336E+04  0.22443257765E+04 0.  0.
        3    1    3    3  502    0  0.77775590547E+03 -0.35540617427E+03 -0.47422752905E+03  0.97780854809E+03  0.10100000352E+00 0. -1.
       -3    1    3    3    0  502 -0.77775590547E+03  0.35540617427E+03  0.10217038324E+04  0.13323274855E+04  0.10100000352E+00 0.  1.
</event>
<event>
 5   0  0.1234988E-04  0.2319221E+04  0.7818609E-02  0.8470381E-01
        2   -1    0    0  501    0  0.00000000000E+00  0.00000000000E+00  0.14203439285E+04  0.14203439285E+04  0.25500000920E-02 0. -1.
       -2   -1    0    0    0  501  0.00000000000E+00  0.00000000000E+00 -0.94674016165E+03  0.94674016165E+03  0.25500000920E-02 0.  1.
    10030    2    1    2    0    0  0.00000000000E+00  0.00000000000E+00  0.47360376687E+03  0.23670840902E+04  0.23192211111E+04 0.  0.
        5    1    3    3  502    0 -0.86251320112E+03  0.34764520106E+03 -0.47023428537E+03  0.10420789706E+04  0.46999998093E+01 0.  1.
       -5    1    3    3    0  502  0.86251320112E+03 -0.34764520106E+03  0.94383805224E+03  0.13250051195E+04  0.46999998093E+01 0. -1.
</event>
<event>
 5   0  0.5924654E-05  0.2311800E+04  0.7818609E-02  0.8473283E-01
       -1   -1    0    0    0  501  0.00000000000E+00  0.00000000000E+00  0.84811051569E+03  0.84811051570E+03  0.50400001928E-02 0.  1.
        1   -1    0    0  501    0  0.00000000000E+00  0.00000000000E+00 -0.15753905939E+04  0.15753905939E+04  0.50400001928E-02 0. -1.
    10030    2    1    2    0    0  0.00000000000E+00  0.00000000000E+00 -0.72728007824E+03  0.24235011096E+04  0.23118004490E+04 0.  0.
        5    1    3    3  502    0 -0.89367162340E+03 -0.69386033414E+03 -0.61169977547E+03  0.12861919915E+04  0.46999998093E+01 0.  1.
       -5    1    3    3    0  502  0.89367162340E+03  0.69386033414E+03 -0.11558030278E+03  0.11373091181E+04  0.46999998093E+01 0. -1.
</event>
<event>
 5   0  0.1237296E-04  0.1351368E+04  0.7818609E-02  0.8989793E-01
        2   -1    0    0  501    0  0.00000000000E+00  0.00000000000E+00  0.12470842256E+04  0.12470842256E+04  0.25500000920E-02 0. -1.
       -2   -1    0    0    0  501  0.00000000000E+00  0.00000000000E+00 -0.36609283255E+03  0.36609283256E+03  0.25500000920E-02 0.  1.
    10030    2    1    2    0    0  0.00000000000E+00  0.00000000000E+00  0.88099139307E+03  0.16131770582E+04  0.13513675985E+04 0.  0.
        1    1    3    3  502    0  0.37563508693E+03 -0.11794832754E+03  0.10960028725E+04  0.11645753832E+04  0.50400001928E-02 0. -1.
       -1    1    3    3    0  502 -0.37563508693E+03  0.11794832754E+03 -0.21501147944E+03  0.44860167501E+03  0.50400001928E-02 0.  1.
</event>
<event>
 5   0  0.5663790E-05  0.2258862E+04  0.7818609E-02  0.8494320E-01
       -1   -1    0    0    0  501  0.00000000000E+00  0.00000000000E+00  0.14688445001E+04  0.14688445001E+04  0.50400001928E-02 0.  1.
        1   -1    0    0  501    0  0.00000000000E+00  0.00000000000E+00 -0.86844782386E+03  0.86844782387E+03  0.50400001928E-02 0. -1.
    10030    2    1    2    0    0  0.00000000000E+00  0.00000000000E+00  0.60039667628E+03  0.23372923240E+04  0.22588623772E+04 0.  0.
        3    1    3    3  502    0  0.54592384613E+03  0.66289934735E+03 -0.45885707912E+03  0.97366227191E+03  0.10100000352E+00 0. -1.
       -3    1    3    3    0  502 -0.54592384613E+03 -0.66289934735E+03  0.10592537554E+04  0.13636300521E+04  0.10100000352E+00 0.  1.
</event>
<event>
 5   0  0.5843670E-05  0.2559114E+04  0.7818609E-02  0.8382223E-01
        1   -1    0    0  501    0  0.00000000000E+00  0.00000000000E+00  0.11859925540E+04  0.11859925540E+04  0.50400001928E-02 0. -1.
       -1   -1    0    0    0  501  0.00000000000E+00  0.00000000000E+00 -0.13805033323E+04  0.13805033323E+04  0.50400001928E-02 0.  1.
    10030    2    1    2    0    0  0.00000000000E+00  0.00000000000E+00 -0.19451077822E+03  0.25664958863E+04  0.25591144350E+04 0.  0.
        2    1    3    3  502    0 -0.63365978563E+03 -0.36516743930E+03  0.95572291358E+03  0.12034443361E+04  0.25500000920E-02 0. -1.
       -2    1    3    3    0  502  0.63365978563E+03  0.36516743930E+03 -0.11502336918E+04  0.13630515502E+04  0.25500000920E-02 0.  1.
</event>
<event>
 5   0  0.4489500E-05  0.1219367E+04  0.7818609E-02  0.9096071E-01
        3   -1    0    0  501    0  0.00000000000E+00  0.00000000000E+00  0.61010642708E+03  0.61010643544E+03  0.10100000352E+00 0.  1.
       -3   -1    0    0    0  501  0.00000000000E+00  0.00000000000E+00 -0.60926114519E+03  0.60926115356E+03  0.10100000352E+00 0. -1.
    10030    2    1    2    0    0  0.00000000000E+00  0.00000000000E+00  0.84528189305E+00  0.12193675890E+04  0.12193672960E+04 0.  0.
        5    1    3    3  502    0 -0.31540104122E+03 -0.51825400787E+03 -0.59802178766E+02  0.60964204585E+03  0.46999998093E+01 0. -1.
       -5    1    3    3    0  502  0.31540104122E+03  0.51825400787E+03  0.60647460659E+02  0.60972554315E+03  0.46999998093E+01 0.  1.
</event>
<event>
 5   0  0.1237296E-04  0.2295561E+04  0.7818609E-02  0.8479673E-01
        2   -1    0    0  501    0  0.00000000000E+00  0.00000000000E+00  0.12921639427E+04  0.12921639427E+04  0.25500000920E-02 0.  1.
       -2   -1    0    0    0  501  0.00000000000E+00  0.00000000000E+00 -0.10195302144E+04  0.10195302144E+04  0.25500000920E-02 0. -1.
    10030    2    1    2    0    0  0.00000000000E+00  0.00000000000E+00  0.27263372834E+03  0.23116941571E+04  0.22955610917E+04 0.  0.
        1    1    3    3  502    0 -0.23102787918E+03 -0.23304374787E+03 -0.97128428144E+03  0.10252201836E+04  0.50400001928E-02 0. -1.
       -1    1    3    3    0  502  0.23102787918E+03  0.23304374787E+03  0.12439180098E+04  0.12864739735E+04  0.50400001928E-02 0.  1.
</event>
<event>
 5   0  0.1257524E-04  0.2354742E+04  0.7818609E-02  0.8456645E-01
       -2   -1    0    0    0  501  0.00000000000E+00  0.00000000000E+00  0.85519148108E+03  0.85519148109E+03  0.25500000920E-02 0. -1.
        2   -1    0    0  501    0  0.00000000000E+00  0.00000000000E+00 -0.16209262019E+04  0.16209262019E+04  0.25500000920E-02 0.  1.
    10030    2    1    2    0    0  0.00000000000E+00  0.00000000000E+00 -0.76573472077E+03  0.24761176829E+04  0.23547418366E+04 0.  0.
        3    1    3    3  502    0  0.42919342088E+03  0.99415324481E+03 -0.86892089749E+03  0.13883699806E+04  0.10100000352E+00 0. -1.
       -3    1    3    3    0  502 -0.42919342088E+03 -0.99415324481E+03  0.10318617672E+03  0.10877477024E+04  0.10100000352E+00 0.  1.
</event>
<event>
 5   0  0.1237296E-04  0.2330342E+04  0.7818609E-02  0.8466053E-01
       -2   -1    0    0    0  501  0.00000000000E+00  0.00000000000E+00  0.52087665675E+03  0.52087665676E+03  0.25500000920E-02 0. -1.
        2   -1    0    0  501    0  0.00000000000E+00  0.00000000000E+00 -0.26064211297E+04  0.26064211297E+04  0.25500000920E-02 0.  1.
    10030    2    1    2    0    0  0.00000000000E+00  0.00000000000E+00 -0.20855444729E+04  0.31272977864E+04  0.23303423990E+04 0.  0.
        1    1    3    3  502    0  0.41447889087E+03  0.43095529492E+03 -0.23848358588E+04  0.24586494851E+04  0.50400001928E-02 0.  1.
       -1    1    3    3    0  502 -0.41447889087E+03 -0.43095529492E+03  0.29929138586E+03  0.66864830133E+03  0.50400001928E-02 0. -1.
</event>
<event>
 5   0  0.1257524E-04  0.1878044E+04  0.7818609E-02  0.8665863E-01
        2   -1    0    0  501    0  0.00000000000E+00  0.00000000000E+00  0.17991254006E+04  0.17991254006E+04  0.25500000920E-02 0.  1.
       -2   -1    0    0    0  501  0.00000000000E+00  0.00000000000E+00 -0.49010618726E+03  0.49010618727E+03  0.25500000920E-02 0. -1.
    10030    2    1    2    0    0  0.00000000000E+00  0.00000000000E+00  0.13090192133E+04  0.22892315879E+04  0.18780441853E+04 0.  0.
        3    1    3    3  502    0 -0.33764220130E+03  0.33716022686E+03  0.16403359589E+04  0.17083270597E+04  0.10100000352E+00 0.  1.
       -3    1    3    3    0  502  0.33764220130E+03 -0.33716022686E+03 -0.33131674560E+03  0.58090452812E+03  0.10100000352E+00 0. -1.
</event>
<event>
 5   0  0.1270613E-04  0.2239157E+04  0.7818609E-02  0.8502305E-01
        2   -1    0    0  501    0  0.00000000000E+00  0.00000000000E+00  0.19060185319E+04  0.19060185319E+04  0.25500000920E-02 0.  1.
       -2   -1    0    0    0  501  0.00000000000E+00  0.00000000000E+00 -0.65763051762E+03  0.65763051763E+03  0.25500000920E-02 0. -1.
    10030    2    1    2    0    0  0.00000000000E+00  0.00000000000E+00  0.12483880143E+04  0.25636490496E+04  0.22391569429E+04 0.  0.
        2    1    3    3  502    0  0.99839632791E+03  0.42554016102E+03  0.30944320627E+03  0.11285542761E+04  0.25500000920E-02 0.  1.
       -2    1    3    3    0  502 -0.99839632791E+03 -0.42554016102E+03  0.93894480804E+03  0.14350947734E+04  0.25500000920E-02 0. -1.
</event>
<event>
 5   0  0.1237296E-04  0.2312223E+04  0.7818609E-02  0.8473117E-01
        2   -1    0    0  501    0  0.00000000000E+00  0.00000000000E+00  0.15421934576E+04  0.15421934576E+04  0.25500000920E-02 0.  1.
       -2   -1    0    0    0  501  0.00000000000E+00  0.00000000000E+00 -0.86668326721E+03  0.86668326722E+03  0.25500000920E-02 0. -1.
    10030    2    1    2    0    0  0.00000000000E+00  0.00000000000E+00  0.67551019036E+03  0.24088767248E+04  0.23122225364E+04 0.  0.
        1    1    3    3  502    0 -0.82553773819E+02 -0.84459082268E+03  0.11557148385E+04  0.14338150409E+04  0.50400001928E-02 0.  1.
       -1    1    3    3    0  502  0.82553773819E+02  0.84459082268E+03 -0.48020464819E+03  0.97506168394E+03  0.50400001928E-02 0. -1.
</event>
<event>
 5   0  0.5924654E-05  0.1656519E+04  0.7818609E-02  0.8786559E-01
       -1   -1    0    0    0  501  0.00000000000E+00  0.00000000000E+00  0.94004076155E+03  0.94004076156E+03  0.50400001928E-02 0. -1.
        1   -1    0    0  501    0  0.00000000000E+00  0.00000000000E+00 -0.72977009365E+03  0.72977009366E+03  0.50400001928E-02 0.  1.
    10030    2    1    2    0    0  0.00000000000E+00  0.00000000000E+00  0.21027066790E+03  0.16698108552E+04  0.16565188011E+04 0.  0.
        5    1    3    3  502    0  0.46115335022E+03  0.68153664072E+03  0.19989463593E+03  0.84683797773E+03  0.46999998093E+01 0.  1.
       -5    1    3    3    0  502 -0.46115335022E+03 -0.68153664072E+03  0.10376031973E+02  0.82297287750E+03  0.46999998093E+01 0. -1.
</event>
<event>
 5   0  0.5924654E-05  0.2301813E+04  0.7818609E-02  0.8477207E-01
        1   -1    0    0  501    0  0.00000000000E+00  0.00000000000E+00  0.13199914084E+04  0.13199914084E+04  0.50400001928E-02 0. -1.
       -1   -1    0    0    0  501  0.00000000000E+00  0.00000000000E+00 -0.10034804823E+04  0.10034804823E+04  0.50400001928E-02 0.  1.
    10030    2    1    2    0    0  0.00000000000E+00  0.00000000000E+00  0.31651092606E+03  0.23234718907E+04  0.23018128639E+04 0.  0.
        5    1    3    3  502    0 -0.73924112606E+03  0.60333115618E+03  0.80779901814E+03  0.12502188889E+04  0.46999998093E+01 0. -1.
       -5    1    3    3    0  502  0.73924112606E+03 -0.60333115618E+03 -0.49128809208E+03  0.10732530018E+04  0.46999998093E+01 0.  1.
</event>
<event>
 5   0  0.1270613E-04  0.2425945E+04  0.7818609E-02  0.8429853E-01
        2   -1    0    0  501    0  0.00000000000E+00  0.00000000000E+00  0.97554748896E+03  0.97554748897E+03  0.25500000920E-02 0.  1.
       -2   -1    0    0    0  501  0.00000000000E+00  0.00000000000E+00 -0.15081817006E+04  0.15081817006E+04  0.25500000920E-02 0. -1.
    10030    2    1    2    0    0  0.00000000000E+00  0.00000000000E+00 -0.53263421159E+03  0.24837291895E+04  0.24259454824E+04 0.  0.
        2    1    3    3  502    0  0.93492357100E+02 -0.84873933146E+03  0.61571568698E+03  0.10527131997E+04  0.25500000920E-02 0.  1.
       -2    1    3    3    0  502 -0.93492357100E+02  0.84873933146E+03 -0.11483498986E+04  0.14310159898E+04  0.25500000920E-02 0. -1.
</event>
<event>
 5   0  0.5663790E-05  0.2280918E+04  0.7818609E-02  0.8485483E-01
        1   -1    0    0  501    0  0.00000000000E+00  0.00000000000E+00  0.10522073744E+04  0.10522073744E+04  0.50400001928E-02 0. -1.
       -1   -1    0    0    0  501  0.00000000000E+00  0.00000000000E+00 -0.12361120299E+04  0.12361120300E+04  0.50400001928E-02 0.  1.
    10030    2    1    2    0    0  0.00000000000E+00  0.00000000000E+00 -0.18390465556E+03  0.22883194043E+04  0.22809175290E+04 0.  0.
        3    1    3    3  502    0  0.16278276324E+03 -0.81702005036E+03 -0.87334195107E+03  0.12069573996E+04  0.10100000352E+00 0.  1.
       -3    1    3    3    0  502 -0.16278276324E+03  0.81702005036E+03  0.68943729550E+03  0.10813620048E+04  0.10100000352E+00 0. -1.
</event>
<event>
 5   0  0.5924654E-05  0.1752323E+04  0.7818609E-02  0.8732073E-01
        1   -1    0    0  501    0  0.00000000000E+00  0.00000000000E+00  0.16628786752E+04  0.16628786752E+04  0.50400001928E-02 0. -1.
       -1   -1    0    0    0  501  0.00000000000E+00  0.00000000000E+00 -0.46164440096E+03  0.46164440099E+03  0.50400001928E-02 0.  1.
    10030    2    1    2    0    0  0.00000000000E+00  0.00000000000E+00  0.12012342742E+04  0.21245230762E+04  0.17523226072E+04 0.  0.
        5    1    3    3  502    0 -0.82608287707E+03  0.10189971603E+03  0.93229346414E+03  0.12497958494E+04  0.46999998093E+01 0. -1.
       -5    1    3    3    0  502  0.82608287707E+03 -0.10189971603E+03  0.26894081006E+03  0.87472722675E+03  0.46999998093E+01 0.  1.
</event>
<event>
 5   0  0.1234988E-04  0.2190971E+04  0.7818609E-02  0.8522196E-01
        2   -1    0    0  501    0  0.00000000000E+00  0.00000000000E+00  0.69337345598E+03  0.69337345598E+03  0.25500000920E-02 0. -1.
       -2   -1    0    0    0  501  0.00000000000E+00  0.00000000000E+00 -0.17307969715E+04  0.17307969715E+04  0.25500000920E-02 0.  1.
    10030    2    1    2    0    0  0.00000000000E+00  0.00000000000E+00 -0.10374235155E+04  0.24241704275E+04  0.21909711799E+04 0.  0.
        5    1    3    3  502    0 -0.11156269170E+03 -0.10566021872E+04 -0.81397106675E+03  0.13384414084E+04  0.46999998093E+01 0.  1.
       -5    1    3    3    0  502  0.11156269170E+03  0.10566021872E+04 -0.22345244879E+03  0.10857290191E+04  0.46999998093E+01 0. -1.
</event>
<event>
 5   0  0.1257524E-04  0.2082744E+04  0.7818609E-02  0.8568883E-01
       -2   -1    0    0    0  501  0.00000000000E+00  0.00000000000E+00  0.69191228597E+03  0.69191228597E+03  0.25500000920E-02 0.  1.
        2   -1    0    0  501    0  0.00000000000E+00  0.00000000000E+00 -0.15673315463E+04  0.15673315463E+04  0.25500000920E-02 0. -1.
    10030    2    1    2    0    0  0.00000000000E+00  0.00000000000E+00 -0.87541926036E+03  0.22592438323E+04  0.20827442984E+04 0.  0.
        3    1    3    3  502    0  0.30142385675E+03  0.42230957691E+03  0.54172099505E+03  0.75010890332E+03  0.10100000352E+00 0.  1.
       -3    1    3    3    0  502 -0.30142385675E+03 -0.42230957691E+03 -0.14171402554E+04  0.15091349290E+04  0.10100000352E+00 0. -1.
</event>
<event>
 5   0  0.5924654E-05  0.2362094E+04  0.7818609E-02  0.8453833E-01
       -1   -1    0    0    0  501  0.00000000000E+00  0.00000000000E+00  0.17793780632E+04  0.17793780632E+04  0.50400001928E-02 0. -1.
        1   -1    0    0  501    0  0.00000000000E+00  0.00000000000E+00 -0.78391011666E+03  0.78391011667E+03  0.50400001928E-02 0.  1.
    10030    2    1    2    0    0  0.00000000000E+00  0.00000000000E+00  0.99546794654E+03  0.25632881799E+04  0.23620943801E+04 0.  0.
        5    1    3    3  502    0 -0.82308795221E+03 -0.76509430841E+03  0.10345904787E+03  0.11285251182E+04  0.46999998093E+01 0.  1.
       -5    1    3    3    0  502  0.82308795221E+03  0.76509430841E+03  0.89200889867E+03  0.14347630617E+04  0.46999998093E+01 0. -1.
</event>
<event>
 5   0  0.1270613E-04  0.2307607E+04  0.7818609E-02  0.8474928E-01
        2   -1    0    0  501    0  0.00000000000E+00  0.00000000000E+00  0.12591092490E+04  0.12591092490E+04  0.25500000920E-02 0.  1.
       -2   -1    0    0    0  501  0.00000000000E+00  0.00000000000E+00 -0.10573047201E+04  0.10573047201E+04  0.25500000920E-02 0. -1.
    10030    2    1    2    0    0  0.00000000000E+00  0.00000000000E+00  0.20180452890E+03  0.23164139692E+04  0.23076066841E+04 0.  0.
        2    1    3    3  502    0  0.71354673526E+03  0.24440861529E+03 -0.77557259104E+03  0.10818490461E+04  0.25500000920E-02 0. -1.
       -2    1    3    3    0  502 -0.71354673526E+03 -0.24440861529E+03  0.97737711995E+03  0.12345649231E+04  0.25500000920E-02 0.  1.
</event>
<event>
 5   0  0.5642466E-05  0.2229965E+04  0.7818609E-02  0.8506059E-01
        1   -1    0    0  501    0  0.00000000000E+00  0.00000000000E+00  0.14399732040E+04  0.14399732040E+04  0.50400001928E-02 0.  1.
       -1   -1    0    0    0  501  0.00000000000E+00  0.00000000000E+00 -0.86333966635E+03  0.86333966636E+03  0.50400001928E-02 0. -1.
    10030    2    1    2    0    0  0.00000000000E+00  0.00000000000E+00  0.57663353761E+03  0.23033128703E+04  0.22299650091E+04 0.  0.
        1    1    3    3  502    0  0.77888646153E+03  0.46462462331E+03  0.95822170391E+03  0.13193668915E+04  0.50400001928E-02 0. -1.
       -1    1    3    3    0  502 -0.77888646153E+03 -0.46462462331E+03 -0.38158816631E+03  0.98394597882E+03  0.50400001928E-02 0.  1.
</event>
<event>
 5   0  0.4489500E-05  0.2272059E+04  0.7818609E-02  0.8489020E-01
        3   -1    0    0  501    0  0.00000000000E+00  0.00000000000E+00  0.11615436510E+04  0.11615436554E+04  0.10100000352E+00 0.  1.
       -3   -1    0    0    0  501  0.00000000000E+00  0.00000000000E+00 -0.11110754182E+04  0.11110754228E+04  0.10100000352E+00 0. -1.
    10030    2    1    2    0    0  0.00000000000E+00  0.00000000000E+00  0.50468232818E+02  0.22726190782E+04  0.22720586331E+04 0.  0.
        1    1    3    3  502    0  0.33587425112E+03  0.10634905978E+04 -0.19101089460E+03  0.11315073689E+04  0.50400001928E-02 0. -1.
       -1    1    3    3    0  502 -0.33587425112E+03 -0.10634905978E+04  0.24147912742E+03  0.11411117093E+04  0.50400001928E-02 0.  1.
</event>
<event>
 5   0  0.1237296E-04  0.2088353E+04  0.7818609E-02  0.8566391E-01
       -2   -1    0    0    0  501  0.00000000000E+00  0.00000000000E+00  0.72191674643E+03  0.72191674643E+03  0.25500000920E-02 0. -1.
        2   -1    0    0  501    0  0.00000000000E+00  0.00000000000E+00 -0.15102913897E+04  0.15102913897E+04  0.25500000920E-02 0.  1.
    10030    2    1    2    0    0  0.00000000000E+00  0.00000000000E+00 -0.78837464327E+03  0.22322081361E+04  0.20883530795E+04 0.  0.
        1    1    3    3  502    0 -0.39938105254E+03  0.32336520666E+03 -0.13657758684E+04  0.14592511795E+04  0.50400001928E-02 0.  1.
       -1    1    3    3    0  502  0.39938105254E+03 -0.32336520666E+03  0.57740122515E+03  0.77295695665E+03  0.50400001928E-02 0. -1.
</event>
<event>
 5   0  0.5843670E-05  0.2304172E+04  0.7818609E-02  0.8476278E-01
       -1   -1    0    0    0  501  0.00000000000E+00  0.00000000000E+00  0.13254249120E+04  0.13254249120E+04  0.50400001928E-02 0.  1.
        1   -1    0    0  501    0  0.00000000000E+00  0.00000000000E+00 -0.10014164510E+04  0.10014164510E+04  0.50400001928E-02 0. -1.
    10030    2    1    2    0    0  0.00000000000E+00  0.00000000000E+00  0.32400846102E+03  0.23268413631E+04  0.23041721390E+04 0.  0.
        2    1    3    3  502    0  0.44894046090E+03 -0.62778370325E+03  0.10257805349E+04  0.12836999732E+04  0.25500000920E-02 0.  1.
       -2    1    3    3    0  502 -0.44894046090E+03  0.62778370325E+03 -0.70177207388E+03  0.10431413898E+04  0.25500000920E-02 0. -1.
</event>
<event>
 5   0  0.5663790E-05  0.2254306E+04  0.7818609E-02  0.8496158E-01
        1   -1    0    0  501    0  0.00000000000E+00  0.00000000000E+00  0.19999929832E+04  0.19999929832E+04  0.50400001928E-02 0. -1.
       -1   -1    0    0    0  501  0.00000000000E+00  0.00000000000E+00 -0.63523944516E+03  0.63523944518E+03  0.50400001928E-02 0.  1.
    10030    2    1    2    0    0  0.00000000000E+00  0.00000000000E+00  0.13647535380E+04  0.26352324284E+04  0.22543064858E+04 0.  0.
        3    1    3    3  502    0  0.78376354218E+03 -0.71618043307E+02 -0.26085076256E+03  0.82913060775E+03  0.10100000352E+00 0.  1.
       -3    1    3    3    0  502 -0.78376354218E+03  0.71618043307E+02  0.16256043006E+04  0.18061018206E+04  0.10100000352E+00 0. -1.
</event>
<event>
 5   0  0.5924654E-05  0.2353401E+04  0.7818609E-02  0.8457158E-01
       -1   -1    0    0    0  501  0.00000000000E+00  0.00000000000E+00  0.12982851506E+04  0.12982851506E+04  0.50400001928E-02 0.  1.
        1   -1    0    0  501    0  0.00000000000E+00  0.00000000000E+00 -0.10665027145E+04  0.10665027145E+04  0.50400001928E-02 0. -1.
    10030    2    1    2    0    0  0.00000000000E+00  0.00000000000E+00  0.23178243612E+03  0.23647878650E+04  0.23534014849E+04 0.  0.
        5    1    3    3  502    0  0.10215158157E+04 -0.27003390105E+03  0.63626714110E+03  0.12333980843E+04  0.46999998093E+01 0.  1.
       -5    1    3    3    0  502 -0.10215158157E+04  0.27003390105E+03 -0.40448470498E+03  0.11313897808E+04  0.46999998093E+01 0. -1.
</event>
<event>
 5   0  0.5843670E-05  0.2345848E+04  0.7818609E-02  0.8460060E-01
        1   -1    0    0  501    0  0.00000000000E+00  0.00000000000E+00  0.67407786269E+03  0.67407786270E+03  0.50400001928E-02 0. -1.
       -1   -1    0    0    0  501  0.00000000000E+00  0.00000000000E+00 -0.20409381425E+04  0.20409381425E+04  0.50400001928E-02 0.  1.
    10030    2    1    2    0    0  0.00000000000E+00  0.00000000000E+00 -0.13668602799E+04  0.27150160053E+04  0.23458484359E+04 0.  0.
        2    1    3    3  502    0 -0.31903074515E+03 -0.71185499158E+03  0.33033208307E+03  0.84713483608E+03  0.25500000920E-02 0. -1.
       -2    1    3    3    0  502  0.31903074515E+03  0.71185499158E+03 -0.16971923629E+04  0.18678811692E+04  0.25500000920E-02 0.  1.
</event>
<event>
 5   0  0.1281432E-04  0.2240329E+04  0.7818609E-02  0.8501827E-01
       -2   -1    0    0    0  501  0.00000000000E+00  0.00000000000E+00  0.85196936797E+03  0.85196936797E+03  0.25500000920E-02 0.  1.
        2   -1    0    0  501    0  0.00000000000E+00  0.00000000000E+00 -0.14727861379E+04  0.14727861379E+04  0.25500000920E-02 0. -1.
    10030    2    1    2    0    0  0.00000000000E+00  0.00000000000E+00 -0.62081676998E+03  0.23247555059E+04  0.22403291500E+04 0.  0.
        4    1    3    3  502    0 -0.97093828952E+03  0.47893649553E+03 -0.12056891076E+02  0.10827041657E+04  0.12699999809E+01 0.  1.
       -4    1    3    3    0  502  0.97093828952E+03 -0.47893649553E+03 -0.60875987890E+03  0.12420513403E+04  0.12699999809E+01 0. -1.
</event>
<event>
 5   0  0.5632156E-05  0.2296583E+04  0.7818609E-02  0.8479270E-01
        1   -1    0    0  501    0  0.00000000000E+00  0.00000000000E+00  0.22965527459E+04  0.22965527459E+04  0.50400001928E-02 0. -1.
       -1   -1    0    0    0  501  0.00000000000E+00  0.00000000000E+00 -0.57415310467E+03  0.57415310469E+03  0.50400001928E-02 0.  1.
    10030    2    1    2    0    0  0.00000000000E+00  0.00000000000E+00  0.17223996412E+04  0.28707058506E+04  0.22965825821E+04 0.  0.
        4    1    3    3  502    0 -0.23863534903E+03  0.66107041234E+03  0.19962917090E+04  0.21163986204E+04  0.12699999809E+01 0. -1.
       -4    1    3    3    0  502  0.23863534903E+03 -0.66107041234E+03 -0.27389206780E+03  0.75430723023E+03  0.12699999809E+01 0.  1.
</event>
<event>
 5   0  0.5663790E-05  0.2395348E+04  0.7818609E-02  0.8441247E-01
       -1   -1    0    0    0  501  0.00000000000E+00  0.00000000000E+00  0.89126192206E+03  0.89126192208E+03  0.50400001928E-02 0. -1.
        1   -1    0    0  501    0  0.00000000000E+00  0.00000000000E+00 -0.16094288451E+04  0.16094288452E+04  0.50400001928E-02 0.  1.
    10030    2    1    2    0    0  0.00000000000E+00  0.00000000000E+00 -0.71816692308E+03  0.25006907672E+04  0.23953476958E+04 0.  0.
        3    1    3    3  502    0 -0.64245219210E+03  0.72248562914E+01 -0.14142896166E+04  0.15533873141E+04  0.10100000352E+00 0.  1.
       -3    1    3    3    0  502  0.64245219210E+03 -0.72248562914E+01  0.69612269353E+03  0.94730345315E+03  0.10100000352E+00 0. -1.
</event>
<event>
 5   0  0.1234988E-04  0.2105108E+04  0.7818609E-02  0.8558997E-01
       -2   -1    0    0    0  501  0.00000000000E+00  0.00000000000E+00  0.83022701085E+03  0.83022701085E+03  0.25500000920E-02 0. -1.
        2   -1    0    0  501    0  0.00000000000E+00  0.00000000000E+00 -0.13344180216E+04  0.13344180216E+04  0.25500000920E-02 0.  1.
    10030    2    1    2    0    0  0.00000000000E+00  0.00000000000E+00 -0.50419101077E+03  0.21646450325E+04  0.21051079643E+04 0.  0.
        5    1    3    3  502    0 -0.31583389815E+03  0.23456877753E+03  0.75177034093E+03  0.84850120690E+03  0.46999998093E+01 0. -1.
       -5    1    3    3    0  502  0.31583389815E+03 -0.23456877753E+03 -0.12559613517E+04  0.13161438256E+04  0.46999998093E+01 0.  1.
</event>
<event>
 5   0  0.1237296E-04  0.1358543E+04  0.7818609E-02  0.8984386E-01
       -2   -1    0    0    0  501  0.00000000000E+00  0.00000000000E+00  0.52775172120E+03  0.52775172120E+03  0.25500000920E-02 0.  1.
        2   -1    0    0  501    0  0.00000000000E+00  0.00000000000E+00 -0.87429343006E+03  0.87429343006E+03  0.25500000920E-02 0. -1.
    10030    2    1    2    0    0  0.00000000000E+00  0.00000000000E+00 -0.34654170886E+03  0.14020451513E+04  0.13585431352E+04 0.  0.
        1    1    3    3  502    0  0.20365333193E+03 -0.32524918335E+03 -0.75170753064E+03  0.84399402991E+03  0.50400001928E-02 0. -1.
       -1    1    3    3    0  502 -0.20365333193E+03  0.32524918335E+03  0.40516582178E+03  0.55805112135E+03  0.50400001928E-02 0.  1.
</event>
<event>
 5   0  0.1257524E-04  0.2377829E+04  0.7818609E-02  0.8447851E-01
       -2   -1    0    0    0  501  0.00000000000E+00  0.00000000000E+00  0.77803863942E+03  0.77803863942E+03  0.25500000920E-02 0.  1.
        2   -1    0    0  501    0  0.00000000000E+00  0.00000000000E+00 -0.18167702548E+04  0.18167702548E+04  0.25500000920E-02 0. -1.
    10030    2    1    2    0    0  0.00000000000E+00  0.00000000000E+00 -0.10387316154E+04  0.25948088942E+04  0.23778288056E+04 0.  0.
        3    1    3    3  502    0  0.17642666747E+03  0.10730995505E+04 -0.10436759503E+04  0.15072917812E+04  0.10100000352E+00 0.  1.
       -3    1    3    3    0  502 -0.17642666747E+03 -0.10730995505E+04  0.49443349326E+01  0.10875171130E+04  0.10100000352E+00 0. -1.
</event>
<event>
 5   0  0.1257524E-04  0.2307585E+04  0.7818609E-02  0.8474936E-01
       -2   -1    0    0    0  501  0.00000000000E+00  0.00000000000E+00  0.91487698718E+03  0.91487698718E+03  0.25500000920E-02 0.  1.
        2   -1    0    0  501    0  0.00000000000E+00  0.00000000000E+00 -0.14551002170E+04  0.14551002170E+04  0.25500000920E-02 0. -1.
    10030    2    1    2    0    0  0.00000000000E+00  0.00000000000E+00 -0.54022322980E+03  0.23699772042E+04  0.23075854936E+04 0.  0.
        3    1    3    3  502    0 -0.16741077080E+03 -0.10972209346E+04 -0.59377931412E+03  0.12587668686E+04  0.10100000352E+00 0.  1.
       -3    1    3    3    0  502  0.16741077080E+03  0.10972209346E+04  0.53556084313E+02  0.11112103355E+04  0.10100000352E+00 0. -1.
</event>
<event>
 5   0  0.5632156E-05  0.2290509E+04  0.7818609E-02  0.8481673E-01
        1   -1    0    0  501    0  0.00000000000E+00  0.00000000000E+00  0.14687818606E+04  0.14687818606E+04  0.50400001928E-02 0. -1.
       -1   -1    0    0    0  501  0.00000000000E+00  0.00000000000E+00 -0.89299033247E+03  0.89299033249E+03  0.50400001928E-02 0.  1.
    10030    2    1    2    0    0  0.00000000000E+00  0.00000000000E+00  0.57579152816E+03  0.23617721931E+04  0.22905091155E+04 0.  0.
        4    1    3    3  502    0  0.73589424114E+02 -0.56335018666E+03  0.13132318922E+04  0.14308593403E+04  0.12699999809E+01 0. -1.
       -4    1    3    3    0  502 -0.73589424114E+02  0.56335018666E+03 -0.73744036404E+03  0.93091285283E+03  0.12699999809E+01 0.  1.
</event>
<event>
 5   0  0.1237296E-04  0.2051636E+04  0.7818609E-02  0.8582853E-01
        2   -1    0    0  501    0  0.00000000000E+00  0.00000000000E+00  0.15928608370E+04  0.15928608370E+04  0.25500000920E-02 0. -1.
       -2   -1    0    0    0  501  0.00000000000E+00  0.00000000000E+00 -0.66063660415E+03  0.66063660416E+03  0.25500000920E-02 0.  1.
    10030    2    1    2    0    0  0.00000000000E+00  0.00000000000E+00  0.93222423289E+03  0.22534974412E+04  0.20516356151E+04 0.  0.
        1    1    3    3  502    0  0.69019618268E+03  0.74817259228E+03  0.32644287269E+03  0.10689705083E+04  0.50400001928E-02 0. -1.
       -1    1    3    3    0  502 -0.69019618268E+03 -0.74817259228E+03  0.60578136019E+03  0.11845269329E+04  0.50400001928E-02 0.  1.
</event>
<event>
 5   0  0.5843670E-05  0.2335521E+04  0.7818609E-02  0.8464046E-01
       -1   -1    0    0    0  501  0.00000000000E+00  0.00000000000E+00  0.73353066276E+03  0.73353066278E+03  0.50400001928E-02 0. -1.
        1   -1    0    0  501    0  0.00000000000E+00  0.00000000000E+00 -0.18590419803E+04  0.18590419803E+04  0.50400001928E-02 0.  1.
    10030    2    1    2    0    0  0.00000000000E+00  0.00000000000E+00 -0.11255113176E+04  0.25925726431E+04  0.23355207522E+04 0.  0.
        2    1    3    3  502    0 -0.90284458687E+03 -0.15017684925E+03  0.24231314906E+03  0.94678249683E+03  0.25500000920E-02 0. -1.
       -2    1    3    3    0  502  0.90284458687E+03  0.15017684925E+03 -0.13678244666E+04  0.16457901463E+04  0.25500000920E-02 0.  1.
</event>
<event>
 5   0  0.5642466E-05  0.1964598E+04  0.7818609E-02  0.8623353E-01
        1   -1    0    0  501    0  0.00000000000E+00  0.00000000000E+00  0.82821796322E+03  0.82821796323E+03  0.50400001928E-02 0.  1.
       -1   -1    0    0    0  501  0.00000000000E+00  0.00000000000E+00 -0.11650454985E+04  0.11650454985E+04  0.50400001928E-02 0. -1.
    10030    2    1    2    0    0  0.00000000000E+00  0.00000000000E+00 -0.33682753526E+03  0.19932634617E+04  0.19645982896E+04 0.  0.
        1    1    3    3  502    0 -0.51432617739E+03  0.71957094567E+03 -0.60196334851E+03  0.10698942170E+04  0.50400001928E-02 0.  1.
       -1    1    3    3    0  502  0.51432617739E+03 -0.71957094567E+03  0.26513581325E+03  0.92336924472E+03  0.50400001928E-02 0. -1.
</event>
<event>
 5   0  0.5924654E-05  0.2279737E+04  0.7818609E-02  0.8485954E-01
        1   -1    0    0  501    0  0.00000000000E+00  0.00000000000E+00  0.13698094645E+04  0.13698094646E+04  0.50400001928E-02 0. -1.
       -1   -1    0    0    0  501  0.00000000000E+00  0.00000000000E+00 -0.94852635244E+03  0.94852635246E+03  0.50400001928E-02 0.  1.
    10030    2    1    2    0    0  0.00000000000E+00  0.00000000000E+00  0.42128311210E+03  0.23183358170E+04  0.22797371559E+04 0.  0.
        5    1    3    3  502    0  0.47697699712E+03 -0.40752605383E+03  0.11784340544E+04  0.13350331272E+04  0.46999998093E+01 0. -1.
       -5    1    3    3    0  502 -0.47697699712E+03  0.40752605383E+03 -0.75715094227E+03  0.98330268977E+03  0.46999998093E+01 0.  1.
</event>
<event>
 5   0  0.1270613E-04  0.2351134E+04  0.7818609E-02  0.8458028E-01
       -2   -1    0    0    0  501  0.00000000000E+00  0.00000000000E+00  0.60255168803E+03  0.60255168804E+03  0.25500000920E-02 0.  1.
        2   -1    0    0  501    0  0.00000000000E+00  0.00000000000E+00 -0.22935094244E+04  0.22935094244E+04  0.25500000920E-02 0. -1.
    10030    2    1    2    0    0  0.00000000000E+00  0.00000000000E+00 -0.16909577363E+04  0.28960611124E+04  0.23511341733E+04 0.  0.
        2    1    3    3  502    0 -0.10087656081E+04 -0.53533583253E+03 -0.50198126813E+03  0.12474685164E+04  0.25500000920E-02 0.  1.
       -2    1    3    3    0  502  0.10087656081E+04  0.53533583253E+03 -0.11889764682E+04  0.16485925960E+04  0.25500000920E-02 0. -1.
</event>
<event>
 5   0  0.1237296E-04  0.2293602E+04  0.7818609E-02  0.8480448E-01
        2   -1    0    0  501    0  0.00000000000E+00  0.00000000000E+00  0.18834342222E+04  0.18834342222E+04  0.25500000920E-02 0.  1.
       -2   -1    0    0    0  501  0.00000000000E+00  0.00000000000E+00 -0.69827354151E+03  0.69827354151E+03  0.25500000920E-02 0. -1.
    10030    2    1    2    0    0  0.00000000000E+00  0.00000000000E+00  0.11851606807E+04  0.25817077637E+04  0.22936017828E+04 0.  0.
        1    1    3    3  502    0  0.70875975372E+03  0.90124505320E+03  0.56572438458E+03  0.12785253669E+04  0.50400001928E-02 0.  1.
       -1    1    3    3    0  502 -0.70875975372E+03 -0.90124505320E+03  0.61943629608E+03  0.13031823968E+04  0.50400001928E-02 0. -1.
</event>
<event>
 5   0  0.1257524E-04  0.2268478E+04  0.7818609E-02  0.8490455E-01
        2   -1    0    0  501    0  0.00000000000E+00  0.00000000000E+00  0.88395548189E+03  0.88395548189E+03  0.25500000920E-02 0.  1.
       -2   -1    0    0    0  501  0.00000000000E+00  0.00000000000E+00 -0.14553874254E+04  0.14553874254E+04  0.25500000920E-02 0. -1.
    10030    2    1    2    0    0  0.00000000000E+00  0.00000000000E+00 -0.57143194354E+03  0.23393429073E+04  0.22684776331E+04 0.  0.
        3    1    3    3  502    0  0.75464230058E+03  0.84670305914E+03 -0.27506817916E+03  0.11670705144E+04  0.10100000352E+00 0. -1.
       -3    1    3    3    0  502 -0.75464230058E+03 -0.84670305914E+03 -0.29636376438E+03  0.11722723929E+04  0.10100000352E+00 0.  1.
</event>
<event>
 5   0  0.4489500E-05  0.2262533E+04  0.7818609E-02  0.8492842E-01
        3   -1    0    0  501    0  0.00000000000E+00  0.00000000000E+00  0.11866095413E+04  0.11866095456E+04  0.10100000352E+00 0.  1.
       -3   -1    0    0    0  501  0.00000000000E+00  0.00000000000E+00 -0.10785049947E+04  0.10785049994E+04  0.10100000352E+00 0. -1.
    10030    2    1    2    0    0  0.00000000000E+00  0.00000000000E+00  0.10810454663E+03  0.22651145451E+04  0.22625333830E+04 0.  0.
        2    1    3    3  502    0 -0.82274966889E+03 -0.26955079839E+03  0.78302420522E+03  0.11673480871E+04  0.25500000920E-02 0.  1.
       -2    1    3    3    0  502  0.82274966889E+03  0.26955079839E+03 -0.67491965859E+03  0.10977664579E+04  0.25500000920E-02 0. -1.
</event>
<event>
 5   0  0.1234988E-04  0.2210838E+04  0.7818609E-02  0.8513931E-01
       -2   -1    0    0    0  501  0.00000000000E+00  0.00000000000E+00  0.45559741272E+03  0.45559741273E+03  0.25500000920E-02 0.  1.
        2   -1    0    0  501    0  0.00000000000E+00  0.00000000000E+00 -0.26820849493E+04  0.26820849493E+04  0.25500000920E-02 0. -1.
    10030    2    1    2    0    0  0.00000000000E+00  0.00000000000E+00 -0.22264875366E+04  0.31376823620E+04  0.22108378173E+04 0.  0.
        5    1    3    3  502    0  0.31913241859E+03  0.42369509198E+03  0.26316266233E+03  0.59214838377E+03  0.46999998093E+01 0.  1.
       -5    1    3    3    0  502 -0.31913241859E+03 -0.42369509198E+03 -0.24896501989E+04  0.25455339782E+04  0.46999998093E+01 0. -1.
</event>
<event>
 5   0  0.1281432E-04  0.2536122E+04  0.7818609E-02  0.8390229E-01
        2   -1    0    0  501    0  0.00000000000E+00  0.00000000000E+00  0.11667612059E+04  0.11667612059E+04  0.25500000920E-02 0.  1.
       -2   -1    0    0    0  501  0.00000000000E+00  0.00000000000E+00 -0.13781558893E+04  0.13781558893E+04  0.25500000920E-02 0. -1.
    10030    2    1    2    0    0  0.00000000000E+00  0.00000000000E+00 -0.21139468340E+03  0.25449170952E+04  0.25361221007E+04 0.  0.
        4    1    3    3  502    0  0.28370330215E+02  0.50445812916E+03 -0.12727845686E+04  0.13694031732E+04  0.12699999809E+01 0. -1.
       -4    1    3    3    0  502 -0.28370330215E+02 -0.50445812916E+03  0.10613898852E+04  0.11755139221E+04  0.12699999809E+01 0.  1.
</event>
<event>
 5   0  0.1237296E-04  0.2275237E+04  0.7818609E-02  0.8487749E-01
       -2   -1    0    0    0  501  0.00000000000E+00  0.00000000000E+00  0.10137103436E+04  0.10137103436E+04  0.25500000920E-02 0. -1.
        2   -1    0    0  501    0  0.00000000000E+00  0.00000000000E+00 -0.12766724058E+04  0.12766724058E+04  0.25500000920E-02 0.  1.
    10030    2    1    2    0    0  0.00000000000E+00  0.00000000000E+00 -0.26296206214E+03  0.22903827494E+04  0.22752371509E+04 0.  0.
        1    1    3    3  502    0  0.44805225137E+03 -0.11898256866E+03 -0.11772749559E+04  0.12652604449E+04  0.50400001928E-02 0.  1.
       -1    1    3    3    0  502 -0.44805225137E+03  0.11898256866E+03  0.91431289372E+03  0.10251223045E+04  0.50400001928E-02 0. -1.
</event>
<event>
 5   0  0.5632156E-05  0.1889952E+04  0.7818609E-02  0.8659874E-01
       -1   -1    0    0    0  501  0.00000000000E+00  0.00000000000E+00  0.35950818991E+03  0.35950818994E+03  0.50400001928E-02 0.  1.
        1   -1    0    0  501    0  0.00000000000E+00  0.00000000000E+00 -0.24838930032E+04  0.24838930032E+04  0.50400001928E-02 0. -1.
    10030    2    1    2    0    0  0.00000000000E+00  0.00000000000E+00 -0.21243848133E+04  0.28434011932E+04  0.18899522508E+04 0.  0.
        4    1    3    3  502    0 -0.29540633510E+03  0.30137099021E+02 -0.24118781917E+04  0.24300887169E+04  0.12699999809E+01 0. -1.
       -4    1    3    3    0  502  0.29540633510E+03 -0.30137099021E+02  0.28749337836E+03  0.41331247629E+03  0.12699999809E+01 0.  1.
</event>
<event>
 5   0  0.5924654E-05  0.2315716E+04  0.7818609E-02  0.8471750E-01
        1   -1    0    0  501    0  0.00000000000E+00  0.00000000000E+00  0.57594818512E+03  0.57594818514E+03  0.50400001928E-02 0. -1.
       -1   -1    0    0    0  501  0.00000000000E+00  0.00000000000E+00 -0.23277018085E+04  0.23277018085E+04  0.50400001928E-02 0.  1.
    10030    2    1    2    0    0  0.00000000000E+00  0.00000000000E+00 -0.17517536234E+04  0.29036499936E+04  0.23157164180E+04 0.  0.
        5    1    3    3  502    0 -0.48959163943E+03  0.43301165187E+03 -0.20742520758E+04  0.21747971924E+04  0.46999998093E+01 0.  1.
       -5    1    3    3    0  502  0.48959163943E+03 -0.43301165187E+03  0.32249845244E+03  0.72885280124E+03  0.46999998093E+01 0. -1.
</event>
<event>
 5   0  0.1234988E-04  0.1938131E+04  0.7818609E-02  0.8636106E-01
        2   -1    0    0  501    0  0.00000000000E+00  0.00000000000E+00  0.22302663359E+04  0.22302663359E+04  0.25500000920E-02 0.  1.
       -2   -1    0    0    0  501  0.00000000000E+00  0.00000000000E+00 -0.42106534520E+03  0.42106534520E+03  0.25500000920E-02 0. -1.
    10030    2    1    2    0    0  0.00000000000E+00  0.00000000000E+00  0.18092009907E+04  0.26513316811E+04  0.19381309188E+04 0.  0.
        5    1    3    3  502    0  0.81370495098E+03  0.48966511895E+02  0.16213930752E+04  0.18147867811E+04  0.46999998093E+01 0.  1.
       -5    1    3    3    0  502 -0.81370495098E+03 -0.48966511895E+02  0.18780791544E+03  0.83654489995E+03  0.46999998093E+01 0. -1.
</event>
<event>
 5   0  0.1234988E-04  0.1156197E+04  0.7818609E-02  0.9152085E-01
        2   -1    0    0  501    0  0.00000000000E+00  0.00000000000E+00  0.17445133655E+04  0.17445133655E+04  0.25500000920E-02 0. -1.
       -2   -1    0    0    0  501  0.00000000000E+00  0.00000000000E+00 -0.19157087145E+03  0.19157087147E+03  0.25500000920E-02 0.  1.
    10030    2    1    2    0    0  0.00000000000E+00  0.00000000000E+00  0.15529424941E+04  0.19360842370E+04  0.11561971211E+04 0.  0.
        5    1    3    3  502    0 -0.25002296520E+03  0.18789079922E+03 -0.37634200464E+02  0.31504421690E+03  0.46999998093E+01 0.  1.
       -5    1    3    3    0  502  0.25002296520E+03 -0.18789079922E+03  0.15905766945E+04  0.16210400201E+04  0.46999998093E+01 0. -1.
</event>
<event>
 5   0  0.1234988E-04  0.2428594E+04  0.7818609E-02  0.8428876E-01
       -2   -1    0    0    0  501  0.00000000000E+00  0.00000000000E+00  0.12725365876E+04  0.12725365876E+04  0.25500000920E-02 0. -1.
        2   -1    0    0  501    0  0.00000000000E+00  0.00000000000E+00 -0.11587224342E+04  0.11587224342E+04  0.25500000920E-02 0.  1.
    10030    2    1    2    0    0  0.00000000000E+00  0.00000000000E+00  0.11381415342E+03  0.24312590218E+04  0.24285935785E+04 0.  0.
        5    1    3    3  502    0  0.87619389261E+03 -0.67756903794E+03  0.55512693803E+03  0.12389526004E+04  0.46999998093E+01 0. -1.
       -5    1    3    3    0  502 -0.87619389261E+03  0.67756903794E+03 -0.44131278461E+03  0.11923064214E+04  0.46999998093E+01 0.  1.
</event>
<event>
 5   0  0.1281432E-04  0.2332466E+04  0.7818609E-02  0.8465229E-01
        2   -1    0    0  501    0  0.00000000000E+00  0.00000000000E+00  0.23091532501E+04  0.23091532501E+04  0.25500000920E-02 0. -1.
       -2   -1    0    0    0  501  0.00000000000E+00  0.00000000000E+00 -0.58900339334E+03  0.58900339335E+03  0.25500000920E-02 0.  1.
    10030    2    1    2    0    0  0.00000000000E+00  0.00000000000E+00  0.17201498568E+04  0.28981566435E+04  0.23324657340E+04 0.  0.
        4    1    3    3  502    0  0.10110743501E+04 -0.54894572744E+03  0.62273971676E+03  0.13082121849E+04  0.12699999809E+01 0.  1.
       -4    1    3    3    0  502 -0.10110743501E+04  0.54894572744E+03  0.10974101400E+04  0.15899444586E+04  0.12699999809E+01 0. -1.
</event>
<event>
 5   0  0.1281432E-04  0.2405810E+04  0.7818609E-02  0.8437332E-01
        2   -1    0    0  501    0  0.00000000000E+00  0.00000000000E+00  0.18858210785E+04  0.18858210785E+04  0.25500000920E-02 0.  1.
       -2   -1    0    0    0  501  0.00000000000E+00  0.00000000000E+00 -0.76729443238E+03  0.76729443238E+03  0.25500000920E-02 0. -1.
    10030    2    1    2    0    0  0.00000000000E+00  0.00000000000E+00  0.11185266461E+04  0.26531155109E+04  0.24058096467E+04 0.  0.
        4    1    3    3  502    0  0.11327145346E+04  0.37483437573E+03  0.72808602621E+03  0.13977316984E+04  0.12699999809E+01 0.  1.
       -4    1    3    3    0  502 -0.11327145346E+04 -0.37483437573E+03  0.39044061992E+03  0.12553838125E+04  0.12699999809E+01 0. -1.
</event>
<event>
 5   0  0.5924654E-05  0.1352829E+04  0.7818609E-02  0.8988690E-01
        1   -1    0    0  501    0  0.00000000000E+00  0.00000000000E+00  0.20519629760E+04  0.20519629760E+04  0.50400001928E-02 0. -1.
       -1   -1    0    0    0  501  0.00000000000E+00  0.00000000000E+00 -0.22297492882E+03  0.22297492888E+03  0.50400001928E-02 0.  1.
    10030    2    1    2    0    0  0.00000000000E+00  0.00000000000E+00  0.18289880472E+04  0.22749379049E+04  0.13528285902E+04 0.  0.
        5    1    3    3  502    0  0.26922952650E+03 -0.14871925312E+03  0.19275363487E+04  0.19519273603E+04  0.46999998093E+01 0. -1.
       -5    1    3    3    0  502 -0.26922952650E+03  0.14871925312E+03 -0.98548301545E+02  0.32301054460E+03  0.46999998093E+01 0.  1.
</event>
<event>
 5   0  0.1257524E-04  0.2294783E+04  0.7818609E-02  0.8479981E-01
       -2   -1    0    0    0  501  0.00000000000E+00  0.00000000000E+00  0.21566650286E+04  0.21566650286E+04  0.25500000920E-02 0.  1.
        2   -1    0    0  501    0  0.00000000000E+00  0.00000000000E+00 -0.61043650190E+03  0.61043650191E+03  0.25500000920E-02 0. -1.
    10030    2    1    2    0    0  0.00000000000E+00  0.00000000000E+00  0.15462285267E+04  0.27671015305E+04  0.22947828271E+04 0.  0.
        3    1    3    3  502    0 -0.32590364965E+03 -0.10172648892E+03 -0.54776851604E+03  0.64545474262E+03  0.10100000352E+00 0. -1.
       -3    1    3    3    0  502  0.32590364965E+03  0.10172648892E+03  0.20939970428E+04  0.21216467879E+04  0.10100000352E+00 0.  1.
</event>
<event>
 5   0  0.1270613E-04  0.2289800E+04  0.7818609E-02  0.8481954E-01
        2   -1    0    0  501    0  0.00000000000E+00  0.00000000000E+00  0.20708743878E+04  0.20708743878E+04  0.25500000920E-02 0.  1.
       -2   -1    0    0    0  501  0.00000000000E+00  0.00000000000E+00 -0.63296720882E+03  0.63296720882E+03  0.25500000920E-02 0. -1.
    10030    2    1    2    0    0  0.00000000000E+00  0.00000000000E+00  0.14379071790E+04  0.27038415967E+04  0.22897996254E+04 0.  0.
        2    1    3    3  502    0  0.34397087289E+03 -0.30792011344E+03  0.19560929897E+04  0.20098334612E+04  0.25500000920E-02 0.  1.
       -2    1    3    3    0  502 -0.34397087289E+03  0.30792011344E+03 -0.51818581065E+03  0.69400813542E+03  0.25500000920E-02 0. -1.
</event>
<event>
 5   0  0.5642466E-05  0.2024194E+04  0.7818609E-02  0.8595392E-01
       -1   -1    0    0    0  501  0.00000000000E+00  0.00000000000E+00  0.96690940280E+03  0.96690940281E+03  0.50400001928E-02 0.  1.
        1   -1    0    0  501    0  0.00000000000E+00  0.00000000000E+00 -0.10593968343E+04  0.10593968343E+04  0.50400001928E-02 0. -1.
    10030    2    1    2    0    0  0.00000000000E+00  0.00000000000E+00 -0.92487431485E+02  0.20263062371E+04  0.20241944179E+04 0.  0.
        1    1    3    3  502    0  0.94684225780E+03 -0.34744624297E+03  0.38174612414E+02  0.10092999821E+04  0.50400001928E-02 0.  1.
       -1    1    3    3    0  502 -0.94684225780E+03  0.34744624297E+03 -0.13066204390E+03  0.10170062550E+04  0.50400001928E-02 0. -1.
</event>
<event>
 5   0  0.1234988E-04  0.2329932E+04  0.7818609E-02  0.8466212E-01
        2   -1    0    0  501    0  0.00000000000E+00  0.00000000000E+00  0.21044688593E+04  0.21044688593E+04  0.25500000920E-02 0.  1.
       -2   -1    0    0    0  501  0.00000000000E+00  0.00000000000E+00 -0.64488772594E+03  0.64488772595E+03  0.25500000920E-02 0. -1.
    10030    2    1    2    0    0  0.00000000000E+00  0.00000000000E+00  0.14595811333E+04  0.27493565852E+04  0.23299323054E+04 0.  0.
        5    1    3    3  502    0 -0.22047542113E+03 -0.31341519403E+03 -0.56837980158E+03  0.68550432823E+03  0.46999998093E+01 0. -1.
       -5    1    3    3    0  502  0.22047542113E+03  0.31341519403E+03  0.20279609349E+04  0.20638522570E+04  0.46999998093E+01 0.  1.
</event>
<event>
 5   0  0.1270613E-04  0.2307329E+04  0.7818609E-02  0.8475037E-01
       -2   -1    0    0    0  501  0.00000000000E+00  0.00000000000E+00  0.70210678623E+03  0.70210678623E+03  0.25500000920E-02 0.  1.
        2   -1    0    0  501    0  0.00000000000E+00  0.00000000000E+00 -0.18956404552E+04  0.18956404552E+04  0.25500000920E-02 0. -1.
    10030    2    1    2    0    0  0.00000000000E+00  0.00000000000E+00 -0.11935336690E+04  0.25977472415E+04  0.23073292161E+04 0.  0.
        2    1    3    3  502    0 -0.20444591179E+03 -0.85924052049E+03 -0.14323772721E+04  0.16827944178E+04  0.25500000920E-02 0. -1.
       -2    1    3    3    0  502  0.20444591179E+03  0.85924052049E+03  0.23884360306E+03  0.91495282371E+03  0.25500000920E-02 0.  1.
</event>
<event>
 5   0  0.5642466E-05  0.2339958E+04  0.7818609E-02  0.8462331E-01
        1   -1    0    0  501    0  0.00000000000E+00  0.00000000000E+00  0.11697252407E+04  0.11697252407E+04  0.50400001928E-02 0.  1.
       -1   -1    0    0    0  501  0.00000000000E+00  0.00000000000E+00 -0.11702327382E+04  0.11702327382E+04  0.50400001928E-02 0. -1.
    10030    2    1    2    0    0  0.00000000000E+00  0.00000000000E+00 -0.50749748400E+00  0.23399579789E+04  0.23399579238E+04 0.  0.
        1    1    3    3  502    0  0.73827693782E+03 -0.41587364211E+03  0.80649719101E+03  0.11698040187E+04  0.50400001928E-02 0.  1.
       -1    1    3    3    0  502 -0.73827693782E+03  0.41587364211E+03 -0.80700468849E+03  0.11701539601E+04  0.50400001928E-02 0. -1.
</event>
<event>
 5   0  0.1234988E-04  0.2068126E+04  0.7818609E-02  0.8575416E-01
       -2   -1    0    0    0  501  0.00000000000E+00  0.00000000000E+00  0.60326822230E+03  0.60326822231E+03  0.25500000920E-02 0. -1.
        2   -1    0    0  501    0  0.00000000000E+00  0.00000000000E+00 -0.17724887232E+04  0.17724887232E+04  0.25500000920E-02 0.  1.
    10030    2    1    2    0    0  0.00000000000E+00  0.00000000000E+00 -0.11692205009E+04  0.23757569455E+04  0.20681258387E+04 0.  0.
        5    1    3    3  502    0 -0.58758654978E+03  0.62217572431E+03 -0.12513828943E+04  0.15160283056E+04  0.46999998093E+01 0.  1.
       -5    1    3    3    0  502  0.58758654978E+03 -0.62217572431E+03  0.82162393344E+02  0.85972863991E+03  0.46999998093E+01 0. -1.
</event>
<event>
 5   0  0.1234988E-04  0.2409504E+04  0.7818609E-02  0.8435954E-01
       -2   -1    0    0    0  501  0.00000000000E+00  0.00000000000E+00  0.68836446388E+03  0.68836446388E+03  0.25500000920E-02 0.  1.
        2   -1    0    0  501    0  0.00000000000E+00  0.00000000000E+00 -0.21085150545E+04  0.21085150545E+04  0.25500000920E-02 0. -1.
    10030    2    1    2    0    0  0.00000000000E+00  0.00000000000E+00 -0.14201505906E+04  0.27968795183E+04  0.24095035464E+04 0.  0.
        5    1    3    3  502    0 -0.27909366160E+03 -0.88808631517E+03  0.17760204175E+03  0.94771047814E+03  0.46999998093E+01 0.  1.
       -5    1    3    3    0  502  0.27909366160E+03  0.88808631517E+03 -0.15977526323E+04  0.18491690402E+04  0.46999998093E+01 0. -1.
</event>
<event>
 5   0  0.1257524E-04  0.2261351E+04  0.7818609E-02  0.8493317E-01
        2   -1    0    0  501    0  0.00000000000E+00  0.00000000000E+00  0.20835953447E+04  0.20835953447E+04  0.25500000920E-02 0. -1.
       -2   -1    0    0    0  501  0.00000000000E+00  0.00000000000E+00 -0.61356810242E+03  0.61356810243E+03  0.25500000920E-02 0.  1.
    10030    2    1    2    0    0  0.00000000000E+00  0.00000000000E+00  0.14700272423E+04  0.26971634471E+04  0.22613514914E+04 0.  0.
        3    1    3    3  502    0  0.25969719541E+03 -0.26452206597E+03 -0.53903060517E+03  0.65419306034E+03  0.10100000352E+00 0.  1.
       -3    1    3    3    0  502 -0.25969719541E+03  0.26452206597E+03  0.20090578475E+04  0.20429703868E+04  0.10100000352E+00 0. -1.
</event>
<event>
 5   0  0.5843670E-05  0.2291903E+04  0.7818609E-02  0.8481121E-01
       -1   -1    0    0    0  501  0.00000000000E+00  0.00000000000E+00  0.59004683588E+03  0.59004683591E+03  0.50400001928E-02 0. -1.
        1   -1    0    0  501    0  0.00000000000E+00  0.00000000000E+00 -0.22255932889E+04  0.22255932889E+04  0.50400001928E-02 0.  1.
    10030    2    1    2    0    0  0.00000000000E+00  0.00000000000E+00 -0.16355464530E+04  0.28156401248E+04  0.22919025094E+04 0.  0.
        2    1    3    3  502    0 -0.12496130402E+03  0.69071168134E+03  0.29503921307E+03  0.76141059324E+03  0.25500000920E-02 0. -1.
       -2    1    3    3    0  502  0.12496130402E+03 -0.69071168134E+03 -0.19305856661E+04  0.20542295316E+04  0.25500000920E-02 0.  1.
</event>
<event>
 5   0  0.5924654E-05  0.2304771E+04  0.7818609E-02  0.8476042E-01
        1   -1    0    0  501    0  0.00000000000E+00  0.00000000000E+00  0.16086056243E+04  0.16086056243E+04  0.50400001928E-02 0.  1.
       -1   -1    0    0    0  501  0.00000000000E+00  0.00000000000E+00 -0.82555525697E+03  0.82555525699E+03  0.50400001928E-02 0. -1.
    10030    2    1    2    0    0  0.00000000000E+00  0.00000000000E+00  0.78305036736E+03  0.24341608813E+04  0.23047714243E+04 0.  0.
        5    1    3    3  502    0  0.45506003461E+03  0.72799699319E+03  0.12033879656E+04  0.14782502978E+04  0.46999998093E+01 0.  1.
       -5    1    3    3    0  502 -0.45506003461E+03 -0.72799699319E+03 -0.42033759824E+03  0.95591058352E+03  0.46999998093E+01 0. -1.
</event>
<event>
 5   0  0.1270613E-04  0.2269818E+04  0.7818609E-02  0.8489918E-01
        2   -1    0    0  501    0  0.00000000000E+00  0.00000000000E+00  0.16614027232E+04  0.16614027232E+04  0.25500000920E-02 0.  1.
       -2   -1    0    0    0  501  0.00000000000E+00  0.00000000000E+00 -0.77525939398E+03  0.77525939398E+03  0.25500000920E-02 0. -1.
    10030    2    1    2    0    0  0.00000000000E+00  0.00000000000E+00  0.88614332923E+03  0.24366621172E+04  0.22698176740E+04 0.  0.
        2    1    3    3  502    0 -0.96173300653E+03 -0.40245770163E+03 -0.38351628949E+02  0.10432513719E+04  0.25500000920E-02 0. -1.
       -2    1    3    3    0  502  0.96173300653E+03  0.40245770163E+03  0.92449495818E+03  0.13934107453E+04  0.25500000920E-02 0.  1.
</event>
<event>
 5   0  0.1237296E-04  0.2297973E+04  0.7818609E-02  0.8478721E-01
        2   -1    0    0  501    0  0.00000000000E+00  0.00000000000E+00  0.12306688028E+04  0.12306688028E+04  0.25500000920E-02 0.  1.
       -2   -1    0    0    0  501  0.00000000000E+00  0.00000000000E+00 -0.10727259146E+04  0.10727259146E+04  0.25500000920E-02 0. -1.
    10030    2    1    2    0    0  0.00000000000E+00  0.00000000000E+00  0.15794288821E+03  0.23033947174E+04  0.22979732958E+04 0.  0.
        1    1    3    3  502    0 -0.58702975564E+03  0.50907324714E+03  0.92737885752E+03  0.12098723281E+04  0.50400001928E-02 0.  1.
       -1    1    3    3    0  502  0.58702975564E+03 -0.50907324714E+03 -0.76943596931E+03  0.10935223893E+04  0.50400001928E-02 0. -1.
</event>
<event>
 5   0  0.5843670E-05  0.1925466E+04  0.7818609E-02  0.8642283E-01
       -1   -1    0    0    0  501  0.00000000000E+00  0.00000000000E+00  0.71967357643E+03  0.71967357645E+03  0.50400001928E-02 0. -1.
        1   -1    0    0  501    0  0.00000000000E+00  0.00000000000E+00 -0.12878823554E+04  0.12878823554E+04  0.50400001928E-02 0.  1.
    10030    2    1    2    0    0  0.00000000000E+00  0.00000000000E+00 -0.56820877895E+03  0.20075559318E+04  0.19254660742E+04 0.  0.
        2    1    3    3  502    0 -0.61125085319E+02  0.34789825204E+03  0.64967029759E+03  0.73948696095E+03  0.25500000920E-02 0. -1.
       -2    1    3    3    0  502  0.61125085319E+02 -0.34789825204E+03 -0.12178790765E+04  0.12680689709E+04  0.25500000920E-02 0.  1.
</event>
<event>
 5   0  0.5663790E-05  0.2254764E+04  0.7818609E-02  0.8495974E-01
       -1   -1    0    0    0  501  0.00000000000E+00  0.00000000000E+00  0.17501514468E+04  0.17501514468E+04  0.50400001928E-02 0.  1.
        1   -1    0    0  501    0  0.00000000000E+00  0.00000000000E+00 -0.72621693148E+03  0.72621693150E+03  0.50400001928E-02 0. -1.
    10030    2    1    2    0    0  0.00000000000E+00  0.00000000000E+00  0.10239345153E+04  0.24763683783E+04  0.22547635028E+04 0.  0.
        3    1    3    3  502    0 -0.88485179041E+03 -0.37715181829E+03 -0.13385994649E+03  0.97114606548E+03  0.10100000352E+00 0.  1.
       -3    1    3    3    0  502  0.88485179041E+03  0.37715181829E+03  0.11577944618E+04  0.15052223128E+04  0.10100000352E+00 0. -1.
</event>
<event>
 5   0  0.1270613E-04  0.2297370E+04  0.7818609E-02  0.8478959E-01
       -2   -1    0    0    0  501  0.00000000000E+00  0.00000000000E+00  0.74167222980E+03  0.74167222980E+03  0.25500000920E-02 0.  1.
        2   -1    0    0  501    0  0.00000000000E+00  0.00000000000E+00 -0.17790563254E+04  0.17790563254E+04  0.25500000920E-02 0. -1.
    10030    2    1    2    0    0  0.00000000000E+00  0.00000000000E+00 -0.10373840956E+04  0.25207285552E+04  0.22973695147E+04 0.  0.
        2    1    3    3  502    0 -0.83269320645E+03  0.79008846270E+03 -0.47138506949E+03  0.12408954987E+04  0.25500000920E-02 0. -1.
       -2    1    3    3    0  502  0.83269320645E+03 -0.79008846270E+03 -0.56599902613E+03  0.12798330565E+04  0.25500000920E-02 0.  1.
</event>
<event>
 5   0  0.5642466E-05  0.2262862E+04  0.7818609E-02  0.8492710E-01
        1   -1    0    0  501    0  0.00000000000E+00  0.00000000000E+00  0.99598129079E+03  0.99598129081E+03  0.50400001928E-02 0. -1.
       -1   -1    0    0    0  501  0.00000000000E+00  0.00000000000E+00 -0.12853014485E+04  0.12853014485E+04  0.50400001928E-02 0.  1.
    10030    2    1    2    0    0  0.00000000000E+00  0.00000000000E+00 -0.28932015767E+03  0.22812827393E+04  0.22628620777E+04 0.  0.
        1    1    3    3  502    0 -0.37876818634E+03  0.72249702105E+03  0.64573031646E+03  0.10404013293E+04  0.50400001928E-02 0. -1.
       -1    1    3    3    0  502  0.37876818634E+03 -0.72249702105E+03 -0.93505047413E+03  0.12408814100E+04  0.50400001928E-02 0.  1.
</event>
<event>
 5   0  0.5642466E-05  0.2282131E+04  0.7818609E-02  0.8485000E-01
        1   -1    0    0  501    0  0.00000000000E+00  0.00000000000E+00  0.89383624402E+03  0.89383624403E+03  0.50400001928E-02 0. -1.
       -1   -1    0    0    0  501  0.00000000000E+00  0.00000000000E+00 -0.14566762574E+04  0.14566762574E+04  0.50400001928E-02 0.  1.
    10030    2    1    2    0    0  0.00000000000E+00  0.00000000000E+00 -0.56284001341E+03  0.23505125015E+04  0.22821306139E+04 0.  0.
        1    1    3    3  502    0 -0.82633160543E+03 -0.78639282675E+03 -0.31041371620E+03  0.11821989153E+04  0.50400001928E-02 0. -1.
       -1    1    3    3    0  502  0.82633160543E+03  0.78639282675E+03 -0.25242629721E+03  0.11683135862E+04  0.50400001928E-02 0.  1.
</event>
<event>
 5   0  0.5843670E-05  0.2311209E+04  0.7818609E-02  0.8473515E-01
       -1   -1    0    0    0  501  0.00000000000E+00  0.00000000000E+00  0.12950097891E+04  0.12950097891E+04  0.50400001928E-02 0. -1.
        1   -1    0    0  501    0  0.00000000000E+00  0.00000000000E+00 -0.10312058942E+04  0.10312058942E+04  0.50400001928E-02 0.  1.
    10030    2    1    2    0    0  0.00000000000E+00  0.00000000000E+00  0.26380389489E+03  0.23262156833E+04  0.23112089716E+04 0.  0.
        2    1    3    3  502    0 -0.36390267589E+03  0.97360558124E+03 -0.37644054149E+03  0.11054593917E+04  0.25500000920E-02 0.  1.
       -2    1    3    3    0  502  0.36390267589E+03 -0.97360558124E+03  0.64024443638E+03  0.12207562917E+04  0.25500000920E-02 0. -1.
</event>
<event>
 5   0  0.1281432E-04  0.2322742E+04  0.7818609E-02  0.8469008E-01
        2   -1    0    0  501    0  0.00000000000E+00  0.00000000000E+00  0.11718416759E+04  0.11718416759E+04  0.25500000920E-02 0. -1.
       -2   -1    0    0    0  501  0.00000000000E+00  0.00000000000E+00 -0.11509935987E+04  0.11509935987E+04  0.25500000920E-02 0.  1.
    10030    2    1    2    0    0  0.00000000000E+00  0.00000000000E+00  0.20848077138E+02  0.23228352746E+04  0.23227417141E+04 0.  0.
        4    1    3    3  502    0 -0.67536820177E+03  0.93366731488E+03 -0.13423237358E+03  0.11601193067E+04  0.12699999809E+01 0.  1.
       -4    1    3    3    0  502  0.67536820177E+03 -0.93366731488E+03  0.15508045072E+03  0.11627159679E+04  0.12699999809E+01 0. -1.
</event>
<event>
 5   0  0.1234988E-04  0.2274312E+04  0.7818609E-02  0.8488119E-01
       -2   -1    0    0    0  501  0.00000000000E+00  0.00000000000E+00  0.51439764760E+03  0.51439764760E+03  0.25500000920E-02 0. -1.
        2   -1    0    0  501    0  0.00000000000E+00  0.00000000000E+00 -0.25138593565E+04  0.25138593565E+04  0.25500000920E-02 0.  1.
    10030    2    1    2    0    0  0.00000000000E+00  0.00000000000E+00 -0.19994617089E+04  0.30282570041E+04  0.22743116228E+04 0.  0.
        5    1    3    3  502    0 -0.83945240095E+02  0.99258657760E+03 -0.17300298171E+04  0.19963216613E+04  0.46999998093E+01 0.  1.
       -5    1    3    3    0  502  0.83945240095E+02 -0.99258657760E+03 -0.26943189179E+03  0.10319353428E+04  0.46999998093E+01 0. -1.
</event>
<event>
 5   0  0.1281432E-04  0.2156544E+04  0.7818609E-02  0.8536736E-01
       -2   -1    0    0    0  501  0.00000000000E+00  0.00000000000E+00  0.47704086574E+03  0.47704086574E+03  0.25500000920E-02 0.  1.
        2   -1    0    0  501    0  0.00000000000E+00  0.00000000000E+00 -0.24372556688E+04  0.24372556688E+04  0.25500000920E-02 0. -1.
    10030    2    1    2    0    0  0.00000000000E+00  0.00000000000E+00 -0.19602148031E+04  0.29142965346E+04  0.21565440448E+04 0.  0.
        4    1    3    3  502    0 -0.60201861156E+03  0.47237119460E+01 -0.21889789816E+04  0.22702597465E+04  0.12699999809E+01 0. -1.
       -4    1    3    3    0  502  0.60201861156E+03 -0.47237119460E+01  0.22876417846E+03  0.64403678805E+03  0.12699999809E+01 0.  1.
</event>
<event>
 5   0  0.1237296E-04  0.2488042E+04  0.7818609E-02  0.8407258E-01
        2   -1    0    0  501    0  0.00000000000E+00  0.00000000000E+00  0.15992271404E+04  0.15992271404E+04  0.25500000920E-02 0.  1.
       -2   -1    0    0    0  501  0.00000000000E+00  0.00000000000E+00 -0.96770985633E+03  0.96770985633E+03  0.25500000920E-02 0. -1.
    10030    2    1    2    0    0  0.00000000000E+00  0.00000000000E+00  0.63151728411E+03  0.25669369968E+04  0.24880416928E+04 0.  0.
        1    1    3    3  502    0 -0.70873647220E+03 -0.58252319956E+03 -0.55109078433E+03  0.10702063902E+04  0.50400001928E-02 0. -1.
       -1    1    3    3    0  502  0.70873647220E+03  0.58252319956E+03  0.11826080684E+04  0.14967306066E+04  0.50400001928E-02 0.  1.
</event>
<event>
 5   0  0.1234988E-04  0.2313787E+04  0.7818609E-02  0.8472505E-01
       -2   -1    0    0    0  501  0.00000000000E+00  0.00000000000E+00  0.10806347727E+04  0.10806347727E+04  0.25500000920E-02 0. -1.
        2   -1    0    0  501    0  0.00000000000E+00  0.00000000000E+00 -0.12385333439E+04  0.12385333439E+04  0.25500000920E-02 0.  1.
    10030    2    1    2    0    0  0.00000000000E+00  0.00000000000E+00 -0.15789857115E+03  0.23191681166E+04  0.23137866786E+04 0.  0.
        5    1    3    3  502    0  0.49456669394E+03  0.10274819037E+04  0.11660659055E+03  0.11462698043E+04  0.46999998093E+01 0.  1.
       -5    1    3    3    0  502 -0.49456669394E+03 -0.10274819037E+04 -0.27450516169E+03  0.11728983123E+04  0.46999998093E+01 0. -1.
</event>
<event>
 5   0  0.1257524E-04  0.2312084E+04  0.7818609E-02  0.8473172E-01
        2   -1    0    0  501    0  0.00000000000E+00  0.00000000000E+00  0.22267966981E+04  0.22267966981E+04  0.25500000920E-02 0. -1.
       -2   -1    0    0    0  501  0.00000000000E+00  0.00000000000E+00 -0.60015957977E+03  0.60015957977E+03  0.25500000920E-02 0.  1.
    10030    2    1    2    0    0  0.00000000000E+00  0.00000000000E+00  0.16266371183E+04  0.28269562779E+04  0.23120842291E+04 0.  0.
        3    1    3    3  502    0  0.89368096319E+03  0.45644570289E+03  0.15150868302E+04  0.18172772097E+04  0.10100000352E+00 0. -1.
       -3    1    3    3    0  502 -0.89368096319E+03 -0.45644570289E+03  0.11155028809E+03  0.10096790681E+04  0.10100000352E+00 0.  1.
</event>
<event>
 5   0  0.1281432E-04  0.2099994E+04  0.7818609E-02  0.8561246E-01
        2   -1    0    0  501    0  0.00000000000E+00  0.00000000000E+00  0.44730765306E+03  0.44730765306E+03  0.25500000920E-02 0. -1.
       -2   -1    0    0    0  501  0.00000000000E+00  0.00000000000E+00 -0.24647328516E+04  0.24647328516E+04  0.25500000920E-02 0.  1.
    10030    2    1    2    0    0  0.00000000000E+00  0.00000000000E+00 -0.20174251986E+04  0.29120405047E+04  0.20999941593E+04 0.  0.
        4    1    3    3  502    0  0.62452664620E+03  0.96119693516E+02  0.15414048005E+03  0.65041019963E+03  0.12699999809E+01 0. -1.
       -4    1    3    3    0  502 -0.62452664620E+03 -0.96119693516E+02 -0.21715656786E+04  0.22616303051E+04  0.12699999809E+01 0.  1.
</event>
<event>
 5   0  0.5663790E-05  0.2282524E+04  0.7818609E-02  0.8484844E-01
        1   -1    0    0  501    0  0.00000000000E+00  0.00000000000E+00  0.58241973071E+03  0.58241973073E+03  0.50400001928E-02 0.  1.
       -1   -1    0    0    0  501  0.00000000000E+00  0.00000000000E+00 -0.22363233108E+04  0.22363233108E+04  0.50400001928E-02 0. -1.
    10030    2    1    2    0    0  0.00000000000E+00  0.00000000000E+00 -0.16539035801E+04  0.28187430415E+04  0.22825238842E+04 0.  0.
        3    1    3    3  502    0 -0.82045413013E+02  0.32790187528E+03 -0.21730910682E+04  0.21992216556E+04  0.10100000352E+00 0. -1.
       -3    1    3    3    0  502  0.82045413013E+02 -0.32790187528E+03  0.51918748811E+03  0.61952138593E+03  0.10100000352E+00 0.  1.
</event>
<event>
 5   0  0.5843670E-05  0.2318950E+04  0.7818609E-02  0.8470487E-01
       -1   -1    0    0    0  501  0.00000000000E+00  0.00000000000E+00  0.11222134324E+04  0.11222134324E+04  0.50400001928E-02 0. -1.
        1   -1    0    0  501    0  0.00000000000E+00  0.00000000000E+00 -0.11979740631E+04  0.11979740631E+04  0.50400001928E-02 0.  1.
    10030    2    1    2    0    0  0.00000000000E+00  0.00000000000E+00 -0.75760630745E+02  0.23201874955E+04  0.23189502671E+04 0.  0.
        2    1    3    3  502    0  0.93914488574E+01  0.70016371591E+03 -0.96252983708E+03  0.11902861486E+04  0.25500000920E-02 0.  1.
       -2    1    3    3    0  502 -0.93914488574E+01 -0.70016371591E+03  0.88676920634E+03  0.11299013469E+04  0.25500000920E-02 0. -1.
</event>
<event>
 5   0  0.5663790E-05  0.2294876E+04  0.7818609E-02  0.8479944E-01
       -1   -1    0    0    0  501  0.00000000000E+00  0.00000000000E+00  0.12938141060E+04  0.12938141060E+04  0.50400001928E-02 0. -1.
        1   -1    0    0  501    0  0.00000000000E+00  0.00000000000E+00 -0.10176225701E+04  0.10176225701E+04  0.50400001928E-02 0.  1.
    10030    2    1    2    0    0  0.00000000000E+00  0.00000000000E+00  0.27619153596E+03  0.23114366761E+04  0.22948764113E+04 0.  0.
        3    1    3    3  502    0 -0.10847293302E+04  0.24911553130E+03  0.41924832424E+03  0.11893130098E+04  0.10100000352E+00 0.  1.
       -3    1    3    3    0  502  0.10847293302E+04 -0.24911553130E+03 -0.14305678828E+03  0.11221236663E+04  0.10100000352E+00 0. -1.
</event>
<event>
 5   0  0.1281432E-04  0.2284904E+04  0.7818609E-02  0.8483897E-01
        2   -1    0    0  501    0  0.00000000000E+00  0.00000000000E+00  0.19164657804E+04  0.19164657804E+04  0.25500000920E-02 0. -1.
       -2   -1    0    0    0  501  0.00000000000E+00  0.00000000000E+00 -0.68104372856E+03  0.68104372857E+03  0.25500000920E-02 0.  1.
    10030    2    1    2    0    0  0.00000000000E+00  0.00000000000E+00  0.12354220519E+04  0.25975095090E+04  0.22849043751E+04 0.  0.
        4    1    3    3  502    0 -0.21545093216E+03  0.98061744140E+03 -0.19989245919E+01  0.10040096011E+04  0.12699999809E+01 0.  1.
       -4    1    3    3    0  502  0.21545093216E+03 -0.98061744140E+03  0.12374209765E+04  0.15934999079E+04  0.12699999809E+01 0. -1.
</event>
<event>
 5   0  0.5642466E-05  0.1720426E+04  0.7818609E-02  0.8749800E-01
       -1   -1    0    0    0  501  0.00000000000E+00  0.00000000000E+00  0.13777971975E+04  0.13777971975E+04  0.50400001928E-02 0. -1.
        1   -1    0    0  501    0  0.00000000000E+00  0.00000000000E+00 -0.53706489668E+03  0.53706489671E+03  0.50400001928E-02 0.  1.
    10030    2    1    2    0    0  0.00000000000E+00  0.00000000000E+00  0.84073230078E+03  0.19148620942E+04  0.17204261211E+04 0.  0.
        1    1    3    3  502    0  0.67665526083E+03  0.17954911325E+03 -0.13599308661E+03  0.71315800894E+03  0.50400001928E-02 0.  1.
       -1    1    3    3    0  502 -0.67665526083E+03 -0.17954911325E+03  0.97672538738E+03  0.12017040852E+04  0.50400001928E-02 0. -1.
</event>
<event>
 5   0  0.5924654E-05  0.2296951E+04  0.7818609E-02  0.8479124E-01
        1   -1    0    0  501    0  0.00000000000E+00  0.00000000000E+00  0.10842932741E+04  0.10842932741E+04  0.50400001928E-02 0. -1.
       -1   -1    0    0    0  501  0.00000000000E+00  0.00000000000E+00 -0.12164569661E+04  0.12164569661E+04  0.50400001928E-02 0.  1.
    10030    2    1    2    0    0  0.00000000000E+00  0.00000000000E+00 -0.13216369202E+03  0.23007502402E+04  0.22969511154E+04 0.  0.
        5    1    3    3  502    0 -0.39519137295E+02 -0.69002782659E+03 -0.98480871762E+03  0.12031502250E+04  0.46999998093E+01 0.  1.
       -5    1    3    3    0  502  0.39519137295E+02  0.69002782659E+03  0.85264502559E+03  0.10976000152E+04  0.46999998093E+01 0. -1.
</event>
<event>
 5   0  0.5642466E-05  0.2308382E+04  0.7818609E-02  0.8474623E-01
        1   -1    0    0  501    0  0.00000000000E+00  0.00000000000E+00  0.15915579767E+04  0.15915579767E+04  0.50400001928E-02 0. -1.
       -1   -1    0    0    0  501  0.00000000000E+00  0.00000000000E+00 -0.83701468286E+03  0.83701468288E+03  0.50400001928E-02 0.  1.
    10030    2    1    2    0    0  0.00000000000E+00  0.00000000000E+00  0.75454329384E+03  0.24285726596E+04  0.23083824598E+04 0.  0.
        1    1    3    3  502    0 -0.27254273006E+03  0.38932547529E+03 -0.72930241171E+03  0.87048025433E+03  0.50400001928E-02 0.  1.
       -1    1    3    3    0  502  0.27254273006E+03 -0.38932547529E+03  0.14838457056E+04  0.15580924053E+04  0.50400001928E-02 0. -1.
</event>
<event>
 5   0  0.5843670E-05  0.2323901E+04  0.7818609E-02  0.8468556E-01
       -1   -1    0    0    0  501  0.00000000000E+00  0.00000000000E+00  0.10036564989E+04  0.10036564989E+04  0.50400001928E-02 0. -1.
        1   -1    0    0  501    0  0.00000000000E+00  0.00000000000E+00 -0.13452104420E+04  0.13452104421E+04  0.50400001928E-02 0.  1.
    10030    2    1    2    0    0  0.00000000000E+00  0.00000000000E+00 -0.34155394318E+03  0.23488669409E+04  0.23239012049E+04 0.  0.
        2    1    3    3  502    0  0.50469374554E+03  0.79333471647E+03  0.51922336214E+03  0.10740989940E+04  0.25500000920E-02 0. -1.
       -2    1    3    3    0  502 -0.50469374554E+03 -0.79333471647E+03 -0.86077730532E+03  0.12747679469E+04  0.25500000920E-02 0.  1.
</event>
<event>
 5   0  0.1234988E-04  0.2286533E+04  0.7818609E-02  0.8483250E-01
       -2   -1    0    0    0  501  0.00000000000E+00  0.00000000000E+00  0.89626466453E+03  0.89626466454E+03  0.25500000920E-02 0.  1.
        2   -1    0    0  501    0  0.00000000000E+00  0.00000000000E+00 -0.14583392419E+04  0.14583392419E+04  0.25500000920E-02 0. -1.
    10030    2    1    2    0    0  0.00000000000E+00  0.00000000000E+00 -0.56207457733E+03  0.23546039064E+04  0.22865326863E+04 0.  0.
        5    1    3    3  502    0  0.71247080805E+03  0.43616470588E+03  0.52269943611E+03  0.98543954329E+03  0.46999998093E+01 0.  1.
       -5    1    3    3    0  502 -0.71247080805E+03 -0.43616470588E+03 -0.10847740134E+04  0.13691643631E+04  0.46999998093E+01 0. -1.
</event>
<event>
 5   0  0.1281432E-04  0.2380357E+04  0.7818609E-02  0.8446894E-01
       -2   -1    0    0    0  501  0.00000000000E+00  0.00000000000E+00  0.77794912932E+03  0.77794912933E+03  0.25500000920E-02 0.  1.
        2   -1    0    0  501    0  0.00000000000E+00  0.00000000000E+00 -0.18208450725E+04  0.18208450725E+04  0.25500000920E-02 0. -1.
    10030    2    1    2    0    0  0.00000000000E+00  0.00000000000E+00 -0.10428959432E+04  0.25987942018E+04  0.23803569806E+04 0.  0.
        4    1    3    3  502    0  0.76409111488E+03  0.85126725737E+02 -0.15133594798E+04  0.16974511243E+04  0.12699999809E+01 0. -1.
       -4    1    3    3    0  502 -0.76409111488E+03 -0.85126725737E+02  0.47046353662E+03  0.90134307756E+03  0.12699999809E+01 0.  1.
</event>
<event>
 5   0  0.5663790E-05  0.2277554E+04  0.7818609E-02  0.8486824E-01
       -1   -1    0    0    0  501  0.00000000000E+00  0.00000000000E+00  0.93926282441E+03  0.93926282442E+03  0.50400001928E-02 0.  1.
        1   -1    0    0  501    0  0.00000000000E+00  0.00000000000E+00 -0.13806705711E+04  0.13806705711E+04  0.50400001928E-02 0. -1.
    10030    2    1    2    0    0  0.00000000000E+00  0.00000000000E+00 -0.44140774672E+03  0.23199333956E+04  0.22775535473E+04 0.  0.
        3    1    3    3  502    0  0.49417479532E+03  0.86906748589E+03  0.33471803213E+03  0.10542880036E+04  0.10100000352E+00 0.  1.
       -3    1    3    3    0  502 -0.49417479532E+03 -0.86906748589E+03 -0.77612577884E+03  0.12656453919E+04  0.10100000352E+00 0. -1.
</event>
<event>
 5   0  0.5843670E-05  0.2300395E+04  0.7818609E-02  0.8477765E-01
        1   -1    0    0  501    0  0.00000000000E+00  0.00000000000E+00  0.99665581394E+03  0.99665581396E+03  0.50400001928E-02 0.  1.
       -1   -1    0    0    0  501  0.00000000000E+00  0.00000000000E+00 -0.13273935697E+04  0.13273935697E+04  0.50400001928E-02 0. -1.
    10030    2    1    2    0    0  0.00000000000E+00  0.00000000000E+00 -0.33073775578E+03  0.23240493837E+04  0.23003951997E+04 0.  0.
        2    1    3    3  502    0  0.63667459528E+03 -0.39191676015E+03 -0.10484283001E+04  0.12876937476E+04  0.25500000920E-02 0. -1.
       -2    1    3    3    0  502 -0.63667459528E+03  0.39191676015E+03  0.71769054428E+03  0.10363556361E+04  0.25500000920E-02 0.  1.
</event>
<event>
 5   0  0.1281432E-04  0.1731585E+04  0.7818609E-02  0.8743553E-01
       -2   -1    0    0    0  501  0.00000000000E+00  0.00000000000E+00  0.40113035892E+03  0.40113035893E+03  0.25500000920E-02 0. -1.
        2   -1    0    0  501    0  0.00000000000E+00  0.00000000000E+00 -0.18687106603E+04  0.18687106603E+04  0.25500000920E-02 0.  1.
    10030    2    1    2    0    0  0.00000000000E+00  0.00000000000E+00 -0.14675803014E+04  0.22698410192E+04  0.17315849132E+04 0.  0.
        4    1    3    3  502    0 -0.84753345507E+03  0.16073587327E+03 -0.63705374885E+03  0.10723749672E+04  0.12699999809E+01 0. -1.
       -4    1    3    3    0  502  0.84753345507E+03 -0.16073587327E+03 -0.83052655254E+03  0.11974660520E+04  0.12699999809E+01 0.  1.
</event>
<event>
 5   0  0.5642466E-05  0.2361900E+04  0.7818609E-02  0.8453907E-01
        1   -1    0    0  501    0  0.00000000000E+00  0.00000000000E+00  0.70012231212E+03  0.70012231214E+03  0.50400001928E-02 0. -1.
       -1   -1    0    0    0  501  0.00000000000E+00  0.00000000000E+00 -0.19919995735E+04  0.19919995735E+04  0.50400001928E-02 0.  1.
    10030    2    1    2    0    0  0.00000000000E+00  0.00000000000E+00 -0.12918772613E+04  0.26921218856E+04  0.23619003765E+04 0.  0.
        1    1    3    3  502    0 -0.10484713854E+04 -0.34574413827E+03 -0.16801609007E+03  0.11167187031E+04  0.50400001928E-02 0.  1.
       -1    1    3    3    0  502  0.10484713854E+04  0.34574413827E+03 -0.11238611713E+04  0.15754031825E+04  0.50400001928E-02 0. -1.
</event>
<event>
 5   0  0.1237296E-04  0.2180478E+04  0.7818609E-02  0.8526598E-01
        2   -1    0    0  501    0  0.00000000000E+00  0.00000000000E+00  0.16329467067E+04  0.16329467067E+04  0.25500000920E-02 0. -1.
       -2   -1    0    0    0  501  0.00000000000E+00  0.00000000000E+00 -0.72789930181E+03  0.72789930182E+03  0.25500000920E-02 0.  1.
    10030    2    1    2    0    0  0.00000000000E+00  0.00000000000E+00  0.90504740492E+03  0.23608460085E+04  0.21804777162E+04 0.  0.
        1    1    3    3  502    0  0.86819406588E+03  0.36552363173E+03 -0.14174272752E+03  0.95260666711E+03  0.50400001928E-02 0.  1.
       -1    1    3    3    0  502 -0.86819406588E+03 -0.36552363173E+03  0.10467901324E+04  0.14082393414E+04  0.50400001928E-02 0. -1.
</event>
<event>
 5   0  0.5642466E-05  0.2316910E+04  0.7818609E-02  0.8471283E-01
       -1   -1    0    0    0  501  0.00000000000E+00  0.00000000000E+00  0.54568436825E+03  0.54568436827E+03  0.50400001928E-02 0.  1.
        1   -1    0    0  501    0  0.00000000000E+00  0.00000000000E+00 -0.24593300419E+04  0.24593300419E+04  0.50400001928E-02 0. -1.
    10030    2    1    2    0    0  0.00000000000E+00  0.00000000000E+00 -0.19136456737E+04  0.30050144102E+04  0.23169099769E+04 0.  0.
        1    1    3    3  502    0  0.79900791450E+03 -0.61877260369E+03 -0.16913428878E+04  0.19702624056E+04  0.50400001928E-02 0.  1.
       -1    1    3    3    0  502 -0.79900791450E+03  0.61877260369E+03 -0.22230278586E+03  0.10347520047E+04  0.50400001928E-02 0. -1.
</event>
<event>
 5   0  0.5642466E-05  0.1884565E+04  0.7818609E-02  0.8662578E-01
       -1   -1    0    0    0  501  0.00000000000E+00  0.00000000000E+00  0.58343338407E+03  0.58343338409E+03  0.50400001928E-02 0.  1.
        1   -1    0    0  501    0  0.00000000000E+00  0.00000000000E+00 -0.15218472387E+04  0.15218472387E+04  0.50400001928E-02 0. -1.
    10030    2    1    2    0    0  0.00000000000E+00  0.00000000000E+00 -0.93841385466E+03  0.21052806228E+04  0.18845651855E+04 0.  0.
        1    1    3    3  502    0  0.24787856410E+03  0.76784686372E+03 -0.10128930693E+04  0.12949845398E+04  0.50400001928E-02 0. -1.
       -1    1    3    3    0  502 -0.24787856410E+03 -0.76784686372E+03  0.74479214599E+02  0.81029608298E+03  0.50400001928E-02 0.  1.
</event>
<event>
 5   0  0.1257524E-04  0.2149919E+04  0.7818609E-02  0.8539567E-01
       -2   -1    0    0    0  501  0.00000000000E+00  0.00000000000E+00  0.12103318028E+04  0.12103318028E+04  0.25500000920E-02 0. -1.
        2   -1    0    0  501    0  0.00000000000E+00  0.00000000000E+00 -0.95472811759E+03  0.95472811759E+03  0.25500000920E-02 0.  1.
    10030    2    1    2    0    0  0.00000000000E+00  0.00000000000E+00  0.25560368524E+03  0.21650599204E+04  0.21499188857E+04 0.  0.
        3    1    3    3  502    0  0.78935220999E+03  0.66164593233E+03 -0.18207539895E+03  0.10459463238E+04  0.10100000352E+00 0. -1.
       -3    1    3    3    0  502 -0.78935220999E+03 -0.66164593233E+03  0.43767908420E+03  0.11191135966E+04  0.10100000352E+00 0.  1.
</event>
<event>
 5   0  0.5924654E-05  0.1206574E+04  0.7818609E-02  0.9107121E-01
        1   -1    0    0  501    0  0.00000000000E+00  0.00000000000E+00  0.10357321730E+04  0.10357321730E+04  0.50400001928E-02 0. -1.
       -1   -1    0    0    0  501  0.00000000000E+00  0.00000000000E+00 -0.35139919896E+03  0.35139919900E+03  0.50400001928E-02 0.  1.
    10030    2    1    2    0    0  0.00000000000E+00  0.00000000000E+00  0.68433297401E+03  0.13871313720E+04  0.12065744170E+04 0.  0.
        5    1    3    3  502    0 -0.12858059149E+03 -0.53196413234E+03  0.50386499468E+02  0.54961777258E+03  0.46999998093E+01 0.  1.
       -5    1    3    3    0  502  0.12858059149E+03  0.53196413234E+03  0.63394647455E+03  0.83751359941E+03  0.46999998093E+01 0. -1.
</event>
<event>
 5   0  0.1257524E-04  0.2226727E+04  0.7818609E-02  0.8507385E-01
        2   -1    0    0  501    0  0.00000000000E+00  0.00000000000E+00  0.15211465998E+04  0.15211465998E+04  0.25500000920E-02 0. -1.
       -2   -1    0    0    0  501  0.00000000000E+00  0.00000000000E+00 -0.81489733195E+03  0.81489733195E+03  0.25500000920E-02 0.  1.
    10030    2    1    2    0    0  0.00000000000E+00  0.00000000000E+00  0.70624926781E+03  0.23360439317E+04  0.22267270202E+04 0.  0.
        3    1    3    3  502    0  0.10080653509E+04 -0.47041850310E+03  0.40107376257E+03  0.11825182844E+04  0.10100000352E+00 0. -1.
       -3    1    3    3    0  502 -0.10080653509E+04  0.47041850310E+03  0.30517550524E+03  0.11535256473E+04  0.10100000352E+00 0.  1.
</event>
<event>
 5   0  0.1281432E-04  0.2255045E+04  0.7818609E-02  0.8495860E-01
        2   -1    0    0  501    0  0.00000000000E+00  0.00000000000E+00  0.21289787468E+04  0.21289787468E+04  0.25500000920E-02 0. -1.
       -2   -1    0    0    0  501  0.00000000000E+00  0.00000000000E+00 -0.59714398134E+03  0.59714398134E+03  0.25500000920E-02 0.  1.
    10030    2    1    2    0    0  0.00000000000E+00  0.00000000000E+00  0.15318347654E+04  0.27261227281E+04  0.22550448732E+04 0.  0.
        4    1    3    3  502    0  0.24557834374E+03 -0.78924392410E+02 -0.56099371952E+03  0.61745716360E+03  0.12699999809E+01 0.  1.
       -4    1    3    3    0  502 -0.24557834374E+03  0.78924392410E+02  0.20928284850E+04  0.21086655645E+04  0.12699999809E+01 0. -1.
</event>
<event>
 5   0  0.1257524E-04  0.2131029E+04  0.7818609E-02  0.8547697E-01
        2   -1    0    0  501    0  0.00000000000E+00  0.00000000000E+00  0.11709879397E+04  0.11709879397E+04  0.25500000920E-02 0.  1.
       -2   -1    0    0    0  501  0.00000000000E+00  0.00000000000E+00 -0.96954113598E+03  0.96954113598E+03  0.25500000920E-02 0. -1.
    10030    2    1    2    0    0  0.00000000000E+00  0.00000000000E+00  0.20144680374E+03  0.21405290757E+04  0.21310288382E+04 0.  0.
        3    1    3    3  502    0  0.32929890408E+02  0.80573766910E+03 -0.59881755948E+03  0.10044302110E+04  0.10100000352E+00 0. -1.
       -3    1    3    3    0  502 -0.32929890408E+02 -0.80573766910E+03  0.80026436322E+03  0.11360988647E+04  0.10100000352E+00 0.  1.
</event>
<event>
 5   0  0.1237296E-04  0.1443342E+04  0.7818609E-02  0.8923030E-01
        2   -1    0    0  501    0  0.00000000000E+00  0.00000000000E+00  0.10305302080E+04  0.10305302081E+04  0.25500000920E-02 0. -1.
       -2   -1    0    0    0  501  0.00000000000E+00  0.00000000000E+00 -0.50537952862E+03  0.50537952862E+03  0.25500000920E-02 0.  1.
    10030    2    1    2    0    0  0.00000000000E+00  0.00000000000E+00  0.52515067943E+03  0.15359097367E+04  0.14433417763E+04 0.  0.
        1    1    3    3  502    0  0.46862747174E+03 -0.54844394441E+03  0.28402770258E+03  0.77528975441E+03  0.50400001928E-02 0.  1.
       -1    1    3    3    0  502 -0.46862747174E+03  0.54844394441E+03  0.24112297685E+03  0.76061998227E+03  0.50400001928E-02 0. -1.
</event>
<event>
 5   0  0.5843670E-05  0.2339760E+04  0.7818609E-02  0.8462407E-01
        1   -1    0    0  501    0  0.00000000000E+00  0.00000000000E+00  0.12213752231E+04  0.12213752231E+04  0.50400001928E-02 0. -1.
       -1   -1    0    0    0  501  0.00000000000E+00  0.00000000000E+00 -0.11205560850E+04  0.11205560851E+04  0.50400001928E-02 0.  1.
    10030    2    1    2    0    0  0.00000000000E+00  0.00000000000E+00  0.10081913803E+03  0.23419313081E+04  0.23397601914E+04 0.  0.
        2    1    3    3  502    0  0.51816553811E+03  0.37851925632E+03  0.10295028589E+04  0.12131152001E+04  0.25500000920E-02 0. -1.
       -2    1    3    3    0  502 -0.51816553811E+03 -0.37851925632E+03 -0.92868372087E+03  0.11288161080E+04  0.25500000920E-02 0.  1.
</event>
<event>
 5   0  0.5632156E-05  0.2185168E+04  0.7818609E-02  0.8524627E-01
       -1   -1    0    0    0  501  0.00000000000E+00  0.00000000000E+00  0.20683100990E+04  0.20683100990E+04  0.50400001928E-02 0.  1.
        1   -1    0    0  501    0  0.00000000000E+00  0.00000000000E+00 -0.57715696856E+03  0.57715696858E+03  0.50400001928E-02 0. -1.
    10030    2    1    2    0    0  0.00000000000E+00  0.00000000000E+00  0.14911531304E+04  0.26454670675E+04  0.21851678076E+04 0.  0.
        4    1    3    3  502    0  0.61335376631E+03 -0.48846009316E+03 -0.17558337952E+03  0.80350932871E+03  0.12699999809E+01 0. -1.
       -4    1    3    3    0  502 -0.61335376631E+03  0.48846009316E+03  0.16667365099E+04  0.18419577388E+04  0.12699999809E+01 0.  1.
</event>
<event>
 5   0  0.1234988E-04  0.2286565E+04  0.7818609E-02  0.8483237E-01
       -2   -1    0    0    0  501  0.00000000000E+00  0.00000000000E+00  0.90284100284E+03  0.90284100284E+03  0.25500000920E-02 0.  1.
        2   -1    0    0  501    0  0.00000000000E+00  0.00000000000E+00 -0.14477580101E+04  0.14477580101E+04  0.25500000920E-02 0. -1.
    10030    2    1    2    0    0  0.00000000000E+00  0.00000000000E+00 -0.54491700722E+03  0.23505990129E+04  0.22865653664E+04 0.  0.
        5    1    3    3  502    0 -0.27347254097E+03  0.50945255740E+03 -0.12863564026E+04  0.14103418109E+04  0.46999998093E+01 0. -1.
       -5    1    3    3    0  502  0.27347254097E+03 -0.50945255740E+03  0.74143939541E+03  0.94025720203E+03  0.46999998093E+01 0.  1.
</event>
<event>
 5   0  0.5642466E-05  0.2198714E+04  0.7818609E-02  0.8518963E-01
       -1   -1    0    0    0  501  0.00000000000E+00  0.00000000000E+00  0.15133108215E+04  0.15133108215E+04  0.50400001928E-02 0. -1.
        1   -1    0    0  501    0  0.00000000000E+00  0.00000000000E+00 -0.79863698964E+03  0.79863698966E+03  0.50400001928E-02 0.  1.
    10030    2    1    2    0    0  0.00000000000E+00  0.00000000000E+00  0.71467383181E+03  0.23119478111E+04  0.21987141687E+04 0.  0.
        1    1    3    3  502    0 -0.51820888352E+03  0.52199903487E+03 -0.50178586827E+03  0.89040018923E+03  0.50400001928E-02 0.  1.
       -1    1    3    3    0  502  0.51820888352E+03 -0.52199903487E+03  0.12164597001E+04  0.14215476219E+04  0.50400001928E-02 0. -1.
</event>
<event>
 5   0  0.5632156E-05  0.2305833E+04  0.7818609E-02  0.8475625E-01
        1   -1    0    0  501    0  0.00000000000E+00  0.00000000000E+00  0.20364082616E+04  0.20364082616E+04  0.50400001928E-02 0.  1.
       -1   -1    0    0    0  501  0.00000000000E+00  0.00000000000E+00 -0.65272579737E+03  0.65272579739E+03  0.50400001928E-02 0. -1.
    10030    2    1    2    0    0  0.00000000000E+00  0.00000000000E+00  0.13836824642E+04  0.26891340590E+04  0.23058327835E+04 0.  0.
        4    1    3    3  502    0  0.10179833700E+04 -0.49744129512E+03  0.44313957219E+03  0.12165986508E+04  0.12699999809E+01 0. -1.
       -4    1    3    3    0  502 -0.10179833700E+04  0.49744129512E+03  0.94054289206E+03  0.14725354082E+04  0.12699999809E+01 0.  1.
</event>
<event>
 5   0  0.5924654E-05  0.2306589E+04  0.7818609E-02  0.8475328E-01
       -1   -1    0    0    0  501  0.00000000000E+00  0.00000000000E+00  0.69023218713E+03  0.69023218714E+03  0.50400001928E-02 0. -1.
        1   -1    0    0  501    0  0.00000000000E+00  0.00000000000E+00 -0.19270156746E+04  0.19270156746E+04  0.50400001928E-02 0.  1.
    10030    2    1    2    0    0  0.00000000000E+00  0.00000000000E+00 -0.12367834875E+04  0.26172478618E+04  0.23065890347E+04 0.  0.
        5    1    3    3  502    0 -0.81685980514E+02 -0.10642030483E+04 -0.11141138244E+04  0.15428779703E+04  0.46999998093E+01 0.  1.
       -5    1    3    3    0  502  0.81685980514E+02  0.10642030483E+04 -0.12266966305E+03  0.10743698915E+04  0.46999998093E+01 0. -1.
</event>
<event>
 5   0  0.1281432E-04  0.2201236E+04  0.7818609E-02  0.8517914E-01
        2   -1    0    0  501    0  0.00000000000E+00  0.00000000000E+00  0.11217780189E+04  0.11217780189E+04  0.25500000920E-02 0.  1.
       -2   -1    0    0    0  501  0.00000000000E+00  0.00000000000E+00 -0.10798568103E+04  0.10798568104E+04  0.25500000920E-02 0. -1.
    10030    2    1    2    0    0  0.00000000000E+00  0.00000000000E+00  0.41921208534E+02  0.22016348292E+04  0.22012356833E+04 0.  0.
        4    1    3    3  502    0  0.24201050156E+03  0.48985090151E+03 -0.93463664732E+03  0.10826219395E+04  0.12699999809E+01 0. -1.
       -4    1    3    3    0  502 -0.24201050156E+03 -0.48985090151E+03  0.97655785585E+03  0.11190128897E+04  0.12699999809E+01 0.  1.
</event>
<event>
 5   0  0.5642466E-05  0.2403436E+04  0.7818609E-02  0.8438218E-01
       -1   -1    0    0    0  501  0.00000000000E+00  0.00000000000E+00  0.99926522090E+03  0.99926522091E+03  0.50400001928E-02 0. -1.
        1   -1    0    0  501    0  0.00000000000E+00  0.00000000000E+00 -0.14451885497E+04  0.14451885497E+04  0.50400001928E-02 0.  1.
    10030    2    1    2    0    0  0.00000000000E+00  0.00000000000E+00 -0.44592332876E+03  0.24444537706E+04  0.24034364192E+04 0.  0.
        1    1    3    3  502    0 -0.77609728530E+03  0.86444204660E+03  0.89758645090E+02  0.11651796696E+04  0.50400001928E-02 0.  1.
       -1    1    3    3    0  502  0.77609728530E+03 -0.86444204660E+03 -0.53568197385E+03  0.12792741009E+04  0.50400001928E-02 0. -1.
</event>
<event>
 5   0  0.1270613E-04  0.1399673E+04  0.7818609E-02  0.8954055E-01
       -2   -1    0    0    0  501  0.00000000000E+00  0.00000000000E+00  0.23214572290E+03  0.23214572291E+03  0.25500000920E-02 0.  1.
        2   -1    0    0  501    0  0.00000000000E+00  0.00000000000E+00 -0.21097568239E+04  0.21097568239E+04  0.25500000920E-02 0. -1.
    10030    2    1    2    0    0  0.00000000000E+00  0.00000000000E+00 -0.18776111010E+04  0.23419025468E+04  0.13996728518E+04 0.  0.
        2    1    3    3  502    0 -0.18445527756E+03  0.22216599634E+03  0.12782383035E+03  0.31578538750E+03  0.25500000920E-02 0.  1.
       -2    1    3    3    0  502  0.18445527756E+03 -0.22216599634E+03 -0.20054349314E+04  0.20261171593E+04  0.25500000920E-02 0. -1.
</event>
<event>
 5   0  0.1234988E-04  0.2240021E+04  0.7818609E-02  0.8501953E-01
        2   -1    0    0  501    0  0.00000000000E+00  0.00000000000E+00  0.18889070316E+04  0.18889070316E+04  0.25500000920E-02 0. -1.
       -2   -1    0    0    0  501  0.00000000000E+00  0.00000000000E+00 -0.66410005085E+03  0.66410005085E+03  0.25500000920E-02 0.  1.
    10030    2    1    2    0    0  0.00000000000E+00  0.00000000000E+00  0.12248069807E+04  0.25530070824E+04  0.22400207639E+04 0.  0.
        5    1    3    3  502    0 -0.85067618439E+02  0.10439448195E+04  0.16031348809E+03  0.10596130380E+04  0.46999998093E+01 0. -1.
       -5    1    3    3    0  502  0.85067618439E+02 -0.10439448195E+04  0.10644934926E+04  0.14933940444E+04  0.46999998093E+01 0.  1.
</event>
<event>
 5   0  0.5663790E-05  0.2301270E+04  0.7818609E-02  0.8477421E-01
        1   -1    0    0  501    0  0.00000000000E+00  0.00000000000E+00  0.14045582771E+04  0.14045582771E+04  0.50400001928E-02 0.  1.
       -1   -1    0    0    0  501  0.00000000000E+00  0.00000000000E+00 -0.94261730148E+03  0.94261730149E+03  0.50400001928E-02 0. -1.
    10030    2    1    2    0    0  0.00000000000E+00  0.00000000000E+00  0.46194097563E+03  0.23471755786E+04  0.23012700258E+04 0.  0.
        3    1    3    3  502    0  0.31373618433E+03 -0.19061816635E+02  0.13599229982E+04  0.13957737343E+04  0.10100000352E+00 0.  1.
       -3    1    3    3    0  502 -0.31373618433E+03  0.19061816635E+02 -0.89798202258E+03  0.95140184427E+03  0.10100000352E+00 0. -1.
</event>
<event>
 5   0  0.5924654E-05  0.2346832E+04  0.7818609E-02  0.8459681E-01
       -1   -1    0    0    0  501  0.00000000000E+00  0.00000000000E+00  0.10730616248E+04  0.10730616248E+04  0.50400001928E-02 0. -1.
        1   -1    0    0  501    0  0.00000000000E+00  0.00000000000E+00 -0.12831560037E+04  0.12831560037E+04  0.50400001928E-02 0.  1.
    10030    2    1    2    0    0  0.00000000000E+00  0.00000000000E+00 -0.21009437887E+03  0.23562176285E+04  0.23468323043E+04 0.  0.
        5    1    3    3  502    0 -0.62743415729E+03 -0.40060544458E+03  0.80562211640E+03  0.10969081221E+04  0.46999998093E+01 0. -1.
       -5    1    3    3    0  502  0.62743415729E+03  0.40060544458E+03 -0.10157164953E+04  0.12593095063E+04  0.46999998093E+01 0.  1.
</event>
<event>
 5   0  0.1270613E-04  0.2385156E+04  0.7818609E-02  0.8445082E-01
        2   -1    0    0  501    0  0.00000000000E+00  0.00000000000E+00  0.14297797780E+04  0.14297797780E+04  0.25500000920E-02 0.  1.
       -2   -1    0    0    0  501  0.00000000000E+00  0.00000000000E+00 -0.99472839091E+03  0.99472839091E+03  0.25500000920E-02 0. -1.
    10030    2    1    2    0    0  0.00000000000E+00  0.00000000000E+00  0.43505138708E+03  0.24245081689E+04  0.23851562112E+04 0.  0.
        2    1    3    3  502    0  0.89197393897E+03  0.44883465699E+03  0.88033622097E+03  0.13311881607E+04  0.25500000920E-02 0.  1.
       -2    1    3    3    0  502 -0.89197393897E+03 -0.44883465699E+03 -0.44528483389E+03  0.10933200082E+04  0.25500000920E-02 0. -1.
</event>
<event>
 5   0  0.5632156E-05  0.2304442E+04  0.7818609E-02  0.8476172E-01
        1   -1    0    0  501    0  0.00000000000E+00  0.00000000000E+00  0.17471774038E+04  0.17471774038E+04  0.50400001928E-02 0. -1.
       -1   -1    0    0    0  501  0.00000000000E+00  0.00000000000E+00 -0.75986165849E+03  0.75986165850E+03  0.50400001928E-02 0.  1.
    10030    2    1    2    0    0  0.00000000000E+00  0.00000000000E+00  0.98731574526E+03  0.25070390623E+04  0.23044419018E+04 0.  0.
        4    1    3    3  502    0 -0.33531821954E+03 -0.10847077798E+04  0.70735023718E+03  0.13376753145E+04  0.12699999809E+01 0.  1.
       -4    1    3    3    0  502  0.33531821954E+03  0.10847077798E+04  0.27996550809E+03  0.11693637478E+04  0.12699999809E+01 0. -1.
</event>
<event>
 5   0  0.1257524E-04  0.2308082E+04  0.7818609E-02  0.8474741E-01
        2   -1    0    0  501    0  0.00000000000E+00  0.00000000000E+00  0.58297443375E+03  0.58297443376E+03  0.25500000920E-02 0.  1.
       -2   -1    0    0    0  501  0.00000000000E+00  0.00000000000E+00 -0.22845088614E+04  0.22845088614E+04  0.25500000920E-02 0. -1.
    10030    2    1    2    0    0  0.00000000000E+00  0.00000000000E+00 -0.17015344277E+04  0.28674832952E+04  0.23080816796E+04 0.  0.
        3    1    3    3  502    0 -0.94828989946E+03  0.65726228865E+03 -0.82129404394E+03  0.14162525786E+04  0.10100000352E+00 0. -1.
       -3    1    3    3    0  502  0.94828989946E+03 -0.65726228865E+03 -0.88024038373E+03  0.14512307166E+04  0.10100000352E+00 0.  1.
</event>
<event>
 5   0  0.1234988E-04  0.2306033E+04  0.7818609E-02  0.8475546E-01
        2   -1    0    0  501    0  0.00000000000E+00  0.00000000000E+00  0.19299510727E+04  0.19299510727E+04  0.25500000920E-02 0. -1.
       -2   -1    0    0    0  501  0.00000000000E+00  0.00000000000E+00 -0.68885038634E+03  0.68885038635E+03  0.25500000920E-02 0.  1.
    10030    2    1    2    0    0  0.00000000000E+00  0.00000000000E+00  0.12411006864E+04  0.26188014591E+04  0.23060334274E+04 0.  0.
        5    1    3    3  502    0  0.38547786361E+03  0.12519449532E+03 -0.60527755103E+03  0.72845717017E+03  0.46999998093E+01 0.  1.
       -5    1    3    3    0  502 -0.38547786361E+03 -0.12519449532E+03  0.18463782374E+04  0.18903442889E+04  0.46999998093E+01 0. -1.
</event>
<event>
 5   0  0.1237296E-04  0.1742331E+04  0.7818609E-02  0.8737583E-01
        2   -1    0    0  501    0  0.00000000000E+00  0.00000000000E+00  0.22159781081E+04  0.22159781081E+04  0.25500000920E-02 0. -1.
       -2   -1    0    0    0  501  0.00000000000E+00  0.00000000000E+00 -0.34248036496E+03  0.34248036497E+03  0.25500000920E-02 0.  1.
    10030    2    1    2    0    0  0.00000000000E+00  0.00000000000E+00  0.18734977431E+04  0.25584584730E+04  0.17423306129E+04 0.  0.
        1    1    3    3  502    0  0.24392292146E+02  0.37960786026E+03 -0.21408856663E+03  0.43649859779E+03  0.50400001928E-02 0.  1.
       -1    1    3    3    0  502 -0.24392292146E+02 -0.37960786026E+03  0.20875863098E+04  0.21219598753E+04  0.50400001928E-02 0. -1.
</event>
<event>
 5   0  0.5632156E-05  0.1174930E+04  0.7818609E-02  0.9135087E-01
       -1   -1    0    0    0  501  0.00000000000E+00  0.00000000000E+00  0.33446044278E+03  0.33446044282E+03  0.50400001928E-02 0. -1.
        1   -1    0    0  501    0  0.00000000000E+00  0.00000000000E+00 -0.10318571707E+04  0.10318571707E+04  0.50400001928E-02 0.  1.
    10030    2    1    2    0    0  0.00000000000E+00  0.00000000000E+00 -0.69739672788E+03  0.13663176135E+04  0.11749304766E+04 0.  0.
        4    1    3    3  502    0  0.17726617220E+03 -0.37007491185E+03 -0.83757676480E+03  0.93269243913E+03  0.12699999809E+01 0.  1.
       -4    1    3    3    0  502 -0.17726617220E+03  0.37007491185E+03  0.14018003692E+03  0.43362517436E+03  0.12699999809E+01 0. -1.
</event>
<event>
 5   0  0.1237296E-04  0.2379446E+04  0.7818609E-02  0.8447239E-01
       -2   -1    0    0    0  501  0.00000000000E+00  0.00000000000E+00  0.66960032026E+03  0.66960032026E+03  0.25500000920E-02 0.  1.
        2   -1    0    0  501    0  0.00000000000E+00  0.00000000000E+00 -0.21138591363E+04  0.21138591363E+04  0.25500000920E-02 0. -1.
    10030    2    1    2    0    0  0.00000000000E+00  0.00000000000E+00 -0.14442588160E+04  0.27834594566E+04  0.23794459478E+04 0.  0.
        1    1    3    3  502    0  0.91390668928E+03  0.34680876101E+03  0.71210268950E+02  0.98008808576E+03  0.50400001928E-02 0.  1.
       -1    1    3    3    0  502 -0.91390668928E+03 -0.34680876101E+03 -0.15154690850E+04  0.18033713708E+04  0.50400001928E-02 0. -1.
</event>
<event>
 5   0  0.5632156E-05  0.2257562E+04  0.7818609E-02  0.8494844E-01
       -1   -1    0    0    0  501  0.00000000000E+00  0.00000000000E+00  0.11673392110E+04  0.11673392110E+04  0.50400001928E-02 0. -1.
        1   -1    0    0  501    0  0.00000000000E+00  0.00000000000E+00 -0.10914960712E+04  0.10914960713E+04  0.50400001928E-02 0.  1.
    10030    2    1    2    0    0  0.00000000000E+00  0.00000000000E+00  0.75843139740E+02  0.22588352823E+04  0.22575616604E+04 0.  0.
        4    1    3    3  502    0 -0.76725537078E+03 -0.39830086899E+03 -0.68831169222E+03  0.11050334768E+04  0.12699999809E+01 0.  1.
       -4    1    3    3    0  502  0.76725537078E+03  0.39830086899E+03  0.76415483196E+03  0.11538018055E+04  0.12699999809E+01 0. -1.
</event>
<event>
 5   0  0.1281432E-04  0.2278495E+04  0.7818609E-02  0.8486449E-01
        2   -1    0    0  501    0  0.00000000000E+00  0.00000000000E+00  0.27819284359E+04  0.27819284359E+04  0.25500000920E-02 0.  1.
       -2   -1    0    0    0  501  0.00000000000E+00  0.00000000000E+00 -0.46654148695E+03  0.46654148696E+03  0.25500000920E-02 0. -1.
    10030    2    1    2    0    0  0.00000000000E+00  0.00000000000E+00  0.23153869490E+04  0.32484699229E+04  0.22784951429E+04 0.  0.
        4    1    3    3  502    0  0.86025376703E+03 -0.51670092442E+03  0.38877908382E+03  0.10761817588E+04  0.12699999809E+01 0. -1.
       -4    1    3    3    0  502 -0.86025376703E+03  0.51670092442E+03  0.19266078652E+04  0.21722881641E+04  0.12699999809E+01 0.  1.
</event>
<event>
 5   0  0.5642466E-05  0.2267703E+04  0.7818609E-02  0.8490765E-01
        1   -1    0    0  501    0  0.00000000000E+00  0.00000000000E+00  0.18310417459E+04  0.18310417459E+04  0.50400001928E-02 0.  1.
       -1   -1    0    0    0  501  0.00000000000E+00  0.00000000000E+00 -0.70212474191E+03  0.70212474193E+03  0.50400001928E-02 0. -1.
    10030    2    1    2    0    0  0.00000000000E+00  0.00000000000E+00  0.11289170040E+04  0.25331664879E+04  0.22677034315E+04 0.  0.
        1    1    3    3  502    0 -0.83835554108E+03  0.68869868073E+02  0.14137468411E+04  0.16450724004E+04  0.50400001928E-02 0.  1.
       -1    1    3    3    0  502  0.83835554108E+03 -0.68869868073E+02 -0.28482983708E+03  0.88809408742E+03  0.50400001928E-02 0. -1.
</event>
<event>
 5   0  0.1234988E-04  0.2277111E+04  0.7818609E-02  0.8487001E-01
        2   -1    0    0  501    0  0.00000000000E+00  0.00000000000E+00  0.22136661567E+04  0.22136661567E+04  0.25500000920E-02 0.  1.
       -2   -1    0    0    0  501  0.00000000000E+00  0.00000000000E+00 -0.58559351038E+03  0.58559351039E+03  0.25500000920E-02 0. -1.
    10030    2    1    2    0    0  0.00000000000E+00  0.00000000000E+00  0.16280726463E+04  0.27992596671E+04  0.22771109200E+04 0.  0.
        5    1    3    3  502    0  0.31034108451E+03  0.44613948506E+03 -0.41584105107E+03  0.68432294907E+03  0.46999998093E+01 0. -1.
       -5    1    3    3    0  502 -0.31034108451E+03 -0.44613948506E+03  0.20439136974E+04  0.21149367180E+04  0.46999998093E+01 0.  1.
</event>
<event>
 5   0  0.1234988E-04  0.2265832E+04  0.7818609E-02  0.8491516E-01
        2   -1    0    0  501    0  0.00000000000E+00  0.00000000000E+00  0.22211127983E+04  0.22211127983E+04  0.25500000920E-02 0.  1.
       -2   -1    0    0    0  501  0.00000000000E+00  0.00000000000E+00 -0.57786294911E+03  0.57786294912E+03  0.25500000920E-02 0. -1.
    10030    2    1    2    0    0  0.00000000000E+00  0.00000000000E+00  0.16432498492E+04  0.27989757474E+04  0.22658321138E+04 0.  0.
        5    1    3    3  502    0 -0.42862381002E+03 -0.10311563038E+04  0.58570256179E+03  0.12609802830E+04  0.46999998093E+01 0. -1.
       -5    1    3    3    0  502  0.42862381002E+03  0.10311563038E+04  0.10575472874E+04  0.15379954644E+04  0.46999998093E+01 0.  1.
</event>
<event>
 5   0  0.1270613E-04  0.1829353E+04  0.7818609E-02  0.8690844E-01
        2   -1    0    0  501    0  0.00000000000E+00  0.00000000000E+00  0.11540766277E+04  0.11540766277E+04  0.25500000920E-02 0.  1.
       -2   -1    0    0    0  501  0.00000000000E+00  0.00000000000E+00 -0.72493707071E+03  0.72493707072E+03  0.25500000920E-02 0. -1.
    10030    2    1    2    0    0  0.00000000000E+00  0.00000000000E+00  0.42913955696E+03  0.18790136984E+04  0.18293528144E+04 0.  0.
        2    1    3    3  502    0 -0.48385153531E+03  0.21390725147E+03  0.98099213950E+03  0.11145466335E+04  0.25500000920E-02 0.  1.
       -2    1    3    3    0  502  0.48385153531E+03 -0.21390725147E+03 -0.55185258254E+03  0.76446706490E+03  0.25500000920E-02 0. -1.
</event>
<event>
 5   0  0.1270613E-04  0.2315654E+04  0.7818609E-02  0.8471775E-01
        2   -1    0    0  501    0  0.00000000000E+00  0.00000000000E+00  0.10009923471E+04  0.10009923471E+04  0.25500000920E-02 0.  1.
       -2   -1    0    0    0  501  0.00000000000E+00  0.00000000000E+00 -0.13392340668E+04  0.13392340668E+04  0.25500000920E-02 0. -1.
    10030    2    1    2    0    0  0.00000000000E+00  0.00000000000E+00 -0.33824171961E+03  0.23402264139E+04  0.23156537322E+04 0.  0.
        2    1    3    3  502    0  0.15533489824E+03 -0.12613766265E+03  0.98338554033E+03  0.10035371251E+04  0.25500000920E-02 0.  1.
       -2    1    3    3    0  502 -0.15533489824E+03  0.12613766265E+03 -0.13216272599E+04  0.13366892888E+04  0.25500000920E-02 0. -1.
</event>
<event>
 5   0  0.1237296E-04  0.2346835E+04  0.7818609E-02  0.8459680E-01
       -2   -1    0    0    0  501  0.00000000000E+00  0.00000000000E+00  0.62640095741E+03  0.62640095742E+03  0.25500000920E-02 0. -1.
        2   -1    0    0  501    0  0.00000000000E+00  0.00000000000E+00 -0.21981271680E+04  0.21981271680E+04  0.25500000920E-02 0.  1.
    10030    2    1    2    0    0  0.00000000000E+00  0.00000000000E+00 -0.15717262106E+04  0.28245281255E+04  0.23468352840E+04 0.  0.
        1    1    3    3  502    0 -0.51946956768E+03  0.77604875701E+03  0.69256161672E+02  0.93642763787E+03  0.50400001928E-02 0. -1.
       -1    1    3    3    0  502  0.51946956768E+03 -0.77604875701E+03 -0.16409823723E+04  0.18881004876E+04  0.50400001928E-02 0.  1.
</event>
<event>
 5   0  0.5663790E-05  0.2399210E+04  0.7818609E-02  0.8439799E-01
       -1   -1    0    0    0  501  0.00000000000E+00  0.00000000000E+00  0.11583054375E+04  0.11583054375E+04  0.50400001928E-02 0.  1.
        1   -1    0    0  501    0  0.00000000000E+00  0.00000000000E+00 -0.12423772769E+04  0.12423772769E+04  0.50400001928E-02 0. -1.
    10030    2    1    2    0    0  0.00000000000E+00  0.00000000000E+00 -0.84071839388E+02  0.24006827144E+04  0.23992101661E+04 0.  0.
        3    1    3    3  502    0 -0.68826306291E+03 -0.97664949573E+03  0.65277580234E+02  0.11965832415E+04  0.10100000352E+00 0. -1.
       -3    1    3    3    0  502  0.68826306291E+03  0.97664949573E+03 -0.14934941962E+03  0.12040994729E+04  0.10100000352E+00 0.  1.
</event>
<event>
 5   0  0.5663790E-05  0.2166796E+04  0.7818609E-02  0.8532377E-01
        1   -1    0    0  501    0  0.00000000000E+00  0.00000000000E+00  0.15575336319E+04  0.15575336320E+04  0.50400001928E-02 0. -1.
       -1   -1    0    0    0  501  0.00000000000E+00  0.00000000000E+00 -0.75359620052E+03  0.75359620054E+03  0.50400001928E-02 0.  1.
    10030    2    1    2    0    0  0.00000000000E+00  0.00000000000E+00  0.80393743142E+03  0.23111298325E+04  0.21667961854E+04 0.  0.
        3    1    3    3  502    0  0.96198611438E+03  0.33860182777E+03  0.79195045080E+03  0.12912219053E+04  0.10100000352E+00 0. -1.
       -3    1    3    3    0  502 -0.96198611438E+03 -0.33860182777E+03  0.11986980621E+02  0.10199079272E+04  0.10100000352E+00 0.  1.
</event>
<event>
 5   0  0.4489500E-05  0.2241057E+04  0.7818609E-02  0.8501531E-01
       -3   -1    0    0    0  501  0.00000000000E+00  0.00000000000E+00  0.10298332671E+04  0.10298332721E+04  0.10100000352E+00 0.  1.
        3   -1    0    0  501    0  0.00000000000E+00  0.00000000000E+00 -0.12192111795E+04  0.12192111837E+04  0.10100000352E+00 0. -1.
    10030    2    1    2    0    0  0.00000000000E+00  0.00000000000E+00 -0.18937791238E+03  0.22490444557E+04  0.22410571100E+04 0.  0.
        1    1    3    3  502    0 -0.90394558080E+03  0.66167186825E+03 -0.12041170030E+03  0.11266881786E+04  0.50400001928E-02 0. -1.
       -1    1    3    3    0  502  0.90394558080E+03 -0.66167186825E+03 -0.68966212088E+02  0.11223562771E+04  0.50400001928E-02 0.  1.
</event>
<event>
 5   0  0.1257524E-04  0.2147662E+04  0.7818609E-02  0.8540534E-01
        2   -1    0    0  501    0  0.00000000000E+00  0.00000000000E+00  0.14888010443E+04  0.14888010443E+04  0.25500000920E-02 0. -1.
       -2   -1    0    0    0  501  0.00000000000E+00  0.00000000000E+00 -0.77452439911E+03  0.77452439912E+03  0.25500000920E-02 0.  1.
    10030    2    1    2    0    0  0.00000000000E+00  0.00000000000E+00  0.71427664523E+03  0.22633254435E+04  0.21476617371E+04 0.  0.
        3    1    3    3  502    0 -0.26158302515E+03  0.91003857586E+03  0.89088976620E+03  0.13001078703E+04  0.10100000352E+00 0. -1.
       -3    1    3    3    0  502  0.26158302515E+03 -0.91003857586E+03 -0.17661312097E+03  0.96321757319E+03  0.10100000352E+00 0.  1.
</event>
<event>
 5   0  0.5642466E-05  0.2324434E+04  0.7818609E-02  0.8468349E-01
       -1   -1    0    0    0  501  0.00000000000E+00  0.00000000000E+00  0.10766457868E+04  0.10766457868E+04  0.50400001928E-02 0.  1.
        1   -1    0    0  501    0  0.00000000000E+00  0.00000000000E+00 -0.12545898852E+04  0.12545898852E+04  0.50400001928E-02 0. -1.
    10030    2    1    2    0    0  0.00000000000E+00  0.00000000000E+00 -0.17794409841E+03  0.23312356720E+04  0.23244344809E+04 0.  0.
        1    1    3    3  502    0  0.10513847053E+03 -0.35114289693E+03 -0.11951013912E+04  0.12500491060E+04  0.50400001928E-02 0. -1.
       -1    1    3    3    0  502 -0.10513847053E+03  0.35114289693E+03  0.10171572928E+04  0.10811865660E+04  0.50400001928E-02 0.  1.
</event>
<event>
 5   0  0.1270613E-04  0.2305684E+04  0.7818609E-02  0.8475683E-01
       -2   -1    0    0    0  501  0.00000000000E+00  0.00000000000E+00  0.12541674887E+04  0.12541674887E+04  0.25500000920E-02 0. -1.
        2   -1    0    0  501    0  0.00000000000E+00  0.00000000000E+00 -0.10597030099E+04  0.10597030099E+04  0.25500000920E-02 0.  1.
    10030    2    1    2    0    0  0.00000000000E+00  0.00000000000E+00  0.19446447881E+03  0.23138704986E+04  0.23056843346E+04 0.  0.
        2    1    3    3  502    0 -0.64182056430E+03 -0.94599247555E+03 -0.52325942064E+02  0.11443659401E+04  0.25500000920E-02 0. -1.
       -2    1    3    3    0  502  0.64182056430E+03  0.94599247555E+03  0.24679042088E+03  0.11695045585E+04  0.25500000920E-02 0.  1.
</event>
<event>
 5   0  0.5632156E-05  0.2209673E+04  0.7818609E-02  0.8514413E-01
        1   -1    0    0  501    0  0.00000000000E+00  0.00000000000E+00  0.11964389226E+04  0.11964389226E+04  0.50400001928E-02 0.  1.
       -1   -1    0    0    0  501  0.00000000000E+00  0.00000000000E+00 -0.10202470828E+04  0.10202470828E+04  0.50400001928E-02 0. -1.
    10030    2    1    2    0    0  0.00000000000E+00  0.00000000000E+00  0.17619183980E+03  0.22166860055E+04  0.22096726641E+04 0.  0.
        4    1    3    3  502    0 -0.10193826836E+04  0.12135973508E+03 -0.32160265396E+03  0.10757783791E+04  0.12699999809E+01 0. -1.
       -4    1    3    3    0  502  0.10193826836E+04 -0.12135973508E+03  0.49779449376E+03  0.11409076264E+04  0.12699999809E+01 0.  1.
</event>
<event>
 5   0  0.5642466E-05  0.2275202E+04  0.7818609E-02  0.8487763E-01
       -1   -1    0    0    0  501  0.00000000000E+00  0.00000000000E+00  0.91342966018E+03  0.91342966019E+03  0.50400001928E-02 0. -1.
        1   -1    0    0  501    0  0.00000000000E+00  0.00000000000E+00 -0.14167879681E+04  0.14167879681E+04  0.50400001928E-02 0.  1.
    10030    2    1    2    0    0  0.00000000000E+00  0.00000000000E+00 -0.50335830795E+03  0.23302176283E+04  0.22752021029E+04 0.  0.
        1    1    3    3  502    0  0.69534399271E+02  0.55498143467E+03 -0.12662366829E+04  0.13842668683E+04  0.50400001928E-02 0.  1.
       -1    1    3    3    0  502 -0.69534399271E+02 -0.55498143467E+03  0.76287837492E+03  0.94595076006E+03  0.50400001928E-02 0. -1.
</event>
<event>
 5   0  0.5843670E-05  0.2286059E+04  0.7818609E-02  0.8483438E-01
       -1   -1    0    0    0  501  0.00000000000E+00  0.00000000000E+00  0.60047818211E+03  0.60047818213E+03  0.50400001928E-02 0. -1.
        1   -1    0    0  501    0  0.00000000000E+00  0.00000000000E+00 -0.21757927690E+04  0.21757927690E+04  0.50400001928E-02 0.  1.
    10030    2    1    2    0    0  0.00000000000E+00  0.00000000000E+00 -0.15753145869E+04  0.27762709511E+04  0.22860586927E+04 0.  0.
        2    1    3    3  502    0 -0.39088373977E+03 -0.29612578671E+02  0.51629199589E+03  0.64824719657E+03  0.25500000920E-02 0. -1.
       -2    1    3    3    0  502  0.39088373977E+03  0.29612578671E+02 -0.20916065828E+04  0.21280237546E+04  0.25500000920E-02 0.  1.
</event>
<event>
 5   0  0.5663790E-05  0.2236397E+04  0.7818609E-02  0.8503430E-01
       -1   -1    0    0    0  501  0.00000000000E+00  0.00000000000E+00  0.86768565883E+03  0.86768565885E+03  0.50400001928E-02 0. -1.
        1   -1    0    0  501    0  0.00000000000E+00  0.00000000000E+00 -0.14410384675E+04  0.14410384675E+04  0.50400001928E-02 0.  1.
    10030    2    1    2    0    0  0.00000000000E+00  0.00000000000E+00 -0.57335280868E+03  0.23087241264E+04  0.22363974710E+04 0.  0.
        3    1    3    3  502    0 -0.74629608960E+03 -0.50699416103E+03 -0.96862122041E+03  0.13237174969E+04  0.10100000352E+00 0.  1.
       -3    1    3    3    0  502  0.74629608960E+03  0.50699416103E+03  0.39526841173E+03  0.98500662951E+03  0.10100000352E+00 0. -1.
</event>
<event>
 5   0  0.1281432E-04  0.1926586E+04  0.7818609E-02  0.8641735E-01
       -2   -1    0    0    0  501  0.00000000000E+00  0.00000000000E+00  0.89904273600E+03  0.89904273600E+03  0.25500000920E-02 0.  1.
        2   -1    0    0  501    0  0.00000000000E+00  0.00000000000E+00 -0.10321353414E+04  0.10321353414E+04  0.25500000920E-02 0. -1.
    10030    2    1    2    0    0  0.00000000000E+00  0.00000000000E+00 -0.13309260538E+03  0.19311780774E+04  0.19265863918E+04 0.  0.
        4    1    3    3  502    0 -0.83314232338E+03  0.18313351446E+02  0.41779330808E+03  0.93220940299E+03  0.12699999809E+01 0.  1.
       -4    1    3    3    0  502  0.83314232338E+03 -0.18313351446E+02 -0.55088591346E+03  0.99896867438E+03  0.12699999809E+01 0. -1.
</event>
<event>
 5   0  0.1281432E-04  0.1921814E+04  0.7818609E-02  0.8644074E-01
        2   -1    0    0  501    0  0.00000000000E+00  0.00000000000E+00  0.13971436867E+04  0.13971436867E+04  0.25500000920E-02 0.  1.
       -2   -1    0    0    0  501  0.00000000000E+00  0.00000000000E+00 -0.66087849738E+03  0.66087849738E+03  0.25500000920E-02 0. -1.
    10030    2    1    2    0    0  0.00000000000E+00  0.00000000000E+00  0.73626518932E+03  0.20580221841E+04  0.19218139559E+04 0.  0.
        4    1    3    3  502    0  0.84379217634E+03 -0.44500476342E+01 -0.12416193088E+03  0.85289087096E+03  0.12699999809E+01 0. -1.
       -4    1    3    3    0  502 -0.84379217634E+03  0.44500476342E+01  0.86042712020E+03  0.12051313131E+04  0.12699999809E+01 0.  1.
</event>
<event>
 5   0  0.5843670E-05  0.2181441E+04  0.7818609E-02  0.8526193E-01
       -1   -1    0    0    0  501  0.00000000000E+00  0.00000000000E+00  0.14082282439E+04  0.14082282439E+04  0.50400001928E-02 0.  1.
        1   -1    0    0  501    0  0.00000000000E+00  0.00000000000E+00 -0.84480010961E+03  0.84480010962E+03  0.50400001928E-02 0. -1.
    10030    2    1    2    0    0  0.00000000000E+00  0.00000000000E+00  0.56342813432E+03  0.22530283536E+04  0.21814411519E+04 0.  0.
        2    1    3    3  502    0 -0.39046364811E+03 -0.43191888899E+03  0.12342909440E+04  0.13647307139E+04  0.25500000920E-02 0.  1.
       -2    1    3    3    0  502  0.39046364811E+03  0.43191888899E+03 -0.67086280966E+03  0.88829763962E+03  0.25500000920E-02 0. -1.
</event>
<event>
 5   0  0.1281432E-04  0.2256961E+04  0.7818609E-02  0.8495087E-01
       -2   -1    0    0    0  501  0.00000000000E+00  0.00000000000E+00  0.79263225190E+03  0.79263225190E+03  0.25500000920E-02 0.  1.
        2   -1    0    0  501    0  0.00000000000E+00  0.00000000000E+00 -0.16066314153E+04  0.16066314153E+04  0.25500000920E-02 0. -1.
    10030    2    1    2    0    0  0.00000000000E+00  0.00000000000E+00 -0.81399916340E+03  0.23992636672E+04  0.22569606790E+04 0.  0.
        4    1    3    3  502    0 -0.14086390495E+03 -0.47032543000E+03  0.67314449220E+03  0.83317091289E+03  0.12699999809E+01 0.  1.
       -4    1    3    3    0  502  0.14086390495E+03  0.47032543000E+03 -0.14871436556E+04  0.15660927543E+04  0.12699999809E+01 0. -1.
</event>
<event>
 5   0  0.1237296E-04  0.2387332E+04  0.7818609E-02  0.8444262E-01
       -2   -1    0    0    0  501  0.00000000000E+00  0.00000000000E+00  0.96056431344E+03  0.96056431345E+03  0.25500000920E-02 0. -1.
        2   -1    0    0  501    0  0.00000000000E+00  0.00000000000E+00 -0.14833346867E+04  0.14833346867E+04  0.25500000920E-02 0.  1.
    10030    2    1    2    0    0  0.00000000000E+00  0.00000000000E+00 -0.52277037326E+03  0.24438990002E+04  0.23873318705E+04 0.  0.
        1    1    3    3  502    0  0.55951695973E+02 -0.11456003185E+04 -0.59983618700E+03  0.12943469910E+04  0.50400001928E-02 0.  1.
       -1    1    3    3    0  502 -0.55951695973E+02  0.11456003185E+04  0.77065813740E+02  0.11495520091E+04  0.50400001928E-02 0. -1.
</event>
<event>
 5   0  0.1281432E-04  0.2499767E+04  0.7818609E-02  0.8403069E-01
       -2   -1    0    0    0  501  0.00000000000E+00  0.00000000000E+00  0.12775190784E+04  0.12775190784E+04  0.25500000920E-02 0.  1.
        2   -1    0    0  501    0  0.00000000000E+00  0.00000000000E+00 -0.12228455065E+04  0.12228455065E+04  0.25500000920E-02 0. -1.
    10030    2    1    2    0    0  0.00000000000E+00  0.00000000000E+00  0.54673571889E+02  0.25003645848E+04  0.24997667607E+04 0.  0.
        4    1    3    3  502    0 -0.81046321797E+03 -0.89577640615E+03  0.34825748789E+03  0.12571996215E+04  0.12699999809E+01 0.  1.
       -4    1    3    3    0  502  0.81046321797E+03  0.89577640615E+03 -0.29358391600E+03  0.12431649634E+04  0.12699999809E+01 0. -1.
</event>
<event>
 5   0  0.5663790E-05  0.1802806E+04  0.7818609E-02  0.8704809E-01
       -1   -1    0    0    0  501  0.00000000000E+00  0.00000000000E+00  0.12815542327E+04  0.12815542328E+04  0.50400001928E-02 0.  1.
        1   -1    0    0  501    0  0.00000000000E+00  0.00000000000E+00 -0.63401689993E+03  0.63401689995E+03  0.50400001928E-02 0. -1.
    10030    2    1    2    0    0  0.00000000000E+00  0.00000000000E+00  0.64753733281E+03  0.19155711327E+04  0.18028056376E+04 0.  0.
        3    1    3    3  502    0  0.43677333292E+03  0.36716487667E+03  0.10652321984E+04  0.12084289957E+04  0.10100000352E+00 0.  1.
       -3    1    3    3    0  502 -0.43677333292E+03 -0.36716487667E+03 -0.41769486555E+03  0.70714213700E+03  0.10100000352E+00 0. -1.
</event>
<event>
 5   0  0.1234988E-04  0.2300012E+04  0.7818609E-02  0.8477916E-01
        2   -1    0    0  501    0  0.00000000000E+00  0.00000000000E+00  0.93485958920E+03  0.93485958920E+03  0.25500000920E-02 0. -1.
       -2   -1    0    0    0  501  0.00000000000E+00  0.00000000000E+00 -0.14146661195E+04  0.14146661195E+04  0.25500000920E-02 0.  1.
    10030    2    1    2    0    0  0.00000000000E+00  0.00000000000E+00 -0.47980653032E+03  0.23495257087E+04  0.23000123368E+04 0.  0.
        5    1    3    3  502    0  0.75825168911E+03 -0.83331273754E+03 -0.44276636534E+01  0.11266753910E+04  0.46999998093E+01 0. -1.
       -5    1    3    3    0  502 -0.75825168911E+03  0.83331273754E+03 -0.47537886667E+03  0.12228503177E+04  0.46999998093E+01 0.  1.
</event>
<event>
 5   0  0.5663790E-05  0.2301823E+04  0.7818609E-02  0.8477203E-01
        1   -1    0    0  501    0  0.00000000000E+00  0.00000000000E+00  0.79420027567E+03  0.79420027568E+03  0.50400001928E-02 0.  1.
       -1   -1    0    0    0  501  0.00000000000E+00  0.00000000000E+00 -0.16678380370E+04  0.16678380370E+04  0.50400001928E-02 0. -1.
    10030    2    1    2    0    0  0.00000000000E+00  0.00000000000E+00 -0.87363776130E+03  0.24620383127E+04  0.23018231285E+04 0.  0.
        3    1    3    3  502    0  0.40589520757E+03  0.79097326026E+03  0.34494926425E+03  0.95361398012E+03  0.10100000352E+00 0.  1.
       -3    1    3    3    0  502 -0.40589520757E+03 -0.79097326026E+03 -0.12185870256E+04  0.15084243325E+04  0.10100000352E+00 0. -1.
</event>
<event>
 5   0  0.5663790E-05  0.2278554E+04  0.7818609E-02  0.8486425E-01
        1   -1    0    0  501    0  0.00000000000E+00  0.00000000000E+00  0.11327661104E+04  0.11327661104E+04  0.50400001928E-02 0. -1.
       -1   -1    0    0    0  501  0.00000000000E+00  0.00000000000E+00 -0.11458253931E+04  0.11458253931E+04  0.50400001928E-02 0.  1.
    10030    2    1    2    0    0  0.00000000000E+00  0.00000000000E+00 -0.13059282733E+02  0.22785915036E+04  0.22785540799E+04 0.  0.
        3    1    3    3  502    0 -0.25838853652E+03 -0.83278433826E+03  0.72673390959E+03  0.11350932012E+04  0.10100000352E+00 0. -1.
       -3    1    3    3    0  502  0.25838853652E+03  0.83278433826E+03 -0.73979319232E+03  0.11434983023E+04  0.10100000352E+00 0.  1.
</event>
<event>
 5   0  0.1257524E-04  0.2286295E+04  0.7818609E-02  0.8483345E-01
       -2   -1    0    0    0  501  0.00000000000E+00  0.00000000000E+00  0.10391751432E+04  0.10391751432E+04  0.25500000920E-02 0.  1.
        2   -1    0    0  501    0  0.00000000000E+00  0.00000000000E+00 -0.12575220827E+04  0.12575220827E+04  0.25500000920E-02 0. -1.
    10030    2    1    2    0    0  0.00000000000E+00  0.00000000000E+00 -0.21834693951E+03  0.22966972259E+04  0.22862945483E+04 0.  0.
        3    1    3    3  502    0 -0.51133801732E+03  0.80108702063E+03 -0.74734243806E+03  0.12090193185E+04  0.10100000352E+00 0. -1.
       -3    1    3    3    0  502  0.51133801732E+03 -0.80108702063E+03  0.52899549855E+03  0.10876779074E+04  0.10100000352E+00 0.  1.
</event>
<event>
 5   0  0.5642466E-05  0.2283239E+04  0.7818609E-02  0.8484559E-01
        1   -1    0    0  501    0  0.00000000000E+00  0.00000000000E+00  0.10683680768E+04  0.10683680768E+04  0.50400001928E-02 0. -1.
       -1   -1    0    0    0  501  0.00000000000E+00  0.00000000000E+00 -0.12198937648E+04  0.12198937648E+04  0.50400001928E-02 0.  1.
    10030    2    1    2    0    0  0.00000000000E+00  0.00000000000E+00 -0.15152568799E+03  0.22882618416E+04  0.22832394140E+04 0.  0.
        1    1    3    3  502    0  0.78327883762E+03 -0.22121109681E+03 -0.87804574481E+03  0.11972570387E+04  0.50400001928E-02 0.  1.
       -1    1    3    3    0  502 -0.78327883762E+03  0.22121109681E+03  0.72652005682E+03  0.10910048028E+04  0.50400001928E-02 0. -1.
</event>
<event>
 5   0  0.5632156E-05  0.2262313E+04  0.7818609E-02  0.8492931E-01
       -1   -1    0    0    0  501  0.00000000000E+00  0.00000000000E+00  0.78071958848E+03  0.78071958850E+03  0.50400001928E-02 0.  1.
        1   -1    0    0  501    0  0.00000000000E+00  0.00000000000E+00 -0.16388918636E+04  0.16388918636E+04  0.50400001928E-02 0. -1.
    10030    2    1    2    0    0  0.00000000000E+00  0.00000000000E+00 -0.85817227515E+03  0.24196114521E+04  0.22623129592E+04 0.  0.
        4    1    3    3  502    0 -0.32213904905E+03 -0.86509740788E+03  0.27008406347E+03  0.96182852229E+03  0.12699999809E+01 0.  1.
       -4    1    3    3    0  502  0.32213904905E+03  0.86509740788E+03 -0.11282563386E+04  0.14577829299E+04  0.12699999809E+01 0. -1.
</event>
<event>
 5   0  0.5924654E-05  0.1243786E+04  0.7818609E-02  0.9075371E-01
       -1   -1    0    0    0  501  0.00000000000E+00  0.00000000000E+00  0.11904523052E+04  0.11904523052E+04  0.50400001928E-02 0.  1.
        1   -1    0    0  501    0  0.00000000000E+00  0.00000000000E+00 -0.32487737927E+03  0.32487737931E+03  0.50400001928E-02 0. -1.
    10030    2    1    2    0    0  0.00000000000E+00  0.00000000000E+00  0.86557492595E+03  0.15153296845E+04  0.12437861956E+04 0.  0.
        5    1    3    3  502    0 -0.61688961433E+03 -0.36153435884E+02  0.51780026181E+03  0.80622519703E+03  0.46999998093E+01 0.  1.
       -5    1    3    3    0  502  0.61688961433E+03  0.36153435884E+02  0.34777466413E+03  0.70910448751E+03  0.46999998093E+01 0. -1.
</event>
<event>
 5   0  0.5632156E-05  0.2298473E+04  0.7818609E-02  0.8478523E-01
        1   -1    0    0  501    0  0.00000000000E+00  0.00000000000E+00  0.68948629972E+03  0.68948629974E+03  0.50400001928E-02 0. -1.
       -1   -1    0    0    0  501  0.00000000000E+00  0.00000000000E+00 -0.19155483937E+04  0.19155483937E+04  0.50400001928E-02 0.  1.
    10030    2    1    2    0    0  0.00000000000E+00  0.00000000000E+00 -0.12260620940E+04  0.26050346935E+04  0.22984728617E+04 0.  0.
        4    1    3    3  502    0  0.71788606851E+03 -0.22488702525E+03  0.37164286101E+03  0.83907962109E+03  0.12699999809E+01 0. -1.
       -4    1    3    3    0  502 -0.71788606851E+03  0.22488702525E+03 -0.15977049550E+04  0.17659550724E+04  0.12699999809E+01 0.  1.
</event>
<event>
 5   0  0.5642466E-05  0.1353670E+04  0.7818609E-02  0.8988055E-01
        1   -1    0    0  501    0  0.00000000000E+00  0.00000000000E+00  0.89351062561E+03  0.89351062563E+03  0.50400001928E-02 0.  1.
       -1   -1    0    0    0  501  0.00000000000E+00  0.00000000000E+00 -0.51270278087E+03  0.51270278090E+03  0.50400001928E-02 0. -1.
    10030    2    1    2    0    0  0.00000000000E+00  0.00000000000E+00  0.38080784474E+03  0.14062134065E+04  0.13536696532E+04 0.  0.
        1    1    3    3  502    0  0.56494938586E+03 -0.28823027154E+03 -0.55119226331E+02  0.63661811721E+03  0.50400001928E-02 0. -1.
       -1    1    3    3    0  502 -0.56494938586E+03  0.28823027154E+03  0.43592707107E+03  0.76959528932E+03  0.50400001928E-02 0.  1.
</event>
<event>
 5   0  0.1281432E-04  0.2275180E+04  0.7818609E-02  0.8487772E-01
        2   -1    0    0  501    0  0.00000000000E+00  0.00000000000E+00  0.16484646777E+04  0.16484646777E+04  0.25500000920E-02 0.  1.
       -2   -1    0    0    0  501  0.00000000000E+00  0.00000000000E+00 -0.78503992499E+03  0.78503992500E+03  0.25500000920E-02 0. -1.
    10030    2    1    2    0    0  0.00000000000E+00  0.00000000000E+00  0.86342475267E+03  0.24335046027E+04  0.22751796298E+04 0.  0.
        4    1    3    3  502    0  0.39976746559E+03  0.29864182954E+03 -0.66173293936E+03  0.82879012110E+03  0.12699999809E+01 0. -1.
       -4    1    3    3    0  502 -0.39976746559E+03 -0.29864182954E+03  0.15251576920E+04  0.16047144816E+04  0.12699999809E+01 0.  1.
</event>
<event>
 5   0  0.5632156E-05  0.2181776E+04  0.7818609E-02  0.8526052E-01
        1   -1    0    0  501    0  0.00000000000E+00  0.00000000000E+00  0.14165343275E+04  0.14165343275E+04  0.50400001928E-02 0.  1.
       -1   -1    0    0    0  501  0.00000000000E+00  0.00000000000E+00 -0.84010398480E+03  0.84010398481E+03  0.50400001928E-02 0. -1.
    10030    2    1    2    0    0  0.00000000000E+00  0.00000000000E+00  0.57643034273E+03  0.22566383123E+04  0.21817755459E+04 0.  0.
        4    1    3    3  502    0 -0.32390439231E+03  0.60402384390E+03  0.11660266534E+04  0.13525452409E+04  0.12699999809E+01 0.  1.
       -4    1    3    3    0  502  0.32390439231E+03 -0.60402384390E+03 -0.58959631068E+03  0.90409307144E+03  0.12699999809E+01 0. -1.
</event>
<event>
 5   0  0.5632156E-05  0.1572261E+04  0.7818609E-02  0.8837773E-01
        1   -1    0    0  501    0  0.00000000000E+00  0.00000000000E+00  0.53772426435E+03  0.53772426437E+03  0.50400001928E-02 0. -1.
       -1   -1    0    0    0  501  0.00000000000E+00  0.00000000000E+00 -0.11492896982E+04  0.11492896982E+04  0.50400001928E-02 0.  1.
    10030    2    1    2    0    0  0.00000000000E+00  0.00000000000E+00 -0.61156543384E+03  0.16870139626E+04  0.15722607386E+04 0.  0.
        4    1    3    3  502    0  0.69981875966E+03 -0.33390535684E+03 -0.44469303152E+03  0.89386385366E+03  0.12699999809E+01 0. -1.
       -4    1    3    3    0  502 -0.69981875966E+03  0.33390535684E+03 -0.16687240232E+03  0.79315010891E+03  0.12699999809E+01 0.  1.
</event>
<event>
 5   0  0.5663790E-05  0.2254407E+04  0.7818609E-02  0.8496118E-01
        1   -1    0    0  501    0  0.00000000000E+00  0.00000000000E+00  0.17700675855E+04  0.17700675855E+04  0.50400001928E-02 0.  1.
       -1   -1    0    0    0  501  0.00000000000E+00  0.00000000000E+00 -0.71781885219E+03  0.71781885220E+03  0.50400001928E-02 0. -1.
    10030    2    1    2    0    0  0.00000000000E+00  0.00000000000E+00  0.10522487333E+04  0.24878864377E+04  0.22544071350E+04 0.  0.
        3    1    3    3  502    0  0.11041882211E+04 -0.22523231102E+03  0.49849881232E+03  0.12322590221E+04  0.10100000352E+00 0. -1.
       -3    1    3    3    0  502 -0.11041882211E+04  0.22523231102E+03  0.55374992102E+03  0.12556274156E+04  0.10100000352E+00 0.  1.
</event>
<event>
 5   0  0.5663790E-05  0.2306703E+04  0.7818609E-02  0.8475283E-01
       -1   -1    0    0    0  501  0.00000000000E+00  0.00000000000E+00  0.83461347708E+03  0.83461347710E+03  0.50400001928E-02 0.  1.
        1   -1    0    0  501    0  0.00000000000E+00  0.00000000000E+00 -0.15938153586E+04  0.15938153586E+04  0.50400001928E-02 0. -1.
    10030    2    1    2    0    0  0.00000000000E+00  0.00000000000E+00 -0.75920188147E+03  0.24284288357E+04  0.23067030830E+04 0.  0.
        3    1    3    3  502    0  0.11156098437E+04 -0.26431689576E+03 -0.51181073271E+03  0.12555472835E+04  0.10100000352E+00 0. -1.
       -3    1    3    3    0  502 -0.11156098437E+04  0.26431689576E+03 -0.24739114876E+03  0.11728815522E+04  0.10100000352E+00 0.  1.
</event>
<event>
 5   0  0.1281432E-04  0.2341783E+04  0.7818609E-02  0.8461626E-01
       -2   -1    0    0    0  501  0.00000000000E+00  0.00000000000E+00  0.87726382679E+03  0.87726382679E+03  0.25500000920E-02 0. -1.
        2   -1    0    0  501    0  0.00000000000E+00  0.00000000000E+00 -0.15627994097E+04  0.15627994097E+04  0.25500000920E-02 0.  1.
    10030    2    1    2    0    0  0.00000000000E+00  0.00000000000E+00 -0.68553558289E+03  0.24400632365E+04  0.23417834150E+04 0.  0.
        4    1    3    3  502    0  0.56068603490E+03 -0.57839690295E+03  0.54264379459E+03  0.97127529968E+03  0.12699999809E+01 0. -1.
       -4    1    3    3    0  502 -0.56068603490E+03  0.57839690295E+03 -0.12281793775E+04  0.14687879368E+04  0.12699999809E+01 0.  1.
</event>
<event>
 5   0  0.5843670E-05  0.2257139E+04  0.7818609E-02  0.8495015E-01
       -1   -1    0    0    0  501  0.00000000000E+00  0.00000000000E+00  0.72148437611E+03  0.72148437612E+03  0.50400001928E-02 0. -1.
        1   -1    0    0  501    0  0.00000000000E+00  0.00000000000E+00 -0.17653452543E+04  0.17653452543E+04  0.50400001928E-02 0.  1.
    10030    2    1    2    0    0  0.00000000000E+00  0.00000000000E+00 -0.10438608782E+04  0.24868296304E+04  0.22571389141E+04 0.  0.
        2    1    3    3  502    0 -0.96438841623E+03 -0.36968919583E+02  0.12263068153E+03  0.97285661967E+03  0.25500000920E-02 0. -1.
       -2    1    3    3    0  502  0.96438841623E+03  0.36968919583E+02 -0.11664915597E+04  0.15139730107E+04  0.25500000920E-02 0.  1.
</event>
<event>
 5   0  0.5632156E-05  0.2007451E+04  0.7818609E-02  0.8603145E-01
        1   -1    0    0  501    0  0.00000000000E+00  0.00000000000E+00  0.16365914014E+04  0.16365914014E+04  0.50400001928E-02 0.  1.
       -1   -1    0    0    0  501  0.00000000000E+00  0.00000000000E+00 -0.61558710237E+03  0.61558710239E+03  0.50400001928E-02 0. -1.
    10030    2    1    2    0    0  0.00000000000E+00  0.00000000000E+00  0.10210042991E+04  0.22521785038E+04  0.20074506804E+04 0.  0.
        4    1    3    3  502    0 -0.53707302006E+03 -0.84066591242E+03  0.38609484935E+03  0.10696903528E+04  0.12699999809E+01 0. -1.
       -4    1    3    3    0  502  0.53707302006E+03  0.84066591242E+03  0.63490944970E+03  0.11824881511E+04  0.12699999809E+01 0.  1.
</event>
<event>
 5   0  0.1281432E-04  0.2311728E+04  0.7818609E-02  0.8473311E-01
       -2   -1    0    0    0  501  0.00000000000E+00  0.00000000000E+00  0.66488192517E+03  0.66488192518E+03  0.25500000920E-02 0. -1.
        2   -1    0    0  501    0  0.00000000000E+00  0.00000000000E+00 -0.20094117719E+04  0.20094117719E+04  0.25500000920E-02 0.  1.
    10030    2    1    2    0    0  0.00000000000E+00  0.00000000000E+00 -0.13445298468E+04  0.26742936971E+04  0.23117279835E+04 0.  0.
        4    1    3    3  502    0 -0.18748490501E+03  0.91006434956E+03  0.12305751054E+03  0.93728996247E+03  0.12699999809E+01 0. -1.
       -4    1    3    3    0  502  0.18748490501E+03 -0.91006434956E+03 -0.14675873573E+04  0.17370037346E+04  0.12699999809E+01 0.  1.
</event>
<event>
 5   0  0.1234988E-04  0.2276632E+04  0.7818609E-02  0.8487192E-01
       -2   -1    0    0    0  501  0.00000000000E+00  0.00000000000E+00  0.67398385949E+03  0.67398385950E+03  0.25500000920E-02 0.  1.
        2   -1    0    0  501    0  0.00000000000E+00  0.00000000000E+00 -0.19225428896E+04  0.19225428896E+04  0.25500000920E-02 0. -1.
    10030    2    1    2    0    0  0.00000000000E+00  0.00000000000E+00 -0.12485590301E+04  0.25965267491E+04  0.22766316143E+04 0.  0.
        5    1    3    3  502    0  0.95052706748E+03  0.33430893553E+03 -0.12282954114E+04  0.15887088714E+04  0.46999998093E+01 0.  1.
       -5    1    3    3    0  502 -0.95052706748E+03 -0.33430893553E+03 -0.20263618706E+02  0.10078178777E+04  0.46999998093E+01 0. -1.
</event>
<event>
 5   0  0.5632156E-05  0.1231862E+04  0.7818609E-02  0.9085416E-01
        1   -1    0    0  501    0  0.00000000000E+00  0.00000000000E+00  0.79237684580E+03  0.79237684582E+03  0.50400001928E-02 0.  1.
       -1   -1    0    0    0  501  0.00000000000E+00  0.00000000000E+00 -0.47877573167E+03  0.47877573170E+03  0.50400001928E-02 0. -1.
    10030    2    1    2    0    0  0.00000000000E+00  0.00000000000E+00  0.31360111413E+03  0.12711525775E+04  0.12318616873E+04 0.  0.
        4    1    3    3  502    0  0.13290810463E+03 -0.82751024795E+01  0.77734323066E+03  0.78866796103E+03  0.12699999809E+01 0.  1.
       -4    1    3    3    0  502 -0.13290810463E+03  0.82751024795E+01 -0.46374211654E+03  0.48248461649E+03  0.12699999809E+01 0. -1.
</event>
<event>
 5   0  0.1281432E-04  0.2194604E+04  0.7818609E-02  0.8520677E-01
       -2   -1    0    0    0  501  0.00000000000E+00  0.00000000000E+00  0.11427729766E+04  0.11427729766E+04  0.25500000920E-02 0.  1.
        2   -1    0    0  501    0  0.00000000000E+00  0.00000000000E+00 -0.10536403615E+04  0.10536403615E+04  0.25500000920E-02 0. -1.
    10030    2    1    2    0    0  0.00000000000E+00  0.00000000000E+00  0.89132615119E+02  0.21964133382E+04  0.21946040484E+04 0.  0.
        4    1    3    3  502    0 -0.60208356752E+03  0.45852311814E+03  0.83977913040E+03  0.11304771881E+04  0.12699999809E+01 0.  1.
       -4    1    3    3    0  502  0.60208356752E+03 -0.45852311814E+03 -0.75064651528E+03  0.10659361500E+04  0.12699999809E+01 0. -1.
</event>
<event>
 5   0  0.1257524E-04  0.2342224E+04  0.7818609E-02  0.8461457E-01
       -2   -1    0    0    0  501  0.00000000000E+00  0.00000000000E+00  0.12719305686E+04  0.12719305686E+04  0.25500000920E-02 0.  1.
        2   -1    0    0  501    0  0.00000000000E+00  0.00000000000E+00 -0.10782844886E+04  0.10782844886E+04  0.25500000920E-02 0. -1.
    10030    2    1    2    0    0  0.00000000000E+00  0.00000000000E+00  0.19364607996E+03  0.23502150572E+04  0.23422237320E+04 0.  0.
        3    1    3    3  502    0 -0.88422182389E+03 -0.49370129619E+03  0.68697406309E+03  0.12237330498E+04  0.10100000352E+00 0. -1.
       -3    1    3    3    0  502  0.88422182389E+03  0.49370129619E+03 -0.49332798313E+03  0.11264820073E+04  0.10100000352E+00 0.  1.
</event>
<event>
 5   0  0.5924654E-05  0.2293806E+04  0.7818609E-02  0.8480367E-01
        1   -1    0    0  501    0  0.00000000000E+00  0.00000000000E+00  0.11255634471E+04  0.11255634471E+04  0.50400001928E-02 0. -1.
       -1   -1    0    0    0  501  0.00000000000E+00  0.00000000000E+00 -0.11686468980E+04  0.11686468980E+04  0.50400001928E-02 0.  1.
    10030    2    1    2    0    0  0.00000000000E+00  0.00000000000E+00 -0.43083450924E+02  0.22942103451E+04  0.22938057729E+04 0.  0.
        5    1    3    3  502    0  0.71537787700E+03 -0.55988122845E+03  0.67867577946E+03  0.11339556431E+04  0.46999998093E+01 0. -1.
       -5    1    3    3    0  502 -0.71537787700E+03  0.55988122845E+03 -0.72175923038E+03  0.11602547020E+04  0.46999998093E+01 0.  1.
</event>
<event>
 5   0  0.1270613E-04  0.2107312E+04  0.7818609E-02  0.8558029E-01
        2   -1    0    0  501    0  0.00000000000E+00  0.00000000000E+00  0.12183383629E+04  0.12183383630E+04  0.25500000920E-02 0.  1.
       -2   -1    0    0    0  501  0.00000000000E+00  0.00000000000E+00 -0.91123334097E+03  0.91123334098E+03  0.25500000920E-02 0. -1.
    10030    2    1    2    0    0  0.00000000000E+00  0.00000000000E+00  0.30710502198E+03  0.21295717039E+04  0.21073115924E+04 0.  0.
        2    1    3    3  502    0 -0.65048942567E+03  0.33444095739E+02  0.99051339790E+03  0.11854837797E+04  0.25500000920E-02 0.  1.
       -2    1    3    3    0  502  0.65048942567E+03 -0.33444095739E+02 -0.68340837592E+03  0.94408792426E+03  0.25500000920E-02 0. -1.
</event>
<event>
 5   0  0.5924654E-05  0.2120715E+04  0.7818609E-02  0.8552173E-01
        1   -1    0    0  501    0  0.00000000000E+00  0.00000000000E+00  0.14856579779E+04  0.14856579779E+04  0.50400001928E-02 0. -1.
       -1   -1    0    0    0  501  0.00000000000E+00  0.00000000000E+00 -0.75680818013E+03  0.75680818015E+03  0.50400001928E-02 0.  1.
    10030    2    1    2    0    0  0.00000000000E+00  0.00000000000E+00  0.72884979778E+03  0.22424661581E+04  0.21207150781E+04 0.  0.
        5    1    3    3  502    0 -0.70020030477E+03 -0.13335887197E+03 -0.46567321470E+03  0.85143331414E+03  0.46999998093E+01 0.  1.
       -5    1    3    3    0  502  0.70020030477E+03  0.13335887197E+03  0.11945230125E+04  0.13910328439E+04  0.46999998093E+01 0. -1.
</event>
<event>
 5   0  0.1270613E-04  0.2310389E+04  0.7818609E-02  0.8473836E-01
        2   -1    0    0  501    0  0.00000000000E+00  0.00000000000E+00  0.12937140556E+04  0.12937140556E+04  0.25500000920E-02 0.  1.
       -2   -1    0    0    0  501  0.00000000000E+00  0.00000000000E+00 -0.10315060972E+04  0.10315060972E+04  0.25500000920E-02 0. -1.
    10030    2    1    2    0    0  0.00000000000E+00  0.00000000000E+00  0.26220795837E+03  0.23252201528E+04  0.23103886568E+04 0.  0.
        2    1    3    3  502    0 -0.59300595463E+03 -0.83980769217E+03 -0.39909946191E+03  0.11028206575E+04  0.25500000920E-02 0.  1.
       -2    1    3    3    0  502  0.59300595463E+03  0.83980769217E+03  0.66130742028E+03  0.12223994953E+04  0.25500000920E-02 0. -1.
</event>
<event>
 5   0  0.5663790E-05  0.2271094E+04  0.7818609E-02  0.8489406E-01
        1   -1    0    0  501    0  0.00000000000E+00  0.00000000000E+00  0.10419118997E+04  0.10419118997E+04  0.50400001928E-02 0.  1.
       -1   -1    0    0    0  501  0.00000000000E+00  0.00000000000E+00 -0.12375973048E+04  0.12375973048E+04  0.50400001928E-02 0. -1.
    10030    2    1    2    0    0  0.00000000000E+00  0.00000000000E+00 -0.19568540516E+03  0.22795092045E+04  0.22710943256E+04 0.  0.
        3    1    3    3  502    0 -0.21140063627E+03 -0.10968307694E+04 -0.30290187021E+03  0.11573579908E+04  0.10100000352E+00 0. -1.
       -3    1    3    3    0  502  0.21140063627E+03  0.10968307694E+04  0.10721646505E+03  0.11221512137E+04  0.10100000352E+00 0.  1.
</event>
<event>
 5   0  0.1257524E-04  0.2305318E+04  0.7818609E-02  0.8475827E-01
        2   -1    0    0  501    0  0.00000000000E+00  0.00000000000E+00  0.88979268948E+03  0.88979268948E+03  0.25500000920E-02 0.  1.
       -2   -1    0    0    0  501  0.00000000000E+00  0.00000000000E+00 -0.14931824761E+04  0.14931824761E+04  0.25500000920E-02 0. -1.
    10030    2    1    2    0    0  0.00000000000E+00  0.00000000000E+00 -0.60338978665E+03  0.23829751656E+04  0.23053180703E+04 0.  0.
        3    1    3    3  502    0  0.59819672166E+03 -0.92839042183E+03  0.39381956452E+02  0.11051239939E+04  0.10100000352E+00 0. -1.
       -3    1    3    3    0  502 -0.59819672166E+03  0.92839042183E+03 -0.64277174310E+03  0.12778511717E+04  0.10100000352E+00 0.  1.
</event>
<event>
 5   0  0.5843670E-05  0.2306957E+04  0.7818609E-02  0.8475183E-01
       -1   -1    0    0    0  501  0.00000000000E+00  0.00000000000E+00  0.57166006560E+03  0.57166006562E+03  0.50400001928E-02 0. -1.
        1   -1    0    0  501    0  0.00000000000E+00  0.00000000000E+00 -0.23274543388E+04  0.23274543388E+04  0.50400001928E-02 0.  1.
    10030    2    1    2    0    0  0.00000000000E+00  0.00000000000E+00 -0.17557942732E+04  0.28991144044E+04  0.23069570434E+04 0.  0.
        2    1    3    3  502    0 -0.28154413404E+03 -0.77932305996E+03 -0.18863032099E+04  0.20602794303E+04  0.25500000920E-02 0. -1.
       -2    1    3    3    0  502  0.28154413404E+03  0.77932305996E+03  0.13050893674E+03  0.83883497410E+03  0.25500000920E-02 0.  1.
</event>
<event>
 5   0  0.5642466E-05  0.2342896E+04  0.7818609E-02  0.8461197E-01
        1   -1    0    0  501    0  0.00000000000E+00  0.00000000000E+00  0.19766681247E+04  0.19766681247E+04  0.50400001928E-02 0.  1.
       -1   -1    0    0    0  501  0.00000000000E+00  0.00000000000E+00 -0.69424417345E+03  0.69424417347E+03  0.50400001928E-02 0. -1.
    10030    2    1    2    0    0  0.00000000000E+00  0.00000000000E+00  0.12824239513E+04  0.26709122982E+04  0.23428959247E+04 0.  0.
        1    1    3    3  502    0  0.38112978656E+03 -0.11050077191E+04  0.55299332714E+03  0.12930984469E+04  0.50400001928E-02 0. -1.
       -1    1    3    3    0  502 -0.38112978656E+03  0.11050077191E+04  0.72943062412E+03  0.13778138513E+04  0.50400001928E-02 0.  1.
</event>
<event>
 5   0  0.1270613E-04  0.2298443E+04  0.7818609E-02  0.8478535E-01
       -2   -1    0    0    0  501  0.00000000000E+00  0.00000000000E+00  0.15079782679E+04  0.15079782679E+04  0.25500000920E-02 0. -1.
        2   -1    0    0  501    0  0.00000000000E+00  0.00000000000E+00 -0.87581517379E+03  0.87581517380E+03  0.25500000920E-02 0.  1.
    10030    2    1    2    0    0  0.00000000000E+00  0.00000000000E+00  0.63216309414E+03  0.23837934417E+04  0.22984431677E+04 0.  0.
        2    1    3    3  502    0  0.80611458605E+03 -0.75261141836E+03 -0.19131915727E+02  0.11030007720E+04  0.25500000920E-02 0. -1.
       -2    1    3    3    0  502 -0.80611458605E+03  0.75261141836E+03  0.65129500986E+03  0.12807926697E+04  0.25500000920E-02 0.  1.
</event>
<event>
 5   0  0.5663790E-05  0.1897020E+04  0.7818609E-02  0.8656341E-01
        1   -1    0    0  501    0  0.00000000000E+00  0.00000000000E+00  0.18102561606E+04  0.18102561606E+04  0.50400001928E-02 0. -1.
       -1   -1    0    0    0  501  0.00000000000E+00  0.00000000000E+00 -0.49698563346E+03  0.49698563348E+03  0.50400001928E-02 0.  1.
    10030    2    1    2    0    0  0.00000000000E+00  0.00000000000E+00  0.13132705272E+04  0.23072417941E+04  0.18970200892E+04 0.  0.
        3    1    3    3  502    0  0.53387073252E+03 -0.77122462495E+03  0.48520975414E+03  0.10560463517E+04  0.10100000352E+00 0.  1.
       -3    1    3    3    0  502 -0.53387073252E+03  0.77122462495E+03  0.82806077305E+03  0.12511954425E+04  0.10100000352E+00 0. -1.
</event>
<event>
 5   0  0.1281432E-04  0.2926641E+04  0.7818609E-02  0.8264995E-01
        2   -1    0    0  501    0  0.00000000000E+00  0.00000000000E+00  0.12830311457E+04  0.12830311457E+04  0.25500000920E-02 0. -1.
       -2   -1    0    0    0  501  0.00000000000E+00  0.00000000000E+00 -0.16689433008E+04  0.16689433008E+04  0.25500000920E-02 0.  1.
    10030    2    1    2    0    0  0.00000000000E+00  0.00000000000E+00 -0.38591215508E+03  0.29519744466E+04  0.29266405556E+04 0.  0.
        4    1    3    3  502    0 -0.13783823252E+04 -0.16522705702E+03  0.27372250861E+03  0.14149782470E+04  0.12699999809E+01 0. -1.
       -4    1    3    3    0  502  0.13783823252E+04  0.16522705702E+03 -0.65963466370E+03  0.15369961995E+04  0.12699999809E+01 0.  1.
</event>
<event>
 5   0  0.1257524E-04  0.2368739E+04  0.7818609E-02  0.8451301E-01
        2   -1    0    0  501    0  0.00000000000E+00  0.00000000000E+00  0.21574880260E+04  0.21574880260E+04  0.25500000920E-02 0. -1.
       -2   -1    0    0    0  501  0.00000000000E+00  0.00000000000E+00 -0.65016860503E+03  0.65016860504E+03  0.25500000920E-02 0.  1.
    10030    2    1    2    0    0  0.00000000000E+00  0.00000000000E+00  0.15073194210E+04  0.28076566310E+04  0.23687388883E+04 0.  0.
        3    1    3    3  502    0 -0.16093332778E+03  0.99494676681E+03  0.14909408229E+04  0.17996452852E+04  0.10100000352E+00 0. -1.
       -3    1    3    3    0  502  0.16093332778E+03 -0.99494676681E+03  0.16378598076E+02  0.10080113459E+04  0.10100000352E+00 0.  1.
</event>
<event>
 5   0  0.1234988E-04  0.2349653E+04  0.7818609E-02  0.8458597E-01
       -2   -1    0    0    0  501  0.00000000000E+00  0.00000000000E+00  0.11520393731E+04  0.11520393731E+04  0.25500000920E-02 0. -1.
        2   -1    0    0  501    0  0.00000000000E+00  0.00000000000E+00 -0.11980643131E+04  0.11980643131E+04  0.25500000920E-02 0.  1.
    10030    2    1    2    0    0  0.00000000000E+00  0.00000000000E+00 -0.46024940004E+02  0.23501036862E+04  0.23496529617E+04 0.  0.
        5    1    3    3  502    0 -0.29312601327E+03 -0.40448149077E+02 -0.11601721895E+04  0.11973222255E+04  0.46999998093E+01 0.  1.
       -5    1    3    3    0  502  0.29312601327E+03  0.40448149077E+02  0.11141472495E+04  0.11527814606E+04  0.46999998093E+01 0. -1.
</event>
<event>
 5   0  0.5632156E-05  0.2211391E+04  0.7818609E-02  0.8513702E-01
        1   -1    0    0  501    0  0.00000000000E+00  0.00000000000E+00  0.20141955383E+04  0.20141955383E+04  0.50400001928E-02 0. -1.
       -1   -1    0    0    0  501  0.00000000000E+00  0.00000000000E+00 -0.60697333470E+03  0.60697333473E+03  0.50400001928E-02 0.  1.
    10030    2    1    2    0    0  0.00000000000E+00  0.00000000000E+00  0.14072222036E+04  0.26211688730E+04  0.22113914015E+04 0.  0.
        4    1    3    3  502    0 -0.27804623374E+03 -0.92790055250E+03  0.13355590714E+04  0.16498572027E+04  0.12699999809E+01 0. -1.
       -4    1    3    3    0  502  0.27804623374E+03  0.92790055250E+03  0.71663132230E+02  0.97131167029E+03  0.12699999809E+01 0.  1.
</event>
<event>
 5   0  0.5663790E-05  0.2314733E+04  0.7818609E-02  0.8472135E-01
       -1   -1    0    0    0  501  0.00000000000E+00  0.00000000000E+00  0.10017232169E+04  0.10017232170E+04  0.50400001928E-02 0.  1.
        1   -1    0    0  501    0  0.00000000000E+00  0.00000000000E+00 -0.13371927841E+04  0.13371927841E+04  0.50400001928E-02 0. -1.
    10030    2    1    2    0    0  0.00000000000E+00  0.00000000000E+00 -0.33546956714E+03  0.23389160010E+04  0.23147328635E+04 0.  0.
        3    1    3    3  502    0 -0.10248678417E+04 -0.51781745256E+03 -0.21279003803E+02  0.11484519203E+04  0.10100000352E+00 0. -1.
       -3    1    3    3    0  502  0.10248678417E+04  0.51781745256E+03 -0.31419056333E+03  0.11904640807E+04  0.10100000352E+00 0.  1.
</event>
<event>
 5   0  0.5924654E-05  0.2263264E+04  0.7818609E-02  0.8492548E-01
        1   -1    0    0  501    0  0.00000000000E+00  0.00000000000E+00  0.15820190372E+04  0.15820190372E+04  0.50400001928E-02 0.  1.
       -1   -1    0    0    0  501  0.00000000000E+00  0.00000000000E+00 -0.80946596565E+03  0.80946596567E+03  0.50400001928E-02 0. -1.
    10030    2    1    2    0    0  0.00000000000E+00  0.00000000000E+00  0.77255307157E+03  0.23914850029E+04  0.22632636326E+04 0.  0.
        5    1    3    3  502    0  0.33838257773E+03  0.96069429830E+03 -0.13474267107E+03  0.10274307671E+04  0.46999998093E+01 0.  1.
       -5    1    3    3    0  502 -0.33838257773E+03 -0.96069429830E+03  0.90729574264E+03  0.13640542358E+04  0.46999998093E+01 0. -1.
</event>
<event>
 5   0  0.1281432E-04  0.2139388E+04  0.7818609E-02  0.8544088E-01
       -2   -1    0    0    0  501  0.00000000000E+00  0.00000000000E+00  0.50283962301E+03  0.50283962301E+03  0.25500000920E-02 0. -1.
        2   -1    0    0  501    0  0.00000000000E+00  0.00000000000E+00 -0.22755668933E+04  0.22755668933E+04  0.25500000920E-02 0.  1.
    10030    2    1    2    0    0  0.00000000000E+00  0.00000000000E+00 -0.17727272703E+04  0.27784065163E+04  0.21393879487E+04 0.  0.
        4    1    3    3  502    0 -0.13026436661E+03 -0.66434247181E+03 -0.19619473032E+04  0.20754658654E+04  0.12699999809E+01 0.  1.
       -4    1    3    3    0  502  0.13026436661E+03  0.66434247181E+03  0.18922003284E+03  0.70294065097E+03  0.12699999809E+01 0. -1.
</event>
<event>
 5   0  0.1237296E-04  0.1737495E+04  0.7818609E-02  0.8740264E-01
        2   -1    0    0  501    0  0.00000000000E+00  0.00000000000E+00  0.11254051591E+04  0.11254051591E+04  0.25500000920E-02 0. -1.
       -2   -1    0    0    0  501  0.00000000000E+00  0.00000000000E+00 -0.67062292834E+03  0.67062292834E+03  0.25500000920E-02 0.  1.
    10030    2    1    2    0    0  0.00000000000E+00  0.00000000000E+00  0.45478223080E+03  0.17960280875E+04  0.17374953276E+04 0.  0.
        1    1    3    3  502    0  0.39823010466E+03 -0.61062039657E+03 -0.26105028008E+03  0.77433308964E+03  0.50400001928E-02 0.  1.
       -1    1    3    3    0  502 -0.39823010466E+03  0.61062039657E+03  0.71583251087E+03  0.10216949978E+04  0.50400001928E-02 0. -1.
</event>
<event>
 5   0  0.1234988E-04  0.2454177E+04  0.7818609E-02  0.8419495E-01
        2   -1    0    0  501    0  0.00000000000E+00  0.00000000000E+00  0.16917017118E+04  0.16917017118E+04  0.25500000920E-02 0.  1.
       -2   -1    0    0    0  501  0.00000000000E+00  0.00000000000E+00 -0.89007776205E+03  0.89007776205E+03  0.25500000920E-02 0. -1.
    10030    2    1    2    0    0  0.00000000000E+00  0.00000000000E+00  0.80162394979E+03  0.25817794739E+04  0.24541769078E+04 0.  0.
        5    1    3    3  502    0 -0.10345027447E+04  0.35357719556E+03  0.98702022776E+03  0.14729031815E+04  0.46999998093E+01 0.  1.
       -5    1    3    3    0  502  0.10345027447E+04 -0.35357719556E+03 -0.18539627798E+03  0.11088762924E+04  0.46999998093E+01 0. -1.
</event>
<event>
 5   0  0.1281432E-04  0.2366847E+04  0.7818609E-02  0.8452021E-01
       -2   -1    0    0    0  501  0.00000000000E+00  0.00000000000E+00  0.15159682161E+04  0.15159682161E+04  0.25500000920E-02 0. -1.
        2   -1    0    0  501    0  0.00000000000E+00  0.00000000000E+00 -0.92382632802E+03  0.92382632803E+03  0.25500000920E-02 0.  1.
    10030    2    1    2    0    0  0.00000000000E+00  0.00000000000E+00  0.59214188808E+03  0.24397945441E+04  0.23668471438E+04 0.  0.
        4    1    3    3  502    0 -0.91987756973E+02 -0.56636471962E+03  0.13629870848E+04  0.14788394603E+04  0.12699999809E+01 0. -1.
       -4    1    3    3    0  502  0.91987756973E+02  0.56636471962E+03 -0.77084519669E+03  0.96095508387E+03  0.12699999809E+01 0.  1.
</event>
<event>
 5   0  0.1270613E-04  0.2177507E+04  0.7818609E-02  0.8527849E-01
       -2   -1    0    0    0  501  0.00000000000E+00  0.00000000000E+00  0.11832105694E+04  0.11832105694E+04  0.25500000920E-02 0.  1.
        2   -1    0    0  501    0  0.00000000000E+00  0.00000000000E+00 -0.10018368340E+04  0.10018368340E+04  0.25500000920E-02 0. -1.
    10030    2    1    2    0    0  0.00000000000E+00  0.00000000000E+00  0.18137373534E+03  0.21850474034E+04  0.21775067677E+04 0.  0.
        2    1    3    3  502    0  0.61029958924E+03 -0.60589058804E+03 -0.57931907953E+03  0.10369086697E+04  0.25500000920E-02 0. -1.
       -2    1    3    3    0  502 -0.61029958924E+03  0.60589058804E+03  0.76069281487E+03  0.11481387337E+04  0.25500000920E-02 0.  1.
</event>
<event>
 5   0  0.1234988E-04  0.2283005E+04  0.7818609E-02  0.8484652E-01
       -2   -1    0    0    0  501  0.00000000000E+00  0.00000000000E+00  0.78075248546E+03  0.78075248547E+03  0.25500000920E-02 0. -1.
        2   -1    0    0  501    0  0.00000000000E+00  0.00000000000E+00 -0.16689384931E+04  0.16689384931E+04  0.25500000920E-02 0.  1.
    10030    2    1    2    0    0  0.00000000000E+00  0.00000000000E+00 -0.88818600760E+03  0.24496909785E+04  0.22830049291E+04 0.  0.
        5    1    3    3  502    0  0.10964429325E+03  0.11108004737E+04 -0.18767638300E+03  0.11318763529E+04  0.46999998093E+01 0. -1.
       -5    1    3    3    0  502 -0.10964429325E+03 -0.11108004737E+04 -0.70050962460E+03  0.13178146257E+04  0.46999998093E+01 0.  1.
</event>
<event>
 5   0  0.1234988E-04  0.2232141E+04  0.7818609E-02  0.8505168E-01
       -2   -1    0    0    0  501  0.00000000000E+00  0.00000000000E+00  0.99286242277E+03  0.99286242277E+03  0.25500000920E-02 0. -1.
        2   -1    0    0  501    0  0.00000000000E+00  0.00000000000E+00 -0.12545678105E+04  0.12545678105E+04  0.25500000920E-02 0.  1.
    10030    2    1    2    0    0  0.00000000000E+00  0.00000000000E+00 -0.26170538777E+03  0.22474302333E+04  0.22321408879E+04 0.  0.
        5    1    3    3  502    0 -0.14888797969E+03  0.10900129818E+04  0.58304355776E+02  0.11016884400E+04  0.46999998093E+01 0. -1.
       -5    1    3    3    0  502  0.14888797969E+03 -0.10900129818E+04 -0.32000974354E+03  0.11457417933E+04  0.46999998093E+01 0.  1.
</event>
<event>
 5   0  0.5843670E-05  0.2336068E+04  0.7818609E-02  0.8463834E-01
       -1   -1    0    0    0  501  0.00000000000E+00  0.00000000000E+00  0.18639158615E+04  0.18639158615E+04  0.50400001928E-02 0. -1.
        1   -1    0    0  501    0  0.00000000000E+00  0.00000000000E+00 -0.73195567226E+03  0.73195567228E+03  0.50400001928E-02 0.  1.
    10030    2    1    2    0    0  0.00000000000E+00  0.00000000000E+00  0.11319601893E+04  0.25958715338E+04  0.23360683102E+04 0.  0.
        2    1    3    3  502    0  0.81013819546E+03  0.81531372966E+03  0.79705758624E+03  0.13986998139E+04  0.25500000920E-02 0. -1.
       -2    1    3    3    0  502 -0.81013819546E+03 -0.81531372966E+03  0.33490260303E+03  0.11971717199E+04  0.25500000920E-02 0.  1.
</event>
<event>
 5   0  0.5843670E-05  0.2475193E+04  0.7818609E-02  0.8411877E-01
        1   -1    0    0  501    0  0.00000000000E+00  0.00000000000E+00  0.23972217887E+04  0.23972217887E+04  0.50400001928E-02 0. -1.
       -1   -1    0    0    0  501  0.00000000000E+00  0.00000000000E+00 -0.63892528195E+03  0.63892528197E+03  0.50400001928E-02 0.  1.
    10030    2    1    2    0    0  0.00000000000E+00  0.00000000000E+00  0.17582965068E+04  0.30361470707E+04  0.24751934125E+04 0.  0.
        2    1    3    3  502    0  0.10308456665E+04  0.67019763523E+03  0.10519157532E+04  0.16181268214E+04  0.25500000920E-02 0. -1.
       -2    1    3    3    0  502 -0.10308456665E+04 -0.67019763523E+03  0.70638075352E+03  0.14180202492E+04  0.25500000920E-02 0.  1.
</event>
<event>
 5   0  0.4489500E-05  0.2354668E+04  0.7818609E-02  0.8456673E-01
       -4   -1    0    0    0  501  0.00000000000E+00  0.00000000000E+00  0.12138566647E+04  0.12138573291E+04  0.12699999809E+01 0. -1.
        4   -1    0    0  501    0  0.00000000000E+00  0.00000000000E+00 -0.11419087006E+04  0.11419094069E+04  0.12699999809E+01 0.  1.
    10030    2    1    2    0    0  0.00000000000E+00  0.00000000000E+00  0.71947964057E+02  0.23557667359E+04  0.23546677907E+04 0.  0.
        2    1    3    3  502    0 -0.29844575821E+03 -0.56529075579E+03  0.10251171535E+04  0.12080929962E+04  0.25500000920E-02 0. -1.
       -2    1    3    3    0  502  0.29844575821E+03  0.56529075579E+03 -0.95316918941E+03  0.11476737397E+04  0.25500000920E-02 0.  1.
</event>
<event>
 5   0  0.5663790E-05  0.2338586E+04  0.7818609E-02  0.8462861E-01
       -1   -1    0    0    0  501  0.00000000000E+00  0.00000000000E+00  0.10893378017E+04  0.10893378017E+04  0.50400001928E-02 0.  1.
        1   -1    0    0  501    0  0.00000000000E+00  0.00000000000E+00 -0.12551162145E+04  0.12551162145E+04  0.50400001928E-02 0. -1.
    10030    2    1    2    0    0  0.00000000000E+00  0.00000000000E+00 -0.16577841279E+03  0.23444540163E+04  0.23385855024E+04 0.  0.
        3    1    3    3  502    0  0.10585126935E+04  0.26396404596E+03  0.33902244351E+03  0.11423932630E+04  0.10100000352E+00 0.  1.
       -3    1    3    3    0  502 -0.10585126935E+04 -0.26396404596E+03 -0.50480085630E+03  0.12020607533E+04  0.10100000352E+00 0. -1.
</event>
<event>
 5   0  0.1257524E-04  0.2296896E+04  0.7818609E-02  0.8479146E-01
       -2   -1    0    0    0  501  0.00000000000E+00  0.00000000000E+00  0.77756530158E+03  0.77756530159E+03  0.25500000920E-02 0.  1.
        2   -1    0    0  501    0  0.00000000000E+00  0.00000000000E+00 -0.16962335474E+04  0.16962335474E+04  0.25500000920E-02 0. -1.
    10030    2    1    2    0    0  0.00000000000E+00  0.00000000000E+00 -0.91866824581E+03  0.24737988490E+04  0.22968956005E+04 0.  0.
        3    1    3    3  502    0  0.72327554530E+03 -0.28298129993E+03  0.45183007823E+03  0.89853011098E+03  0.10100000352E+00 0.  1.
       -3    1    3    3    0  502 -0.72327554530E+03  0.28298129993E+03 -0.13704983240E+04  0.15752687380E+04  0.10100000352E+00 0. -1.
</event>
<event>
 5   0  0.5642466E-05  0.2369660E+04  0.7818609E-02  0.8450951E-01
       -1   -1    0    0    0  501  0.00000000000E+00  0.00000000000E+00  0.14306744029E+04  0.14306744029E+04  0.50400001928E-02 0.  1.
        1   -1    0    0  501    0  0.00000000000E+00  0.00000000000E+00 -0.98123082786E+03  0.98123082787E+03  0.50400001928E-02 0. -1.
    10030    2    1    2    0    0  0.00000000000E+00  0.00000000000E+00  0.44944357501E+03  0.24119052307E+04  0.23696597467E+04 0.  0.
        1    1    3    3  502    0 -0.17315748385E+03  0.18879745805E+03 -0.95270458853E+03  0.98654651558E+03  0.50400001928E-02 0. -1.
       -1    1    3    3    0  502  0.17315748385E+03 -0.18879745805E+03  0.14021481635E+04  0.14253587152E+04  0.50400001928E-02 0.  1.
</event>
<event>
 5   0  0.5843670E-05  0.2099893E+04  0.7818609E-02  0.8561291E-01
       -1   -1    0    0    0  501  0.00000000000E+00  0.00000000000E+00  0.92919054090E+03  0.92919054092E+03  0.50400001928E-02 0. -1.
        1   -1    0    0  501    0  0.00000000000E+00  0.00000000000E+00 -0.11863953023E+04  0.11863953023E+04  0.50400001928E-02 0.  1.
    10030    2    1    2    0    0  0.00000000000E+00  0.00000000000E+00 -0.25720476140E+03  0.21155858432E+04  0.20998926570E+04 0.  0.
        2    1    3    3  502    0 -0.13210497688E+03  0.28003261739E+03  0.88214861887E+03  0.93490971623E+03  0.25500000920E-02 0. -1.
       -2    1    3    3    0  502  0.13210497688E+03 -0.28003261739E+03 -0.11393533803E+04  0.11806761270E+04  0.25500000920E-02 0.  1.
</event>
<event>
 5   0  0.5924654E-05  0.2360235E+04  0.7818609E-02  0.8454543E-01
        1   -1    0    0  501    0  0.00000000000E+00  0.00000000000E+00  0.15185574084E+04  0.15185574084E+04  0.50400001928E-02 0. -1.
       -1   -1    0    0    0  501  0.00000000000E+00  0.00000000000E+00 -0.91710550092E+03  0.91710550094E+03  0.50400001928E-02 0.  1.
    10030    2    1    2    0    0  0.00000000000E+00  0.00000000000E+00  0.60145190748E+03  0.24356629094E+04  0.23602350330E+04 0.  0.
        5    1    3    3  502    0  0.62843620197E+03 -0.19381302087E+03  0.13119180602E+04  0.14675307948E+04  0.46999998093E+01 0. -1.
       -5    1    3    3    0  502 -0.62843620197E+03  0.19381302087E+03 -0.71046615274E+03  0.96813211453E+03  0.46999998093E+01 0.  1.
</event>
<event>
 5   0  0.1270613E-04  0.2283686E+04  0.7818609E-02  0.8484382E-01
        2   -1    0    0  501    0  0.00000000000E+00  0.00000000000E+00  0.16172041531E+04  0.16172041531E+04  0.25500000920E-02 0.  1.
       -2   -1    0    0    0  501  0.00000000000E+00  0.00000000000E+00 -0.80620927878E+03  0.80620927879E+03  0.25500000920E-02 0. -1.
    10030    2    1    2    0    0  0.00000000000E+00  0.00000000000E+00  0.81099487434E+03  0.24234134319E+04  0.22836856123E+04 0.  0.
        2    1    3    3  502    0 -0.33336236283E+03  0.72816258403E+03 -0.45821462792E+03  0.92266562686E+03  0.25500000920E-02 0. -1.
       -2    1    3    3    0  502  0.33336236283E+03 -0.72816258403E+03  0.12692095023E+04  0.15007478051E+04  0.25500000920E-02 0.  1.
</event>
<event>
 5   0  0.1281432E-04  0.2338739E+04  0.7818609E-02  0.8462802E-01
       -2   -1    0    0    0  501  0.00000000000E+00  0.00000000000E+00  0.11010688431E+04  0.11010688431E+04  0.25500000920E-02 0. -1.
        2   -1    0    0  501    0  0.00000000000E+00  0.00000000000E+00 -0.12419067727E+04  0.12419067727E+04  0.25500000920E-02 0.  1.
    10030    2    1    2    0    0  0.00000000000E+00  0.00000000000E+00 -0.14083792959E+03  0.23429756157E+04  0.23387388511E+04 0.  0.
        4    1    3    3  502    0  0.64112039840E+03 -0.90979150735E+03  0.28893307370E+03  0.11498869014E+04  0.12699999809E+01 0.  1.
       -4    1    3    3    0  502 -0.64112039840E+03  0.90979150735E+03 -0.42977100329E+03  0.11930887143E+04  0.12699999809E+01 0. -1.
</event>
<event>
 5   0  0.5663790E-05  0.2303904E+04  0.7818609E-02  0.8476383E-01
       -1   -1    0    0    0  501  0.00000000000E+00  0.00000000000E+00  0.11587061942E+04  0.11587061942E+04  0.50400001928E-02 0. -1.
        1   -1    0    0  501    0  0.00000000000E+00  0.00000000000E+00 -0.11452373639E+04  0.11452373639E+04  0.50400001928E-02 0.  1.
    10030    2    1    2    0    0  0.00000000000E+00  0.00000000000E+00  0.13468830284E+02  0.23039435581E+04  0.23039041884E+04 0.  0.
        3    1    3    3  502    0 -0.93167109992E+02  0.57783786488E+03  0.99892923114E+03  0.11577721397E+04  0.10100000352E+00 0. -1.
       -3    1    3    3    0  502  0.93167109992E+02 -0.57783786488E+03 -0.98546040086E+03  0.11461714184E+04  0.10100000352E+00 0.  1.
</event>
<event>
 5   0  0.1270613E-04  0.2322898E+04  0.7818609E-02  0.8468947E-01
        2   -1    0    0  501    0  0.00000000000E+00  0.00000000000E+00  0.10248209027E+04  0.10248209027E+04  0.25500000920E-02 0. -1.
       -2   -1    0    0    0  501  0.00000000000E+00  0.00000000000E+00 -0.13162924191E+04  0.13162924191E+04  0.25500000920E-02 0.  1.
    10030    2    1    2    0    0  0.00000000000E+00  0.00000000000E+00 -0.29147151634E+03  0.23411133218E+04  0.23228981770E+04 0.  0.
        2    1    3    3  502    0 -0.97324149942E+03  0.62172178261E+03 -0.21370421225E+02  0.11550730220E+04  0.25500000920E-02 0.  1.
       -2    1    3    3    0  502  0.97324149942E+03 -0.62172178261E+03 -0.27010109511E+03  0.11860402998E+04  0.25500000920E-02 0. -1.
</event>
<event>
 5   0  0.5924654E-05  0.2238896E+04  0.7818609E-02  0.8502411E-01
        1   -1    0    0  501    0  0.00000000000E+00  0.00000000000E+00  0.82534567473E+03  0.82534567474E+03  0.50400001928E-02 0. -1.
       -1   -1    0    0    0  501  0.00000000000E+00  0.00000000000E+00 -0.15183507730E+04  0.15183507730E+04  0.50400001928E-02 0.  1.
    10030    2    1    2    0    0  0.00000000000E+00  0.00000000000E+00 -0.69300509828E+03  0.23436964478E+04  0.22388963739E+04 0.  0.
        5    1    3    3  502    0 -0.16615850401E+03 -0.64152042253E+03  0.59794008472E+03  0.89258699066E+03  0.46999998093E+01 0. -1.
       -5    1    3    3    0  502  0.16615850401E+03  0.64152042253E+03 -0.12909451830E+04  0.14511094571E+04  0.46999998093E+01 0.  1.
</event>
<event>
 5   0  0.4489500E-05  0.2069468E+04  0.7818609E-02  0.8574813E-01
        3   -1    0    0  501    0  0.00000000000E+00  0.00000000000E+00  0.10843743403E+04  0.10843743450E+04  0.10100000352E+00 0. -1.
       -3   -1    0    0    0  501  0.00000000000E+00  0.00000000000E+00 -0.98736642349E+03  0.98736642866E+03  0.10100000352E+00 0.  1.
    10030    2    1    2    0    0  0.00000000000E+00  0.00000000000E+00  0.97007916785E+02  0.20717407736E+04  0.20694683610E+04 0.  0.
        3    1    3    3  502    0  0.45770389885E+03  0.43082660793E+01  0.97751184887E+03  0.10793705782E+04  0.10100000352E+00 0. -1.
       -3    1    3    3    0  502 -0.45770389885E+03 -0.43082660793E+01 -0.88050393209E+03  0.99237019545E+03  0.10100000352E+00 0.  1.
</event>
<event>
 5   0  0.5632156E-05  0.2195469E+04  0.7818609E-02  0.8520316E-01
       -1   -1    0    0    0  501  0.00000000000E+00  0.00000000000E+00  0.81303151513E+03  0.81303151515E+03  0.50400001928E-02 0. -1.
        1   -1    0    0  501    0  0.00000000000E+00  0.00000000000E+00 -0.14821337316E+04  0.14821337316E+04  0.50400001928E-02 0.  1.
    10030    2    1    2    0    0  0.00000000000E+00  0.00000000000E+00 -0.66910221643E+03  0.22951652467E+04  0.21954693652E+04 0.  0.
        4    1    3    3  502    0  0.70866645472E+03  0.20769995623E+03  0.51453304642E+03  0.90005182329E+03  0.12699999809E+01 0. -1.
       -4    1    3    3    0  502 -0.70866645472E+03 -0.20769995623E+03 -0.11836352628E+04  0.13951134234E+04  0.12699999809E+01 0.  1.
</event>
<event>
 5   0  0.5843670E-05  0.2272751E+04  0.7818609E-02  0.8488743E-01
        1   -1    0    0  501    0  0.00000000000E+00  0.00000000000E+00  0.12942854425E+04  0.12942854426E+04  0.50400001928E-02 0.  1.
       -1   -1    0    0    0  501  0.00000000000E+00  0.00000000000E+00 -0.99773175393E+03  0.99773175394E+03  0.50400001928E-02 0. -1.
    10030    2    1    2    0    0  0.00000000000E+00  0.00000000000E+00  0.29655368862E+03  0.22920171965E+04  0.22727513588E+04 0.  0.
        2    1    3    3  502    0 -0.39274769459E+03  0.78333952348E+03 -0.58137420999E+03  0.10516023643E+04  0.25500000920E-02 0. -1.
       -2    1    3    3    0  502  0.39274769459E+03 -0.78333952348E+03  0.87792789861E+03  0.12404148321E+04  0.25500000920E-02 0.  1.
</event>
<event>
 5   0  0.5924654E-05  0.2356160E+04  0.7818609E-02  0.8456101E-01
       -1   -1    0    0    0  501  0.00000000000E+00  0.00000000000E+00  0.13260425775E+04  0.13260425775E+04  0.50400001928E-02 0. -1.
        1   -1    0    0  501    0  0.00000000000E+00  0.00000000000E+00 -0.10466277570E+04  0.10466277570E+04  0.50400001928E-02 0.  1.
    10030    2    1    2    0    0  0.00000000000E+00  0.00000000000E+00  0.27941482049E+03  0.23726703345E+04  0.23561604093E+04 0.  0.
        5    1    3    3  502    0  0.80459078824E+03 -0.16121106911E+03 -0.71149394245E+03  0.10860944091E+04  0.46999998093E+01 0.  1.
       -5    1    3    3    0  502 -0.80459078824E+03  0.16121106911E+03  0.99090876294E+03  0.12865759254E+04  0.46999998093E+01 0. -1.
</event>
<event>
 5   0  0.5642466E-05  0.2302085E+04  0.7818609E-02  0.8477099E-01
       -1   -1    0    0    0  501  0.00000000000E+00  0.00000000000E+00  0.10607951142E+04  0.10607951142E+04  0.50400001928E-02 0. -1.
        1   -1    0    0  501    0  0.00000000000E+00  0.00000000000E+00 -0.12489676925E+04  0.12489676925E+04  0.50400001928E-02 0.  1.
    10030    2    1    2    0    0  0.00000000000E+00  0.00000000000E+00 -0.18817257828E+03  0.23097628067E+04  0.23020849906E+04 0.  0.
        1    1    3    3  502    0  0.10706791506E+04  0.24817326395E+03  0.24904115242E+03  0.11269273748E+04  0.50400001928E-02 0.  1.
       -1    1    3    3    0  502 -0.10706791506E+04 -0.24817326395E+03 -0.43721373070E+03  0.11828354319E+04  0.50400001928E-02 0. -1.
</event>
<event>
 5   0  0.1257524E-04  0.2349798E+04  0.7818609E-02  0.8458541E-01
        2   -1    0    0  501    0  0.00000000000E+00  0.00000000000E+00  0.16832044044E+04  0.16832044044E+04  0.25500000920E-02 0. -1.
       -2   -1    0    0    0  501  0.00000000000E+00  0.00000000000E+00 -0.82009478279E+03  0.82009478279E+03  0.25500000920E-02 0.  1.
    10030    2    1    2    0    0  0.00000000000E+00  0.00000000000E+00  0.86310962160E+03  0.25032991872E+04  0.23497975661E+04 0.  0.
        3    1    3    3  502    0 -0.39478272816E+03 -0.67299001678E+03 -0.50424624979E+03  0.92899583194E+03  0.10100000352E+00 0.  1.
       -3    1    3    3    0  502  0.39478272816E+03  0.67299001678E+03  0.13673558714E+04  0.15743033552E+04  0.10100000352E+00 0. -1.
</event>
<event>
 5   0  0.1257524E-04  0.2376987E+04  0.7818609E-02  0.8448170E-01
       -2   -1    0    0    0  501  0.00000000000E+00  0.00000000000E+00  0.83326655877E+03  0.83326655877E+03  0.25500000920E-02 0. -1.
        2   -1    0    0  501    0  0.00000000000E+00  0.00000000000E+00 -0.16951553856E+04  0.16951553856E+04  0.25500000920E-02 0.  1.
    10030    2    1    2    0    0  0.00000000000E+00  0.00000000000E+00 -0.86188882685E+03  0.25284219444E+04  0.23769865753E+04 0.  0.
        3    1    3    3  502    0  0.11164010285E+04 -0.31093702506E+03 -0.71133453624E+03  0.13597903966E+04  0.10100000352E+00 0.  1.
       -3    1    3    3    0  502 -0.11164010285E+04  0.31093702506E+03 -0.15055429062E+03  0.11686315478E+04  0.10100000352E+00 0. -1.
</event>
<event>
 5   0  0.5924654E-05  0.2297383E+04  0.7818609E-02  0.8478954E-01
        1   -1    0    0  501    0  0.00000000000E+00  0.00000000000E+00  0.16633011882E+04  0.16633011882E+04  0.50400001928E-02 0.  1.
       -1   -1    0    0    0  501  0.00000000000E+00  0.00000000000E+00 -0.79329699216E+03  0.79329699218E+03  0.50400001928E-02 0. -1.
    10030    2    1    2    0    0  0.00000000000E+00  0.00000000000E+00  0.87000419606E+03  0.24565981804E+04  0.22973827106E+04 0.  0.
        5    1    3    3  502    0  0.83018195405E+03  0.43294596609E+03  0.11465711733E+04  0.14803012639E+04  0.46999998093E+01 0.  1.
       -5    1    3    3    0  502 -0.83018195405E+03 -0.43294596609E+03 -0.27656697722E+03  0.97629691655E+03  0.46999998093E+01 0. -1.
</event>
<event>
 5   0  0.5663790E-05  0.2478197E+04  0.7818609E-02  0.8410794E-01
       -1   -1    0    0    0  501  0.00000000000E+00  0.00000000000E+00  0.97389656632E+03  0.97389656633E+03  0.50400001928E-02 0. -1.
        1   -1    0    0  501    0  0.00000000000E+00  0.00000000000E+00 -0.15765171628E+04  0.15765171629E+04  0.50400001928E-02 0.  1.
    10030    2    1    2    0    0  0.00000000000E+00  0.00000000000E+00 -0.60262059653E+03  0.25504137292E+04  0.24781966441E+04 0.  0.
        3    1    3    3  502    0 -0.41993086055E+03 -0.20712953417E+03  0.87934366411E+03  0.99623785382E+03  0.10100000352E+00 0. -1.
       -3    1    3    3    0  502  0.41993086055E+03  0.20712953417E+03 -0.14819642606E+04  0.15541758754E+04  0.10100000352E+00 0.  1.
</event>
<event>
 5   0  0.5663790E-05  0.2258479E+04  0.7818609E-02  0.8494474E-01
        1   -1    0    0  501    0  0.00000000000E+00  0.00000000000E+00  0.16569260090E+04  0.16569260090E+04  0.50400001928E-02 0. -1.
       -1   -1    0    0    0  501  0.00000000000E+00  0.00000000000E+00 -0.76960731997E+03  0.76960731999E+03  0.50400001928E-02 0.  1.
    10030    2    1    2    0    0  0.00000000000E+00  0.00000000000E+00  0.88731868899E+03  0.24265333290E+04  0.22584794754E+04 0.  0.
        3    1    3    3  502    0 -0.25973538057E+03  0.83425148470E+03 -0.32493405103E+03  0.93221250547E+03  0.10100000352E+00 0. -1.
       -3    1    3    3    0  502  0.25973538057E+03 -0.83425148470E+03  0.12122527400E+04  0.14943208235E+04  0.10100000352E+00 0.  1.
</event>
<event>
 5   0  0.1270613E-04  0.2345308E+04  0.7818609E-02  0.8460268E-01
       -2   -1    0    0    0  501  0.00000000000E+00  0.00000000000E+00  0.21029693114E+04  0.21029693114E+04  0.25500000920E-02 0.  1.
        2   -1    0    0  501    0  0.00000000000E+00  0.00000000000E+00 -0.65389337773E+03  0.65389337773E+03  0.25500000920E-02 0. -1.
    10030    2    1    2    0    0  0.00000000000E+00  0.00000000000E+00  0.14490759336E+04  0.27568626891E+04  0.23453082580E+04 0.  0.
        2    1    3    3  502    0  0.20134241386E+03 -0.20527159272E+03 -0.61181388670E+03  0.67601140994E+03  0.25500000920E-02 0. -1.
       -2    1    3    3    0  502 -0.20134241386E+03  0.20527159272E+03  0.20608898203E+04  0.20808512792E+04  0.25500000920E-02 0.  1.
</event>
<event>
 5   0  0.1270613E-04  0.2230587E+04  0.7818609E-02  0.8505804E-01
        2   -1    0    0  501    0  0.00000000000E+00  0.00000000000E+00  0.10464574554E+04  0.10464574555E+04  0.25500000920E-02 0. -1.
       -2   -1    0    0    0  501  0.00000000000E+00  0.00000000000E+00 -0.11886575417E+04  0.11886575417E+04  0.25500000920E-02 0.  1.
    10030    2    1    2    0    0  0.00000000000E+00  0.00000000000E+00 -0.14220008625E+03  0.22351149971E+04  0.22305869600E+04 0.  0.
        2    1    3    3  502    0  0.10212875949E+04  0.14647900322E+03  0.35331033758E+03  0.10905561171E+04  0.25500000920E-02 0. -1.
       -2    1    3    3    0  502 -0.10212875949E+04 -0.14647900322E+03 -0.49551042383E+03  0.11445588801E+04  0.25500000920E-02 0.  1.
</event>
<event>
 5   0  0.5632156E-05  0.2107406E+04  0.7818609E-02  0.8557988E-01
        1   -1    0    0  501    0  0.00000000000E+00  0.00000000000E+00  0.16978952585E+04  0.16978952586E+04  0.50400001928E-02 0. -1.
       -1   -1    0    0    0  501  0.00000000000E+00  0.00000000000E+00 -0.65392125233E+03  0.65392125235E+03  0.50400001928E-02 0.  1.
    10030    2    1    2    0    0  0.00000000000E+00  0.00000000000E+00  0.10439740062E+04  0.23518165109E+04  0.21074057927E+04 0.  0.
        4    1    3    3  502    0  0.88904261612E+03  0.56502750169E+03  0.49385796122E+03  0.11634217420E+04  0.12699999809E+01 0.  1.
       -4    1    3    3    0  502 -0.88904261612E+03 -0.56502750169E+03  0.55011604500E+03  0.11883947689E+04  0.12699999809E+01 0. -1.
</event>
<event>
 5   0  0.1237296E-04  0.2201221E+04  0.7818609E-02  0.8517920E-01
       -2   -1    0    0    0  501  0.00000000000E+00  0.00000000000E+00  0.76751701547E+03  0.76751701547E+03  0.25500000920E-02 0. -1.
        2   -1    0    0  501    0  0.00000000000E+00  0.00000000000E+00 -0.15782625000E+04  0.15782625000E+04  0.25500000920E-02 0.  1.
    10030    2    1    2    0    0  0.00000000000E+00  0.00000000000E+00 -0.81074548453E+03  0.23457795155E+04  0.22012208646E+04 0.  0.
        1    1    3    3  502    0  0.91505375737E+03 -0.51055659764E+03 -0.76416080166E+03  0.12968936537E+04  0.50400001928E-02 0. -1.
       -1    1    3    3    0  502 -0.91505375737E+03  0.51055659764E+03 -0.46584682871E+02  0.10488858617E+04  0.50400001928E-02 0.  1.
</event>
<event>
 5   0  0.4489500E-05  0.2256101E+04  0.7818609E-02  0.8495434E-01
       -3   -1    0    0    0  501  0.00000000000E+00  0.00000000000E+00  0.11803531827E+04  0.11803531870E+04  0.10100000352E+00 0. -1.
        3   -1    0    0  501    0  0.00000000000E+00  0.00000000000E+00 -0.10780657670E+04  0.10780657718E+04  0.10100000352E+00 0.  1.
    10030    2    1    2    0    0  0.00000000000E+00  0.00000000000E+00  0.10228741562E+03  0.22584189588E+04  0.22561013891E+04 0.  0.
        4    1    3    3  502    0 -0.81637199050E+03 -0.75515928752E+03 -0.13817481453E+03  0.11206349400E+04  0.12699999809E+01 0.  1.
       -4    1    3    3    0  502  0.81637199050E+03  0.75515928752E+03  0.24046223014E+03  0.11377840188E+04  0.12699999809E+01 0. -1.
</event>
<event>
 5   0  0.1234988E-04  0.2256351E+04  0.7818609E-02  0.8495333E-01
       -2   -1    0    0    0  501  0.00000000000E+00  0.00000000000E+00  0.92654482878E+03  0.92654482879E+03  0.25500000920E-02 0. -1.
        2   -1    0    0  501    0  0.00000000000E+00  0.00000000000E+00 -0.13736838491E+04  0.13736838491E+04  0.25500000920E-02 0.  1.
    10030    2    1    2    0    0  0.00000000000E+00  0.00000000000E+00 -0.44713902032E+03  0.23002286779E+04  0.22563507412E+04 0.  0.
        5    1    3    3  502    0  0.95362002948E+03  0.57748467384E+03 -0.39978302059E+03  0.11843682969E+04  0.46999998093E+01 0. -1.
       -5    1    3    3    0  502 -0.95362002948E+03 -0.57748467384E+03 -0.47355999730E+02  0.11158603810E+04  0.46999998093E+01 0.  1.
</event>
<event>
 5   0  0.1234988E-04  0.2314955E+04  0.7818609E-02  0.8472048E-01
       -2   -1    0    0    0  501  0.00000000000E+00  0.00000000000E+00  0.90836764608E+03  0.90836764608E+03  0.25500000920E-02 0.  1.
        2   -1    0    0  501    0  0.00000000000E+00  0.00000000000E+00 -0.14749026255E+04  0.14749026255E+04  0.25500000920E-02 0. -1.
    10030    2    1    2    0    0  0.00000000000E+00  0.00000000000E+00 -0.56653497944E+03  0.23832702716E+04  0.23149547090E+04 0.  0.
        5    1    3    3  502    0  0.23221629337E+03  0.79988758808E+03  0.54418438686E+03  0.99493884102E+03  0.46999998093E+01 0.  1.
       -5    1    3    3    0  502 -0.23221629337E+03 -0.79988758808E+03 -0.11107193663E+04  0.13883314306E+04  0.46999998093E+01 0. -1.
</event>
<event>
 5   0  0.1270613E-04  0.2246319E+04  0.7818609E-02  0.8499393E-01
        2   -1    0    0  501    0  0.00000000000E+00  0.00000000000E+00  0.12948048751E+04  0.12948048751E+04  0.25500000920E-02 0.  1.
       -2   -1    0    0    0  501  0.00000000000E+00  0.00000000000E+00 -0.97426809043E+03  0.97426809043E+03  0.25500000920E-02 0. -1.
    10030    2    1    2    0    0  0.00000000000E+00  0.00000000000E+00  0.32053678467E+03  0.22690729655E+04  0.22463188315E+04 0.  0.
        2    1    3    3  502    0 -0.13740436929E+03  0.10664478197E+04 -0.16751227175E+03  0.10882330973E+04  0.25500000920E-02 0. -1.
       -2    1    3    3    0  502  0.13740436929E+03 -0.10664478197E+04  0.48804905642E+03  0.11808398682E+04  0.25500000920E-02 0.  1.
</event>
<event>
 5   0  0.5924654E-05  0.2286982E+04  0.7818609E-02  0.8483072E-01
       -1   -1    0    0    0  501  0.00000000000E+00  0.00000000000E+00  0.90781014231E+03  0.90781014233E+03  0.50400001928E-02 0. -1.
        1   -1    0    0  501    0  0.00000000000E+00  0.00000000000E+00 -0.14403579749E+04  0.14403579749E+04  0.50400001928E-02 0.  1.
    10030    2    1    2    0    0  0.00000000000E+00  0.00000000000E+00 -0.53254783258E+03  0.23481681172E+04  0.22869819223E+04 0.  0.
        5    1    3    3  502    0 -0.37513347469E+03  0.10033808623E+04 -0.67704128464E+03  0.12672431770E+04  0.46999998093E+01 0.  1.
       -5    1    3    3    0  502  0.37513347469E+03 -0.10033808623E+04  0.14449345206E+03  0.10809249402E+04  0.46999998093E+01 0. -1.
</event>
<event>
 5   0  0.1257524E-04  0.2264594E+04  0.7818609E-02  0.8492014E-01
       -2   -1    0    0    0  501  0.00000000000E+00  0.00000000000E+00  0.77331770816E+03  0.77331770817E+03  0.25500000920E-02 0. -1.
        2   -1    0    0  501    0  0.00000000000E+00  0.00000000000E+00 -0.16579164207E+04  0.16579164207E+04  0.25500000920E-02 0.  1.
    10030    2    1    2    0    0  0.00000000000E+00  0.00000000000E+00 -0.88459871251E+03  0.24312341288E+04  0.22645936737E+04 0.  0.
        3    1    3    3  502    0 -0.47265563253E+03 -0.75719096418E+03 -0.11902381763E+04  0.14877528120E+04  0.10100000352E+00 0.  1.
       -3    1    3    3    0  502  0.47265563253E+03  0.75719096418E+03  0.30563946376E+03  0.94348131683E+03  0.10100000352E+00 0. -1.
</event>
<event>
 5   0  0.5663790E-05  0.2340443E+04  0.7818609E-02  0.8462144E-01
       -1   -1    0    0    0  501  0.00000000000E+00  0.00000000000E+00  0.12016836668E+04  0.12016836668E+04  0.50400001928E-02 0. -1.
        1   -1    0    0  501    0  0.00000000000E+00  0.00000000000E+00 -0.11395832257E+04  0.11395832257E+04  0.50400001928E-02 0.  1.
    10030    2    1    2    0    0  0.00000000000E+00  0.00000000000E+00  0.62100441079E+02  0.23412668925E+04  0.23404431626E+04 0.  0.
        3    1    3    3  502    0 -0.49156377913E+03 -0.21142911122E+03  0.10721284339E+04  0.11982473063E+04  0.10100000352E+00 0. -1.
       -3    1    3    3    0  502  0.49156377913E+03  0.21142911122E+03 -0.10100279928E+04  0.11430195862E+04  0.10100000352E+00 0.  1.
</event>
<event>
 5   0  0.1281432E-04  0.2260388E+04  0.7818609E-02  0.8493705E-01
        2   -1    0    0  501    0  0.00000000000E+00  0.00000000000E+00  0.12339559405E+04  0.12339559405E+04  0.25500000920E-02 0.  1.
       -2   -1    0    0    0  501  0.00000000000E+00  0.00000000000E+00 -0.10351570044E+04  0.10351570044E+04  0.25500000920E-02 0. -1.
    10030    2    1    2    0    0  0.00000000000E+00  0.00000000000E+00  0.19879893610E+03  0.22691129449E+04  0.22603876968E+04 0.  0.
        4    1    3    3  502    0 -0.60206070222E+03 -0.51722908342E+03 -0.70827661494E+03  0.10637952764E+04  0.12699999809E+01 0. -1.
       -4    1    3    3    0  502  0.60206070222E+03  0.51722908342E+03  0.90707555104E+03  0.12053176685E+04  0.12699999809E+01 0.  1.
</event>
<event>
 5   0  0.5843670E-05  0.2287816E+04  0.7818609E-02  0.8482741E-01
       -1   -1    0    0    0  501  0.00000000000E+00  0.00000000000E+00  0.46806431417E+03  0.46806431419E+03  0.50400001928E-02 0. -1.
        1   -1    0    0  501    0  0.00000000000E+00  0.00000000000E+00 -0.27956106984E+04  0.27956106984E+04  0.50400001928E-02 0.  1.
    10030    2    1    2    0    0  0.00000000000E+00  0.00000000000E+00 -0.23275463842E+04  0.32636750126E+04  0.22878160803E+04 0.  0.
        2    1    3    3  502    0  0.11343925254E+04 -0.14679248807E+03 -0.11474351631E+04  0.16201857578E+04  0.25500000920E-02 0. -1.
       -2    1    3    3    0  502 -0.11343925254E+04  0.14679248807E+03 -0.11801112211E+04  0.16434892548E+04  0.25500000920E-02 0.  1.
</event>
<event>
 5   0  0.5642466E-05  0.2095864E+04  0.7818609E-02  0.8563067E-01
       -1   -1    0    0    0  501  0.00000000000E+00  0.00000000000E+00  0.34829343779E+03  0.34829343783E+03  0.50400001928E-02 0.  1.
        1   -1    0    0  501    0  0.00000000000E+00  0.00000000000E+00 -0.31529790241E+04  0.31529790241E+04  0.50400001928E-02 0. -1.
    10030    2    1    2    0    0  0.00000000000E+00  0.00000000000E+00 -0.28046855863E+04  0.35012724619E+04  0.20958644075E+04 0.  0.
        1    1    3    3  502    0  0.74580871948E+03  0.29462673736E+03 -0.25293552398E+04  0.26534267447E+04  0.50400001928E-02 0. -1.
       -1    1    3    3    0  502 -0.74580871948E+03 -0.29462673736E+03 -0.27533034645E+03  0.84784571716E+03  0.50400001928E-02 0.  1.
</event>
<event>
 5   0  0.1234988E-04  0.2258078E+04  0.7818609E-02  0.8494636E-01
       -2   -1    0    0    0  501  0.00000000000E+00  0.00000000000E+00  0.15091916557E+04  0.15091916557E+04  0.25500000920E-02 0.  1.
        2   -1    0    0  501    0  0.00000000000E+00  0.00000000000E+00 -0.84464380498E+03  0.84464380499E+03  0.25500000920E-02 0. -1.
    10030    2    1    2    0    0  0.00000000000E+00  0.00000000000E+00  0.66454785073E+03  0.23538354607E+04  0.22580782826E+04 0.  0.
        5    1    3    3  502    0  0.10606342542E+04  0.18251405656E+03 -0.23446263558E+02  0.10764888385E+04  0.46999998093E+01 0. -1.
       -5    1    3    3    0  502 -0.10606342542E+04 -0.18251405656E+03  0.68799411429E+03  0.12773466222E+04  0.46999998093E+01 0.  1.
</event>
<event>
 5   0  0.5924654E-05  0.2230552E+04  0.7818609E-02  0.8505818E-01
       -1   -1    0    0    0  501  0.00000000000E+00  0.00000000000E+00  0.10517822929E+04  0.10517822929E+04  0.50400001928E-02 0. -1.
        1   -1    0    0  501    0  0.00000000000E+00  0.00000000000E+00 -0.11826031031E+04  0.11826031031E+04  0.50400001928E-02 0.  1.
    10030    2    1    2    0    0  0.00000000000E+00  0.00000000000E+00 -0.13082081019E+03  0.22343853961E+04  0.22305524010E+04 0.  0.
        5    1    3    3  502    0  0.65177678032E+03  0.90498372620E+03 -0.62180363975E+02  0.11170035827E+04  0.46999998093E+01 0. -1.
       -5    1    3    3    0  502 -0.65177678032E+03 -0.90498372620E+03 -0.68640446211E+02  0.11173818134E+04  0.46999998093E+01 0.  1.
</event>
<event>
 5   0  0.1257524E-04  0.2295986E+04  0.7818609E-02  0.8479505E-01
       -2   -1    0    0    0  501  0.00000000000E+00  0.00000000000E+00  0.82460611278E+03  0.82460611279E+03  0.25500000920E-02 0. -1.
        2   -1    0    0  501    0  0.00000000000E+00  0.00000000000E+00 -0.15982030978E+04  0.15982030978E+04  0.25500000920E-02 0.  1.
    10030    2    1    2    0    0  0.00000000000E+00  0.00000000000E+00 -0.77359698497E+03  0.24228092105E+04  0.22959861009E+04 0.  0.
        3    1    3    3  502    0  0.26123443573E+03 -0.66608464329E+03 -0.13341496196E+04  0.15138914757E+04  0.10100000352E+00 0.  1.
       -3    1    3    3    0  502 -0.26123443573E+03  0.66608464329E+03  0.56055263460E+03  0.90891773489E+03  0.10100000352E+00 0. -1.
</event>
<event>
 5   0  0.1237296E-04  0.1479048E+04  0.7818609E-02  0.8898507E-01
       -2   -1    0    0    0  501  0.00000000000E+00  0.00000000000E+00  0.74771248735E+03  0.74771248736E+03  0.25500000920E-02 0.  1.
        2   -1    0    0  501    0  0.00000000000E+00  0.00000000000E+00 -0.73142476300E+03  0.73142476301E+03  0.25500000920E-02 0. -1.
    10030    2    1    2    0    0  0.00000000000E+00  0.00000000000E+00  0.16287724350E+02  0.14791372504E+04  0.14790475704E+04 0.  0.
        1    1    3    3  502    0 -0.49477537312E+03 -0.36254318610E+03  0.42127325196E+03  0.74411785658E+03  0.50400001928E-02 0.  1.
       -1    1    3    3    0  502  0.49477537312E+03  0.36254318610E+03 -0.40498552761E+03  0.73501939378E+03  0.50400001928E-02 0. -1.
</event>
<event>
 5   0  0.5843670E-05  0.1755458E+04  0.7818609E-02  0.8730352E-01
       -1   -1    0    0    0  501  0.00000000000E+00  0.00000000000E+00  0.72049023741E+03  0.72049023743E+03  0.50400001928E-02 0. -1.
        1   -1    0    0  501    0  0.00000000000E+00  0.00000000000E+00 -0.10692829775E+04  0.10692829775E+04  0.50400001928E-02 0.  1.
    10030    2    1    2    0    0  0.00000000000E+00  0.00000000000E+00 -0.34879274008E+03  0.17897732149E+04  0.17554577139E+04 0.  0.
        2    1    3    3  502    0 -0.32343049790E+02 -0.81795192379E+03 -0.49731557095E+03  0.95781741455E+03  0.25500000920E-02 0.  1.
       -2    1    3    3    0  502  0.32343049790E+02  0.81795192379E+03  0.14852283087E+03  0.83195580039E+03  0.25500000920E-02 0. -1.
</event>
<event>
 5   0  0.5843670E-05  0.2305423E+04  0.7818609E-02  0.8475786E-01
        1   -1    0    0  501    0  0.00000000000E+00  0.00000000000E+00  0.86969179643E+03  0.86969179644E+03  0.50400001928E-02 0.  1.
       -1   -1    0    0    0  501  0.00000000000E+00  0.00000000000E+00 -0.15278325422E+04  0.15278325422E+04  0.50400001928E-02 0. -1.
    10030    2    1    2    0    0  0.00000000000E+00  0.00000000000E+00 -0.65814074573E+03  0.23975243386E+04  0.23054226756E+04 0.  0.
        2    1    3    3  502    0  0.11315869870E+03  0.53457641563E+02  0.86260562651E+03  0.87163701013E+03  0.25500000920E-02 0.  1.
       -2    1    3    3    0  502 -0.11315869870E+03 -0.53457641563E+02 -0.15207463722E+04  0.15258873285E+04  0.25500000920E-02 0. -1.
</event>
<event>
 5   0  0.1257524E-04  0.1223427E+04  0.7818609E-02  0.9092594E-01
        2   -1    0    0  501    0  0.00000000000E+00  0.00000000000E+00  0.88852628418E+03  0.88852628418E+03  0.25500000920E-02 0.  1.
       -2   -1    0    0    0  501  0.00000000000E+00  0.00000000000E+00 -0.42113959439E+03  0.42113959439E+03  0.25500000920E-02 0. -1.
    10030    2    1    2    0    0  0.00000000000E+00  0.00000000000E+00  0.46738668979E+03  0.13096658786E+04  0.12234273153E+04 0.  0.
        3    1    3    3  502    0 -0.36069349025E+03 -0.26897439776E+03 -0.20994223944E+03  0.49651059874E+03  0.10100000352E+00 0. -1.
       -3    1    3    3    0  502  0.36069349025E+03  0.26897439776E+03  0.67732892923E+03  0.81315527984E+03  0.10100000352E+00 0.  1.
</event>
<event>
 5   0  0.1257524E-04  0.2282154E+04  0.7818609E-02  0.8484991E-01
        2   -1    0    0  501    0  0.00000000000E+00  0.00000000000E+00  0.10861704064E+04  0.10861704064E+04  0.25500000920E-02 0. -1.
       -2   -1    0    0    0  501  0.00000000000E+00  0.00000000000E+00 -0.11987587292E+04  0.11987587292E+04  0.25500000920E-02 0.  1.
    10030    2    1    2    0    0  0.00000000000E+00  0.00000000000E+00 -0.11258832286E+03  0.22849291356E+04  0.22821535935E+04 0.  0.
        3    1    3    3  502    0  0.25029914456E+03  0.11121147068E+04 -0.10741958849E+03  0.11449837383E+04  0.10100000352E+00 0.  1.
       -3    1    3    3    0  502 -0.25029914456E+03 -0.11121147068E+04 -0.51687343739E+01  0.11399453973E+04  0.10100000352E+00 0. -1.
</event>
<event>
 5   0  0.5632156E-05  0.2302672E+04  0.7818609E-02  0.8476869E-01
        1   -1    0    0  501    0  0.00000000000E+00  0.00000000000E+00  0.15738725448E+04  0.15738725448E+04  0.50400001928E-02 0. -1.
       -1   -1    0    0    0  501  0.00000000000E+00  0.00000000000E+00 -0.84223723274E+03  0.84223723276E+03  0.50400001928E-02 0.  1.
    10030    2    1    2    0    0  0.00000000000E+00  0.00000000000E+00  0.73163531209E+03  0.24161097776E+04  0.23026715414E+04 0.  0.
        4    1    3    3  502    0 -0.11050392057E+03  0.19414997647E+03  0.15509131565E+04  0.15669200879E+04  0.12699999809E+01 0. -1.
       -4    1    3    3    0  502  0.11050392057E+03 -0.19414997647E+03 -0.81927784444E+03  0.84918968971E+03  0.12699999809E+01 0.  1.
</event>
<event>
 5   0  0.5632156E-05  0.1446685E+04  0.7818609E-02  0.8920702E-01
       -1   -1    0    0    0  501  0.00000000000E+00  0.00000000000E+00  0.37084265728E+03  0.37084265732E+03  0.50400001928E-02 0. -1.
        1   -1    0    0  501    0  0.00000000000E+00  0.00000000000E+00 -0.14109069426E+04  0.14109069426E+04  0.50400001928E-02 0.  1.
    10030    2    1    2    0    0  0.00000000000E+00  0.00000000000E+00 -0.10400642853E+04  0.17817495999E+04  0.14466851486E+04 0.  0.
        4    1    3    3  502    0 -0.29876510308E+03  0.61100497669E+03 -0.82330605144E+03  0.10679054900E+04  0.12699999809E+01 0.  1.
       -4    1    3    3    0  502  0.29876510308E+03 -0.61100497669E+03 -0.21675823384E+03  0.71384410987E+03  0.12699999809E+01 0. -1.
</event>
<event>
 5   0  0.5642466E-05  0.2307246E+04  0.7818609E-02  0.8475070E-01
       -1   -1    0    0    0  501  0.00000000000E+00  0.00000000000E+00  0.26201291578E+04  0.26201291578E+04  0.50400001928E-02 0.  1.
        1   -1    0    0  501    0  0.00000000000E+00  0.00000000000E+00 -0.50793130239E+03  0.50793130241E+03  0.50400001928E-02 0. -1.
    10030    2    1    2    0    0  0.00000000000E+00  0.00000000000E+00  0.21121978554E+04  0.31280604602E+04  0.23072456441E+04 0.  0.
        1    1    3    3  502    0  0.78289340225E+03 -0.79845339627E+03  0.67168621454E+03  0.13044586142E+04  0.50400001928E-02 0.  1.
       -1    1    3    3    0  502 -0.78289340225E+03  0.79845339627E+03  0.14405116408E+04  0.18236018460E+04  0.50400001928E-02 0. -1.
</event>
<event>
 5   0  0.5642466E-05  0.2300782E+04  0.7818609E-02  0.8477613E-01
       -1   -1    0    0    0  501  0.00000000000E+00  0.00000000000E+00  0.11275628282E+04  0.11275628282E+04  0.50400001928E-02 0. -1.
        1   -1    0    0  501    0  0.00000000000E+00  0.00000000000E+00 -0.11736818445E+04  0.11736818445E+04  0.50400001928E-02 0.  1.
    10030    2    1    2    0    0  0.00000000000E+00  0.00000000000E+00 -0.46119016294E+02  0.23012446727E+04  0.23007824930E+04 0.  0.
        1    1    3    3  502    0 -0.88448943483E+02 -0.69745078097E+03  0.88769422359E+03  0.11323700111E+04  0.50400001928E-02 0. -1.
       -1    1    3    3    0  502  0.88448943483E+02  0.69745078097E+03 -0.93381323989E+03  0.11688746616E+04  0.50400001928E-02 0.  1.
</event>
<event>
 5   0  0.5843670E-05  0.2255095E+04  0.7818609E-02  0.8495840E-01
        1   -1    0    0  501    0  0.00000000000E+00  0.00000000000E+00  0.20148124800E+04  0.20148124800E+04  0.50400001928E-02 0.  1.
       -1   -1    0    0    0  501  0.00000000000E+00  0.00000000000E+00 -0.63100835240E+03  0.63100835242E+03  0.50400001928E-02 0. -1.
    10030    2    1    2    0    0  0.00000000000E+00  0.00000000000E+00  0.13838041276E+04  0.26458208324E+04  0.22550951230E+04 0.  0.
        2    1    3    3  502    0  0.36323531903E+03 -0.64907428590E+03 -0.30234872698E+03  0.80290228441E+03  0.25500000920E-02 0. -1.
       -2    1    3    3    0  502 -0.36323531903E+03  0.64907428590E+03  0.16861528546E+04  0.18429185480E+04  0.25500000920E-02 0.  1.
</event>
<event>
 5   0  0.5924654E-05  0.2343847E+04  0.7818609E-02  0.8460831E-01
       -1   -1    0    0    0  501  0.00000000000E+00  0.00000000000E+00  0.79576649208E+03  0.79576649210E+03  0.50400001928E-02 0.  1.
        1   -1    0    0  501    0  0.00000000000E+00  0.00000000000E+00 -0.17258891258E+04  0.17258891258E+04  0.50400001928E-02 0. -1.
    10030    2    1    2    0    0  0.00000000000E+00  0.00000000000E+00 -0.93012263373E+03  0.25216556179E+04  0.23438470389E+04 0.  0.
        5    1    3    3  502    0 -0.47076167844E+03  0.39810139872E+03  0.60718028273E+03  0.86532726022E+03  0.46999998093E+01 0.  1.
       -5    1    3    3    0  502  0.47076167844E+03 -0.39810139872E+03 -0.15373029165E+04  0.16563283577E+04  0.46999998093E+01 0. -1.
</event>
<event>
 5   0  0.5843670E-05  0.2240191E+04  0.7818609E-02  0.8501883E-01
       -1   -1    0    0    0  501  0.00000000000E+00  0.00000000000E+00  0.50271745443E+03  0.50271745446E+03  0.50400001928E-02 0.  1.
        1   -1    0    0  501    0  0.00000000000E+00  0.00000000000E+00 -0.24956649667E+04  0.24956649667E+04  0.50400001928E-02 0. -1.
    10030    2    1    2    0    0  0.00000000000E+00  0.00000000000E+00 -0.19929475123E+04  0.29983824212E+04  0.22401913661E+04 0.  0.
        2    1    3    3  502    0  0.10380571119E+04  0.21196065550E+03 -0.50996181569E+03  0.11758192636E+04  0.25500000920E-02 0.  1.
       -2    1    3    3    0  502 -0.10380571119E+04 -0.21196065550E+03 -0.14829856966E+04  0.18225631576E+04  0.25500000920E-02 0. -1.
</event>
<event>
 5   0  0.1237296E-04  0.1247282E+04  0.7818609E-02  0.9072448E-01
        2   -1    0    0  501    0  0.00000000000E+00  0.00000000000E+00  0.55954142765E+03  0.55954142766E+03  0.25500000920E-02 0. -1.
       -2   -1    0    0    0  501  0.00000000000E+00  0.00000000000E+00 -0.69508413715E+03  0.69508413715E+03  0.25500000920E-02 0.  1.
    10030    2    1    2    0    0  0.00000000000E+00  0.00000000000E+00 -0.13554270949E+03  0.12546255648E+04  0.12472824387E+04 0.  0.
        1    1    3    3  502    0 -0.23226682570E+03  0.57321644057E+03  0.12721028914E+02  0.61861683671E+03  0.50400001928E-02 0. -1.
       -1    1    3    3    0  502  0.23226682570E+03 -0.57321644057E+03 -0.14826373841E+03  0.63600872810E+03  0.50400001928E-02 0.  1.
</event>
<event>
 5   0  0.1237296E-04  0.1630682E+04  0.7818609E-02  0.8801917E-01
        2   -1    0    0  501    0  0.00000000000E+00  0.00000000000E+00  0.96447133663E+03  0.96447133664E+03  0.25500000920E-02 0.  1.
       -2   -1    0    0    0  501  0.00000000000E+00  0.00000000000E+00 -0.68926988884E+03  0.68926988885E+03  0.25500000920E-02 0. -1.
    10030    2    1    2    0    0  0.00000000000E+00  0.00000000000E+00  0.27520144779E+03  0.16537412255E+04  0.16306821284E+04 0.  0.
        1    1    3    3  502    0 -0.66383291348E+03 -0.46737196375E+03  0.21396735169E+03  0.83957889274E+03  0.50400001928E-02 0.  1.
       -1    1    3    3    0  502  0.66383291348E+03  0.46737196375E+03  0.61234096101E+02  0.81416233275E+03  0.50400001928E-02 0. -1.
</event>
<event>
 5   0  0.1270613E-04  0.2192157E+04  0.7818609E-02  0.8521700E-01
       -2   -1    0    0    0  501  0.00000000000E+00  0.00000000000E+00  0.11204387117E+04  0.11204387117E+04  0.25500000920E-02 0.  1.
        2   -1    0    0  501    0  0.00000000000E+00  0.00000000000E+00 -0.10722480478E+04  0.10722480478E+04  0.25500000920E-02 0. -1.
    10030    2    1    2    0    0  0.00000000000E+00  0.00000000000E+00  0.48190663892E+02  0.21926867596E+04  0.21921571306E+04 0.  0.
        2    1    3    3  502    0 -0.12057433652E+03 -0.93914999400E+03  0.57635854868E+03  0.11084809689E+04  0.25500000920E-02 0.  1.
       -2    1    3    3    0  502  0.12057433652E+03  0.93914999400E+03 -0.52816788479E+03  0.10842057906E+04  0.25500000920E-02 0. -1.
</event>
<event>
 5   0  0.5632156E-05  0.1150193E+04  0.7818609E-02  0.9157606E-01
       -1   -1    0    0    0  501  0.00000000000E+00  0.00000000000E+00  0.18091820465E+03  0.18091820472E+03  0.50400001928E-02 0. -1.
        1   -1    0    0  501    0  0.00000000000E+00  0.00000000000E+00 -0.18280959590E+04  0.18280959590E+04  0.50400001928E-02 0.  1.
    10030    2    1    2    0    0  0.00000000000E+00  0.00000000000E+00 -0.16471777543E+04  0.20090141637E+04  0.11501927472E+04 0.  0.
        4    1    3    3  502    0 -0.47127573474E+03 -0.32517548393E+03 -0.72961977366E+03  0.92746242000E+03  0.12699999809E+01 0. -1.
       -4    1    3    3    0  502  0.47127573474E+03  0.32517548393E+03 -0.91755798068E+03  0.10815517437E+04  0.12699999809E+01 0.  1.
</event>
<event>
 5   0  0.5632156E-05  0.2345341E+04  0.7818609E-02  0.8460255E-01
       -1   -1    0    0    0  501  0.00000000000E+00  0.00000000000E+00  0.88459206247E+03  0.88459206248E+03  0.50400001928E-02 0. -1.
        1   -1    0    0  501    0  0.00000000000E+00  0.00000000000E+00 -0.15545647209E+04  0.15545647209E+04  0.50400001928E-02 0.  1.
    10030    2    1    2    0    0  0.00000000000E+00  0.00000000000E+00 -0.66997265843E+03  0.24391567834E+04  0.23453405831E+04 0.  0.
        4    1    3    3  502    0  0.16939418261E+03 -0.93093344556E+03 -0.10553870134E+04  0.14174536430E+04  0.12699999809E+01 0.  1.
       -4    1    3    3    0  502 -0.16939418261E+03  0.93093344556E+03  0.38541435496E+03  0.10217031404E+04  0.12699999809E+01 0. -1.
</event>
<event>
 5   0  0.5642466E-05  0.2201989E+04  0.7818609E-02  0.8517601E-01
        1   -1    0    0  501    0  0.00000000000E+00  0.00000000000E+00  0.12130019264E+04  0.12130019264E+04  0.50400001928E-02 0.  1.
       -1   -1    0    0    0  501  0.00000000000E+00  0.00000000000E+00 -0.99932960620E+03  0.99932960621E+03  0.50400001928E-02 0. -1.
    10030    2    1    2    0    0  0.00000000000E+00  0.00000000000E+00  0.21367232018E+03  0.22123315326E+04  0.22019888623E+04 0.  0.
        1    1    3    3  502    0  0.44981799974E+03 -0.31906203488E+03 -0.85055724718E+03  0.10136983998E+04  0.50400001928E-02 0. -1.
       -1    1    3    3    0  502 -0.44981799974E+03  0.31906203488E+03  0.10642295674E+04  0.11986331328E+04  0.50400001928E-02 0.  1.
</event>
<event>
 5   0  0.5843670E-05  0.2283600E+04  0.7818609E-02  0.8484416E-01
       -1   -1    0    0    0  501  0.00000000000E+00  0.00000000000E+00  0.16730661263E+04  0.16730661263E+04  0.50400001928E-02 0.  1.
        1   -1    0    0  501    0  0.00000000000E+00  0.00000000000E+00 -0.77923230523E+03  0.77923230525E+03  0.50400001928E-02 0. -1.
    10030    2    1    2    0    0  0.00000000000E+00  0.00000000000E+00  0.89383382104E+03  0.24522984315E+04  0.22835999426E+04 0.  0.
        2    1    3    3  502    0 -0.98918942390E+03  0.19174500985E+01 -0.16548108609E+03  0.10029373773E+04  0.25500000920E-02 0. -1.
       -2    1    3    3    0  502  0.98918942390E+03 -0.19174500985E+01  0.10593149071E+04  0.14493610542E+04  0.25500000920E-02 0.  1.
</event>
<event>
 5   0  0.5843670E-05  0.2155946E+04  0.7818609E-02  0.8536991E-01
       -1   -1    0    0    0  501  0.00000000000E+00  0.00000000000E+00  0.81259221407E+03  0.81259221408E+03  0.50400001928E-02 0.  1.
        1   -1    0    0  501    0  0.00000000000E+00  0.00000000000E+00 -0.14300234852E+04  0.14300234852E+04  0.50400001928E-02 0. -1.
    10030    2    1    2    0    0  0.00000000000E+00  0.00000000000E+00 -0.61743127113E+03  0.22426156993E+04  0.21559461496E+04 0.  0.
        2    1    3    3  502    0 -0.35656682275E+03 -0.29813091738E+03  0.70301159009E+03  0.84276167378E+03  0.25500000920E-02 0.  1.
       -2    1    3    3    0  502  0.35656682275E+03  0.29813091738E+03 -0.13204428612E+04  0.13998540255E+04  0.25500000920E-02 0. -1.
</event>
<event>
 5   0  0.1257524E-04  0.2249382E+04  0.7818609E-02  0.8498151E-01
        2   -1    0    0  501    0  0.00000000000E+00  0.00000000000E+00  0.21947236561E+04  0.21947236561E+04  0.25500000920E-02 0. -1.
       -2   -1    0    0    0  501  0.00000000000E+00  0.00000000000E+00 -0.57635029989E+03  0.57635029990E+03  0.25500000920E-02 0.  1.
    10030    2    1    2    0    0  0.00000000000E+00  0.00000000000E+00  0.16183733562E+04  0.27710739560E+04  0.22493818149E+04 0.  0.
        3    1    3    3  502    0  0.42530507465E+02  0.80057316202E+03 -0.16255566039E+03  0.81801624968E+03  0.10100000352E+00 0.  1.
       -3    1    3    3    0  502 -0.42530507465E+02 -0.80057316202E+03  0.17809290166E+04  0.19530577063E+04  0.10100000352E+00 0. -1.
</event>
<event>
 5   0  0.1237296E-04  0.2342263E+04  0.7818609E-02  0.8461441E-01
       -2   -1    0    0    0  501  0.00000000000E+00  0.00000000000E+00  0.10596074722E+04  0.10596074723E+04  0.25500000920E-02 0. -1.
        2   -1    0    0  501    0  0.00000000000E+00  0.00000000000E+00 -0.12943936672E+04  0.12943936672E+04  0.25500000920E-02 0.  1.
    10030    2    1    2    0    0  0.00000000000E+00  0.00000000000E+00 -0.23478619493E+03  0.23540011394E+04  0.23422631806E+04 0.  0.
        1    1    3    3  502    0 -0.78173927326E+03  0.23310510451E+03  0.72711247748E+03  0.10927702577E+04  0.50400001928E-02 0. -1.
       -1    1    3    3    0  502  0.78173927326E+03 -0.23310510451E+03 -0.96189867241E+03  0.12612308818E+04  0.50400001928E-02 0.  1.
</event>
<event>
 5   0  0.1257524E-04  0.2356434E+04  0.7818609E-02  0.8455997E-01
       -2   -1    0    0    0  501  0.00000000000E+00  0.00000000000E+00  0.81165557245E+03  0.81165557245E+03  0.25500000920E-02 0.  1.
        2   -1    0    0  501    0  0.00000000000E+00  0.00000000000E+00 -0.17103248975E+04  0.17103248975E+04  0.25500000920E-02 0. -1.
    10030    2    1    2    0    0  0.00000000000E+00  0.00000000000E+00 -0.89866932508E+03  0.25219804700E+04  0.23564335202E+04 0.  0.
        3    1    3    3  502    0  0.78549294949E+03  0.23723175555E+02 -0.13888638165E+04  0.15957771379E+04  0.10100000352E+00 0. -1.
       -3    1    3    3    0  502 -0.78549294949E+03 -0.23723175555E+02  0.49019449144E+03  0.92620333210E+03  0.10100000352E+00 0.  1.
</event>
<event>
 5   0  0.5642466E-05  0.2300827E+04  0.7818609E-02  0.8477595E-01
        1   -1    0    0  501    0  0.00000000000E+00  0.00000000000E+00  0.23518011721E+04  0.23518011721E+04  0.50400001928E-02 0. -1.
       -1   -1    0    0    0  501  0.00000000000E+00  0.00000000000E+00 -0.56273958810E+03  0.56273958812E+03  0.50400001928E-02 0.  1.
    10030    2    1    2    0    0  0.00000000000E+00  0.00000000000E+00  0.17890615840E+04  0.29145407602E+04  0.23008273494E+04 0.  0.
        1    1    3    3  502    0  0.87521568112E+03 -0.74539139552E+03  0.94887955055E+03  0.14906318199E+04  0.50400001928E-02 0. -1.
       -1    1    3    3    0  502 -0.87521568112E+03  0.74539139552E+03  0.84018203342E+03  0.14239089403E+04  0.50400001928E-02 0.  1.
</event>
<event>
 5   0  0.1270613E-04  0.1664609E+04  0.7818609E-02  0.8781811E-01
       -2   -1    0    0    0  501  0.00000000000E+00  0.00000000000E+00  0.43341149039E+03  0.43341149040E+03  0.25500000920E-02 0. -1.
        2   -1    0    0  501    0  0.00000000000E+00  0.00000000000E+00 -0.15983203552E+04  0.15983203552E+04  0.25500000920E-02 0.  1.
    10030    2    1    2    0    0  0.00000000000E+00  0.00000000000E+00 -0.11649088648E+04  0.20317318456E+04  0.16646085513E+04 0.  0.
        2    1    3    3  502    0  0.41948863142E+03 -0.24032255059E+03 -0.14093732300E+04  0.14899860878E+04  0.25500000920E-02 0.  1.
       -2    1    3    3    0  502 -0.41948863142E+03  0.24032255059E+03  0.24446436525E+03  0.54174575780E+03  0.25500000920E-02 0. -1.
</event>
<event>
 5   0  0.1270613E-04  0.2378483E+04  0.7818609E-02  0.8447603E-01
        2   -1    0    0  501    0  0.00000000000E+00  0.00000000000E+00  0.18844895709E+04  0.18844895709E+04  0.25500000920E-02 0. -1.
       -2   -1    0    0    0  501  0.00000000000E+00  0.00000000000E+00 -0.75049252388E+03  0.75049252389E+03  0.25500000920E-02 0.  1.
    10030    2    1    2    0    0  0.00000000000E+00  0.00000000000E+00  0.11339970471E+04  0.26349820948E+04  0.23784829908E+04 0.  0.
        2    1    3    3  502    0  0.67460603936E+03 -0.80901499050E+03  0.11785197614E+04  0.15806667552E+04  0.25500000920E-02 0. -1.
       -2    1    3    3    0  502 -0.67460603936E+03  0.80901499050E+03 -0.44522714299E+02  0.10543153396E+04  0.25500000920E-02 0.  1.
</event>
<event>
 5   0  0.5632156E-05  0.2299811E+04  0.7818609E-02  0.8477995E-01
       -1   -1    0    0    0  501  0.00000000000E+00  0.00000000000E+00  0.16049378826E+04  0.16049378826E+04  0.50400001928E-02 0.  1.
        1   -1    0    0  501    0  0.00000000000E+00  0.00000000000E+00 -0.82388428906E+03  0.82388428907E+03  0.50400001928E-02 0. -1.
    10030    2    1    2    0    0  0.00000000000E+00  0.00000000000E+00  0.78105359354E+03  0.24288221717E+04  0.22998113891E+04 0.  0.
        4    1    3    3  502    0 -0.86911051267E+03 -0.67394208974E+03  0.35938696318E+02  0.11003836723E+04  0.12699999809E+01 0. -1.
       -4    1    3    3    0  502  0.86911051267E+03  0.67394208974E+03  0.74511489722E+03  0.13284384993E+04  0.12699999809E+01 0.  1.
</event>
<event>
 5   0  0.5843670E-05  0.2274145E+04  0.7818609E-02  0.8488186E-01
        1   -1    0    0  501    0  0.00000000000E+00  0.00000000000E+00  0.59360581408E+03  0.59360581410E+03  0.50400001928E-02 0. -1.
       -1   -1    0    0    0  501  0.00000000000E+00  0.00000000000E+00 -0.21781009148E+04  0.21781009148E+04  0.50400001928E-02 0.  1.
    10030    2    1    2    0    0  0.00000000000E+00  0.00000000000E+00 -0.15844951008E+04  0.27717067289E+04  0.22741445572E+04 0.  0.
        2    1    3    3  502    0  0.10225697584E+03  0.74777462839E+03 -0.18288003723E+04  0.19784170910E+04  0.25500000920E-02 0.  1.
       -2    1    3    3    0  502 -0.10225697584E+03 -0.74777462839E+03  0.24430527159E+03  0.79328963797E+03  0.25500000920E-02 0. -1.
</event>
<event>
 5   0  0.5924654E-05  0.2295176E+04  0.7818609E-02  0.8479826E-01
       -1   -1    0    0    0  501  0.00000000000E+00  0.00000000000E+00  0.74248057566E+03  0.74248057568E+03  0.50400001928E-02 0. -1.
        1   -1    0    0  501    0  0.00000000000E+00  0.00000000000E+00 -0.17737269366E+04  0.17737269366E+04  0.50400001928E-02 0.  1.
    10030    2    1    2    0    0  0.00000000000E+00  0.00000000000E+00 -0.10312463609E+04  0.25162075122E+04  0.22951756333E+04 0.  0.
        5    1    3    3  502    0  0.27260185994E+03 -0.61849466116E+03 -0.15323447724E+04  0.16747984988E+04  0.46999998093E+01 0.  1.
       -5    1    3    3    0  502 -0.27260185994E+03  0.61849466116E+03  0.50109841152E+03  0.84140901347E+03  0.46999998093E+01 0. -1.
</event>
<event>
 5   0  0.1281432E-04  0.2321006E+04  0.7818609E-02  0.8469684E-01
       -2   -1    0    0    0  501  0.00000000000E+00  0.00000000000E+00  0.12690476476E+04  0.12690476476E+04  0.25500000920E-02 0.  1.
        2   -1    0    0  501    0  0.00000000000E+00  0.00000000000E+00 -0.10612428453E+04  0.10612428453E+04  0.25500000920E-02 0. -1.
    10030    2    1    2    0    0  0.00000000000E+00  0.00000000000E+00  0.20780480234E+03  0.23302904929E+04  0.23210064509E+04 0.  0.
        4    1    3    3  502    0 -0.35376872683E+03  0.63643551745E+03  0.10111560752E+04  0.12460500396E+04  0.12699999809E+01 0.  1.
       -4    1    3    3    0  502  0.35376872683E+03 -0.63643551745E+03 -0.80335127286E+03  0.10842404532E+04  0.12699999809E+01 0. -1.
</event>
<event>
 5   0  0.5924654E-05  0.2285096E+04  0.7818609E-02  0.8483821E-01
       -1   -1    0    0    0  501  0.00000000000E+00  0.00000000000E+00  0.58840853286E+03  0.58840853288E+03  0.50400001928E-02 0.  1.
        1   -1    0    0  501    0  0.00000000000E+00  0.00000000000E+00 -0.22185538924E+04  0.22185538924E+04  0.50400001928E-02 0. -1.
    10030    2    1    2    0    0  0.00000000000E+00  0.00000000000E+00 -0.16301453596E+04  0.28069624253E+04  0.22850960951E+04 0.  0.
        5    1    3    3  502    0  0.42301376516E+03 -0.79584213765E+03 -0.16776431988E+04  0.19044196350E+04  0.46999998093E+01 0. -1.
       -5    1    3    3    0  502 -0.42301376516E+03  0.79584213765E+03  0.47497839289E+02  0.90254279029E+03  0.46999998093E+01 0.  1.
</event>
<event>
 5   0  0.1237296E-04  0.2294253E+04  0.7818609E-02  0.8480191E-01
       -2   -1    0    0    0  501  0.00000000000E+00  0.00000000000E+00  0.10782690650E+04  0.10782690650E+04  0.25500000920E-02 0.  1.
        2   -1    0    0  501    0  0.00000000000E+00  0.00000000000E+00 -0.12203807710E+04  0.12203807710E+04  0.25500000920E-02 0. -1.
    10030    2    1    2    0    0  0.00000000000E+00  0.00000000000E+00 -0.14211170596E+03  0.22986498360E+04  0.22942526739E+04 0.  0.
        1    1    3    3  502    0  0.93662090262E+03  0.58622537912E+03  0.23772294846E+03  0.11302349803E+04  0.50400001928E-02 0.  1.
       -1    1    3    3    0  502 -0.93662090262E+03 -0.58622537912E+03 -0.37983465442E+03  0.11684148557E+04  0.50400001928E-02 0. -1.
</event>
<event>
 5   0  0.5924654E-05  0.2230780E+04  0.7818609E-02  0.8505725E-01
       -1   -1    0    0    0  501  0.00000000000E+00  0.00000000000E+00  0.13338765177E+04  0.13338765177E+04  0.50400001928E-02 0.  1.
        1   -1    0    0  501    0  0.00000000000E+00  0.00000000000E+00 -0.93269129973E+03  0.93269129975E+03  0.50400001928E-02 0. -1.
    10030    2    1    2    0    0  0.00000000000E+00  0.00000000000E+00  0.40118521794E+03  0.22665678174E+04  0.22307801532E+04 0.  0.
        5    1    3    3  502    0  0.65050900908E+03 -0.59425095834E+03 -0.49432172031E+03  0.10102832403E+04  0.46999998093E+01 0. -1.
       -5    1    3    3    0  502 -0.65050900908E+03  0.59425095834E+03  0.89550693825E+03  0.12562845772E+04  0.46999998093E+01 0.  1.
</event>
<event>
 5   0  0.5642466E-05  0.2303955E+04  0.7818609E-02  0.8476363E-01
        1   -1    0    0  501    0  0.00000000000E+00  0.00000000000E+00  0.15711448291E+04  0.15711448291E+04  0.50400001928E-02 0.  1.
       -1   -1    0    0    0  501  0.00000000000E+00  0.00000000000E+00 -0.84464038753E+03  0.84464038755E+03  0.50400001928E-02 0. -1.
    10030    2    1    2    0    0  0.00000000000E+00  0.00000000000E+00  0.72650444156E+03  0.24157852166E+04  0.23039551882E+04 0.  0.
        1    1    3    3  502    0  0.59251422127E+03 -0.87070714101E+03 -0.12614492075E+03  0.10607151215E+04  0.50400001928E-02 0. -1.
       -1    1    3    3    0  502 -0.59251422127E+03  0.87070714101E+03  0.85264936231E+03  0.13550700952E+04  0.50400001928E-02 0.  1.
</event>
<event>
 5   0  0.5663790E-05  0.2234038E+04  0.7818609E-02  0.8504393E-01
       -1   -1    0    0    0  501  0.00000000000E+00  0.00000000000E+00  0.72880056298E+03  0.72880056300E+03  0.50400001928E-02 0. -1.
        1   -1    0    0  501    0  0.00000000000E+00  0.00000000000E+00 -0.17120338637E+04  0.17120338637E+04  0.50400001928E-02 0.  1.
    10030    2    1    2    0    0  0.00000000000E+00  0.00000000000E+00 -0.98323330073E+03  0.24408344267E+04  0.22340378186E+04 0.  0.
        3    1    3    3  502    0 -0.91294529153E+03 -0.10797514564E+03 -0.11848613702E+04  0.14996747028E+04  0.10100000352E+00 0.  1.
       -3    1    3    3    0  502  0.91294529153E+03  0.10797514564E+03  0.20162806944E+03  0.94115972395E+03  0.10100000352E+00 0. -1.
</event>
<event>
 5   0  0.5924654E-05  0.2254170E+04  0.7818609E-02  0.8496214E-01
        1   -1    0    0  501    0  0.00000000000E+00  0.00000000000E+00  0.73446728544E+03  0.73446728545E+03  0.50400001928E-02 0.  1.
       -1   -1    0    0    0  501  0.00000000000E+00  0.00000000000E+00 -0.17295803474E+04  0.17295803474E+04  0.50400001928E-02 0. -1.
    10030    2    1    2    0    0  0.00000000000E+00  0.00000000000E+00 -0.99511306193E+03  0.24640476328E+04  0.22541696322E+04 0.  0.
        5    1    3    3  502    0  0.35752724228E+03 -0.29301989834E+03  0.62606541372E+03  0.77824570802E+03  0.46999998093E+01 0.  1.
       -5    1    3    3    0  502 -0.35752724228E+03  0.29301989834E+03 -0.16211784756E+04  0.16858019248E+04  0.46999998093E+01 0. -1.
</event>
<event>
 5   0  0.1281432E-04  0.2220553E+04  0.7818609E-02  0.8509922E-01
        2   -1    0    0  501    0  0.00000000000E+00  0.00000000000E+00  0.19502662799E+04  0.19502662799E+04  0.25500000920E-02 0.  1.
       -2   -1    0    0    0  501  0.00000000000E+00  0.00000000000E+00 -0.63207494874E+03  0.63207494875E+03  0.25500000920E-02 0. -1.
    10030    2    1    2    0    0  0.00000000000E+00  0.00000000000E+00  0.13181913312E+04  0.25823412287E+04  0.22205534976E+04 0.  0.
        4    1    3    3  502    0  0.17403359886E+03  0.10667345143E+04  0.36374286391E+03  0.11404037449E+04  0.12699999809E+01 0. -1.
       -4    1    3    3    0  502 -0.17403359886E+03 -0.10667345143E+04  0.95444846727E+03  0.14419374838E+04  0.12699999809E+01 0.  1.
</event>
<event>
 5   0  0.1257524E-04  0.2238721E+04  0.7818609E-02  0.8502482E-01
       -2   -1    0    0    0  501  0.00000000000E+00  0.00000000000E+00  0.92111819326E+03  0.92111819326E+03  0.25500000920E-02 0.  1.
        2   -1    0    0  501    0  0.00000000000E+00  0.00000000000E+00 -0.13602679772E+04  0.13602679772E+04  0.25500000920E-02 0. -1.
    10030    2    1    2    0    0  0.00000000000E+00  0.00000000000E+00 -0.43914978395E+03  0.22813861705E+04  0.22387206896E+04 0.  0.
        3    1    3    3  502    0  0.47401219524E+03  0.54453018590E+02  0.81230113183E+03  0.94206466415E+03  0.10100000352E+00 0.  1.
       -3    1    3    3    0  502 -0.47401219524E+03 -0.54453018590E+02 -0.12514509158E+04  0.13393215063E+04  0.10100000352E+00 0. -1.
</event>
<event>
 5   0  0.1270613E-04  0.2227826E+04  0.7818609E-02  0.8506935E-01
       -2   -1    0    0    0  501  0.00000000000E+00  0.00000000000E+00  0.43642645299E+03  0.43642645299E+03  0.25500000920E-02 0. -1.
        2   -1    0    0  501    0  0.00000000000E+00  0.00000000000E+00 -0.28430967255E+04  0.28430967255E+04  0.25500000920E-02 0.  1.
    10030    2    1    2    0    0  0.00000000000E+00  0.00000000000E+00 -0.24066702726E+04  0.32795231785E+04  0.22278264021E+04 0.  0.
        2    1    3    3  502    0  0.61865230593E+03 -0.55706789539E+03 -0.11385458368E+03  0.84024888095E+03  0.25500000920E-02 0. -1.
       -2    1    3    3    0  502 -0.61865230593E+03  0.55706789539E+03 -0.22928156889E+04  0.24392742976E+04  0.25500000920E-02 0.  1.
</event>
<event>
 5   0  0.1237296E-04  0.2313738E+04  0.7818609E-02  0.8472524E-01
       -2   -1    0    0    0  501  0.00000000000E+00  0.00000000000E+00  0.14896906207E+04  0.14896906207E+04  0.25500000920E-02 0. -1.
        2   -1    0    0  501    0  0.00000000000E+00  0.00000000000E+00 -0.89840550975E+03  0.89840550975E+03  0.25500000920E-02 0.  1.
    10030    2    1    2    0    0  0.00000000000E+00  0.00000000000E+00  0.59128511097E+03  0.23880961305E+04  0.23137383270E+04 0.  0.
        1    1    3    3  502    0 -0.79792167084E+03 -0.44070430967E+03  0.10308889446E+04  0.13760927649E+04  0.50400001928E-02 0. -1.
       -1    1    3    3    0  502  0.79792167084E+03  0.44070430967E+03 -0.43960383367E+03  0.10120033656E+04  0.50400001928E-02 0.  1.
</event>
<event>
 5   0  0.1234988E-04  0.2307766E+04  0.7818609E-02  0.8474865E-01
        2   -1    0    0  501    0  0.00000000000E+00  0.00000000000E+00  0.14862490649E+04  0.14862490649E+04  0.25500000920E-02 0.  1.
       -2   -1    0    0    0  501  0.00000000000E+00  0.00000000000E+00 -0.89584295503E+03  0.89584295504E+03  0.25500000920E-02 0. -1.
    10030    2    1    2    0    0  0.00000000000E+00  0.00000000000E+00  0.59040610986E+03  0.23820920199E+04  0.23077658063E+04 0.  0.
        5    1    3    3  502    0 -0.47731788080E+03  0.81617259706E+03 -0.38750149273E+03  0.10218363687E+04  0.46999998093E+01 0. -1.
       -5    1    3    3    0  502  0.47731788080E+03 -0.81617259706E+03  0.97790760259E+03  0.13602556512E+04  0.46999998093E+01 0.  1.
</event>
<event>
 5   0  0.1257524E-04  0.2288486E+04  0.7818609E-02  0.8482475E-01
       -2   -1    0    0    0  501  0.00000000000E+00  0.00000000000E+00  0.22089602377E+04  0.22089602377E+04  0.25500000920E-02 0. -1.
        2   -1    0    0  501    0  0.00000000000E+00  0.00000000000E+00 -0.59271856001E+03  0.59271856002E+03  0.25500000920E-02 0.  1.
    10030    2    1    2    0    0  0.00000000000E+00  0.00000000000E+00  0.16162416777E+04  0.28016787977E+04  0.22884857275E+04 0.  0.
        3    1    3    3  502    0  0.58805068229E+03 -0.96290160670E+03  0.57484220780E+03  0.12662648551E+04  0.10100000352E+00 0. -1.
       -3    1    3    3    0  502 -0.58805068229E+03  0.96290160670E+03  0.10413994699E+04  0.15354139426E+04  0.10100000352E+00 0.  1.
</event>
<event>
 5   0  0.5642466E-05  0.1727009E+04  0.7818609E-02  0.8746108E-01
        1   -1    0    0  501    0  0.00000000000E+00  0.00000000000E+00  0.13445169205E+04  0.13445169205E+04  0.50400001928E-02 0.  1.
       -1   -1    0    0    0  501  0.00000000000E+00  0.00000000000E+00 -0.55457856832E+03  0.55457856834E+03  0.50400001928E-02 0. -1.
    10030    2    1    2    0    0  0.00000000000E+00  0.00000000000E+00  0.78993835222E+03  0.18990954889E+04  0.17270092865E+04 0.  0.
        1    1    3    3  502    0 -0.58064508707E+03 -0.31522536138E+03 -0.21642156726E+03  0.69523667941E+03  0.50400001928E-02 0. -1.
       -1    1    3    3    0  502  0.58064508707E+03  0.31522536138E+03  0.10063599195E+04  0.12038588095E+04  0.50400001928E-02 0.  1.
</event>
<event>
 5   0  0.5663790E-05  0.2008417E+04  0.7818609E-02  0.8602696E-01
        1   -1    0    0  501    0  0.00000000000E+00  0.00000000000E+00  0.22296370764E+04  0.22296370764E+04  0.50400001928E-02 0.  1.
       -1   -1    0    0    0  501  0.00000000000E+00  0.00000000000E+00 -0.45228647725E+03  0.45228647728E+03  0.50400001928E-02 0. -1.
    10030    2    1    2    0    0  0.00000000000E+00  0.00000000000E+00  0.17773505992E+04  0.26819235537E+04  0.20084169875E+04 0.  0.
        3    1    3    3  502    0  0.82588357241E+03  0.57083860564E+03  0.85898683504E+03  0.13212867902E+04  0.10100000352E+00 0. -1.
       -3    1    3    3    0  502 -0.82588357241E+03 -0.57083860564E+03  0.91836376414E+03  0.13606367636E+04  0.10100000352E+00 0.  1.
</event>
<event>
 5   0  0.5924654E-05  0.2294457E+04  0.7818609E-02  0.8480110E-01
       -1   -1    0    0    0  501  0.00000000000E+00  0.00000000000E+00  0.91434484789E+03  0.91434484790E+03  0.50400001928E-02 0.  1.
        1   -1    0    0  501    0  0.00000000000E+00  0.00000000000E+00 -0.14394271191E+04  0.14394271191E+04  0.50400001928E-02 0. -1.
    10030    2    1    2    0    0  0.00000000000E+00  0.00000000000E+00 -0.52508227125E+03  0.23537719670E+04  0.22944565983E+04 0.  0.
        5    1    3    3  502    0  0.68576834639E+03  0.54845505397E+03 -0.10198875044E+04  0.13458357191E+04  0.46999998093E+01 0. -1.
       -5    1    3    3    0  502 -0.68576834639E+03 -0.54845505397E+03  0.49480523317E+03  0.10079362479E+04  0.46999998093E+01 0.  1.
</event>
<event>
 5   0  0.5663790E-05  0.2370155E+04  0.7818609E-02  0.8450762E-01
       -1   -1    0    0    0  501  0.00000000000E+00  0.00000000000E+00  0.94962390177E+03  0.94962390178E+03  0.50400001928E-02 0. -1.
        1   -1    0    0  501    0  0.00000000000E+00  0.00000000000E+00 -0.14789107387E+04  0.14789107387E+04  0.50400001928E-02 0.  1.
    10030    2    1    2    0    0  0.00000000000E+00  0.00000000000E+00 -0.52928683693E+03  0.24285346405E+04  0.23701552574E+04 0.  0.
        3    1    3    3  502    0  0.39082711216E+03 -0.33354324100E+03 -0.13588476905E+04  0.14527436049E+04  0.10100000352E+00 0.  1.
       -3    1    3    3    0  502 -0.39082711216E+03  0.33354324100E+03  0.82956085359E+03  0.97579103563E+03  0.10100000352E+00 0. -1.
</event>
<event>
 5   0  0.1270613E-04  0.2232651E+04  0.7818609E-02  0.8504960E-01
        2   -1    0    0  501    0  0.00000000000E+00  0.00000000000E+00  0.83929746607E+03  0.83929746607E+03  0.25500000920E-02 0. -1.
       -2   -1    0    0    0  501  0.00000000000E+00  0.00000000000E+00 -0.14847920168E+04  0.14847920168E+04  0.25500000920E-02 0.  1.
    10030    2    1    2    0    0  0.00000000000E+00  0.00000000000E+00 -0.64549455075E+03  0.23240894829E+04  0.22326506017E+04 0.  0.
        2    1    3    3  502    0  0.85575070633E+03  0.42198591800E+03 -0.92596339591E+03  0.13295824897E+04  0.25500000920E-02 0.  1.
       -2    1    3    3    0  502 -0.85575070633E+03 -0.42198591800E+03  0.28046884515E+03  0.99450699318E+03  0.25500000920E-02 0. -1.
</event>
<event>
 5   0  0.1257524E-04  0.2309695E+04  0.7818609E-02  0.8474108E-01
        2   -1    0    0  501    0  0.00000000000E+00  0.00000000000E+00  0.14261328985E+04  0.14261328985E+04  0.25500000920E-02 0. -1.
       -2   -1    0    0    0  501  0.00000000000E+00  0.00000000000E+00 -0.93516703369E+03  0.93516703369E+03  0.25500000920E-02 0.  1.
    10030    2    1    2    0    0  0.00000000000E+00  0.00000000000E+00  0.49096586477E+03  0.23612999322E+04  0.23096947610E+04 0.  0.
        3    1    3    3  502    0 -0.23765319211E+03  0.11103442963E+04  0.30234317248E+02  0.11358950745E+04  0.10100000352E+00 0. -1.
       -3    1    3    3    0  502  0.23765319211E+03 -0.11103442963E+04  0.46073154752E+03  0.12254048577E+04  0.10100000352E+00 0.  1.
</event>
<event>
 5   0  0.5663790E-05  0.1821762E+04  0.7818609E-02  0.8694811E-01
       -1   -1    0    0    0  501  0.00000000000E+00  0.00000000000E+00  0.12925691257E+04  0.12925691257E+04  0.50400001928E-02 0. -1.
        1   -1    0    0  501    0  0.00000000000E+00  0.00000000000E+00 -0.64190349756E+03  0.64190349758E+03  0.50400001928E-02 0.  1.
    10030    2    1    2    0    0  0.00000000000E+00  0.00000000000E+00  0.65066562814E+03  0.19344726233E+04  0.18217624902E+04 0.  0.
        3    1    3    3  502    0 -0.30357538254E+03  0.35482241809E+03  0.11557981232E+04  0.12465657917E+04  0.10100000352E+00 0. -1.
       -3    1    3    3    0  502  0.30357538254E+03 -0.35482241809E+03 -0.50513249502E+03  0.68790683162E+03  0.10100000352E+00 0.  1.
</event>
<event>
 5   0  0.5843670E-05  0.2295793E+04  0.7818609E-02  0.8479582E-01
        1   -1    0    0  501    0  0.00000000000E+00  0.00000000000E+00  0.11505116134E+04  0.11505116134E+04  0.50400001928E-02 0. -1.
       -1   -1    0    0    0  501  0.00000000000E+00  0.00000000000E+00 -0.11452873654E+04  0.11452873654E+04  0.50400001928E-02 0.  1.
    10030    2    1    2    0    0  0.00000000000E+00  0.00000000000E+00  0.52242480313E+01  0.22957989788E+04  0.22957930347E+04 0.  0.
        2    1    3    3  502    0  0.96889490803E+02  0.98865432194E+03 -0.57257757168E+03  0.11465906058E+04  0.25500000920E-02 0. -1.
       -2    1    3    3    0  502 -0.96889490803E+02 -0.98865432194E+03  0.57780181971E+03  0.11492083730E+04  0.25500000920E-02 0.  1.
</event>
<event>
 5   0  0.1270613E-04  0.2992912E+04  0.7818609E-02  0.8245758E-01
        2   -1    0    0  501    0  0.00000000000E+00  0.00000000000E+00  0.12683271268E+04  0.12683271268E+04  0.25500000920E-02 0. -1.
       -2   -1    0    0    0  501  0.00000000000E+00  0.00000000000E+00 -0.17656180257E+04  0.17656180257E+04  0.25500000920E-02 0.  1.
    10030    2    1    2    0    0  0.00000000000E+00  0.00000000000E+00 -0.49729089888E+03  0.30339451525E+04  0.29929124528E+04 0.  0.
        2    1    3    3  502    0  0.24939905018E+03  0.12636536833E+04  0.52361308684E+03  0.13903924562E+04  0.25500000920E-02 0. -1.
       -2    1    3    3    0  502 -0.24939905018E+03 -0.12636536833E+04 -0.10209039857E+04  0.16435526963E+04  0.25500000920E-02 0.  1.
</event>
<event>
 5   0  0.5632156E-05  0.2325733E+04  0.7818609E-02  0.8467844E-01
       -1   -1    0    0    0  501  0.00000000000E+00  0.00000000000E+00  0.53993247150E+03  0.53993247153E+03  0.50400001928E-02 0. -1.
        1   -1    0    0  501    0  0.00000000000E+00  0.00000000000E+00 -0.25044956856E+04  0.25044956856E+04  0.50400001928E-02 0.  1.
    10030    2    1    2    0    0  0.00000000000E+00  0.00000000000E+00 -0.19645632141E+04  0.30444281571E+04  0.23257330418E+04 0.  0.
        4    1    3    3  502    0  0.98478382189E+03  0.56181745753E+03 -0.13206544743E+04  0.17405653923E+04  0.12699999809E+01 0.  1.
       -4    1    3    3    0  502 -0.98478382189E+03 -0.56181745753E+03 -0.64390873976E+03  0.13038627648E+04  0.12699999809E+01 0. -1.
</event>
<event>
 5   0  0.4489500E-05  0.2317218E+04  0.7818609E-02  0.8471163E-01
        3   -1    0    0  501    0  0.00000000000E+00  0.00000000000E+00  0.14773133563E+04  0.14773133598E+04  0.10100000352E+00 0.  1.
       -3   -1    0    0    0  501  0.00000000000E+00  0.00000000000E+00 -0.90865970680E+03  0.90865971241E+03  0.10100000352E+00 0. -1.
    10030    2    1    2    0    0  0.00000000000E+00  0.00000000000E+00  0.56865364954E+03  0.23859730722E+04  0.23172182737E+04 0.  0.
        3    1    3    3  502    0 -0.72121115306E+03  0.34231481251E+03  0.11489136276E+04  0.13990452073E+04  0.10100000352E+00 0.  1.
       -3    1    3    3    0  502  0.72121115306E+03 -0.34231481251E+03 -0.58025997807E+03  0.98692786490E+03  0.10100000352E+00 0. -1.
</event>
<event>
 5   0  0.1237296E-04  0.2264924E+04  0.7818609E-02  0.8491881E-01
        2   -1    0    0  501    0  0.00000000000E+00  0.00000000000E+00  0.22898375130E+04  0.22898375130E+04  0.25500000920E-02 0.  1.
       -2   -1    0    0    0  501  0.00000000000E+00  0.00000000000E+00 -0.56007043928E+03  0.56007043929E+03  0.25500000920E-02 0. -1.
    10030    2    1    2    0    0  0.00000000000E+00  0.00000000000E+00  0.17297670737E+04  0.28499079523E+04  0.22649241063E+04 0.  0.
        1    1    3    3  502    0  0.23018560256E+03  0.33162471581E+03 -0.46646313102E+03  0.61688590225E+03  0.50400001928E-02 0. -1.
       -1    1    3    3    0  502 -0.23018560256E+03 -0.33162471581E+03  0.21962302048E+04  0.22330220501E+04  0.50400001928E-02 0.  1.
</event>
<event>
 5   0  0.5632156E-05  0.2312603E+04  0.7818609E-02  0.8472968E-01
       -1   -1    0    0    0  501  0.00000000000E+00  0.00000000000E+00  0.88758160065E+03  0.88758160067E+03  0.50400001928E-02 0. -1.
        1   -1    0    0  501    0  0.00000000000E+00  0.00000000000E+00 -0.15063777994E+04  0.15063777994E+04  0.50400001928E-02 0.  1.
    10030    2    1    2    0    0  0.00000000000E+00  0.00000000000E+00 -0.61879619876E+03  0.23939594001E+04  0.23126030515E+04 0.  0.
        4    1    3    3  502    0  0.18834634183E+02 -0.91796931579E+03  0.41818600721E+03  0.10089120664E+04  0.12699999809E+01 0. -1.
       -4    1    3    3    0  502 -0.18834634183E+02  0.91796931579E+03 -0.10369822060E+04  0.13850473337E+04  0.12699999809E+01 0.  1.
</event>
<event>
 5   0  0.5642466E-05  0.2276676E+04  0.7818609E-02  0.8487175E-01
       -1   -1    0    0    0  501  0.00000000000E+00  0.00000000000E+00  0.58227801013E+03  0.58227801016E+03  0.50400001928E-02 0. -1.
        1   -1    0    0  501    0  0.00000000000E+00  0.00000000000E+00 -0.22254195361E+04  0.22254195361E+04  0.50400001928E-02 0.  1.
    10030    2    1    2    0    0  0.00000000000E+00  0.00000000000E+00 -0.16431415259E+04  0.28076975462E+04  0.22766755230E+04 0.  0.
        1    1    3    3  502    0 -0.71753273986E+03 -0.69833210396E+03 -0.15368956446E+03  0.10129863980E+04  0.50400001928E-02 0. -1.
       -1    1    3    3    0  502  0.71753273986E+03  0.69833210396E+03 -0.14894519615E+04  0.17947111483E+04  0.50400001928E-02 0.  1.
</event>
<event>
 5   0  0.5843670E-05  0.2277306E+04  0.7818609E-02  0.8486923E-01
        1   -1    0    0  501    0  0.00000000000E+00  0.00000000000E+00  0.12676676384E+04  0.12676676384E+04  0.50400001928E-02 0.  1.
       -1   -1    0    0    0  501  0.00000000000E+00  0.00000000000E+00 -0.10227688596E+04  0.10227688597E+04  0.50400001928E-02 0. -1.
    10030    2    1    2    0    0  0.00000000000E+00  0.00000000000E+00  0.24489877877E+03  0.22904364981E+04  0.22773062903E+04 0.  0.
        2    1    3    3  502    0 -0.13007086733E+03  0.11209919742E+04  0.27494664484E+03  0.11615236090E+04  0.25500000920E-02 0. -1.
       -2    1    3    3    0  502  0.13007086733E+03 -0.11209919742E+04 -0.30047866068E+02  0.11289128891E+04  0.25500000920E-02 0.  1.
</event>
<event>
 5   0  0.1237296E-04  0.2240044E+04  0.7818609E-02  0.8501943E-01
       -2   -1    0    0    0  501  0.00000000000E+00  0.00000000000E+00  0.50821122571E+03  0.50821122572E+03  0.25500000920E-02 0.  1.
        2   -1    0    0  501    0  0.00000000000E+00  0.00000000000E+00 -0.24683618415E+04  0.24683618415E+04  0.25500000920E-02 0. -1.
    10030    2    1    2    0    0  0.00000000000E+00  0.00000000000E+00 -0.19601506158E+04  0.29765730672E+04  0.22400439254E+04 0.  0.
        1    1    3    3  502    0 -0.33640264448E+03 -0.13738938338E+03  0.42770576526E+03  0.56122616078E+03  0.50400001928E-02 0.  1.
       -1    1    3    3    0  502  0.33640264448E+03  0.13738938338E+03 -0.23878563811E+04  0.24153469064E+04  0.50400001928E-02 0. -1.
</event>
<event>
 5   0  0.1234988E-04  0.1612688E+04  0.7818609E-02  0.8812791E-01
        2   -1    0    0  501    0  0.00000000000E+00  0.00000000000E+00  0.78741101396E+03  0.78741101396E+03  0.25500000920E-02 0. -1.
       -2   -1    0    0    0  501  0.00000000000E+00  0.00000000000E+00 -0.82573188818E+03  0.82573188819E+03  0.25500000920E-02 0.  1.
    10030    2    1    2    0    0  0.00000000000E+00  0.00000000000E+00 -0.38320874222E+02  0.16131429022E+04  0.16126876738E+04 0.  0.
        5    1    3    3  502    0 -0.56414264348E+03 -0.30504668655E+03 -0.50802929322E+03  0.81818473216E+03  0.46999998093E+01 0.  1.
       -5    1    3    3    0  502  0.56414264348E+03  0.30504668655E+03  0.46970841899E+03  0.79495816999E+03  0.46999998093E+01 0. -1.
</event>
<event>
 5   0  0.5663790E-05  0.2083107E+04  0.7818609E-02  0.8568722E-01
       -1   -1    0    0    0  501  0.00000000000E+00  0.00000000000E+00  0.41830333671E+03  0.41830333674E+03  0.50400001928E-02 0.  1.
        1   -1    0    0  501    0  0.00000000000E+00  0.00000000000E+00 -0.25934142481E+04  0.25934142481E+04  0.50400001928E-02 0. -1.
    10030    2    1    2    0    0  0.00000000000E+00  0.00000000000E+00 -0.21751109114E+04  0.30117175849E+04  0.20831071346E+04 0.  0.
        3    1    3    3  502    0 -0.96773255726E+03 -0.38076329882E+03 -0.10039143927E+04  0.14454518706E+04  0.10100000352E+00 0.  1.
       -3    1    3    3    0  502  0.96773255726E+03  0.38076329882E+03 -0.11711965187E+04  0.15662657143E+04  0.10100000352E+00 0. -1.
</event>
<event>
 5   0  0.1281432E-04  0.2268163E+04  0.7818609E-02  0.8490581E-01
        2   -1    0    0  501    0  0.00000000000E+00  0.00000000000E+00  0.11281857885E+04  0.11281857885E+04  0.25500000920E-02 0. -1.
       -2   -1    0    0    0  501  0.00000000000E+00  0.00000000000E+00 -0.11400077614E+04  0.11400077615E+04  0.25500000920E-02 0.  1.
    10030    2    1    2    0    0  0.00000000000E+00  0.00000000000E+00 -0.11821972930E+02  0.22681935500E+04  0.22681627413E+04 0.  0.
        4    1    3    3  502    0  0.14144134246E+03 -0.10954705860E+04 -0.26296988875E+03  0.11354365828E+04  0.12699999809E+01 0.  1.
       -4    1    3    3    0  502 -0.14144134246E+03  0.10954705860E+04  0.25114791582E+03  0.11327569672E+04  0.12699999809E+01 0. -1.
</event>
<event>
 5   0  0.5632156E-05  0.2315165E+04  0.7818609E-02  0.8471966E-01
        1   -1    0    0  501    0  0.00000000000E+00  0.00000000000E+00  0.95392449481E+03  0.95392449482E+03  0.50400001928E-02 0. -1.
       -1   -1    0    0    0  501  0.00000000000E+00  0.00000000000E+00 -0.14047208718E+04  0.14047208718E+04  0.50400001928E-02 0.  1.
    10030    2    1    2    0    0  0.00000000000E+00  0.00000000000E+00 -0.45079637696E+03  0.23586453666E+04  0.23151653487E+04 0.  0.
        4    1    3    3  502    0 -0.20472481475E+02 -0.96278724404E+03  0.42901874245E+03  0.10542471693E+04  0.12699999809E+01 0. -1.
       -4    1    3    3    0  502  0.20472481475E+02  0.96278724404E+03 -0.87981511941E+03  0.13043981973E+04  0.12699999809E+01 0.  1.
</event>
<event>
 5   0  0.5924654E-05  0.2311877E+04  0.7818609E-02  0.8473253E-01
        1   -1    0    0  501    0  0.00000000000E+00  0.00000000000E+00  0.13074031341E+04  0.13074031341E+04  0.50400001928E-02 0.  1.
       -1   -1    0    0    0  501  0.00000000000E+00  0.00000000000E+00 -0.10220215125E+04  0.10220215125E+04  0.50400001928E-02 0. -1.
    10030    2    1    2    0    0  0.00000000000E+00  0.00000000000E+00  0.28538162161E+03  0.23294246466E+04  0.23118772705E+04 0.  0.
        5    1    3    3  502    0  0.34386355528E+03 -0.35710939637E+03 -0.90945847483E+03  0.10358117942E+04  0.46999998093E+01 0. -1.
       -5    1    3    3    0  502 -0.34386355528E+03  0.35710939637E+03  0.11948400964E+04  0.12936128523E+04  0.46999998093E+01 0.  1.
</event>
<event>
 5   0  0.5843670E-05  0.2278395E+04  0.7818609E-02  0.8486489E-01
        1   -1    0    0  501    0  0.00000000000E+00  0.00000000000E+00  0.22133807168E+04  0.22133807168E+04  0.50400001928E-02 0. -1.
       -1   -1    0    0    0  501  0.00000000000E+00  0.00000000000E+00 -0.58632957486E+03  0.58632957489E+03  0.50400001928E-02 0.  1.
    10030    2    1    2    0    0  0.00000000000E+00  0.00000000000E+00  0.16270511420E+04  0.27997102917E+04  0.22783946759E+04 0.  0.
        2    1    3    3  502    0  0.15606172305E+03 -0.74256589878E+03  0.18576592484E+04  0.20066532482E+04  0.25500000920E-02 0. -1.
       -2    1    3    3    0  502 -0.15606172305E+03  0.74256589878E+03 -0.23060810645E+03  0.79305704348E+03  0.25500000920E-02 0.  1.
</event>
<event>
 5   0  0.5843670E-05  0.1549296E+04  0.7818609E-02  0.8852318E-01
       -1   -1    0    0    0  501  0.00000000000E+00  0.00000000000E+00  0.58090458888E+03  0.58090458890E+03  0.50400001928E-02 0. -1.
        1   -1    0    0  501    0  0.00000000000E+00  0.00000000000E+00 -0.10330087928E+04  0.10330087928E+04  0.50400001928E-02 0.  1.
    10030    2    1    2    0    0  0.00000000000E+00  0.00000000000E+00 -0.45210420392E+03  0.16139133817E+04  0.15492960313E+04 0.  0.
        2    1    3    3  502    0  0.30144600253E+03  0.58773942716E+03  0.19551424466E+03  0.68886366325E+03  0.25500000920E-02 0. -1.
       -2    1    3    3    0  502 -0.30144600253E+03 -0.58773942716E+03 -0.64761844858E+03  0.92504971846E+03  0.25500000920E-02 0.  1.
</event>
<event>
 5   0  0.5924654E-05  0.1903750E+04  0.7818609E-02  0.8652992E-01
        1   -1    0    0  501    0  0.00000000000E+00  0.00000000000E+00  0.86191496701E+03  0.86191496702E+03  0.50400001928E-02 0. -1.
       -1   -1    0    0    0  501  0.00000000000E+00  0.00000000000E+00 -0.10512248669E+04  0.10512248669E+04  0.50400001928E-02 0.  1.
    10030    2    1    2    0    0  0.00000000000E+00  0.00000000000E+00 -0.18930989992E+03  0.19131398340E+04  0.19037504527E+04 0.  0.
        5    1    3    3  502    0 -0.76826701573E+03 -0.35840162348E+03 -0.52963897599E+03  0.99961265802E+03  0.46999998093E+01 0.  1.
       -5    1    3    3    0  502  0.76826701573E+03  0.35840162348E+03  0.34032907607E+03  0.91352717595E+03  0.46999998093E+01 0. -1.
</event>
<event>
 5   0  0.5924654E-05  0.2326334E+04  0.7818609E-02  0.8467610E-01
        1   -1    0    0  501    0  0.00000000000E+00  0.00000000000E+00  0.12969059525E+04  0.12969059525E+04  0.50400001928E-02 0. -1.
       -1   -1    0    0    0  501  0.00000000000E+00  0.00000000000E+00 -0.10432194543E+04  0.10432194543E+04  0.50400001928E-02 0.  1.
    10030    2    1    2    0    0  0.00000000000E+00  0.00000000000E+00  0.25368649823E+03  0.23401254068E+04  0.23263340431E+04 0.  0.
        5    1    3    3  502    0  0.47450031443E+03 -0.87919303872E+02 -0.93775744568E+03  0.10546522978E+04  0.46999998093E+01 0.  1.
       -5    1    3    3    0  502 -0.47450031443E+03  0.87919303872E+02  0.11914439439E+04  0.12854731090E+04  0.46999998093E+01 0. -1.
</event>
<event>
 5   0  0.5843670E-05  0.2275167E+04  0.7818609E-02  0.8487777E-01
        1   -1    0    0  501    0  0.00000000000E+00  0.00000000000E+00  0.12339703088E+04  0.12339703089E+04  0.50400001928E-02 0. -1.
       -1   -1    0    0    0  501  0.00000000000E+00  0.00000000000E+00 -0.10487252683E+04  0.10487252683E+04  0.50400001928E-02 0.  1.
    10030    2    1    2    0    0  0.00000000000E+00  0.00000000000E+00  0.18524504052E+03  0.22826955772E+04  0.22751666693E+04 0.  0.
        2    1    3    3  502    0  0.34815999809E+03  0.13137518590E+03 -0.98593297744E+03  0.10538209809E+04  0.25500000920E-02 0.  1.
       -2    1    3    3    0  502 -0.34815999809E+03 -0.13137518590E+03  0.11711780180E+04  0.12288745963E+04  0.25500000920E-02 0. -1.
</event>
<event>
 5   0  0.5843670E-05  0.2070711E+04  0.7818609E-02  0.8574256E-01
       -1   -1    0    0    0  501  0.00000000000E+00  0.00000000000E+00  0.18868023006E+04  0.18868023006E+04  0.50400001928E-02 0.  1.
        1   -1    0    0  501    0  0.00000000000E+00  0.00000000000E+00 -0.56813653495E+03  0.56813653497E+03  0.50400001928E-02 0. -1.
    10030    2    1    2    0    0  0.00000000000E+00  0.00000000000E+00  0.13186657656E+04  0.24549388355E+04  0.20707112992E+04 0.  0.
        2    1    3    3  502    0  0.36095501527E+03 -0.91990667963E+03  0.29306690938E+03  0.10307303409E+04  0.25500000920E-02 0. -1.
       -2    1    3    3    0  502 -0.36095501527E+03  0.91990667963E+03  0.10255988562E+04  0.14242084946E+04  0.25500000920E-02 0.  1.
</event>
<event>
 5   0  0.1234988E-04  0.2354237E+04  0.7818609E-02  0.8456838E-01
        2   -1    0    0  501    0  0.00000000000E+00  0.00000000000E+00  0.18852372015E+04  0.18852372015E+04  0.25500000920E-02 0. -1.
       -2   -1    0    0    0  501  0.00000000000E+00  0.00000000000E+00 -0.73497777100E+03  0.73497777101E+03  0.25500000920E-02 0.  1.
    10030    2    1    2    0    0  0.00000000000E+00  0.00000000000E+00  0.11502594305E+04  0.26202149725E+04  0.23542365524E+04 0.  0.
        5    1    3    3  502    0  0.27754804142E+03  0.11180773839E+04  0.84422068475E+03  0.14282368873E+04  0.46999998093E+01 0.  1.
       -5    1    3    3    0  502 -0.27754804142E+03 -0.11180773839E+04  0.30603874571E+03  0.11919780852E+04  0.46999998093E+01 0. -1.
</event>
<event>
 5   0  0.1237296E-04  0.1248009E+04  0.7818609E-02  0.9071842E-01
       -2   -1    0    0    0  501  0.00000000000E+00  0.00000000000E+00  0.47599281918E+03  0.47599281919E+03  0.25500000920E-02 0. -1.
        2   -1    0    0  501    0  0.00000000000E+00  0.00000000000E+00 -0.81804043175E+03  0.81804043176E+03  0.25500000920E-02 0.  1.
    10030    2    1    2    0    0  0.00000000000E+00  0.00000000000E+00 -0.34204761257E+03  0.12940332509E+04  0.12480086079E+04 0.  0.
        1    1    3    3  502    0 -0.33174892192E+03  0.14576143376E+03 -0.69777197545E+03  0.78625026074E+03  0.50400001928E-02 0.  1.
       -1    1    3    3    0  502  0.33174892192E+03 -0.14576143376E+03  0.35572436288E+03  0.50778299020E+03  0.50400001928E-02 0. -1.
</event>
<event>
 5   0  0.5924654E-05  0.2322686E+04  0.7818609E-02  0.8469030E-01
       -1   -1    0    0    0  501  0.00000000000E+00  0.00000000000E+00  0.48703049313E+03  0.48703049316E+03  0.50400001928E-02 0. -1.
        1   -1    0    0  501    0  0.00000000000E+00  0.00000000000E+00 -0.27692678244E+04  0.27692678244E+04  0.50400001928E-02 0.  1.
    10030    2    1    2    0    0  0.00000000000E+00  0.00000000000E+00 -0.22822373313E+04  0.32562983176E+04  0.23226862674E+04 0.  0.
        5    1    3    3  502    0  0.11497794826E+03  0.10107155778E+04 -0.35561185094E+03  0.10776120760E+04  0.46999998093E+01 0. -1.
       -5    1    3    3    0  502 -0.11497794826E+03 -0.10107155778E+04 -0.19266254803E+04  0.21786862416E+04  0.46999998093E+01 0.  1.
</event>
<event>
 5   0  0.5843670E-05  0.2325867E+04  0.7818609E-02  0.8467791E-01
       -1   -1    0    0    0  501  0.00000000000E+00  0.00000000000E+00  0.58656619736E+03  0.58656619738E+03  0.50400001928E-02 0.  1.
        1   -1    0    0  501    0  0.00000000000E+00  0.00000000000E+00 -0.23056465013E+04  0.23056465013E+04  0.50400001928E-02 0. -1.
    10030    2    1    2    0    0  0.00000000000E+00  0.00000000000E+00 -0.17190803039E+04  0.28922126987E+04  0.23258669788E+04 0.  0.
        2    1    3    3  502    0 -0.14168082816E+02 -0.22622685583E+03 -0.22779111473E+04  0.22891610953E+04  0.25500000920E-02 0. -1.
       -2    1    3    3    0  502  0.14168082816E+02  0.22622685583E+03  0.55883084339E+03  0.60305160343E+03  0.25500000920E-02 0.  1.
</event>
<event>
 5   0  0.5642466E-05  0.1347805E+04  0.7818609E-02  0.8992491E-01
       -1   -1    0    0    0  501  0.00000000000E+00  0.00000000000E+00  0.43653692424E+03  0.43653692427E+03  0.50400001928E-02 0.  1.
        1   -1    0    0  501    0  0.00000000000E+00  0.00000000000E+00 -0.10403349035E+04  0.10403349035E+04  0.50400001928E-02 0. -1.
    10030    2    1    2    0    0  0.00000000000E+00  0.00000000000E+00 -0.60379797921E+03  0.14768718277E+04  0.13478050289E+04 0.  0.
        1    1    3    3  502    0  0.30053465637E+03  0.51693393289E+03  0.38674355101E+02  0.59919736016E+03  0.50400001928E-02 0.  1.
       -1    1    3    3    0  502 -0.30053465637E+03 -0.51693393289E+03 -0.64247233431E+03  0.87767446757E+03  0.50400001928E-02 0. -1.
</event>
<event>
 5   0  0.1234988E-04  0.2370337E+04  0.7818609E-02  0.8450693E-01
        2   -1    0    0  501    0  0.00000000000E+00  0.00000000000E+00  0.18535656443E+04  0.18535656443E+04  0.25500000920E-02 0. -1.
       -2   -1    0    0    0  501  0.00000000000E+00  0.00000000000E+00 -0.75779594164E+03  0.75779594164E+03  0.25500000920E-02 0.  1.
    10030    2    1    2    0    0  0.00000000000E+00  0.00000000000E+00  0.10957697027E+04  0.26113615860E+04  0.23703371261E+04 0.  0.
        5    1    3    3  502    0  0.90669870546E+03  0.45457970971E+03  0.12232961425E+04  0.15890943323E+04  0.46999998093E+01 0. -1.
       -5    1    3    3    0  502 -0.90669870546E+03 -0.45457970971E+03 -0.12752643979E+03  0.10222672536E+04  0.46999998093E+01 0.  1.
</event>
<event>
 5   0  0.1234988E-04  0.2316074E+04  0.7818609E-02  0.8471610E-01
        2   -1    0    0  501    0  0.00000000000E+00  0.00000000000E+00  0.15841994648E+04  0.15841994648E+04  0.25500000920E-02 0. -1.
       -2   -1    0    0    0  501  0.00000000000E+00  0.00000000000E+00 -0.84651567912E+03  0.84651567912E+03  0.25500000920E-02 0.  1.
    10030    2    1    2    0    0  0.00000000000E+00  0.00000000000E+00  0.73768378573E+03  0.24307151440E+04  0.23160739935E+04 0.  0.
        5    1    3    3  502    0  0.47351515941E+03 -0.78464362326E+03 -0.37411480055E+03  0.98988190998E+03  0.46999998093E+01 0.  1.
       -5    1    3    3    0  502 -0.47351515941E+03  0.78464362326E+03  0.11117985863E+04  0.14408332340E+04  0.46999998093E+01 0. -1.
</event>
<event>
 5   0  0.1281432E-04  0.1663135E+04  0.7818609E-02  0.8782674E-01
        2   -1    0    0  501    0  0.00000000000E+00  0.00000000000E+00  0.93411465890E+03  0.93411465890E+03  0.25500000920E-02 0. -1.
       -2   -1    0    0    0  501  0.00000000000E+00  0.00000000000E+00 -0.74027797973E+03  0.74027797973E+03  0.25500000920E-02 0.  1.
    10030    2    1    2    0    0  0.00000000000E+00  0.00000000000E+00  0.19383667917E+03  0.16743926386E+04  0.16631350066E+04 0.  0.
        4    1    3    3  502    0 -0.64191621180E+03  0.33035776422E+03  0.51239837645E+03  0.88529451848E+03  0.12699999809E+01 0. -1.
       -4    1    3    3    0  502  0.64191621180E+03 -0.33035776422E+03 -0.31856169729E+03  0.78909812016E+03  0.12699999809E+01 0.  1.
</event>
<event>
 5   0  0.5924654E-05  0.2137904E+04  0.7818609E-02  0.8544728E-01
       -1   -1    0    0    0  501  0.00000000000E+00  0.00000000000E+00  0.73363841132E+03  0.73363841134E+03  0.50400001928E-02 0.  1.
        1   -1    0    0  501    0  0.00000000000E+00  0.00000000000E+00 -0.15575228091E+04  0.15575228092E+04  0.50400001928E-02 0. -1.
    10030    2    1    2    0    0  0.00000000000E+00  0.00000000000E+00 -0.82388439782E+03  0.22911612205E+04  0.21379041693E+04 0.  0.
        5    1    3    3  502    0 -0.88638815971E+03  0.63469664265E+02 -0.10486029459E+04  0.13745190418E+04  0.46999998093E+01 0. -1.
       -5    1    3    3    0  502  0.88638815971E+03 -0.63469664265E+02  0.22471854810E+03  0.91664217873E+03  0.46999998093E+01 0.  1.
</event>
<event>
 5   0  0.1270613E-04  0.2623751E+04  0.7818609E-02  0.8360178E-01
       -2   -1    0    0    0  501  0.00000000000E+00  0.00000000000E+00  0.14512202351E+04  0.14512202351E+04  0.25500000920E-02 0.  1.
        2   -1    0    0  501    0  0.00000000000E+00  0.00000000000E+00 -0.11859108496E+04  0.11859108497E+04  0.25500000920E-02 0. -1.
    10030    2    1    2    0    0  0.00000000000E+00  0.00000000000E+00  0.26530938543E+03  0.26371310847E+04  0.26237513770E+04 0.  0.
        2    1    3    3  502    0  0.66437584670E+03 -0.92776134219E+03 -0.51785624268E+03  0.12531206893E+04  0.25500000920E-02 0. -1.
       -2    1    3    3    0  502 -0.66437584670E+03  0.92776134219E+03  0.78316562811E+03  0.13840103955E+04  0.25500000920E-02 0.  1.
</event>
<event>
 5   0  0.5843670E-05  0.2398861E+04  0.7818609E-02  0.8439930E-01
        1   -1    0    0  501    0  0.00000000000E+00  0.00000000000E+00  0.19083824780E+04  0.19083824780E+04  0.50400001928E-02 0. -1.
       -1   -1    0    0    0  501  0.00000000000E+00  0.00000000000E+00 -0.75384961946E+03  0.75384961947E+03  0.50400001928E-02 0.  1.
    10030    2    1    2    0    0  0.00000000000E+00  0.00000000000E+00  0.11545328585E+04  0.26622320974E+04  0.23988609004E+04 0.  0.
        2    1    3    3  502    0  0.39902266548E+03 -0.10875195906E+04  0.23213159534E+03  0.11814410798E+04  0.25500000920E-02 0.  1.
       -2    1    3    3    0  502 -0.39902266548E+03  0.10875195906E+04  0.92240126316E+03  0.14807910176E+04  0.25500000920E-02 0. -1.
</event>
<event>
 5   0  0.1270613E-04  0.2177173E+04  0.7818609E-02  0.8527990E-01
        2   -1    0    0  501    0  0.00000000000E+00  0.00000000000E+00  0.94511803628E+03  0.94511803628E+03  0.25500000920E-02 0.  1.
       -2   -1    0    0    0  501  0.00000000000E+00  0.00000000000E+00 -0.12538334911E+04  0.12538334911E+04  0.25500000920E-02 0. -1.
    10030    2    1    2    0    0  0.00000000000E+00  0.00000000000E+00 -0.30871545477E+03  0.21989515273E+04  0.21771730725E+04 0.  0.
        2    1    3    3  502    0  0.57154475235E+03 -0.27913283126E+03  0.73790560859E+03  0.97420902717E+03  0.25500000920E-02 0.  1.
       -2    1    3    3    0  502 -0.57154475235E+03  0.27913283126E+03 -0.10466210634E+04  0.12247425002E+04  0.25500000920E-02 0. -1.
</event>
<event>
 5   0  0.5924654E-05  0.2294129E+04  0.7818609E-02  0.8480240E-01
        1   -1    0    0  501    0  0.00000000000E+00  0.00000000000E+00  0.77928738064E+03  0.77928738066E+03  0.50400001928E-02 0. -1.
       -1   -1    0    0    0  501  0.00000000000E+00  0.00000000000E+00 -0.16884105696E+04  0.16884105696E+04  0.50400001928E-02 0.  1.
    10030    2    1    2    0    0  0.00000000000E+00  0.00000000000E+00 -0.90912318892E+03  0.24676979502E+04  0.22941290724E+04 0.  0.
        5    1    3    3  502    0 -0.86762624442E+03  0.65821404570E+03 -0.67154596831E+02  0.10911245849E+04  0.46999998093E+01 0. -1.
       -5    1    3    3    0  502  0.86762624442E+03 -0.65821404570E+03 -0.84196859208E+03  0.13765733653E+04  0.46999998093E+01 0.  1.
</event>
<event>
 5   0  0.1281432E-04  0.1610032E+04  0.7818609E-02  0.8814409E-01
       -2   -1    0    0    0  501  0.00000000000E+00  0.00000000000E+00  0.43308819122E+03  0.43308819123E+03  0.25500000920E-02 0. -1.
        2   -1    0    0  501    0  0.00000000000E+00  0.00000000000E+00 -0.14963481764E+04  0.14963481764E+04  0.25500000920E-02 0.  1.
    10030    2    1    2    0    0  0.00000000000E+00  0.00000000000E+00 -0.10632599852E+04  0.19294363676E+04  0.16100319564E+04 0.  0.
        4    1    3    3  502    0  0.19727562199E+03  0.38072765709E+03 -0.13480961543E+04  0.14146505131E+04  0.12699999809E+01 0.  1.
       -4    1    3    3    0  502 -0.19727562199E+03 -0.38072765709E+03  0.28483616916E+03  0.51478585456E+03  0.12699999809E+01 0. -1.
</event>
<event>
 5   0  0.5642466E-05  0.1486168E+04  0.7818609E-02  0.8893703E-01
       -1   -1    0    0    0  501  0.00000000000E+00  0.00000000000E+00  0.15466819571E+04  0.15466819571E+04  0.50400001928E-02 0.  1.
        1   -1    0    0  501    0  0.00000000000E+00  0.00000000000E+00 -0.35700547884E+03  0.35700547888E+03  0.50400001928E-02 0. -1.
    10030    2    1    2    0    0  0.00000000000E+00  0.00000000000E+00  0.11896764783E+04  0.19036874360E+04  0.14861681369E+04 0.  0.
        1    1    3    3  502    0 -0.51720040570E+03 -0.89326567846E+02  0.12686383079E+04  0.13729233962E+04  0.50400001928E-02 0.  1.
       -1    1    3    3    0  502  0.51720040570E+03  0.89326567846E+02 -0.78961829681E+02  0.53076403981E+03  0.50400001928E-02 0. -1.
</event>
<event>
 5   0  0.5924654E-05  0.2259351E+04  0.7818609E-02  0.8494123E-01
       -1   -1    0    0    0  501  0.00000000000E+00  0.00000000000E+00  0.10867690518E+04  0.10867690518E+04  0.50400001928E-02 0.  1.
        1   -1    0    0  501    0  0.00000000000E+00  0.00000000000E+00 -0.11742759471E+04  0.11742759471E+04  0.50400001928E-02 0. -1.
    10030    2    1    2    0    0  0.00000000000E+00  0.00000000000E+00 -0.87506895336E+02  0.22610449989E+04  0.22593510198E+04 0.  0.
        5    1    3    3  502    0  0.56051078364E+03 -0.96481585044E+03  0.13273836699E+03  0.11236919186E+04  0.46999998093E+01 0. -1.
       -5    1    3    3    0  502 -0.56051078364E+03  0.96481585044E+03 -0.22024526233E+03  0.11373530804E+04  0.46999998093E+01 0.  1.
</event>
<event>
 5   0  0.5632156E-05  0.2300423E+04  0.7818609E-02  0.8477754E-01
       -1   -1    0    0    0  501  0.00000000000E+00  0.00000000000E+00  0.59888097119E+03  0.59888097121E+03  0.50400001928E-02 0.  1.
        1   -1    0    0  501    0  0.00000000000E+00  0.00000000000E+00 -0.22090968785E+04  0.22090968785E+04  0.50400001928E-02 0. -1.
    10030    2    1    2    0    0  0.00000000000E+00  0.00000000000E+00 -0.16102159073E+04  0.28079778497E+04  0.23004226429E+04 0.  0.
        4    1    3    3  502    0  0.97841192117E+03 -0.18122598159E+03 -0.15093329746E+04  0.18078220004E+04  0.12699999809E+01 0. -1.
       -4    1    3    3    0  502 -0.97841192117E+03  0.18122598159E+03 -0.10088293267E+03  0.10001558493E+04  0.12699999809E+01 0.  1.
</event>
<event>
 5   0  0.1270613E-04  0.2298635E+04  0.7818609E-02  0.8478460E-01
        2   -1    0    0  501    0  0.00000000000E+00  0.00000000000E+00  0.21691077518E+04  0.21691077518E+04  0.25500000920E-02 0.  1.
       -2   -1    0    0    0  501  0.00000000000E+00  0.00000000000E+00 -0.60897413066E+03  0.60897413067E+03  0.25500000920E-02 0. -1.
    10030    2    1    2    0    0  0.00000000000E+00  0.00000000000E+00  0.15601336211E+04  0.27780818825E+04  0.22986348187E+04 0.  0.
        2    1    3    3  502    0  0.63853226103E+03  0.85098996779E+01 -0.37482810805E+03  0.74046740466E+03  0.25500000920E-02 0. -1.
       -2    1    3    3    0  502 -0.63853226103E+03 -0.85098996779E+01  0.19349617292E+04  0.20376144778E+04  0.25500000920E-02 0.  1.
</event>
<event>
 5   0  0.1257524E-04  0.2339268E+04  0.7818609E-02  0.8462597E-01
       -2   -1    0    0    0  501  0.00000000000E+00  0.00000000000E+00  0.14612009497E+04  0.14612009497E+04  0.25500000920E-02 0.  1.
        2   -1    0    0  501    0  0.00000000000E+00  0.00000000000E+00 -0.93624591072E+03  0.93624591072E+03  0.25500000920E-02 0. -1.
    10030    2    1    2    0    0  0.00000000000E+00  0.00000000000E+00  0.52495503900E+03  0.23974468604E+04  0.23392677606E+04 0.  0.
        3    1    3    3  502    0  0.38515131614E+03 -0.10279172574E+04  0.67636284650E+03  0.12893495006E+04  0.10100000352E+00 0. -1.
       -3    1    3    3    0  502 -0.38515131614E+03  0.10279172574E+04 -0.15140780750E+03  0.11080973598E+04  0.10100000352E+00 0.  1.
</event>
<event>
 5   0  0.5924654E-05  0.2551141E+04  0.7818609E-02  0.8384989E-01
        1   -1    0    0  501    0  0.00000000000E+00  0.00000000000E+00  0.17472207181E+04  0.17472207181E+04  0.50400001928E-02 0. -1.
       -1   -1    0    0    0  501  0.00000000000E+00  0.00000000000E+00 -0.93123908627E+03  0.93123908629E+03  0.50400001928E-02 0.  1.
    10030    2    1    2    0    0  0.00000000000E+00  0.00000000000E+00  0.81598163182E+03  0.26784598044E+04  0.25511410977E+04 0.  0.
        5    1    3    3  502    0  0.46459829935E+03  0.12486779792E+03  0.16483098385E+04  0.17170879303E+04  0.46999998093E+01 0. -1.
       -5    1    3    3    0  502 -0.46459829935E+03 -0.12486779792E+03 -0.83232820665E+03  0.96137187410E+03  0.46999998093E+01 0.  1.
</event>
<event>
 5   0  0.1234988E-04  0.2237111E+04  0.7818609E-02  0.8503139E-01
       -2   -1    0    0    0  501  0.00000000000E+00  0.00000000000E+00  0.13919528098E+04  0.13919528098E+04  0.25500000920E-02 0.  1.
        2   -1    0    0  501    0  0.00000000000E+00  0.00000000000E+00 -0.89885661945E+03  0.89885661946E+03  0.25500000920E-02 0. -1.
    10030    2    1    2    0    0  0.00000000000E+00  0.00000000000E+00  0.49309619039E+03  0.22908094293E+04  0.22371106339E+04 0.  0.
        5    1    3    3  502    0  0.28745802306E+03  0.10463342563E+04 -0.31439031237E+02  0.10855680511E+04  0.46999998093E+01 0.  1.
       -5    1    3    3    0  502 -0.28745802306E+03 -0.10463342563E+04  0.52453522163E+03  0.12052413782E+04  0.46999998093E+01 0. -1.
</event>
<event>
 5   0  0.1234988E-04  0.2295983E+04  0.7818609E-02  0.8479507E-01
        2   -1    0    0  501    0  0.00000000000E+00  0.00000000000E+00  0.12391626688E+04  0.12391626688E+04  0.25500000920E-02 0. -1.
       -2   -1    0    0    0  501  0.00000000000E+00  0.00000000000E+00 -0.10635280811E+04  0.10635280811E+04  0.25500000920E-02 0.  1.
    10030    2    1    2    0    0  0.00000000000E+00  0.00000000000E+00  0.17563458770E+03  0.23026907499E+04  0.22959828356E+04 0.  0.
        5    1    3    3  502    0 -0.71125688196E+03  0.88545428672E+03  0.25547794663E+03  0.11641334619E+04  0.46999998093E+01 0. -1.
       -5    1    3    3    0  502  0.71125688196E+03 -0.88545428672E+03 -0.79843358923E+02  0.11385572880E+04  0.46999998093E+01 0.  1.
</event>
<event>
 5   0  0.1234988E-04  0.1313632E+04  0.7818609E-02  0.9018824E-01
        2   -1    0    0  501    0  0.00000000000E+00  0.00000000000E+00  0.11907101577E+04  0.11907101577E+04  0.25500000920E-02 0.  1.
       -2   -1    0    0    0  501  0.00000000000E+00  0.00000000000E+00 -0.36231092571E+03  0.36231092572E+03  0.25500000920E-02 0. -1.
    10030    2    1    2    0    0  0.00000000000E+00  0.00000000000E+00  0.82839923197E+03  0.15530210834E+04  0.13136320634E+04 0.  0.
        5    1    3    3  502    0 -0.39776503687E+02  0.59268191768E+03  0.82897138790E+02  0.59979000610E+03  0.46999998093E+01 0. -1.
       -5    1    3    3    0  502  0.39776503687E+02 -0.59268191768E+03  0.74550209318E+03  0.95323107730E+03  0.46999998093E+01 0.  1.
</event>
<event>
 5   0  0.5632156E-05  0.2281894E+04  0.7818609E-02  0.8485094E-01
        1   -1    0    0  501    0  0.00000000000E+00  0.00000000000E+00  0.29112086677E+04  0.29112086677E+04  0.50400001928E-02 0.  1.
       -1   -1    0    0    0  501  0.00000000000E+00  0.00000000000E+00 -0.44715449093E+03  0.44715449095E+03  0.50400001928E-02 0. -1.
    10030    2    1    2    0    0  0.00000000000E+00  0.00000000000E+00  0.24640541768E+04  0.33583631586E+04  0.22818939764E+04 0.  0.
        4    1    3    3  502    0 -0.62025675846E+03 -0.91376808781E+03  0.81040949111E+03  0.13698378448E+04  0.12699999809E+01 0. -1.
       -4    1    3    3    0  502  0.62025675846E+03  0.91376808781E+03  0.16536446856E+04  0.19885253139E+04  0.12699999809E+01 0.  1.
</event>
<event>
 5   0  0.1281432E-04  0.2292038E+04  0.7818609E-02  0.8481067E-01
       -2   -1    0    0    0  501  0.00000000000E+00  0.00000000000E+00  0.99840924939E+03  0.99840924939E+03  0.25500000920E-02 0.  1.
        2   -1    0    0  501    0  0.00000000000E+00  0.00000000000E+00 -0.13154520565E+04  0.13154520565E+04  0.25500000920E-02 0. -1.
    10030    2    1    2    0    0  0.00000000000E+00  0.00000000000E+00 -0.31704280709E+03  0.23138613059E+04  0.22920379581E+04 0.  0.
        4    1    3    3  502    0  0.15424938031E+03  0.21043296818E+03  0.96802619065E+03  0.10025723037E+04  0.12699999809E+01 0.  1.
       -4    1    3    3    0  502 -0.15424938031E+03 -0.21043296818E+03 -0.12850689977E+04  0.13112890022E+04  0.12699999809E+01 0. -1.
</event>
<event>
 5   0  0.5642466E-05  0.2297240E+04  0.7818609E-02  0.8479010E-01
        1   -1    0    0  501    0  0.00000000000E+00  0.00000000000E+00  0.15216453116E+04  0.15216453116E+04  0.50400001928E-02 0.  1.
       -1   -1    0    0    0  501  0.00000000000E+00  0.00000000000E+00 -0.86704036166E+03  0.86704036168E+03  0.50400001928E-02 0. -1.
    10030    2    1    2    0    0  0.00000000000E+00  0.00000000000E+00  0.65460494998E+03  0.23886856733E+04  0.22972399974E+04 0.  0.
        1    1    3    3  502    0  0.72457606874E+03 -0.18473243769E+03  0.12338990978E+04  0.14427901914E+04  0.50400001928E-02 0.  1.
       -1    1    3    3    0  502 -0.72457606874E+03  0.18473243769E+03 -0.57929414783E+03  0.94589548189E+03  0.50400001928E-02 0. -1.
</event>
<event>
 5   0  0.5642466E-05  0.2262388E+04  0.7818609E-02  0.8492900E-01
        1   -1    0    0  501    0  0.00000000000E+00  0.00000000000E+00  0.93079473220E+03  0.93079473221E+03  0.50400001928E-02 0.  1.
       -1   -1    0    0    0  501  0.00000000000E+00  0.00000000000E+00 -0.13747387649E+04  0.13747387649E+04  0.50400001928E-02 0. -1.
    10030    2    1    2    0    0  0.00000000000E+00  0.00000000000E+00 -0.44394403272E+03  0.23055334971E+04  0.22623877657E+04 0.  0.
        1    1    3    3  502    0 -0.29620130519E+03 -0.10617315220E+04  0.37021520579E+02  0.11028960200E+04  0.50400001928E-02 0.  1.
       -1    1    3    3    0  502  0.29620130519E+03  0.10617315220E+04 -0.48096555330E+03  0.12026374771E+04  0.50400001928E-02 0. -1.
</event>
<event>
 5   0  0.5843670E-05  0.2266389E+04  0.7818609E-02  0.8491293E-01
       -1   -1    0    0    0  501  0.00000000000E+00  0.00000000000E+00  0.11456568469E+04  0.11456568469E+04  0.50400001928E-02 0. -1.
        1   -1    0    0  501    0  0.00000000000E+00  0.00000000000E+00 -0.11208674102E+04  0.11208674102E+04  0.50400001928E-02 0.  1.
    10030    2    1    2    0    0  0.00000000000E+00  0.00000000000E+00  0.24789436688E+02  0.22665242571E+04  0.22663886895E+04 0.  0.
        2    1    3    3  502    0 -0.11266006366E+04 -0.82605690669E+02  0.10227071459E+03  0.11342451206E+04  0.25500000920E-02 0. -1.
       -2    1    3    3    0  502  0.11266006366E+04  0.82605690669E+02 -0.77481277902E+02  0.11322791365E+04  0.25500000920E-02 0.  1.
</event>
<event>
 5   0  0.1281432E-04  0.2290745E+04  0.7818609E-02  0.8481579E-01
        2   -1    0    0  501    0  0.00000000000E+00  0.00000000000E+00  0.11211862072E+04  0.11211862072E+04  0.25500000920E-02 0.  1.
       -2   -1    0    0    0  501  0.00000000000E+00  0.00000000000E+00 -0.11700809738E+04  0.11700809738E+04  0.25500000920E-02 0. -1.
    10030    2    1    2    0    0  0.00000000000E+00  0.00000000000E+00 -0.48894766618E+02  0.22912671811E+04  0.22907454238E+04 0.  0.
        4    1    3    3  502    0  0.72177663509E+03  0.88463905494E+03 -0.11573299307E+03  0.11475815906E+04  0.12699999809E+01 0. -1.
       -4    1    3    3    0  502 -0.72177663509E+03 -0.88463905494E+03  0.66838226448E+02  0.11436855905E+04  0.12699999809E+01 0.  1.
</event>
<event>
 5   0  0.5632156E-05  0.2264464E+04  0.7818609E-02  0.8492066E-01
       -1   -1    0    0    0  501  0.00000000000E+00  0.00000000000E+00  0.10769821905E+04  0.10769821905E+04  0.50400001928E-02 0. -1.
        1   -1    0    0  501    0  0.00000000000E+00  0.00000000000E+00 -0.11903163375E+04  0.11903163375E+04  0.50400001928E-02 0.  1.
    10030    2    1    2    0    0  0.00000000000E+00  0.00000000000E+00 -0.11333414699E+03  0.22672985281E+04  0.22644641720E+04 0.  0.
        4    1    3    3  502    0 -0.28114323521E+03 -0.36822159174E+03 -0.10910716142E+04  0.11853554486E+04  0.12699999809E+01 0.  1.
       -4    1    3    3    0  502  0.28114323521E+03  0.36822159174E+03  0.97773746725E+03  0.10819430794E+04  0.12699999809E+01 0. -1.
</event>
<event>
 5   0  0.5642466E-05  0.1294272E+04  0.7818609E-02  0.9034120E-01
       -1   -1    0    0    0  501  0.00000000000E+00  0.00000000000E+00  0.42541309092E+03  0.42541309094E+03  0.50400001928E-02 0.  1.
        1   -1    0    0  501    0  0.00000000000E+00  0.00000000000E+00 -0.98441939083E+03  0.98441939084E+03  0.50400001928E-02 0. -1.
    10030    2    1    2    0    0  0.00000000000E+00  0.00000000000E+00 -0.55900629991E+03  0.14098324818E+04  0.12942718352E+04 0.  0.
        1    1    3    3  502    0  0.60014049939E+03  0.23522990527E+03 -0.21708820439E+03  0.68016837316E+03  0.50400001928E-02 0.  1.
       -1    1    3    3    0  502 -0.60014049939E+03 -0.23522990527E+03 -0.34191809552E+03  0.72966410862E+03  0.50400001928E-02 0. -1.
</event>
<event>
 5   0  0.1237296E-04  0.2769405E+04  0.7818609E-02  0.8312830E-01
       -2   -1    0    0    0  501  0.00000000000E+00  0.00000000000E+00  0.62589452804E+03  0.62589452805E+03  0.25500000920E-02 0.  1.
        2   -1    0    0  501    0  0.00000000000E+00  0.00000000000E+00 -0.30634580912E+04  0.30634580912E+04  0.25500000920E-02 0. -1.
    10030    2    1    2    0    0  0.00000000000E+00  0.00000000000E+00 -0.24375635631E+04  0.36893526192E+04  0.27694054641E+04 0.  0.
        1    1    3    3  502    0  0.54852806209E+02  0.13364673610E+04 -0.74170463279E+03  0.15294703657E+04  0.50400001928E-02 0. -1.
       -1    1    3    3    0  502 -0.54852806209E+02 -0.13364673610E+04 -0.16958589303E+04  0.21598822535E+04  0.50400001928E-02 0.  1.
</event>
<event>
 5   0  0.1234988E-04  0.1453077E+04  0.7818609E-02  0.8916270E-01
       -2   -1    0    0    0  501  0.00000000000E+00  0.00000000000E+00  0.66746128616E+03  0.66746128617E+03  0.25500000920E-02 0.  1.
        2   -1    0    0  501    0  0.00000000000E+00  0.00000000000E+00 -0.79084467156E+03  0.79084467157E+03  0.25500000920E-02 0. -1.
    10030    2    1    2    0    0  0.00000000000E+00  0.00000000000E+00 -0.12338338540E+03  0.14583059577E+04  0.14530770133E+04 0.  0.
        5    1    3    3  502    0  0.19399945819E+03 -0.69332654950E+03  0.36119875048E+02  0.72087740247E+03  0.46999998093E+01 0.  1.
       -5    1    3    3    0  502 -0.19399945819E+03  0.69332654950E+03 -0.15950326045E+03  0.73742855526E+03  0.46999998093E+01 0. -1.
</event>
<event>
 5   0  0.5632156E-05  0.2281519E+04  0.7818609E-02  0.8485244E-01
       -1   -1    0    0    0  501  0.00000000000E+00  0.00000000000E+00  0.86563155723E+03  0.86563155724E+03  0.50400001928E-02 0.  1.
        1   -1    0    0  501    0  0.00000000000E+00  0.00000000000E+00 -0.15033328039E+04  0.15033328039E+04  0.50400001928E-02 0. -1.
    10030    2    1    2    0    0  0.00000000000E+00  0.00000000000E+00 -0.63770124663E+03  0.23689643611E+04  0.22815190694E+04 0.  0.
        4    1    3    3  502    0 -0.10905388970E+04  0.26844954943E+03 -0.11120986512E+03  0.11285873885E+04  0.12699999809E+01 0.  1.
       -4    1    3    3    0  502  0.10905388970E+04 -0.26844954943E+03 -0.52649138151E+03  0.12403769726E+04  0.12699999809E+01 0. -1.
</event>
<event>
 5   0  0.1281432E-04  0.2306366E+04  0.7818609E-02  0.8475415E-01
       -2   -1    0    0    0  501  0.00000000000E+00  0.00000000000E+00  0.50093703201E+03  0.50093703201E+03  0.25500000920E-02 0.  1.
        2   -1    0    0  501    0  0.00000000000E+00  0.00000000000E+00 -0.26546880685E+04  0.26546880685E+04  0.25500000920E-02 0. -1.
    10030    2    1    2    0    0  0.00000000000E+00  0.00000000000E+00 -0.21537510365E+04  0.31556251005E+04  0.23063664600E+04 0.  0.
        4    1    3    3  502    0 -0.11245728655E+03  0.10330913259E+04 -0.39289284589E+03  0.11109863771E+04  0.12699999809E+01 0.  1.
       -4    1    3    3    0  502  0.11245728655E+03 -0.10330913259E+04 -0.17608581906E+04  0.20446387234E+04  0.12699999809E+01 0. -1.
</event>
<event>
 5   0  0.1270613E-04  0.2287111E+04  0.7818609E-02  0.8483020E-01
        2   -1    0    0  501    0  0.00000000000E+00  0.00000000000E+00  0.16447363786E+04  0.16447363786E+04  0.25500000920E-02 0.  1.
       -2   -1    0    0    0  501  0.00000000000E+00  0.00000000000E+00 -0.79509341673E+03  0.79509341673E+03  0.25500000920E-02 0. -1.
    10030    2    1    2    0    0  0.00000000000E+00  0.00000000000E+00  0.84964296187E+03  0.24398297953E+04  0.22871108997E+04 0.  0.
        2    1    3    3  502    0  0.23635094894E+03  0.36247903364E+03 -0.70438066807E+03  0.82668309917E+03  0.25500000920E-02 0. -1.
       -2    1    3    3    0  502 -0.23635094894E+03 -0.36247903364E+03  0.15540236299E+04  0.16131466962E+04  0.25500000920E-02 0.  1.
</event>
<event>
 5   0  0.5642466E-05  0.2284642E+04  0.7818609E-02  0.8484001E-01
        1   -1    0    0  501    0  0.00000000000E+00  0.00000000000E+00  0.22385374222E+04  0.22385374222E+04  0.50400001928E-02 0. -1.
       -1   -1    0    0    0  501  0.00000000000E+00  0.00000000000E+00 -0.58292422970E+03  0.58292422972E+03  0.50400001928E-02 0.  1.
    10030    2    1    2    0    0  0.00000000000E+00  0.00000000000E+00  0.16556131925E+04  0.28214616519E+04  0.22846423812E+04 0.  0.
        1    1    3    3  502    0 -0.43712120215E+02 -0.95641231515E+03  0.58288901376E+02  0.95918343505E+03  0.50400001928E-02 0.  1.
       -1    1    3    3    0  502  0.43712120215E+02  0.95641231515E+03  0.15973242911E+04  0.18622782169E+04  0.50400001928E-02 0. -1.
</event>
<event>
 5   0  0.1270613E-04  0.2265152E+04  0.7818609E-02  0.8491789E-01
        2   -1    0    0  501    0  0.00000000000E+00  0.00000000000E+00  0.93623756422E+03  0.93623756423E+03  0.25500000920E-02 0.  1.
       -2   -1    0    0    0  501  0.00000000000E+00  0.00000000000E+00 -0.13700886308E+04  0.13700886308E+04  0.25500000920E-02 0. -1.
    10030    2    1    2    0    0  0.00000000000E+00  0.00000000000E+00 -0.43385106662E+03  0.23063261951E+04  0.22651520413E+04 0.  0.
        2    1    3    3  502    0 -0.48182172306E+03 -0.80236658416E+03 -0.86631520446E+03  0.12753220541E+04  0.25500000920E-02 0. -1.
       -2    1    3    3    0  502  0.48182172306E+03  0.80236658416E+03  0.43246413784E+03  0.10310041410E+04  0.25500000920E-02 0.  1.
</event>
<event>
 5   0  0.5843670E-05  0.2228143E+04  0.7818609E-02  0.8506805E-01
       -1   -1    0    0    0  501  0.00000000000E+00  0.00000000000E+00  0.77466001111E+03  0.77466001112E+03  0.50400001928E-02 0. -1.
        1   -1    0    0  501    0  0.00000000000E+00  0.00000000000E+00 -0.16021931195E+04  0.16021931195E+04  0.50400001928E-02 0.  1.
    10030    2    1    2    0    0  0.00000000000E+00  0.00000000000E+00 -0.82753310835E+03  0.23768531306E+04  0.22281426702E+04 0.  0.
        2    1    3    3  502    0  0.44632508964E+03  0.10085324194E+04 -0.58179520917E+03  0.12469279819E+04  0.25500000920E-02 0.  1.
       -2    1    3    3    0  502 -0.44632508964E+03 -0.10085324194E+04 -0.24573789918E+03  0.11299251487E+04  0.25500000920E-02 0. -1.
</event>
<event>
 5   0  0.5632156E-05  0.2305417E+04  0.7818609E-02  0.8475788E-01
        1   -1    0    0  501    0  0.00000000000E+00  0.00000000000E+00  0.21210287909E+04  0.21210287909E+04  0.50400001928E-02 0. -1.
       -1   -1    0    0    0  501  0.00000000000E+00  0.00000000000E+00 -0.62645879810E+03  0.62645879812E+03  0.50400001928E-02 0.  1.
    10030    2    1    2    0    0  0.00000000000E+00  0.00000000000E+00  0.14945699928E+04  0.27474875890E+04  0.23054172266E+04 0.  0.
        4    1    3    3  502    0  0.36298132350E+03  0.61229489172E+03 -0.33325772282E+03  0.78595343268E+03  0.12699999809E+01 0.  1.
       -4    1    3    3    0  502 -0.36298132350E+03 -0.61229489172E+03  0.18278277156E+04  0.19615341564E+04  0.12699999809E+01 0. -1.
</event>
<event>
 5   0  0.1237296E-04  0.2327763E+04  0.7818609E-02  0.8467054E-01
       -2   -1    0    0    0  501  0.00000000000E+00  0.00000000000E+00  0.63607859594E+03  0.63607859595E+03  0.25500000920E-02 0. -1.
        2   -1    0    0  501    0  0.00000000000E+00  0.00000000000E+00 -0.21296433073E+04  0.21296433073E+04  0.25500000920E-02 0.  1.
    10030    2    1    2    0    0  0.00000000000E+00  0.00000000000E+00 -0.14935647113E+04  0.27657219032E+04  0.23277633254E+04 0.  0.
        1    1    3    3  502    0 -0.11540743942E+04  0.10587764847E+03 -0.87432270002E+03  0.14517361908E+04  0.50400001928E-02 0.  1.
       -1    1    3    3    0  502  0.11540743942E+04 -0.10587764847E+03 -0.61924201131E+03  0.13139857124E+04  0.50400001928E-02 0. -1.
</event>
<event>
 5   0  0.1270613E-04  0.2287166E+04  0.7818609E-02  0.8482998E-01
        2   -1    0    0  501    0  0.00000000000E+00  0.00000000000E+00  0.16030177168E+04  0.16030177168E+04  0.25500000920E-02 0. -1.
       -2   -1    0    0    0  501  0.00000000000E+00  0.00000000000E+00 -0.81582532587E+03  0.81582532588E+03  0.25500000920E-02 0.  1.
    10030    2    1    2    0    0  0.00000000000E+00  0.00000000000E+00  0.78719239088E+03  0.24188430426E+04  0.22871663264E+04 0.  0.
        2    1    3    3  502    0  0.30698453122E+03  0.95744908486E+02  0.15542186299E+04  0.15871364590E+04  0.25500000920E-02 0. -1.
       -2    1    3    3    0  502 -0.30698453122E+03 -0.95744908486E+02 -0.76702623903E+03  0.83170658364E+03  0.25500000920E-02 0.  1.
</event>
<event>
 5   0  0.5642466E-05  0.2391710E+04  0.7818609E-02  0.8442614E-01
        1   -1    0    0  501    0  0.00000000000E+00  0.00000000000E+00  0.11512662113E+04  0.11512662113E+04  0.50400001928E-02 0.  1.
       -1   -1    0    0    0  501  0.00000000000E+00  0.00000000000E+00 -0.12421706731E+04  0.12421706731E+04  0.50400001928E-02 0. -1.
    10030    2    1    2    0    0  0.00000000000E+00  0.00000000000E+00 -0.90904461784E+02  0.23934368844E+04  0.23917099529E+04 0.  0.
        1    1    3    3  502    0 -0.78354599992E+03 -0.61931922720E+03  0.61272204861E+03  0.11717205077E+04  0.50400001928E-02 0.  1.
       -1    1    3    3    0  502  0.78354599992E+03  0.61931922720E+03 -0.70362651040E+03  0.12217163768E+04  0.50400001928E-02 0. -1.
</event>
<event>
 5   0  0.5843670E-05  0.2393699E+04  0.7818609E-02  0.8441866E-01
       -1   -1    0    0    0  501  0.00000000000E+00  0.00000000000E+00  0.11232469580E+04  0.11232469581E+04  0.50400001928E-02 0.  1.
        1   -1    0    0  501    0  0.00000000000E+00  0.00000000000E+00 -0.12752749139E+04  0.12752749140E+04  0.50400001928E-02 0. -1.
    10030    2    1    2    0    0  0.00000000000E+00  0.00000000000E+00 -0.15202795590E+03  0.23985218720E+04  0.23936989516E+04 0.  0.
        2    1    3    3  502    0 -0.65426294780E+02  0.77477309526E+03  0.83570650019E+03  0.11414724279E+04  0.25500000920E-02 0.  1.
       -2    1    3    3    0  502  0.65426294780E+02 -0.77477309526E+03 -0.98773445609E+03  0.12570494441E+04  0.25500000920E-02 0. -1.
</event>
<event>
 5   0  0.1237296E-04  0.1304118E+04  0.7818609E-02  0.9026306E-01
        2   -1    0    0  501    0  0.00000000000E+00  0.00000000000E+00  0.11241287647E+04  0.11241287647E+04  0.25500000920E-02 0. -1.
       -2   -1    0    0    0  501  0.00000000000E+00  0.00000000000E+00 -0.37823175995E+03  0.37823175996E+03  0.25500000920E-02 0.  1.
    10030    2    1    2    0    0  0.00000000000E+00  0.00000000000E+00  0.74589700470E+03  0.15023605246E+04  0.13041184012E+04 0.  0.
        1    1    3    3  502    0 -0.73420124866E+02 -0.15959547240E+03  0.10963535383E+04  0.11103388269E+04  0.50400001928E-02 0. -1.
       -1    1    3    3    0  502  0.73420124866E+02  0.15959547240E+03 -0.35045653358E+03  0.39202169774E+03  0.50400001928E-02 0.  1.
</event>
<event>
 5   0  0.5843670E-05  0.1893627E+04  0.7818609E-02  0.8658035E-01
        1   -1    0    0  501    0  0.00000000000E+00  0.00000000000E+00  0.13627387513E+04  0.13627387513E+04  0.50400001928E-02 0.  1.
       -1   -1    0    0    0  501  0.00000000000E+00  0.00000000000E+00 -0.65783370069E+03  0.65783370071E+03  0.50400001928E-02 0. -1.
    10030    2    1    2    0    0  0.00000000000E+00  0.00000000000E+00  0.70490505063E+03  0.20205724520E+04  0.18936266537E+04 0.  0.
        2    1    3    3  502    0 -0.27561788190E+03  0.40028884958E+03  0.12194887971E+04  0.13127639949E+04  0.25500000920E-02 0.  1.
       -2    1    3    3    0  502  0.27561788190E+03 -0.40028884958E+03 -0.51458374647E+03  0.70780845719E+03  0.25500000920E-02 0. -1.
</event>
<event>
 5   0  0.5663790E-05  0.2243367E+04  0.7818609E-02  0.8500592E-01
        1   -1    0    0  501    0  0.00000000000E+00  0.00000000000E+00  0.18753874460E+04  0.18753874461E+04  0.50400001928E-02 0. -1.
       -1   -1    0    0    0  501  0.00000000000E+00  0.00000000000E+00 -0.67088715106E+03  0.67088715108E+03  0.50400001928E-02 0.  1.
    10030    2    1    2    0    0  0.00000000000E+00  0.00000000000E+00  0.12045002950E+04  0.25462745971E+04  0.22433665245E+04 0.  0.
        3    1    3    3  502    0 -0.11999486840E+03  0.68927280151E+03 -0.39287363549E+03  0.80239981743E+03  0.10100000352E+00 0.  1.
       -3    1    3    3    0  502  0.11999486840E+03 -0.68927280151E+03  0.15973739305E+04  0.17438747797E+04  0.10100000352E+00 0. -1.
</event>
<event>
 5   0  0.1281432E-04  0.2002725E+04  0.7818609E-02  0.8605348E-01
        2   -1    0    0  501    0  0.00000000000E+00  0.00000000000E+00  0.11065956495E+04  0.11065956495E+04  0.25500000920E-02 0. -1.
       -2   -1    0    0    0  501  0.00000000000E+00  0.00000000000E+00 -0.90613657480E+03  0.90613657481E+03  0.25500000920E-02 0.  1.
    10030    2    1    2    0    0  0.00000000000E+00  0.00000000000E+00  0.20045907469E+03  0.20127322243E+04  0.20027249352E+04 0.  0.
        4    1    3    3  502    0  0.82250377773E+03  0.11206551252E+03 -0.46261717577E+03  0.95030911165E+03  0.12699999809E+01 0.  1.
       -4    1    3    3    0  502 -0.82250377773E+03 -0.11206551252E+03  0.66307625046E+03  0.10624231126E+04  0.12699999809E+01 0. -1.
</event>
<event>
 5   0  0.1281432E-04  0.2277374E+04  0.7818609E-02  0.8486896E-01
       -2   -1    0    0    0  501  0.00000000000E+00  0.00000000000E+00  0.98799724911E+03  0.98799724911E+03  0.25500000920E-02 0. -1.
        2   -1    0    0  501    0  0.00000000000E+00  0.00000000000E+00 -0.13123600191E+04  0.13123600191E+04  0.25500000920E-02 0.  1.
    10030    2    1    2    0    0  0.00000000000E+00  0.00000000000E+00 -0.32436277000E+03  0.23003572682E+04  0.22773740042E+04 0.  0.
        4    1    3    3  502    0  0.16623381784E+03 -0.80232327063E+03 -0.96088902625E+03  0.12628007153E+04  0.12699999809E+01 0.  1.
       -4    1    3    3    0  502 -0.16623381784E+03  0.80232327063E+03  0.63652625626E+03  0.10375565530E+04  0.12699999809E+01 0. -1.
</event>
<event>
 5   0  0.1281432E-04  0.2045101E+04  0.7818609E-02  0.8585820E-01
        2   -1    0    0  501    0  0.00000000000E+00  0.00000000000E+00  0.79897651022E+03  0.79897651023E+03  0.25500000920E-02 0.  1.
       -2   -1    0    0    0  501  0.00000000000E+00  0.00000000000E+00 -0.13086858773E+04  0.13086858773E+04  0.25500000920E-02 0. -1.
    10030    2    1    2    0    0  0.00000000000E+00  0.00000000000E+00 -0.50970936710E+03  0.21076623876E+04  0.20451007557E+04 0.  0.
        4    1    3    3  502    0 -0.99237954863E+03  0.23022902478E+03 -0.16392238818E+03  0.10318404599E+04  0.12699999809E+01 0.  1.
       -4    1    3    3    0  502  0.99237954863E+03 -0.23022902478E+03 -0.34578697892E+03  0.10758219277E+04  0.12699999809E+01 0. -1.
</event>
<event>
 5   0  0.1257524E-04  0.2274392E+04  0.7818609E-02  0.8488087E-01
       -2   -1    0    0    0  501  0.00000000000E+00  0.00000000000E+00  0.10390044902E+04  0.10390044902E+04  0.25500000920E-02 0. -1.
        2   -1    0    0  501    0  0.00000000000E+00  0.00000000000E+00 -0.12446674204E+04  0.12446674204E+04  0.25500000920E-02 0.  1.
    10030    2    1    2    0    0  0.00000000000E+00  0.00000000000E+00 -0.20566293019E+03  0.22836719106E+04  0.22743922605E+04 0.  0.
        3    1    3    3  502    0 -0.32473791800E+02  0.48806985577E+01  0.10385283172E+04  0.10390473734E+04  0.10100000352E+00 0. -1.
       -3    1    3    3    0  502  0.32473791800E+02 -0.48806985577E+01 -0.12441912474E+04  0.12446245372E+04  0.10100000352E+00 0.  1.
</event>
<event>
 5   0  0.5642466E-05  0.2145885E+04  0.7818609E-02  0.8541296E-01
        1   -1    0    0  501    0  0.00000000000E+00  0.00000000000E+00  0.16835878160E+04  0.16835878160E+04  0.50400001928E-02 0.  1.
       -1   -1    0    0    0  501  0.00000000000E+00  0.00000000000E+00 -0.68378100737E+03  0.68378100739E+03  0.50400001928E-02 0. -1.
    10030    2    1    2    0    0  0.00000000000E+00  0.00000000000E+00  0.99980680866E+03  0.23673688234E+04  0.21458847806E+04 0.  0.
        1    1    3    3  502    0  0.42128432494E+03 -0.24835937210E+03  0.15534823071E+04  0.16286405799E+04  0.50400001928E-02 0.  1.
       -1    1    3    3    0  502 -0.42128432494E+03  0.24835937210E+03 -0.55367549843E+03  0.73872824349E+03  0.50400001928E-02 0. -1.
</event>
<event>
 5   0  0.1270613E-04  0.1464701E+04  0.7818609E-02  0.8908271E-01
        2   -1    0    0  501    0  0.00000000000E+00  0.00000000000E+00  0.14116201890E+04  0.14116201890E+04  0.25500000920E-02 0.  1.
       -2   -1    0    0    0  501  0.00000000000E+00  0.00000000000E+00 -0.37994465362E+03  0.37994465363E+03  0.25500000920E-02 0. -1.
    10030    2    1    2    0    0  0.00000000000E+00  0.00000000000E+00  0.10316755354E+04  0.17915648426E+04  0.14647013945E+04 0.  0.
        2    1    3    3  502    0 -0.29664424766E+03 -0.18305482149E+03 -0.27196746913E+03  0.44212349136E+03  0.25500000920E-02 0. -1.
       -2    1    3    3    0  502  0.29664424766E+03  0.18305482149E+03  0.13036430045E+04  0.13494413513E+04  0.25500000920E-02 0.  1.
</event>
<event>
 5   0  0.1237296E-04  0.2185257E+04  0.7818609E-02  0.8524589E-01
       -2   -1    0    0    0  501  0.00000000000E+00  0.00000000000E+00  0.63159023629E+03  0.63159023630E+03  0.25500000920E-02 0. -1.
        2   -1    0    0  501    0  0.00000000000E+00  0.00000000000E+00 -0.18902090066E+04  0.18902090066E+04  0.25500000920E-02 0.  1.
    10030    2    1    2    0    0  0.00000000000E+00  0.00000000000E+00 -0.12586187703E+04  0.25217992429E+04  0.21852574705E+04 0.  0.
        1    1    3    3  502    0  0.53248047894E+03  0.29626385060E+03 -0.16759165976E+04  0.17832566197E+04  0.50400001928E-02 0.  1.
       -1    1    3    3    0  502 -0.53248047894E+03 -0.29626385060E+03  0.41729782727E+03  0.73854262321E+03  0.50400001928E-02 0. -1.
</event>
<event>
 5   0  0.5843670E-05  0.1341853E+04  0.7818609E-02  0.8997018E-01
       -1   -1    0    0    0  501  0.00000000000E+00  0.00000000000E+00  0.36718588698E+03  0.36718588701E+03  0.50400001928E-02 0. -1.
        1   -1    0    0  501    0  0.00000000000E+00  0.00000000000E+00 -0.12259245994E+04  0.12259245994E+04  0.50400001928E-02 0.  1.
    10030    2    1    2    0    0  0.00000000000E+00  0.00000000000E+00 -0.85873871239E+03  0.15931104864E+04  0.13418527660E+04 0.  0.
        2    1    3    3  502    0 -0.20855484651E+03 -0.13071983238E+03  0.31164714968E+03  0.39712308481E+03  0.25500000920E-02 0. -1.
       -2    1    3    3    0  502  0.20855484651E+03  0.13071983238E+03 -0.11703858621E+04  0.11959874016E+04  0.25500000920E-02 0.  1.
</event>
<event>
 5   0  0.5843670E-05  0.2210260E+04  0.7818609E-02  0.8514170E-01
       -1   -1    0    0    0  501  0.00000000000E+00  0.00000000000E+00  0.65301676792E+03  0.65301676794E+03  0.50400001928E-02 0. -1.
        1   -1    0    0  501    0  0.00000000000E+00  0.00000000000E+00 -0.18702617565E+04  0.18702617565E+04  0.50400001928E-02 0.  1.
    10030    2    1    2    0    0  0.00000000000E+00  0.00000000000E+00 -0.12172449886E+04  0.25232785245E+04  0.22102599733E+04 0.  0.
        2    1    3    3  502    0 -0.60791154899E+02 -0.89241114230E+03 -0.13495502227E+04  0.16190673288E+04  0.25500000920E-02 0.  1.
       -2    1    3    3    0  502  0.60791154899E+02  0.89241114230E+03  0.13230523414E+03  0.90421119569E+03  0.25500000920E-02 0. -1.
</event>
<event>
 5   0  0.1281432E-04  0.1807507E+04  0.7818609E-02  0.8702318E-01
       -2   -1    0    0    0  501  0.00000000000E+00  0.00000000000E+00  0.61147027887E+03  0.61147027888E+03  0.25500000920E-02 0.  1.
        2   -1    0    0  501    0  0.00000000000E+00  0.00000000000E+00 -0.13357476739E+04  0.13357476739E+04  0.25500000920E-02 0. -1.
    10030    2    1    2    0    0  0.00000000000E+00  0.00000000000E+00 -0.72427739507E+03  0.19472179528E+04  0.18075065728E+04 0.  0.
        4    1    3    3  502    0  0.71121281582E+03 -0.30659636910E+03  0.13963499472E+03  0.78697175780E+03  0.12699999809E+01 0.  1.
       -4    1    3    3    0  502 -0.71121281582E+03  0.30659636910E+03 -0.86391238979E+03  0.11602461950E+04  0.12699999809E+01 0. -1.
</event>
<event>
 5   0  0.1281432E-04  0.2275374E+04  0.7818609E-02  0.8487695E-01
       -2   -1    0    0    0  501  0.00000000000E+00  0.00000000000E+00  0.11156730359E+04  0.11156730359E+04  0.25500000920E-02 0.  1.
        2   -1    0    0  501    0  0.00000000000E+00  0.00000000000E+00 -0.11601350666E+04  0.11601350666E+04  0.25500000920E-02 0. -1.
    10030    2    1    2    0    0  0.00000000000E+00  0.00000000000E+00 -0.44462030672E+02  0.22758081025E+04  0.22753737380E+04 0.  0.
        4    1    3    3  502    0 -0.99324583193E+03 -0.25276104813E+03 -0.51619204569E+03  0.11475544741E+04  0.12699999809E+01 0. -1.
       -4    1    3    3    0  502  0.99324583193E+03  0.25276104813E+03  0.47173001502E+03  0.11282536284E+04  0.12699999809E+01 0.  1.
</event>
<event>
 5   0  0.1281432E-04  0.2365061E+04  0.7818609E-02  0.8452701E-01
        2   -1    0    0  501    0  0.00000000000E+00  0.00000000000E+00  0.22440137131E+04  0.22440137131E+04  0.25500000920E-02 0.  1.
       -2   -1    0    0    0  501  0.00000000000E+00  0.00000000000E+00 -0.62315951136E+03  0.62315951137E+03  0.25500000920E-02 0. -1.
    10030    2    1    2    0    0  0.00000000000E+00  0.00000000000E+00  0.16208542018E+04  0.28671732245E+04  0.23650610893E+04 0.  0.
        4    1    3    3  502    0 -0.86397083134E+03 -0.35572414266E+03  0.16891524140E+04  0.19303426519E+04  0.12699999809E+01 0.  1.
       -4    1    3    3    0  502  0.86397083134E+03  0.35572414266E+03 -0.68298212240E+02  0.93683057261E+03  0.12699999809E+01 0. -1.
</event>
<event>
 5   0  0.5663790E-05  0.2288780E+04  0.7818609E-02  0.8482358E-01
        1   -1    0    0  501    0  0.00000000000E+00  0.00000000000E+00  0.20504843044E+04  0.20504843044E+04  0.50400001928E-02 0. -1.
       -1   -1    0    0    0  501  0.00000000000E+00  0.00000000000E+00 -0.63869229389E+03  0.63869229391E+03  0.50400001928E-02 0.  1.
    10030    2    1    2    0    0  0.00000000000E+00  0.00000000000E+00  0.14117920105E+04  0.26891765983E+04  0.22887800453E+04 0.  0.
        3    1    3    3  502    0 -0.12644017770E+03  0.11207408886E+04  0.47812370433E+03  0.12250100183E+04  0.10100000352E+00 0.  1.
       -3    1    3    3    0  502  0.12644017770E+03 -0.11207408886E+04  0.93366830614E+03  0.14641665800E+04  0.10100000352E+00 0. -1.
</event>
<event>
 5   0  0.5663790E-05  0.2170070E+04  0.7818609E-02  0.8530990E-01
       -1   -1    0    0    0  501  0.00000000000E+00  0.00000000000E+00  0.51967493019E+03  0.51967493021E+03  0.50400001928E-02 0.  1.
        1   -1    0    0  501    0  0.00000000000E+00  0.00000000000E+00 -0.22654554614E+04  0.22654554614E+04  0.50400001928E-02 0. -1.
    10030    2    1    2    0    0  0.00000000000E+00  0.00000000000E+00 -0.17457805312E+04  0.27851303916E+04  0.21700695001E+04 0.  0.
        3    1    3    3  502    0 -0.61054435710E+03  0.86559244621E+03 -0.11746618271E+04  0.15817221985E+04  0.10100000352E+00 0. -1.
       -3    1    3    3    0  502  0.61054435710E+03 -0.86559244621E+03 -0.57111870414E+03  0.12034081932E+04  0.10100000352E+00 0.  1.
</event>
<event>
 5   0  0.1270613E-04  0.2205773E+04  0.7818609E-02  0.8516029E-01
       -2   -1    0    0    0  501  0.00000000000E+00  0.00000000000E+00  0.80870889313E+03  0.80870889313E+03  0.25500000920E-02 0.  1.
        2   -1    0    0  501    0  0.00000000000E+00  0.00000000000E+00 -0.15040750889E+04  0.15040750889E+04  0.25500000920E-02 0. -1.
    10030    2    1    2    0    0  0.00000000000E+00  0.00000000000E+00 -0.69536619576E+03  0.23127839820E+04  0.22057732434E+04 0.  0.
        2    1    3    3  502    0 -0.50641739264E+02 -0.45450066979E+03  0.70461096948E+03  0.84000718027E+03  0.25500000920E-02 0.  1.
       -2    1    3    3    0  502  0.50641739264E+02  0.45450066979E+03 -0.13999771652E+04  0.14727768018E+04  0.25500000920E-02 0. -1.
</event>
<event>
 5   0  0.5843670E-05  0.2203379E+04  0.7818609E-02  0.8517023E-01
        1   -1    0    0  501    0  0.00000000000E+00  0.00000000000E+00  0.12939309854E+04  0.12939309854E+04  0.50400001928E-02 0.  1.
       -1   -1    0    0    0  501  0.00000000000E+00  0.00000000000E+00 -0.93800966082E+03  0.93800966084E+03  0.50400001928E-02 0. -1.
    10030    2    1    2    0    0  0.00000000000E+00  0.00000000000E+00  0.35592132458E+03  0.22319406463E+04  0.22033790094E+04 0.  0.
        2    1    3    3  502    0 -0.34144554469E+03 -0.83564536851E+03  0.81767807467E+03  0.12179842674E+04  0.25500000920E-02 0.  1.
       -2    1    3    3    0  502  0.34144554469E+03  0.83564536851E+03 -0.46175675009E+03  0.10139563788E+04  0.25500000920E-02 0. -1.
</event>
<event>
 5   0  0.5843670E-05  0.2325688E+04  0.7818609E-02  0.8467861E-01
       -1   -1    0    0    0  501  0.00000000000E+00  0.00000000000E+00  0.68627772708E+03  0.68627772710E+03  0.50400001928E-02 0.  1.
        1   -1    0    0  501    0  0.00000000000E+00  0.00000000000E+00 -0.19703476297E+04  0.19703476297E+04  0.50400001928E-02 0. -1.
    10030    2    1    2    0    0  0.00000000000E+00  0.00000000000E+00 -0.12840699026E+04  0.26566253568E+04  0.23256875911E+04 0.  0.
        2    1    3    3  502    0  0.41291218642E+03 -0.51004734595E+03 -0.17386165747E+04  0.18583412933E+04  0.25500000920E-02 0. -1.
       -2    1    3    3    0  502 -0.41291218642E+03  0.51004734595E+03  0.45454667209E+03  0.79828406343E+03  0.25500000920E-02 0.  1.
</event>
<event>
 5   0  0.5642466E-05  0.2350526E+04  0.7818609E-02  0.8458262E-01
       -1   -1    0    0    0  501  0.00000000000E+00  0.00000000000E+00  0.15599762410E+04  0.15599762410E+04  0.50400001928E-02 0. -1.
        1   -1    0    0  501    0  0.00000000000E+00  0.00000000000E+00 -0.88542571512E+03  0.88542571513E+03  0.50400001928E-02 0.  1.
    10030    2    1    2    0    0  0.00000000000E+00  0.00000000000E+00  0.67455052589E+03  0.24454019562E+04  0.23505259656E+04 0.  0.
        1    1    3    3  502    0  0.65699501897E+03  0.73787224986E+03  0.99947733190E+03  0.14053657350E+04  0.50400001928E-02 0. -1.
       -1    1    3    3    0  502 -0.65699501897E+03 -0.73787224986E+03 -0.32492680601E+03  0.10400362212E+04  0.50400001928E-02 0.  1.
</event>
<event>
 5   0  0.1270613E-04  0.2144073E+04  0.7818609E-02  0.8542074E-01
        2   -1    0    0  501    0  0.00000000000E+00  0.00000000000E+00  0.10508541544E+04  0.10508541544E+04  0.25500000920E-02 0. -1.
       -2   -1    0    0    0  501  0.00000000000E+00  0.00000000000E+00 -0.10936458115E+04  0.10936458115E+04  0.25500000920E-02 0.  1.
    10030    2    1    2    0    0  0.00000000000E+00  0.00000000000E+00 -0.42791657190E+02  0.21444999659E+04  0.21440729880E+04 0.  0.
        2    1    3    3  502    0 -0.88270463754E+03 -0.16298854127E+03 -0.60762644840E+03  0.10839477121E+04  0.25500000920E-02 0.  1.
       -2    1    3    3    0  502  0.88270463754E+03  0.16298854127E+03  0.56483479121E+03  0.10605522538E+04  0.25500000920E-02 0. -1.
</event>
<event>
 5   0  0.1281432E-04  0.2220327E+04  0.7818609E-02  0.8510015E-01
        2   -1    0    0  501    0  0.00000000000E+00  0.00000000000E+00  0.26165666342E+04  0.26165666342E+04  0.25500000920E-02 0.  1.
       -2   -1    0    0    0  501  0.00000000000E+00  0.00000000000E+00 -0.47102280720E+03  0.47102280720E+03  0.25500000920E-02 0. -1.
    10030    2    1    2    0    0  0.00000000000E+00  0.00000000000E+00  0.21455438270E+04  0.30875894414E+04  0.22203266077E+04 0.  0.
        4    1    3    3  502    0 -0.83711398869E+03  0.72901111480E+03  0.10944899201E+04  0.15588864082E+04  0.12699999809E+01 0.  1.
       -4    1    3    3    0  502  0.83711398869E+03 -0.72901111480E+03  0.10510539069E+04  0.15287030332E+04  0.12699999809E+01 0. -1.
</event>
<event>
 5   0  0.5642466E-05  0.2238837E+04  0.7818609E-02  0.8502435E-01
        1   -1    0    0  501    0  0.00000000000E+00  0.00000000000E+00  0.11159376919E+04  0.11159376919E+04  0.50400001928E-02 0. -1.
       -1   -1    0    0    0  501  0.00000000000E+00  0.00000000000E+00 -0.11229102751E+04  0.11229102751E+04  0.50400001928E-02 0.  1.
    10030    2    1    2    0    0  0.00000000000E+00  0.00000000000E+00 -0.69725832370E+01  0.22388479670E+04  0.22388371094E+04 0.  0.
        1    1    3    3  502    0 -0.43055273231E+03 -0.79273977194E+03  0.65930338852E+03  0.11173598165E+04  0.50400001928E-02 0. -1.
       -1    1    3    3    0  502  0.43055273231E+03  0.79273977194E+03 -0.66627597176E+03  0.11214881506E+04  0.50400001928E-02 0.  1.
</event>
<event>
 5   0  0.1237296E-04  0.2319474E+04  0.7818609E-02  0.8470282E-01
       -2   -1    0    0    0  501  0.00000000000E+00  0.00000000000E+00  0.97965186643E+03  0.97965186643E+03  0.25500000920E-02 0.  1.
        2   -1    0    0  501    0  0.00000000000E+00  0.00000000000E+00 -0.13729265309E+04  0.13729265309E+04  0.25500000920E-02 0. -1.
    10030    2    1    2    0    0  0.00000000000E+00  0.00000000000E+00 -0.39327466443E+03  0.23525783973E+04  0.23194741115E+04 0.  0.
        1    1    3    3  502    0 -0.11328479149E+04 -0.12533669215E+03 -0.41402396461E+03  0.12126291799E+04  0.50400001928E-02 0. -1.
       -1    1    3    3    0  502  0.11328479149E+04  0.12533669215E+03  0.20749300177E+02  0.11399492174E+04  0.50400001928E-02 0.  1.
</event>
<event>
 5   0  0.5843670E-05  0.2175008E+04  0.7818609E-02  0.8528903E-01
        1   -1    0    0  501    0  0.00000000000E+00  0.00000000000E+00  0.92114331819E+03  0.92114331821E+03  0.50400001928E-02 0.  1.
       -1   -1    0    0    0  501  0.00000000000E+00  0.00000000000E+00 -0.12839102002E+04  0.12839102002E+04  0.50400001928E-02 0. -1.
    10030    2    1    2    0    0  0.00000000000E+00  0.00000000000E+00 -0.36276688201E+03  0.22050535184E+04  0.21750083238E+04 0.  0.
        2    1    3    3  502    0 -0.64713606397E+03 -0.86321752366E+03 -0.42614125162E+02  0.10796969677E+04  0.25500000920E-02 0.  1.
       -2    1    3    3    0  502  0.64713606397E+03  0.86321752366E+03 -0.32015275685E+03  0.11253565507E+04  0.25500000920E-02 0. -1.
</event>
<event>
 5   0  0.5632156E-05  0.2335530E+04  0.7818609E-02  0.8464043E-01
        1   -1    0    0  501    0  0.00000000000E+00  0.00000000000E+00  0.12707320884E+04  0.12707320884E+04  0.50400001928E-02 0. -1.
       -1   -1    0    0    0  501  0.00000000000E+00  0.00000000000E+00 -0.10731410569E+04  0.10731410569E+04  0.50400001928E-02 0.  1.
    10030    2    1    2    0    0  0.00000000000E+00  0.00000000000E+00  0.19759103155E+03  0.23438731453E+04  0.23355297270E+04 0.  0.
        4    1    3    3  502    0 -0.86006680382E+03  0.41652166932E+03 -0.57477125667E+03  0.11151541680E+04  0.12699999809E+01 0.  1.
       -4    1    3    3    0  502  0.86006680382E+03 -0.41652166932E+03  0.77236228822E+03  0.12287189773E+04  0.12699999809E+01 0. -1.
</event>
<event>
 5   0  0.5642466E-05  0.2295264E+04  0.7818609E-02  0.8479791E-01
        1   -1    0    0  501    0  0.00000000000E+00  0.00000000000E+00  0.11386849123E+04  0.11386849123E+04  0.50400001928E-02 0.  1.
       -1   -1    0    0    0  501  0.00000000000E+00  0.00000000000E+00 -0.11566492499E+04  0.11566492499E+04  0.50400001928E-02 0. -1.
    10030    2    1    2    0    0  0.00000000000E+00  0.00000000000E+00 -0.17964337654E+02  0.22953341622E+04  0.22952638626E+04 0.  0.
        1    1    3    3  502    0  0.20317230015E+02 -0.29020442497E+03 -0.11191637516E+04  0.11563558713E+04  0.50400001928E-02 0. -1.
       -1    1    3    3    0  502 -0.20317230015E+02  0.29020442497E+03  0.11011994139E+04  0.11389782910E+04  0.50400001928E-02 0.  1.
</event>
<event>
 5   0  0.5642466E-05  0.2330087E+04  0.7818609E-02  0.8466152E-01
       -1   -1    0    0    0  501  0.00000000000E+00  0.00000000000E+00  0.13424289616E+04  0.13424289616E+04  0.50400001928E-02 0.  1.
        1   -1    0    0  501    0  0.00000000000E+00  0.00000000000E+00 -0.10110974407E+04  0.10110974407E+04  0.50400001928E-02 0. -1.
    10030    2    1    2    0    0  0.00000000000E+00  0.00000000000E+00  0.33133152090E+03  0.23535264024E+04  0.23300871121E+04 0.  0.
        1    1    3    3  502    0  0.72760846924E+03  0.36560873958E+03  0.10072596294E+04  0.12952435277E+04  0.50400001928E-02 0.  1.
       -1    1    3    3    0  502 -0.72760846924E+03 -0.36560873958E+03 -0.67592810849E+03  0.10582828747E+04  0.50400001928E-02 0. -1.
</event>
<event>
 5   0  0.5642466E-05  0.2318266E+04  0.7818609E-02  0.8470754E-01
        1   -1    0    0  501    0  0.00000000000E+00  0.00000000000E+00  0.13885695381E+04  0.13885695381E+04  0.50400001928E-02 0.  1.
       -1   -1    0    0    0  501  0.00000000000E+00  0.00000000000E+00 -0.96760698907E+03  0.96760698909E+03  0.50400001928E-02 0. -1.
    10030    2    1    2    0    0  0.00000000000E+00  0.00000000000E+00  0.42096254904E+03  0.23561765272E+04  0.23182662400E+04 0.  0.
        1    1    3    3  502    0 -0.31280700481E+02  0.41016712908E+03 -0.89092547718E+03  0.98130717001E+03  0.50400001928E-02 0. -1.
       -1    1    3    3    0  502  0.31280700481E+02 -0.41016712908E+03  0.13118880262E+04  0.13748693572E+04  0.50400001928E-02 0.  1.
</event>
<event>
 5   0  0.5843670E-05  0.2404983E+04  0.7818609E-02  0.8437640E-01
        1   -1    0    0  501    0  0.00000000000E+00  0.00000000000E+00  0.13111689989E+04  0.13111689990E+04  0.50400001928E-02 0.  1.
       -1   -1    0    0    0  501  0.00000000000E+00  0.00000000000E+00 -0.11028217352E+04  0.11028217353E+04  0.50400001928E-02 0. -1.
    10030    2    1    2    0    0  0.00000000000E+00  0.00000000000E+00  0.20834726370E+03  0.24139907342E+04  0.24049828861E+04 0.  0.
        2    1    3    3  502    0  0.49357864823E+03 -0.10497628129E+04 -0.21381545206E+03  0.11795502926E+04  0.25500000920E-02 0. -1.
       -2    1    3    3    0  502 -0.49357864823E+03  0.10497628129E+04  0.42216271576E+03  0.12344404416E+04  0.25500000920E-02 0.  1.
</event>
<event>
 5   0  0.5632156E-05  0.2483570E+04  0.7818609E-02  0.8408862E-01
       -1   -1    0    0    0  501  0.00000000000E+00  0.00000000000E+00  0.21188319035E+04  0.21188319036E+04  0.50400001928E-02 0. -1.
        1   -1    0    0  501    0  0.00000000000E+00  0.00000000000E+00 -0.72777338669E+03  0.72777338671E+03  0.50400001928E-02 0.  1.
    10030    2    1    2    0    0  0.00000000000E+00  0.00000000000E+00  0.13910585169E+04  0.28466052903E+04  0.24835695845E+04 0.  0.
        4    1    3    3  502    0 -0.39713812636E+03 -0.11752923043E+04  0.63278033510E+03  0.13926389544E+04  0.12699999809E+01 0.  1.
       -4    1    3    3    0  502  0.39713812636E+03  0.11752923043E+04  0.75827818176E+03  0.14539663359E+04  0.12699999809E+01 0. -1.
</event>
<event>
 5   0  0.1270613E-04  0.1829457E+04  0.7818609E-02  0.8690790E-01
       -2   -1    0    0    0  501  0.00000000000E+00  0.00000000000E+00  0.36765387978E+03  0.36765387979E+03  0.25500000920E-02 0. -1.
        2   -1    0    0  501    0  0.00000000000E+00  0.00000000000E+00 -0.22758580707E+04  0.22758580707E+04  0.25500000920E-02 0.  1.
    10030    2    1    2    0    0  0.00000000000E+00  0.00000000000E+00 -0.19082041909E+04  0.26435119505E+04  0.18294568041E+04 0.  0.
        2    1    3    3  502    0  0.56426651993E+03 -0.59337115682E+03 -0.15432570233E+04  0.17470341368E+04  0.25500000920E-02 0.  1.
       -2    1    3    3    0  502 -0.56426651993E+03  0.59337115682E+03 -0.36494716766E+03  0.89647781369E+03  0.25500000920E-02 0. -1.
</event>
<event>
 5   0  0.5843670E-05  0.2233373E+04  0.7818609E-02  0.8504665E-01
       -1   -1    0    0    0  501  0.00000000000E+00  0.00000000000E+00  0.88655672359E+03  0.88655672360E+03  0.50400001928E-02 0.  1.
        1   -1    0    0  501    0  0.00000000000E+00  0.00000000000E+00 -0.14065525044E+04  0.14065525044E+04  0.50400001928E-02 0. -1.
    10030    2    1    2    0    0  0.00000000000E+00  0.00000000000E+00 -0.51999578084E+03  0.22931092280E+04  0.22333728573E+04 0.  0.
        2    1    3    3  502    0  0.74358001453E+03  0.73382230197E+03 -0.66498707188E+03  0.12383917856E+04  0.25500000920E-02 0. -1.
       -2    1    3    3    0  502 -0.74358001453E+03 -0.73382230197E+03  0.14499129104E+03  0.10547174424E+04  0.25500000920E-02 0.  1.
</event>
<event>
 5   0  0.5924654E-05  0.2406179E+04  0.7818609E-02  0.8437194E-01
       -1   -1    0    0    0  501  0.00000000000E+00  0.00000000000E+00  0.62836141651E+03  0.62836141653E+03  0.50400001928E-02 0.  1.
        1   -1    0    0  501    0  0.00000000000E+00  0.00000000000E+00 -0.23034894960E+04  0.23034894960E+04  0.50400001928E-02 0. -1.
    10030    2    1    2    0    0  0.00000000000E+00  0.00000000000E+00 -0.16751280795E+04  0.29318509125E+04  0.24061786489E+04 0.  0.
        5    1    3    3  502    0  0.78103823962E+01 -0.61850669269E+03 -0.20948847143E+04  0.21843020824E+04  0.46999998093E+01 0. -1.
       -5    1    3    3    0  502 -0.78103823962E+01  0.61850669269E+03  0.41975663481E+03  0.74754883013E+03  0.46999998093E+01 0.  1.
</event>
<event>
 5   0  0.1237296E-04  0.2313182E+04  0.7818609E-02  0.8472742E-01
        2   -1    0    0  501    0  0.00000000000E+00  0.00000000000E+00  0.22122887564E+04  0.22122887564E+04  0.25500000920E-02 0.  1.
       -2   -1    0    0    0  501  0.00000000000E+00  0.00000000000E+00 -0.60466926503E+03  0.60466926503E+03  0.25500000920E-02 0. -1.
    10030    2    1    2    0    0  0.00000000000E+00  0.00000000000E+00  0.16076194914E+04  0.28169580215E+04  0.23131822379E+04 0.  0.
        1    1    3    3  502    0  0.84970043672E+03 -0.32430761126E+03 -0.66320037564E+02  0.91190164288E+03  0.50400001928E-02 0. -1.
       -1    1    3    3    0  502 -0.84970043672E+03  0.32430761126E+03  0.16739395290E+04  0.19050563786E+04  0.50400001928E-02 0.  1.
</event>
<event>
 5   0  0.1237296E-04  0.2306899E+04  0.7818609E-02  0.8475206E-01
       -2   -1    0    0    0  501  0.00000000000E+00  0.00000000000E+00  0.12731610480E+04  0.12731610480E+04  0.25500000920E-02 0. -1.
        2   -1    0    0  501    0  0.00000000000E+00  0.00000000000E+00 -0.10449940800E+04  0.10449940800E+04  0.25500000920E-02 0.  1.
    10030    2    1    2    0    0  0.00000000000E+00  0.00000000000E+00  0.22816696805E+03  0.23181551280E+04  0.23068990078E+04 0.  0.
        1    1    3    3  502    0  0.84814442917E+03 -0.75277105601E+03  0.32590223244E+03  0.11799260573E+04  0.50400001928E-02 0.  1.
       -1    1    3    3    0  502 -0.84814442917E+03  0.75277105601E+03 -0.97735264384E+02  0.11382290707E+04  0.50400001928E-02 0. -1.
</event>
<event>
 5   0  0.1270613E-04  0.2284937E+04  0.7818609E-02  0.8483884E-01
        2   -1    0    0  501    0  0.00000000000E+00  0.00000000000E+00  0.19431923283E+04  0.19431923283E+04  0.25500000920E-02 0. -1.
       -2   -1    0    0    0  501  0.00000000000E+00  0.00000000000E+00 -0.67169566030E+03  0.67169566030E+03  0.25500000920E-02 0.  1.
    10030    2    1    2    0    0  0.00000000000E+00  0.00000000000E+00  0.12714966680E+04  0.26148879886E+04  0.22849366329E+04 0.  0.
        2    1    3    3  502    0 -0.20876987008E+03  0.73339654307E+03  0.16093510361E+04  0.17808610574E+04  0.25500000920E-02 0. -1.
       -2    1    3    3    0  502  0.20876987008E+03 -0.73339654307E+03 -0.33785436811E+03  0.83402693128E+03  0.25500000920E-02 0.  1.
</event>
<event>
 5   0  0.1234988E-04  0.2332177E+04  0.7818609E-02  0.8465341E-01
        2   -1    0    0  501    0  0.00000000000E+00  0.00000000000E+00  0.11099171497E+04  0.11099171497E+04  0.25500000920E-02 0. -1.
       -2   -1    0    0    0  501  0.00000000000E+00  0.00000000000E+00 -0.12251029662E+04  0.12251029662E+04  0.25500000920E-02 0.  1.
    10030    2    1    2    0    0  0.00000000000E+00  0.00000000000E+00 -0.11518581651E+03  0.23350201160E+04  0.23321773453E+04 0.  0.
        5    1    3    3  502    0 -0.12497089934E+03 -0.39422174801E+03 -0.11492026738E+04  0.12213588284E+04  0.46999998093E+01 0.  1.
       -5    1    3    3    0  502  0.12497089934E+03  0.39422174801E+03  0.10340168573E+04  0.11136612876E+04  0.46999998093E+01 0. -1.
</event>
<event>
 5   0  0.5632156E-05  0.2228130E+04  0.7818609E-02  0.8506810E-01
        1   -1    0    0  501    0  0.00000000000E+00  0.00000000000E+00  0.97230455083E+03  0.97230455084E+03  0.50400001928E-02 0. -1.
       -1   -1    0    0    0  501  0.00000000000E+00  0.00000000000E+00 -0.12764933788E+04  0.12764933789E+04  0.50400001928E-02 0.  1.
    10030    2    1    2    0    0  0.00000000000E+00  0.00000000000E+00 -0.30418882802E+03  0.22487979297E+04  0.22281295486E+04 0.  0.
        4    1    3    3  502    0  0.60328183759E+03  0.48459371569E+02 -0.10961002162E+04  0.12520920825E+04  0.12699999809E+01 0.  1.
       -4    1    3    3    0  502 -0.60328183759E+03 -0.48459371569E+02  0.79191138815E+03  0.99670584720E+03  0.12699999809E+01 0. -1.
</event>
<event>
 5   0  0.1237296E-04  0.2335127E+04  0.7818609E-02  0.8464198E-01
       -2   -1    0    0    0  501  0.00000000000E+00  0.00000000000E+00  0.55227850290E+03  0.55227850291E+03  0.25500000920E-02 0. -1.
        2   -1    0    0  501    0  0.00000000000E+00  0.00000000000E+00 -0.24683276276E+04  0.24683276276E+04  0.25500000920E-02 0.  1.
    10030    2    1    2    0    0  0.00000000000E+00  0.00000000000E+00 -0.19160491247E+04  0.30206061305E+04  0.23351267947E+04 0.  0.
        1    1    3    3  502    0 -0.69471728235E+03  0.93573932381E+03 -0.86688561810E+03  0.14524912597E+04  0.50400001928E-02 0. -1.
       -1    1    3    3    0  502  0.69471728235E+03 -0.93573932381E+03 -0.10491635066E+04  0.15681148708E+04  0.50400001928E-02 0.  1.
</event>
<event>
 5   0  0.5642466E-05  0.2323910E+04  0.7818609E-02  0.8468553E-01
        1   -1    0    0  501    0  0.00000000000E+00  0.00000000000E+00  0.11822501567E+04  0.11822501568E+04  0.50400001928E-02 0.  1.
       -1   -1    0    0    0  501  0.00000000000E+00  0.00000000000E+00 -0.11420086600E+04  0.11420086601E+04  0.50400001928E-02 0. -1.
    10030    2    1    2    0    0  0.00000000000E+00  0.00000000000E+00  0.40241496701E+02  0.23242588168E+04  0.23239104263E+04 0.  0.
        1    1    3    3  502    0 -0.35949069623E+03 -0.10621679184E+04  0.32464245176E+03  0.11674018028E+04  0.50400001928E-02 0.  1.
       -1    1    3    3    0  502  0.35949069623E+03  0.10621679184E+04 -0.28440095506E+03  0.11568570140E+04  0.50400001928E-02 0. -1.
</event>
<event>
 5   0  0.4489500E-05  0.1908032E+04  0.7818609E-02  0.8650868E-01
       -4   -1    0    0    0  501  0.00000000000E+00  0.00000000000E+00  0.10839083422E+04  0.10839090862E+04  0.12699999809E+01 0. -1.
        4   -1    0    0  501    0  0.00000000000E+00  0.00000000000E+00 -0.83968848243E+03  0.83968944284E+03  0.12699999809E+01 0.  1.
    10030    2    1    2    0    0  0.00000000000E+00  0.00000000000E+00  0.24421985977E+03  0.19235985291E+04  0.19080324843E+04 0.  0.
        5    1    3    3  502    0  0.78349973246E+03 -0.31377934998E+03  0.57048037021E+03  0.10187243268E+04  0.46999998093E+01 0. -1.
       -5    1    3    3    0  502 -0.78349973246E+03  0.31377934998E+03 -0.32626051044E+03  0.90487420225E+03  0.46999998093E+01 0.  1.
</event>
<event>
 5   0  0.5642466E-05  0.2285310E+04  0.7818609E-02  0.8483736E-01
       -1   -1    0    0    0  501  0.00000000000E+00  0.00000000000E+00  0.77611308921E+03  0.77611308923E+03  0.50400001928E-02 0. -1.
        1   -1    0    0  501    0  0.00000000000E+00  0.00000000000E+00 -0.16823074753E+04  0.16823074753E+04  0.50400001928E-02 0.  1.
    10030    2    1    2    0    0  0.00000000000E+00  0.00000000000E+00 -0.90619438606E+03  0.24584205645E+04  0.22853103524E+04 0.  0.
        1    1    3    3  502    0 -0.39011866657E+03 -0.61600054078E+03 -0.13995189837E+04  0.15780692716E+04  0.50400001928E-02 0.  1.
       -1    1    3    3    0  502  0.39011866657E+03  0.61600054078E+03  0.49332459764E+03  0.88035129290E+03  0.50400001928E-02 0. -1.
</event>
<event>
 5   0  0.5924654E-05  0.2371417E+04  0.7818609E-02  0.8450283E-01
       -1   -1    0    0    0  501  0.00000000000E+00  0.00000000000E+00  0.15232302982E+04  0.15232302982E+04  0.50400001928E-02 0.  1.
        1   -1    0    0  501    0  0.00000000000E+00  0.00000000000E+00 -0.92297590359E+03  0.92297590360E+03  0.50400001928E-02 0. -1.
    10030    2    1    2    0    0  0.00000000000E+00  0.00000000000E+00  0.60025439462E+03  0.24462062018E+04  0.23714171804E+04 0.  0.
        5    1    3    3  502    0 -0.83486120322E+03  0.41743099959E+03  0.10543787133E+04  0.14081826689E+04  0.46999998093E+01 0.  1.
       -5    1    3    3    0  502  0.83486120322E+03 -0.41743099959E+03 -0.45412431865E+03  0.10380235329E+04  0.46999998093E+01 0. -1.
</event>
<event>
 5   0  0.5843670E-05  0.2366925E+04  0.7818609E-02  0.8451991E-01
        1   -1    0    0  501    0  0.00000000000E+00  0.00000000000E+00  0.97376673937E+03  0.97376673938E+03  0.50400001928E-02 0.  1.
       -1   -1    0    0    0  501  0.00000000000E+00  0.00000000000E+00 -0.14383149655E+04  0.14383149655E+04  0.50400001928E-02 0. -1.
    10030    2    1    2    0    0  0.00000000000E+00  0.00000000000E+00 -0.46454822615E+03  0.24120817049E+04  0.23669248186E+04 0.  0.
        2    1    3    3  502    0 -0.34142059978E+03 -0.81408351294E+02  0.91950435410E+03  0.98421725387E+03  0.25500000920E-02 0.  1.
       -2    1    3    3    0  502  0.34142059978E+03  0.81408351294E+02 -0.13840525803E+04  0.14278644510E+04  0.25500000920E-02 0. -1.
</event>
<event>
 5   0  0.1237296E-04  0.2115055E+04  0.7818609E-02  0.8554640E-01
       -2   -1    0    0    0  501  0.00000000000E+00  0.00000000000E+00  0.11141210538E+04  0.11141210538E+04  0.25500000920E-02 0.  1.
        2   -1    0    0  501    0  0.00000000000E+00  0.00000000000E+00 -0.10038088874E+04  0.10038088874E+04  0.25500000920E-02 0. -1.
    10030    2    1    2    0    0  0.00000000000E+00  0.00000000000E+00  0.11031216636E+03  0.21179299412E+04  0.21150551912E+04 0.  0.
        1    1    3    3  502    0  0.84229868822E+03 -0.39640689567E+03  0.55759408680E+03  0.10851344031E+04  0.50400001928E-02 0. -1.
       -1    1    3    3    0  502 -0.84229868822E+03  0.39640689567E+03 -0.44728192044E+03  0.10327955381E+04  0.50400001928E-02 0.  1.
</event>
<event>
 5   0  0.1257524E-04  0.2633107E+04  0.7818609E-02  0.8357042E-01
        2   -1    0    0  501    0  0.00000000000E+00  0.00000000000E+00  0.24455018293E+04  0.24455018293E+04  0.25500000920E-02 0.  1.
       -2   -1    0    0    0  501  0.00000000000E+00  0.00000000000E+00 -0.70877607803E+03  0.70877607804E+03  0.25500000920E-02 0. -1.
    10030    2    1    2    0    0  0.00000000000E+00  0.00000000000E+00  0.17367257512E+04  0.31542779073E+04  0.26331070585E+04 0.  0.
        3    1    3    3  502    0  0.10400595141E+04  0.79529194962E+03  0.70280519307E+03  0.14859839258E+04  0.10100000352E+00 0. -1.
       -3    1    3    3    0  502 -0.10400595141E+04 -0.79529194962E+03  0.10339205582E+04  0.16682939815E+04  0.10100000352E+00 0.  1.
</event>
<event>
 5   0  0.5642466E-05  0.1959353E+04  0.7818609E-02  0.8625864E-01
        1   -1    0    0  501    0  0.00000000000E+00  0.00000000000E+00  0.12387904928E+04  0.12387904928E+04  0.50400001928E-02 0. -1.
       -1   -1    0    0    0  501  0.00000000000E+00  0.00000000000E+00 -0.77476021351E+03  0.77476021353E+03  0.50400001928E-02 0.  1.
    10030    2    1    2    0    0  0.00000000000E+00  0.00000000000E+00  0.46403027925E+03  0.20135507063E+04  0.19593525325E+04 0.  0.
        1    1    3    3  502    0 -0.58789700221E+03 -0.34202927876E+02  0.10365976940E+04  0.11921944073E+04  0.50400001928E-02 0. -1.
       -1    1    3    3    0  502  0.58789700221E+03  0.34202927876E+02 -0.57256741475E+03  0.82135629903E+03  0.50400001928E-02 0.  1.
</event>
<event>
 5   0  0.5843670E-05  0.1443558E+04  0.7818609E-02  0.8922879E-01
       -1   -1    0    0    0  501  0.00000000000E+00  0.00000000000E+00  0.56705025968E+03  0.56705025970E+03  0.50400001928E-02 0. -1.
        1   -1    0    0  501    0  0.00000000000E+00  0.00000000000E+00 -0.91872787864E+03  0.91872787865E+03  0.50400001928E-02 0.  1.
    10030    2    1    2    0    0  0.00000000000E+00  0.00000000000E+00 -0.35167761896E+03  0.14857781384E+04  0.14435579409E+04 0.  0.
        2    1    3    3  502    0 -0.14837817992E+03 -0.61079174927E+03  0.18933697394E+03  0.65645345224E+03  0.25500000920E-02 0. -1.
       -2    1    3    3    0  502  0.14837817992E+03  0.61079174927E+03 -0.54101459290E+03  0.82932468611E+03  0.25500000920E-02 0.  1.
</event>
<event>
 5   0  0.4489500E-05  0.2298031E+04  0.7818609E-02  0.8478698E-01
       -3   -1    0    0    0  501  0.00000000000E+00  0.00000000000E+00  0.84748908687E+03  0.84748909289E+03  0.10100000352E+00 0. -1.
        3   -1    0    0  501    0  0.00000000000E+00  0.00000000000E+00 -0.15578208348E+04  0.15578208380E+04  0.10100000352E+00 0.  1.
    10030    2    1    2    0    0  0.00000000000E+00  0.00000000000E+00 -0.71033174790E+03  0.24053099309E+04  0.22980306072E+04 0.  0.
        3    1    3    3  502    0  0.78588138856E+03 -0.68108520394E+03 -0.86659624252E+03  0.13536896504E+04  0.10100000352E+00 0.  1.
       -3    1    3    3    0  502 -0.78588138856E+03  0.68108520394E+03  0.15626449462E+03  0.10516202805E+04  0.10100000352E+00 0. -1.
</event>
<event>
 5   0  0.5632156E-05  0.2279945E+04  0.7818609E-02  0.8485871E-01
        1   -1    0    0  501    0  0.00000000000E+00  0.00000000000E+00  0.10619127136E+04  0.10619127136E+04  0.50400001928E-02 0. -1.
       -1   -1    0    0    0  501  0.00000000000E+00  0.00000000000E+00 -0.12237698706E+04  0.12237698706E+04  0.50400001928E-02 0.  1.
    10030    2    1    2    0    0  0.00000000000E+00  0.00000000000E+00 -0.16185715693E+03  0.22856825842E+04  0.22799445468E+04 0.  0.
        4    1    3    3  502    0 -0.54093882098E+03  0.94458791298E+03 -0.42041639069E+03  0.11668816083E+04  0.12699999809E+01 0.  1.
       -4    1    3    3    0  502  0.54093882098E+03 -0.94458791298E+03  0.25855923376E+03  0.11188009759E+04  0.12699999809E+01 0. -1.
</event>
<event>
 5   0  0.5843670E-05  0.2093582E+04  0.7818609E-02  0.8564076E-01
       -1   -1    0    0    0  501  0.00000000000E+00  0.00000000000E+00  0.12478337417E+04  0.12478337417E+04  0.50400001928E-02 0.  1.
        1   -1    0    0  501    0  0.00000000000E+00  0.00000000000E+00 -0.87813929892E+03  0.87813929894E+03  0.50400001928E-02 0. -1.
    10030    2    1    2    0    0  0.00000000000E+00  0.00000000000E+00  0.36969444280E+03  0.21259730407E+04  0.20935824294E+04 0.  0.
        2    1    3    3  502    0  0.43345142624E+03  0.17331267261E+03 -0.76658737573E+03  0.89753753461E+03  0.25500000920E-02 0. -1.
       -2    1    3    3    0  502 -0.43345142624E+03 -0.17331267261E+03  0.11362818185E+04  0.12284355061E+04  0.25500000920E-02 0.  1.
</event>
<event>
 5   0  0.5663790E-05  0.1915776E+04  0.7818609E-02  0.8647043E-01
       -1   -1    0    0    0  501  0.00000000000E+00  0.00000000000E+00  0.78560220578E+03  0.78560220580E+03  0.50400001928E-02 0.  1.
        1   -1    0    0  501    0  0.00000000000E+00  0.00000000000E+00 -0.11679570808E+04  0.11679570808E+04  0.50400001928E-02 0. -1.
    10030    2    1    2    0    0  0.00000000000E+00  0.00000000000E+00 -0.38235487498E+03  0.19535592866E+04  0.19157762489E+04 0.  0.
        3    1    3    3  502    0  0.25233672431E+02 -0.19091150044E+03  0.76565972465E+03  0.78950539161E+03  0.10100000352E+00 0.  1.
       -3    1    3    3    0  502 -0.25233672431E+02  0.19091150044E+03 -0.11480145996E+04  0.11640538950E+04  0.10100000352E+00 0. -1.
</event>
<event>
 5   0  0.1237296E-04  0.2217644E+04  0.7818609E-02  0.8511120E-01
        2   -1    0    0  501    0  0.00000000000E+00  0.00000000000E+00  0.51548637092E+03  0.51548637093E+03  0.25500000920E-02 0. -1.
       -2   -1    0    0    0  501  0.00000000000E+00  0.00000000000E+00 -0.23851002465E+04  0.23851002465E+04  0.25500000920E-02 0.  1.
    10030    2    1    2    0    0  0.00000000000E+00  0.00000000000E+00 -0.18696138756E+04  0.29005866174E+04  0.22176443992E+04 0.  0.
        1    1    3    3  502    0  0.51171685549E+03 -0.21566460773E+03 -0.21901208591E+04  0.22594235417E+04  0.50400001928E-02 0.  1.
       -1    1    3    3    0  502 -0.51171685549E+03  0.21566460773E+03  0.32050698351E+03  0.64116307576E+03  0.50400001928E-02 0. -1.
</event>
<event>
 5   0  0.5924654E-05  0.2938752E+04  0.7818609E-02  0.8261440E-01
        1   -1    0    0  501    0  0.00000000000E+00  0.00000000000E+00  0.14376919969E+04  0.14376919969E+04  0.50400001928E-02 0. -1.
       -1   -1    0    0    0  501  0.00000000000E+00  0.00000000000E+00 -0.15017580072E+04  0.15017580073E+04  0.50400001928E-02 0.  1.
    10030    2    1    2    0    0  0.00000000000E+00  0.00000000000E+00 -0.64066010341E+02  0.29394500042E+04  0.29387517543E+04 0.  0.
        5    1    3    3  502    0  0.11809101344E+04  0.59024220395E+03  0.61318520015E+03  0.14556623182E+04  0.46999998093E+01 0. -1.
       -5    1    3    3    0  502 -0.11809101344E+04 -0.59024220395E+03 -0.67725121049E+03  0.14837876860E+04  0.46999998093E+01 0.  1.
</event>
<event>
 5   0  0.1270613E-04  0.2280006E+04  0.7818609E-02  0.8485847E-01
        2   -1    0    0  501    0  0.00000000000E+00  0.00000000000E+00  0.21010890592E+04  0.21010890592E+04  0.25500000920E-02 0.  1.
       -2   -1    0    0    0  501  0.00000000000E+00  0.00000000000E+00 -0.61853949868E+03  0.61853949869E+03  0.25500000920E-02 0. -1.
    10030    2    1    2    0    0  0.00000000000E+00  0.00000000000E+00  0.14825495605E+04  0.27196285579E+04  0.22800057661E+04 0.  0.
        2    1    3    3  502    0  0.10543351397E+03  0.70975115152E+03  0.17979403405E+04  0.19358337715E+04  0.25500000920E-02 0.  1.
       -2    1    3    3    0  502 -0.10543351397E+03 -0.70975115152E+03 -0.31539078002E+03  0.78379478633E+03  0.25500000920E-02 0. -1.
</event>
<event>
 5   0  0.5843670E-05  0.2352432E+04  0.7818609E-02  0.8457530E-01
        1   -1    0    0  501    0  0.00000000000E+00  0.00000000000E+00  0.86382914256E+03  0.86382914258E+03  0.50400001928E-02 0.  1.
       -1   -1    0    0    0  501  0.00000000000E+00  0.00000000000E+00 -0.16015720755E+04  0.16015720755E+04  0.50400001928E-02 0. -1.
    10030    2    1    2    0    0  0.00000000000E+00  0.00000000000E+00 -0.73774293296E+03  0.24654012181E+04  0.23524324711E+04 0.  0.
        2    1    3    3  502    0 -0.36907001651E+03  0.83372165743E+03 -0.11476443791E+04  0.14657394380E+04  0.25500000920E-02 0. -1.
       -2    1    3    3    0  502  0.36907001651E+03 -0.83372165743E+03  0.40990144612E+03  0.99966178015E+03  0.25500000920E-02 0.  1.
</event>
<event>
 5   0  0.1257524E-04  0.2363511E+04  0.7818609E-02  0.8453292E-01
        2   -1    0    0  501    0  0.00000000000E+00  0.00000000000E+00  0.17033000466E+04  0.17033000466E+04  0.25500000920E-02 0. -1.
       -2   -1    0    0    0  501  0.00000000000E+00  0.00000000000E+00 -0.81990590428E+03  0.81990590428E+03  0.25500000920E-02 0.  1.
    10030    2    1    2    0    0  0.00000000000E+00  0.00000000000E+00  0.88339414229E+03  0.25232059508E+04  0.23635107488E+04 0.  0.
        3    1    3    3  502    0  0.89337040522E+03  0.49566940128E+03  0.10757517808E+04  0.14835904894E+04  0.10100000352E+00 0. -1.
       -3    1    3    3    0  502 -0.89337040522E+03 -0.49566940128E+03 -0.19235763851E+03  0.10396154614E+04  0.10100000352E+00 0.  1.
</event>
<event>
 5   0  0.5642466E-05  0.1430971E+04  0.7818609E-02  0.8931700E-01
       -1   -1    0    0    0  501  0.00000000000E+00  0.00000000000E+00  0.52813413415E+03  0.52813413418E+03  0.50400001928E-02 0. -1.
        1   -1    0    0  501    0  0.00000000000E+00  0.00000000000E+00 -0.96929853587E+03  0.96929853588E+03  0.50400001928E-02 0.  1.
    10030    2    1    2    0    0  0.00000000000E+00  0.00000000000E+00 -0.44116440172E+03  0.14974326701E+04  0.14309711989E+04 0.  0.
        1    1    3    3  502    0 -0.50785388779E+03 -0.19600369282E+03  0.26529589087E+03  0.60556992055E+03  0.50400001928E-02 0. -1.
       -1    1    3    3    0  502  0.50785388779E+03  0.19600369282E+03 -0.70646029258E+03  0.89186274951E+03  0.50400001928E-02 0.  1.
</event>
<event>
 5   0  0.1257524E-04  0.1962520E+04  0.7818609E-02  0.8624347E-01
        2   -1    0    0  501    0  0.00000000000E+00  0.00000000000E+00  0.10660610025E+04  0.10660610025E+04  0.25500000920E-02 0. -1.
       -2   -1    0    0    0  501  0.00000000000E+00  0.00000000000E+00 -0.90320447624E+03  0.90320447624E+03  0.25500000920E-02 0.  1.
    10030    2    1    2    0    0  0.00000000000E+00  0.00000000000E+00  0.16285652622E+03  0.19692654787E+04  0.19625198795E+04 0.  0.
        3    1    3    3  502    0 -0.48681079492E+03  0.21147600597E+03  0.90959181506E+03  0.10531211380E+04  0.10100000352E+00 0. -1.
       -3    1    3    3    0  502  0.48681079492E+03 -0.21147600597E+03 -0.74673528884E+03  0.91614434067E+03  0.10100000352E+00 0.  1.
</event>
<event>
 5   0  0.5663790E-05  0.2294915E+04  0.7818609E-02  0.8479929E-01
        1   -1    0    0  501    0  0.00000000000E+00  0.00000000000E+00  0.25819471027E+04  0.25819471027E+04  0.50400001928E-02 0.  1.
       -1   -1    0    0    0  501  0.00000000000E+00  0.00000000000E+00 -0.50994798203E+03  0.50994798206E+03  0.50400001928E-02 0. -1.
    10030    2    1    2    0    0  0.00000000000E+00  0.00000000000E+00  0.20719991206E+04  0.30918950847E+04  0.22949150004E+04 0.  0.
        3    1    3    3  502    0  0.76760799778E+03  0.72921206666E+03  0.16319889077E+04  0.19453431783E+04  0.10100000352E+00 0.  1.
       -3    1    3    3    0  502 -0.76760799778E+03 -0.72921206666E+03  0.44001021297E+03  0.11465519064E+04  0.10100000352E+00 0. -1.
</event>
<event>
 5   0  0.5924654E-05  0.2139318E+04  0.7818609E-02  0.8544118E-01
        1   -1    0    0  501    0  0.00000000000E+00  0.00000000000E+00  0.10135031612E+04  0.10135031612E+04  0.50400001928E-02 0. -1.
       -1   -1    0    0    0  501  0.00000000000E+00  0.00000000000E+00 -0.11289266828E+04  0.11289266829E+04  0.50400001928E-02 0.  1.
    10030    2    1    2    0    0  0.00000000000E+00  0.00000000000E+00 -0.11542352163E+03  0.21424298441E+04  0.21393183605E+04 0.  0.
        5    1    3    3  502    0  0.27514013999E+03 -0.10107423931E+04 -0.27446682635E+03  0.10828926127E+04  0.46999998093E+01 0.  1.
       -5    1    3    3    0  502 -0.27514013999E+03  0.10107423931E+04  0.15904330471E+03  0.10595372314E+04  0.46999998093E+01 0. -1.
</event>
<event>
 5   0  0.5663790E-05  0.2266638E+04  0.7818609E-02  0.8491193E-01
        1   -1    0    0  501    0  0.00000000000E+00  0.00000000000E+00  0.18065558687E+04  0.18065558687E+04  0.50400001928E-02 0.  1.
       -1   -1    0    0    0  501  0.00000000000E+00  0.00000000000E+00 -0.71097250371E+03  0.71097250373E+03  0.50400001928E-02 0. -1.
    10030    2    1    2    0    0  0.00000000000E+00  0.00000000000E+00  0.10955833650E+04  0.25175283725E+04  0.22666376412E+04 0.  0.
        3    1    3    3  502    0  0.11353669556E+03  0.23994423651E+03 -0.67595708990E+03  0.72621058617E+03  0.10100000352E+00 0. -1.
       -3    1    3    3    0  502 -0.11353669556E+03 -0.23994423651E+03  0.17715404549E+04  0.17913177863E+04  0.10100000352E+00 0.  1.
</event>
<event>
 5   0  0.1234988E-04  0.2336996E+04  0.7818609E-02  0.8463475E-01
       -2   -1    0    0    0  501  0.00000000000E+00  0.00000000000E+00  0.11668248043E+04  0.11668248043E+04  0.25500000920E-02 0.  1.
        2   -1    0    0  501    0  0.00000000000E+00  0.00000000000E+00 -0.11701731542E+04  0.11701731542E+04  0.25500000920E-02 0. -1.
    10030    2    1    2    0    0  0.00000000000E+00  0.00000000000E+00 -0.33483498326E+01  0.23369979585E+04  0.23369955598E+04 0.  0.
        5    1    3    3  502    0  0.11097413755E+04  0.23241003758E+03 -0.28420698633E+03  0.11689037801E+04  0.46999998093E+01 0.  1.
       -5    1    3    3    0  502 -0.11097413755E+04 -0.23241003758E+03  0.28085863650E+03  0.11680941784E+04  0.46999998093E+01 0. -1.
</event>
<event>
 5   0  0.1237296E-04  0.2499439E+04  0.7818609E-02  0.8403185E-01
        2   -1    0    0  501    0  0.00000000000E+00  0.00000000000E+00  0.11225314570E+04  0.11225314570E+04  0.25500000920E-02 0. -1.
       -2   -1    0    0    0  501  0.00000000000E+00  0.00000000000E+00 -0.13913186657E+04  0.13913186657E+04  0.25500000920E-02 0.  1.
    10030    2    1    2    0    0  0.00000000000E+00  0.00000000000E+00 -0.26878720865E+03  0.25138501227E+04  0.24994391123E+04 0.  0.
        1    1    3    3  502    0 -0.32365934064E+03 -0.65797041741E+03 -0.11522158338E+04  0.13657531866E+04  0.50400001928E-02 0.  1.
       -1    1    3    3    0  502  0.32365934064E+03  0.65797041741E+03  0.88342862515E+03  0.11480969361E+04  0.50400001928E-02 0. -1.
</event>
<event>
 5   0  0.1237296E-04  0.2293512E+04  0.7818609E-02  0.8480484E-01
        2   -1    0    0  501    0  0.00000000000E+00  0.00000000000E+00  0.22054084983E+04  0.22054084983E+04  0.25500000920E-02 0. -1.
       -2   -1    0    0    0  501  0.00000000000E+00  0.00000000000E+00 -0.59628387674E+03  0.59628387674E+03  0.25500000920E-02 0.  1.
    10030    2    1    2    0    0  0.00000000000E+00  0.00000000000E+00  0.16091246216E+04  0.28016923751E+04  0.22935121793E+04 0.  0.
        1    1    3    3  502    0 -0.60478109444E+03  0.64201621047E+03  0.16998215468E+04  0.19150295762E+04  0.50400001928E-02 0. -1.
       -1    1    3    3    0  502  0.60478109444E+03 -0.64201621047E+03 -0.90696925182E+02  0.88666279891E+03  0.50400001928E-02 0.  1.
</event>
<event>
 5   0  0.5843670E-05  0.2291153E+04  0.7818609E-02  0.8481418E-01
       -1   -1    0    0    0  501  0.00000000000E+00  0.00000000000E+00  0.93108621470E+03  0.93108621472E+03  0.50400001928E-02 0.  1.
        1   -1    0    0  501    0  0.00000000000E+00  0.00000000000E+00 -0.14094775403E+04  0.14094775403E+04  0.50400001928E-02 0. -1.
    10030    2    1    2    0    0  0.00000000000E+00  0.00000000000E+00 -0.47839132557E+03  0.23405637550E+04  0.22911526424E+04 0.  0.
        2    1    3    3  502    0  0.53988421168E+03  0.35955205854E+03 -0.12038009671E+04  0.13674389979E+04  0.25500000920E-02 0. -1.
       -2    1    3    3    0  502 -0.53988421168E+03 -0.35955205854E+03  0.72540964148E+03  0.97312475705E+03  0.25500000920E-02 0.  1.
</event>
<event>
 5   0  0.1234988E-04  0.2307300E+04  0.7818609E-02  0.8475048E-01
       -2   -1    0    0    0  501  0.00000000000E+00  0.00000000000E+00  0.11447999201E+04  0.11447999201E+04  0.25500000920E-02 0. -1.
        2   -1    0    0  501    0  0.00000000000E+00  0.00000000000E+00 -0.11625683528E+04  0.11625683528E+04  0.25500000920E-02 0.  1.
    10030    2    1    2    0    0  0.00000000000E+00  0.00000000000E+00 -0.17768432714E+02  0.23073682729E+04  0.23072998569E+04 0.  0.
        5    1    3    3  502    0  0.27162914171E+03 -0.50796393761E+03  0.99068347268E+03  0.11459867301E+04  0.46999998093E+01 0. -1.
       -5    1    3    3    0  502 -0.27162914171E+03  0.50796393761E+03 -0.10084519054E+04  0.11613815428E+04  0.46999998093E+01 0.  1.
</event>
<event>
 5   0  0.1270613E-04  0.2296478E+04  0.7818609E-02  0.8479311E-01
        2   -1    0    0  501    0  0.00000000000E+00  0.00000000000E+00  0.13849979031E+04  0.13849979031E+04  0.25500000920E-02 0. -1.
       -2   -1    0    0    0  501  0.00000000000E+00  0.00000000000E+00 -0.95195305690E+03  0.95195305691E+03  0.25500000920E-02 0.  1.
    10030    2    1    2    0    0  0.00000000000E+00  0.00000000000E+00  0.43304484620E+03  0.23369509600E+04  0.22964781625E+04 0.  0.
        2    1    3    3  502    0  0.49731599108E+03 -0.93727427990E+03 -0.23012834489E+03  0.10857095956E+04  0.25500000920E-02 0.  1.
       -2    1    3    3    0  502 -0.49731599108E+03  0.93727427990E+03  0.66317319109E+03  0.12512413645E+04  0.25500000920E-02 0. -1.
</event>
<event>
 5   0  0.5924654E-05  0.2271952E+04  0.7818609E-02  0.8489063E-01
       -1   -1    0    0    0  501  0.00000000000E+00  0.00000000000E+00  0.11618211922E+04  0.11618211922E+04  0.50400001928E-02 0.  1.
        1   -1    0    0  501    0  0.00000000000E+00  0.00000000000E+00 -0.11107056109E+04  0.11107056109E+04  0.50400001928E-02 0. -1.
    10030    2    1    2    0    0  0.00000000000E+00  0.00000000000E+00  0.51115581366E+02  0.22725268031E+04  0.22719518631E+04 0.  0.
        5    1    3    3  502    0 -0.62693942281E+03 -0.50622475040E+03 -0.77533371581E+03  0.11182490772E+04  0.46999998093E+01 0. -1.
       -5    1    3    3    0  502  0.62693942281E+03  0.50622475040E+03  0.82644929717E+03  0.11542777259E+04  0.46999998093E+01 0.  1.
</event>
<event>
 5   0  0.5632156E-05  0.2303324E+04  0.7818609E-02  0.8476612E-01
        1   -1    0    0  501    0  0.00000000000E+00  0.00000000000E+00  0.15297890853E+04  0.15297890853E+04  0.50400001928E-02 0. -1.
       -1   -1    0    0    0  501  0.00000000000E+00  0.00000000000E+00 -0.86699865110E+03  0.86699865112E+03  0.50400001928E-02 0.  1.
    10030    2    1    2    0    0  0.00000000000E+00  0.00000000000E+00  0.66279043419E+03  0.23967877364E+04  0.23033237492E+04 0.  0.
        4    1    3    3  502    0  0.96575509347E+03 -0.42602722584E+03  0.81067296467E+03  0.13309298878E+04  0.12699999809E+01 0. -1.
       -4    1    3    3    0  502 -0.96575509347E+03  0.42602722584E+03 -0.14788253048E+03  0.10658578486E+04  0.12699999809E+01 0.  1.
</event>
<event>
 5   0  0.5663790E-05  0.2247678E+04  0.7818609E-02  0.8498842E-01
       -1   -1    0    0    0  501  0.00000000000E+00  0.00000000000E+00  0.95367166701E+03  0.95367166702E+03  0.50400001928E-02 0.  1.
        1   -1    0    0  501    0  0.00000000000E+00  0.00000000000E+00 -0.13243694932E+04  0.13243694932E+04  0.50400001928E-02 0. -1.
    10030    2    1    2    0    0  0.00000000000E+00  0.00000000000E+00 -0.37069782620E+03  0.22780411602E+04  0.22476776124E+04 0.  0.
        3    1    3    3  502    0  0.72735675674E+03  0.67076488365E+03  0.35480497477E+03  0.10511231902E+04  0.10100000352E+00 0.  1.
       -3    1    3    3    0  502 -0.72735675674E+03 -0.67076488365E+03 -0.72550280097E+03  0.12269179700E+04  0.10100000352E+00 0. -1.
</event>
<event>
 5   0  0.5663790E-05  0.2043575E+04  0.7818609E-02  0.8586514E-01
       -1   -1    0    0    0  501  0.00000000000E+00  0.00000000000E+00  0.59562593095E+03  0.59562593097E+03  0.50400001928E-02 0.  1.
        1   -1    0    0  501    0  0.00000000000E+00  0.00000000000E+00 -0.17528619088E+04  0.17528619088E+04  0.50400001928E-02 0. -1.
    10030    2    1    2    0    0  0.00000000000E+00  0.00000000000E+00 -0.11572359779E+04  0.23484878398E+04  0.20435753045E+04 0.  0.
        3    1    3    3  502    0  0.68754646723E+03  0.51417081539E+03  0.58085613025E+02  0.86050317875E+03  0.10100000352E+00 0. -1.
       -3    1    3    3    0  502 -0.68754646723E+03 -0.51417081539E+03 -0.12153215909E+04  0.14879846610E+04  0.10100000352E+00 0.  1.
</event>
<event>
 5   0  0.1270613E-04  0.2246366E+04  0.7818609E-02  0.8499374E-01
       -2   -1    0    0    0  501  0.00000000000E+00  0.00000000000E+00  0.94780047711E+03  0.94780047712E+03  0.25500000920E-02 0.  1.
        2   -1    0    0  501    0  0.00000000000E+00  0.00000000000E+00 -0.13310182612E+04  0.13310182612E+04  0.25500000920E-02 0. -1.
    10030    2    1    2    0    0  0.00000000000E+00  0.00000000000E+00 -0.38321778413E+03  0.22788187384E+04  0.22463657254E+04 0.  0.
        2    1    3    3  502    0 -0.37200670084E+03 -0.43223502163E+03 -0.11732264387E+04  0.13044831834E+04  0.25500000920E-02 0. -1.
       -2    1    3    3    0  502  0.37200670084E+03  0.43223502163E+03  0.79000865454E+03  0.97433555495E+03  0.25500000920E-02 0.  1.
</event>
<event>
 5   0  0.1270613E-04  0.1239119E+04  0.7818609E-02  0.9079289E-01
       -2   -1    0    0    0  501  0.00000000000E+00  0.00000000000E+00  0.35822989787E+03  0.35822989788E+03  0.25500000920E-02 0. -1.
        2   -1    0    0  501    0  0.00000000000E+00  0.00000000000E+00 -0.10715288500E+04  0.10715288500E+04  0.25500000920E-02 0.  1.
    10030    2    1    2    0    0  0.00000000000E+00  0.00000000000E+00 -0.71329895212E+03  0.14297587479E+04  0.12391185101E+04 0.  0.
        2    1    3    3  502    0  0.22534207665E+03 -0.46080143092E+03  0.44281394600E+02  0.51485711820E+03  0.25500000920E-02 0. -1.
       -2    1    3    3    0  502 -0.22534207665E+03  0.46080143092E+03 -0.75758034672E+03  0.91490162968E+03  0.25500000920E-02 0.  1.
</event>
<event>
 5   0  0.5632156E-05  0.2274706E+04  0.7818609E-02  0.8487961E-01
        1   -1    0    0  501    0  0.00000000000E+00  0.00000000000E+00  0.22996707258E+04  0.22996707258E+04  0.50400001928E-02 0.  1.
       -1   -1    0    0    0  501  0.00000000000E+00  0.00000000000E+00 -0.56250301991E+03  0.56250301993E+03  0.50400001928E-02 0. -1.
    10030    2    1    2    0    0  0.00000000000E+00  0.00000000000E+00  0.17371677059E+04  0.28621737457E+04  0.22747058958E+04 0.  0.
        4    1    3    3  502    0 -0.55515829973E+03  0.53092749055E+03  0.19239381376E+04  0.20716235923E+04  0.12699999809E+01 0.  1.
       -4    1    3    3    0  502  0.55515829973E+03 -0.53092749055E+03 -0.18677043174E+03  0.79055015341E+03  0.12699999809E+01 0. -1.
</event>
<event>
 5   0  0.5642466E-05  0.2102787E+04  0.7818609E-02  0.8560017E-01
       -1   -1    0    0    0  501  0.00000000000E+00  0.00000000000E+00  0.12112882091E+04  0.12112882091E+04  0.50400001928E-02 0. -1.
        1   -1    0    0  501    0  0.00000000000E+00  0.00000000000E+00 -0.91260540518E+03  0.91260540519E+03  0.50400001928E-02 0.  1.
    10030    2    1    2    0    0  0.00000000000E+00  0.00000000000E+00  0.29868280395E+03  0.21238936143E+04  0.21027868812E+04 0.  0.
        1    1    3    3  502    0  0.67931098704E+03 -0.24988788174E+03 -0.62088805789E+03  0.95362956698E+03  0.50400001928E-02 0.  1.
       -1    1    3    3    0  502 -0.67931098704E+03  0.24988788174E+03  0.91957086184E+03  0.11702640474E+04  0.50400001928E-02 0. -1.
</event>
<event>
 5   0  0.5642466E-05  0.1554803E+04  0.7818609E-02  0.8848806E-01
        1   -1    0    0  501    0  0.00000000000E+00  0.00000000000E+00  0.13806286974E+04  0.13806286974E+04  0.50400001928E-02 0. -1.
       -1   -1    0    0    0  501  0.00000000000E+00  0.00000000000E+00 -0.43773761761E+03  0.43773761764E+03  0.50400001928E-02 0.  1.
    10030    2    1    2    0    0  0.00000000000E+00  0.00000000000E+00  0.94289107980E+03  0.18183663151E+04  0.15548030317E+04 0.  0.
        1    1    3    3  502    0 -0.50441656909E+03  0.35038123644E+03  0.10288396802E+04  0.11982129083E+04  0.50400001928E-02 0. -1.
       -1    1    3    3    0  502  0.50441656909E+03 -0.35038123644E+03 -0.85948600377E+02  0.62015340679E+03  0.50400001928E-02 0.  1.
</event>
<event>
 5   0  0.4489500E-05  0.1720089E+04  0.7818609E-02  0.8749989E-01
       -3   -1    0    0    0  501  0.00000000000E+00  0.00000000000E+00  0.34973605123E+03  0.34973606582E+03  0.10100000352E+00 0. -1.
        3   -1    0    0  501    0  0.00000000000E+00  0.00000000000E+00 -0.21149557547E+04  0.21149557571E+04  0.10100000352E+00 0.  1.
    10030    2    1    2    0    0  0.00000000000E+00  0.00000000000E+00 -0.17652197035E+04  0.24646918230E+04  0.17200887130E+04 0.  0.
        5    1    3    3  502    0  0.37182083293E+03 -0.22082528537E+03 -0.19478138923E+04  0.19952482521E+04  0.46999998093E+01 0.  1.
       -5    1    3    3    0  502 -0.37182083293E+03  0.22082528537E+03  0.18259418879E+03  0.46944357088E+03  0.46999998093E+01 0. -1.
</event>
<event>
 5   0  0.5924654E-05  0.2306326E+04  0.7818609E-02  0.8475431E-01
        1   -1    0    0  501    0  0.00000000000E+00  0.00000000000E+00  0.80451642658E+03  0.80451642659E+03  0.50400001928E-02 0. -1.
       -1   -1    0    0    0  501  0.00000000000E+00  0.00000000000E+00 -0.16529002554E+04  0.16529002554E+04  0.50400001928E-02 0.  1.
    10030    2    1    2    0    0  0.00000000000E+00  0.00000000000E+00 -0.84838382885E+03  0.24574166820E+04  0.23063264357E+04 0.  0.
        5    1    3    3  502    0  0.76961397225E+03 -0.41985760280E+02  0.48972535127E+03  0.91319301356E+03  0.46999998093E+01 0. -1.
       -5    1    3    3    0  502 -0.76961397225E+03  0.41985760280E+02 -0.13381091801E+04  0.15442236685E+04  0.46999998093E+01 0.  1.
</event>
<event>
 5   0  0.1281432E-04  0.1299848E+04  0.7818609E-02  0.9029685E-01
       -2   -1    0    0    0  501  0.00000000000E+00  0.00000000000E+00  0.34157130963E+03  0.34157130964E+03  0.25500000920E-02 0.  1.
        2   -1    0    0  501    0  0.00000000000E+00  0.00000000000E+00 -0.12366418766E+04  0.12366418766E+04  0.25500000920E-02 0. -1.
    10030    2    1    2    0    0  0.00000000000E+00  0.00000000000E+00 -0.89507056700E+03  0.15782131863E+04  0.12998482763E+04 0.  0.
        4    1    3    3  502    0  0.30615020515E+03 -0.69551215478E+02 -0.11384660484E+04  0.11809622669E+04  0.12699999809E+01 0. -1.
       -4    1    3    3    0  502 -0.30615020515E+03  0.69551215478E+02  0.24339548137E+03  0.39725091937E+03  0.12699999809E+01 0.  1.
</event>
<event>
 5   0  0.1257524E-04  0.2296376E+04  0.7818609E-02  0.8479351E-01
        2   -1    0    0  501    0  0.00000000000E+00  0.00000000000E+00  0.22093252346E+04  0.22093252346E+04  0.25500000920E-02 0. -1.
       -2   -1    0    0    0  501  0.00000000000E+00  0.00000000000E+00 -0.59671431737E+03  0.59671431738E+03  0.25500000920E-02 0.  1.
    10030    2    1    2    0    0  0.00000000000E+00  0.00000000000E+00  0.16126109172E+04  0.28060395519E+04  0.22963762751E+04 0.  0.
        3    1    3    3  502    0 -0.80865079765E+03  0.35405972485E+03 -0.90854598623E+02  0.88742828983E+03  0.10100000352E+00 0.  1.
       -3    1    3    3    0  502  0.80865079765E+03 -0.35405972485E+03  0.17034655158E+04  0.19186112621E+04  0.10100000352E+00 0. -1.
</event>
<event>
 5   0  0.1237296E-04  0.2238902E+04  0.7818609E-02  0.8502409E-01
       -2   -1    0    0    0  501  0.00000000000E+00  0.00000000000E+00  0.10573952520E+04  0.10573952520E+04  0.25500000920E-02 0. -1.
        2   -1    0    0  501    0  0.00000000000E+00  0.00000000000E+00 -0.11851481378E+04  0.11851481378E+04  0.25500000920E-02 0.  1.
    10030    2    1    2    0    0  0.00000000000E+00  0.00000000000E+00 -0.12775288580E+03  0.22425433897E+04  0.22389015286E+04 0.  0.
        1    1    3    3  502    0  0.71332608644E+03  0.81261688844E+03  0.22640473640E+03  0.11047349988E+04  0.50400001928E-02 0. -1.
       -1    1    3    3    0  502 -0.71332608644E+03 -0.81261688844E+03 -0.35415762220E+03  0.11378083909E+04  0.50400001928E-02 0.  1.
</event>
<event>
 5   0  0.1257524E-04  0.2344593E+04  0.7818609E-02  0.8460543E-01
        2   -1    0    0  501    0  0.00000000000E+00  0.00000000000E+00  0.14550996862E+04  0.14550996862E+04  0.25500000920E-02 0.  1.
       -2   -1    0    0    0  501  0.00000000000E+00  0.00000000000E+00 -0.94445696311E+03  0.94445696312E+03  0.25500000920E-02 0. -1.
    10030    2    1    2    0    0  0.00000000000E+00  0.00000000000E+00  0.51064272304E+03  0.23995566493E+04  0.23445929545E+04 0.  0.
        3    1    3    3  502    0 -0.30397905957E+03 -0.11321893827E+04  0.26022465970E+03  0.12008217814E+04  0.10100000352E+00 0. -1.
       -3    1    3    3    0  502  0.30397905957E+03  0.11321893827E+04  0.25041806334E+03  0.11987348679E+04  0.10100000352E+00 0.  1.
</event>
<event>
 5   0  0.1234988E-04  0.2321845E+04  0.7818609E-02  0.8469358E-01
        2   -1    0    0  501    0  0.00000000000E+00  0.00000000000E+00  0.21832257552E+04  0.21832257552E+04  0.25500000920E-02 0. -1.
       -2   -1    0    0    0  501  0.00000000000E+00  0.00000000000E+00 -0.61731623535E+03  0.61731623536E+03  0.25500000920E-02 0.  1.
    10030    2    1    2    0    0  0.00000000000E+00  0.00000000000E+00  0.15659095198E+04  0.28005419905E+04  0.23218447012E+04 0.  0.
        5    1    3    3  502    0 -0.30578923274E+03 -0.20066663713E+03  0.21119038046E+04  0.21433464312E+04  0.46999998093E+01 0. -1.
       -5    1    3    3    0  502  0.30578923274E+03  0.20066663713E+03 -0.54599428483E+03  0.65719555931E+03  0.46999998093E+01 0.  1.
</event>
<event>
 5   0  0.1234988E-04  0.2297288E+04  0.7818609E-02  0.8478991E-01
        2   -1    0    0  501    0  0.00000000000E+00  0.00000000000E+00  0.18840100250E+04  0.18840100250E+04  0.25500000920E-02 0. -1.
       -2   -1    0    0    0  501  0.00000000000E+00  0.00000000000E+00 -0.70030603674E+03  0.70030603675E+03  0.25500000920E-02 0.  1.
    10030    2    1    2    0    0  0.00000000000E+00  0.00000000000E+00  0.11837039883E+04  0.25843160618E+04  0.22972884832E+04 0.  0.
        5    1    3    3  502    0  0.19888219192E+03 -0.93948361648E+03 -0.11710947969E+03  0.96742974532E+03  0.46999998093E+01 0. -1.
       -5    1    3    3    0  502 -0.19888219192E+03  0.93948361648E+03  0.13008134680E+04  0.16168863164E+04  0.46999998093E+01 0.  1.
</event>
<event>
 5   0  0.5642466E-05  0.1451298E+04  0.7818609E-02  0.8917501E-01
        1   -1    0    0  501    0  0.00000000000E+00  0.00000000000E+00  0.63057046029E+03  0.63057046031E+03  0.50400001928E-02 0. -1.
       -1   -1    0    0    0  501  0.00000000000E+00  0.00000000000E+00 -0.83506350960E+03  0.83506350961E+03  0.50400001928E-02 0.  1.
    10030    2    1    2    0    0  0.00000000000E+00  0.00000000000E+00 -0.20449304931E+03  0.14656339699E+04  0.14512978766E+04 0.  0.
        1    1    3    3  502    0 -0.21956010368E+03  0.23946886447E+03 -0.75751223242E+03  0.82424314281E+03  0.50400001928E-02 0.  1.
       -1    1    3    3    0  502  0.21956010368E+03 -0.23946886447E+03  0.55301918312E+03  0.64139082711E+03  0.50400001928E-02 0. -1.
</event>
<event>
 5   0  0.1237296E-04  0.1308794E+04  0.7818609E-02  0.9022620E-01
        2   -1    0    0  501    0  0.00000000000E+00  0.00000000000E+00  0.21702087434E+04  0.21702087434E+04  0.25500000920E-02 0.  1.
       -2   -1    0    0    0  501  0.00000000000E+00  0.00000000000E+00 -0.19732463436E+03  0.19732463437E+03  0.25500000920E-02 0. -1.
    10030    2    1    2    0    0  0.00000000000E+00  0.00000000000E+00  0.19728841091E+04  0.23675333778E+04  0.13087943258E+04 0.  0.
        1    1    3    3  502    0  0.31003815847E+03  0.28047975430E+03  0.18971202500E+04  0.19426419627E+04  0.50400001928E-02 0.  1.
       -1    1    3    3    0  502 -0.31003815847E+03 -0.28047975430E+03  0.75763859105E+02  0.42489141513E+03  0.50400001928E-02 0. -1.
</event>
<event>
 5   0  0.5663790E-05  0.2233044E+04  0.7818609E-02  0.8504799E-01
       -1   -1    0    0    0  501  0.00000000000E+00  0.00000000000E+00  0.63852362699E+03  0.63852362701E+03  0.50400001928E-02 0.  1.
        1   -1    0    0  501    0  0.00000000000E+00  0.00000000000E+00 -0.19523497379E+04  0.19523497379E+04  0.50400001928E-02 0. -1.
    10030    2    1    2    0    0  0.00000000000E+00  0.00000000000E+00 -0.13138261109E+04  0.25908733649E+04  0.22330440531E+04 0.  0.
        3    1    3    3  502    0  0.75332979570E+03 -0.66895602389E+03 -0.98531821767E+02  0.10122828029E+04  0.10100000352E+00 0. -1.
       -3    1    3    3    0  502 -0.75332979570E+03  0.66895602389E+03 -0.12152942891E+04  0.15785905620E+04  0.10100000352E+00 0.  1.
</event>
<event>
 5   0  0.5843670E-05  0.2308406E+04  0.7818609E-02  0.8474614E-01
       -1   -1    0    0    0  501  0.00000000000E+00  0.00000000000E+00  0.10003040549E+04  0.10003040549E+04  0.50400001928E-02 0.  1.
        1   -1    0    0  501    0  0.00000000000E+00  0.00000000000E+00 -0.13317791570E+04  0.13317791570E+04  0.50400001928E-02 0. -1.
    10030    2    1    2    0    0  0.00000000000E+00  0.00000000000E+00 -0.33147510208E+03  0.23320832119E+04  0.23084055891E+04 0.  0.
        2    1    3    3  502    0  0.29709071991E+03  0.81356925291E+03  0.60499414125E+03  0.10564921846E+04  0.25500000920E-02 0.  1.
       -2    1    3    3    0  502 -0.29709071991E+03 -0.81356925291E+03 -0.93646924333E+03  0.12755910273E+04  0.25500000920E-02 0. -1.
</event>
<event>
 5   0  0.5632156E-05  0.1640344E+04  0.7818609E-02  0.8796140E-01
        1   -1    0    0  501    0  0.00000000000E+00  0.00000000000E+00  0.10071235868E+04  0.10071235868E+04  0.50400001928E-02 0. -1.
       -1   -1    0    0    0  501  0.00000000000E+00  0.00000000000E+00 -0.66792392373E+03  0.66792392375E+03  0.50400001928E-02 0.  1.
    10030    2    1    2    0    0  0.00000000000E+00  0.00000000000E+00  0.33919966305E+03  0.16750475105E+04  0.16403437905E+04 0.  0.
        4    1    3    3  502    0  0.55491138018E+03 -0.28876134417E+03  0.71126584497E+03  0.94721194506E+03  0.12699999809E+01 0. -1.
       -4    1    3    3    0  502 -0.55491138018E+03  0.28876134417E+03 -0.37206618192E+03  0.72783556548E+03  0.12699999809E+01 0.  1.
</event>
<event>
 5   0  0.1281432E-04  0.2425034E+04  0.7818609E-02  0.8430190E-01
       -2   -1    0    0    0  501  0.00000000000E+00  0.00000000000E+00  0.15320571799E+04  0.15320571799E+04  0.25500000920E-02 0.  1.
        2   -1    0    0  501    0  0.00000000000E+00  0.00000000000E+00 -0.95962331069E+03  0.95962331070E+03  0.25500000920E-02 0. -1.
    10030    2    1    2    0    0  0.00000000000E+00  0.00000000000E+00  0.57243386921E+03  0.24916804906E+04  0.24250342539E+04 0.  0.
        4    1    3    3  502    0  0.79827450909E+03  0.88139105567E+03  0.52958890406E+03  0.13017520521E+04  0.12699999809E+01 0. -1.
       -4    1    3    3    0  502 -0.79827450909E+03 -0.88139105567E+03  0.42844965153E+02  0.11899284385E+04  0.12699999809E+01 0.  1.
</event>
<event>
 5   0  0.5924654E-05  0.2165846E+04  0.7818609E-02  0.8532780E-01
       -1   -1    0    0    0  501  0.00000000000E+00  0.00000000000E+00  0.11777039457E+04  0.11777039457E+04  0.50400001928E-02 0. -1.
        1   -1    0    0  501    0  0.00000000000E+00  0.00000000000E+00 -0.99577037220E+03  0.99577037221E+03  0.50400001928E-02 0.  1.
    10030    2    1    2    0    0  0.00000000000E+00  0.00000000000E+00  0.18193357353E+03  0.21734743179E+04  0.21658464363E+04 0.  0.
        5    1    3    3  502    0 -0.97625213688E+03  0.20856789787E+03  0.51212545451E+03  0.11219908083E+04  0.46999998093E+01 0. -1.
       -5    1    3    3    0  502  0.97625213688E+03 -0.20856789787E+03 -0.33019188097E+03  0.10514835096E+04  0.46999998093E+01 0.  1.
</event>
<event>
 5   0  0.5663790E-05  0.2464037E+04  0.7818609E-02  0.8415911E-01
        1   -1    0    0  501    0  0.00000000000E+00  0.00000000000E+00  0.18473607895E+04  0.18473607895E+04  0.50400001928E-02 0. -1.
       -1   -1    0    0    0  501  0.00000000000E+00  0.00000000000E+00 -0.82164243742E+03  0.82164243744E+03  0.50400001928E-02 0.  1.
    10030    2    1    2    0    0  0.00000000000E+00  0.00000000000E+00  0.10257183521E+04  0.26690032269E+04  0.24640373552E+04 0.  0.
        3    1    3    3  502    0  0.10658373882E+04 -0.59260613383E+03  0.32313621704E+03  0.12615896294E+04  0.10100000352E+00 0.  1.
       -3    1    3    3    0  502 -0.10658373882E+04  0.59260613383E+03  0.70258213505E+03  0.14074135976E+04  0.10100000352E+00 0. -1.
</event>
<event>
 5   0  0.5924654E-05  0.2293178E+04  0.7818609E-02  0.8480616E-01
        1   -1    0    0  501    0  0.00000000000E+00  0.00000000000E+00  0.23455284832E+04  0.23455284833E+04  0.50400001928E-02 0.  1.
       -1   -1    0    0    0  501  0.00000000000E+00  0.00000000000E+00 -0.56049876729E+03  0.56049876731E+03  0.50400001928E-02 0. -1.
    10030    2    1    2    0    0  0.00000000000E+00  0.00000000000E+00  0.17850297160E+04  0.29060272506E+04  0.22931775540E+04 0.  0.
        5    1    3    3  502    0 -0.12997485494E+03  0.93425940826E+03  0.66457342849E+02  0.94560709243E+03  0.46999998093E+01 0. -1.
       -5    1    3    3    0  502  0.12997485494E+03 -0.93425940826E+03  0.17185723731E+04  0.19604201581E+04  0.46999998093E+01 0.  1.
</event>
<event>
 5   0  0.1234988E-04  0.2192654E+04  0.7818609E-02  0.8521492E-01
       -2   -1    0    0    0  501  0.00000000000E+00  0.00000000000E+00  0.74442358223E+03  0.74442358224E+03  0.25500000920E-02 0.  1.
        2   -1    0    0  501    0  0.00000000000E+00  0.00000000000E+00 -0.16145826309E+04  0.16145826309E+04  0.25500000920E-02 0. -1.
    10030    2    1    2    0    0  0.00000000000E+00  0.00000000000E+00 -0.87015904866E+03  0.23590062131E+04  0.21926544515E+04 0.  0.
        5    1    3    3  502    0 -0.82216501048E+03 -0.15857607307E+03  0.32628953037E+03  0.89865934760E+03  0.46999998093E+01 0.  1.
       -5    1    3    3    0  502  0.82216501048E+03  0.15857607307E+03 -0.11964485790E+04  0.14603468655E+04  0.46999998093E+01 0. -1.
</event>
<event>
 5   0  0.1237296E-04  0.2286365E+04  0.7818609E-02  0.8483317E-01
        2   -1    0    0  501    0  0.00000000000E+00  0.00000000000E+00  0.14856929014E+04  0.14856929014E+04  0.25500000920E-02 0. -1.
       -2   -1    0    0    0  501  0.00000000000E+00  0.00000000000E+00 -0.87963426992E+03  0.87963426993E+03  0.25500000920E-02 0.  1.
    10030    2    1    2    0    0  0.00000000000E+00  0.00000000000E+00  0.60605863148E+03  0.23653271713E+04  0.22863651420E+04 0.  0.
        1    1    3    3  502    0  0.14573224888E+03  0.91940115358E+03  0.98952020597E+03  0.13585604910E+04  0.50400001928E-02 0. -1.
       -1    1    3    3    0  502 -0.14573224888E+03 -0.91940115358E+03 -0.38346157449E+03  0.10067666804E+04  0.50400001928E-02 0.  1.
</event>
<event>
 5   0  0.5843670E-05  0.2265713E+04  0.7818609E-02  0.8491564E-01
        1   -1    0    0  501    0  0.00000000000E+00  0.00000000000E+00  0.10486754342E+04  0.10486754342E+04  0.50400001928E-02 0.  1.
       -1   -1    0    0    0  501  0.00000000000E+00  0.00000000000E+00 -0.12237947032E+04  0.12237947032E+04  0.50400001928E-02 0. -1.
    10030    2    1    2    0    0  0.00000000000E+00  0.00000000000E+00 -0.17511926899E+03  0.22724701375E+04  0.22657126400E+04 0.  0.
        2    1    3    3  502    0 -0.85899455346E+03 -0.36908588597E+03 -0.72920777155E+03  0.11856812422E+04  0.25500000920E-02 0. -1.
       -2    1    3    3    0  502  0.85899455346E+03  0.36908588597E+03  0.55408850256E+03  0.10867888952E+04  0.25500000920E-02 0.  1.
</event>
<event>
 5   0  0.1234988E-04  0.1845908E+04  0.7818609E-02  0.8682260E-01
        2   -1    0    0  501    0  0.00000000000E+00  0.00000000000E+00  0.15181594714E+04  0.15181594714E+04  0.25500000920E-02 0.  1.
       -2   -1    0    0    0  501  0.00000000000E+00  0.00000000000E+00 -0.56110300386E+03  0.56110300386E+03  0.25500000920E-02 0. -1.
    10030    2    1    2    0    0  0.00000000000E+00  0.00000000000E+00  0.95705646753E+03  0.20792624752E+04  0.18459077330E+04 0.  0.
        5    1    3    3  502    0  0.13885230280E+03 -0.67608858268E+03  0.11687252490E+04  0.13573196128E+04  0.46999998093E+01 0.  1.
       -5    1    3    3    0  502 -0.13885230280E+03  0.67608858268E+03 -0.21166878146E+03  0.72194286247E+03  0.46999998093E+01 0. -1.
</event>
<event>
 5   0  0.1237296E-04  0.1445908E+04  0.7818609E-02  0.8921242E-01
       -2   -1    0    0    0  501  0.00000000000E+00  0.00000000000E+00  0.95078835323E+03  0.95078835323E+03  0.25500000920E-02 0. -1.
        2   -1    0    0  501    0  0.00000000000E+00  0.00000000000E+00 -0.54971503994E+03  0.54971503995E+03  0.25500000920E-02 0.  1.
    10030    2    1    2    0    0  0.00000000000E+00  0.00000000000E+00  0.40107331329E+03  0.15005033932E+04  0.14459082372E+04 0.  0.
        1    1    3    3  502    0  0.59658927677E+03  0.31319198134E+03  0.47245049378E+03  0.82293222773E+03  0.50400001928E-02 0. -1.
       -1    1    3    3    0  502 -0.59658927677E+03 -0.31319198134E+03 -0.71377180499E+02  0.67757116545E+03  0.50400001928E-02 0.  1.
</event>
<event>
 5   0  0.4489500E-05  0.2377160E+04  0.7818609E-02  0.8448104E-01
        3   -1    0    0  501    0  0.00000000000E+00  0.00000000000E+00  0.12756461322E+04  0.12756461362E+04  0.10100000352E+00 0.  1.
       -3   -1    0    0    0  501  0.00000000000E+00  0.00000000000E+00 -0.11074566649E+04  0.11074566695E+04  0.10100000352E+00 0. -1.
    10030    2    1    2    0    0  0.00000000000E+00  0.00000000000E+00  0.16818946727E+03  0.23831028057E+04  0.23771603408E+04 0.  0.
        1    1    3    3  502    0  0.78955281619E+03 -0.96430295996E+01  0.97470520253E+03  0.12544069792E+04  0.50400001928E-02 0.  1.
       -1    1    3    3    0  502 -0.78955281619E+03  0.96430295996E+01 -0.80651573526E+03  0.11286958265E+04  0.50400001928E-02 0. -1.
</event>
<event>
 5   0  0.1237296E-04  0.2359219E+04  0.7818609E-02  0.8454931E-01
        2   -1    0    0  501    0  0.00000000000E+00  0.00000000000E+00  0.25713052461E+04  0.25713052461E+04  0.25500000920E-02 0. -1.
       -2   -1    0    0    0  501  0.00000000000E+00  0.00000000000E+00 -0.54115631147E+03  0.54115631148E+03  0.25500000920E-02 0.  1.
    10030    2    1    2    0    0  0.00000000000E+00  0.00000000000E+00  0.20301489346E+04  0.31124615576E+04  0.23592185678E+04 0.  0.
        1    1    3    3  502    0  0.10150759651E+04 -0.52114741813E+03  0.62038315631E+03  0.12987875527E+04  0.50400001928E-02 0.  1.
       -1    1    3    3    0  502 -0.10150759651E+04  0.52114741813E+03  0.14097657783E+04  0.18136740049E+04  0.50400001928E-02 0. -1.
</event>
<event>
 5   0  0.1257524E-04  0.2260045E+04  0.7818609E-02  0.8493843E-01
       -2   -1    0    0    0  501  0.00000000000E+00  0.00000000000E+00  0.98792371432E+03  0.98792371432E+03  0.25500000920E-02 0. -1.
        2   -1    0    0  501    0  0.00000000000E+00  0.00000000000E+00 -0.12925606572E+04  0.12925606572E+04  0.25500000920E-02 0.  1.
    10030    2    1    2    0    0  0.00000000000E+00  0.00000000000E+00 -0.30463694289E+03  0.22804843715E+04  0.22600454203E+04 0.  0.
        3    1    3    3  502    0 -0.98650726298E+02 -0.47139824773E+03 -0.11838172315E+04  0.12780342412E+04  0.10100000352E+00 0.  1.
       -3    1    3    3    0  502  0.98650726298E+02  0.47139824773E+03  0.87918028863E+03  0.10024501304E+04  0.10100000352E+00 0. -1.
</event>
<event>
 5   0  0.5632156E-05  0.2320359E+04  0.7818609E-02  0.8469937E-01
       -1   -1    0    0    0  501  0.00000000000E+00  0.00000000000E+00  0.69141684940E+03  0.69141684942E+03  0.50400001928E-02 0. -1.
        1   -1    0    0  501    0  0.00000000000E+00  0.00000000000E+00 -0.19467517356E+04  0.19467517356E+04  0.50400001928E-02 0.  1.
    10030    2    1    2    0    0  0.00000000000E+00  0.00000000000E+00 -0.12553348862E+04  0.26381685851E+04  0.23203594132E+04 0.  0.
        4    1    3    3  502    0 -0.97639565568E+03 -0.14957481956E+03  0.64196599107E+02  0.98987065787E+03  0.12699999809E+01 0.  1.
       -4    1    3    3    0  502  0.97639565568E+03  0.14957481956E+03 -0.13195314853E+04  0.16482979272E+04  0.12699999809E+01 0. -1.
</event>
<event>
 5   0  0.5632156E-05  0.2090698E+04  0.7818609E-02  0.8565352E-01
       -1   -1    0    0    0  501  0.00000000000E+00  0.00000000000E+00  0.15739662687E+04  0.15739662688E+04  0.50400001928E-02 0. -1.
        1   -1    0    0  501    0  0.00000000000E+00  0.00000000000E+00 -0.69426808626E+03  0.69426808628E+03  0.50400001928E-02 0.  1.
    10030    2    1    2    0    0  0.00000000000E+00  0.00000000000E+00  0.87969818249E+03  0.22682343550E+04  0.20906980167E+04 0.  0.
        4    1    3    3  502    0 -0.39242619247E+03  0.65218124885E+03  0.12172240937E+04  0.14356095587E+04  0.12699999809E+01 0. -1.
       -4    1    3    3    0  502  0.39242619247E+03 -0.65218124885E+03 -0.33752591117E+03  0.83262479635E+03  0.12699999809E+01 0.  1.
</event>
<event>
 5   0  0.5642466E-05  0.2293150E+04  0.7818609E-02  0.8480627E-01
        1   -1    0    0  501    0  0.00000000000E+00  0.00000000000E+00  0.18720480930E+04  0.18720480930E+04  0.50400001928E-02 0.  1.
       -1   -1    0    0    0  501  0.00000000000E+00  0.00000000000E+00 -0.70224360884E+03  0.70224360886E+03  0.50400001928E-02 0. -1.
    10030    2    1    2    0    0  0.00000000000E+00  0.00000000000E+00  0.11698044841E+04  0.25742917019E+04  0.22931496321E+04 0.  0.
        1    1    3    3  502    0 -0.37839509156E+03  0.63719552469E+03  0.15670546923E+04  0.17334536021E+04  0.50400001928E-02 0.  1.
       -1    1    3    3    0  502  0.37839509156E+03 -0.63719552469E+03 -0.39725020819E+03  0.84083809971E+03  0.50400001928E-02 0. -1.
</event>
<event>
 5   0  0.1234988E-04  0.2196224E+04  0.7818609E-02  0.8520002E-01
       -2   -1    0    0    0  501  0.00000000000E+00  0.00000000000E+00  0.13652956455E+04  0.13652956455E+04  0.25500000920E-02 0.  1.
        2   -1    0    0  501    0  0.00000000000E+00  0.00000000000E+00 -0.88321501758E+03  0.88321501759E+03  0.25500000920E-02 0. -1.
    10030    2    1    2    0    0  0.00000000000E+00  0.00000000000E+00  0.48208062790E+03  0.22485106631E+04  0.21962236840E+04 0.  0.
        5    1    3    3  502    0 -0.39154023738E+03 -0.10220978285E+04  0.33169094758E+03  0.11436908250E+04  0.46999998093E+01 0. -1.
       -5    1    3    3    0  502  0.39154023738E+03  0.10220978285E+04  0.15038968033E+03  0.11048198380E+04  0.46999998093E+01 0.  1.
</event>
<event>
 5   0  0.5642466E-05  0.2313437E+04  0.7818609E-02  0.8472642E-01
       -1   -1    0    0    0  501  0.00000000000E+00  0.00000000000E+00  0.14145687701E+04  0.14145687701E+04  0.50400001928E-02 0. -1.
        1   -1    0    0  501    0  0.00000000000E+00  0.00000000000E+00 -0.94586967460E+03  0.94586967461E+03  0.50400001928E-02 0.  1.
    10030    2    1    2    0    0  0.00000000000E+00  0.00000000000E+00  0.46869909547E+03  0.23604384447E+04  0.23134370121E+04 0.  0.
        1    1    3    3  502    0  0.57298663114E+03 -0.82416638286E+03 -0.35216289473E+03  0.10637587182E+04  0.50400001928E-02 0.  1.
       -1    1    3    3    0  502 -0.57298663114E+03  0.82416638286E+03  0.82086199019E+03  0.12966797265E+04  0.50400001928E-02 0. -1.
</event>
<event>
 5   0  0.4489500E-05  0.2104324E+04  0.7818609E-02  0.8559341E-01
        3   -1    0    0  501    0  0.00000000000E+00  0.00000000000E+00  0.72462430101E+03  0.72462430805E+03  0.10100000352E+00 0.  1.
       -3   -1    0    0    0  501  0.00000000000E+00  0.00000000000E+00 -0.15277498973E+04  0.15277499006E+04  0.10100000352E+00 0. -1.
    10030    2    1    2    0    0  0.00000000000E+00  0.00000000000E+00 -0.80312559627E+03  0.22523742087E+04  0.21043238469E+04 0.  0.
        5    1    3    3  502    0  0.23513570685E+03 -0.13986021012E+03  0.68587444880E+03  0.73844128306E+03  0.46999998093E+01 0.  1.
       -5    1    3    3    0  502 -0.23513570685E+03  0.13986021012E+03 -0.14890000451E+04  0.15139329256E+04  0.46999998093E+01 0. -1.
</event>
<event>
 5   0  0.1234988E-04  0.2349911E+04  0.7818609E-02  0.8458498E-01
        2   -1    0    0  501    0  0.00000000000E+00  0.00000000000E+00  0.14324370816E+04  0.14324370816E+04  0.25500000920E-02 0.  1.
       -2   -1    0    0    0  501  0.00000000000E+00  0.00000000000E+00 -0.96375664327E+03  0.96375664328E+03  0.25500000920E-02 0. -1.
    10030    2    1    2    0    0  0.00000000000E+00  0.00000000000E+00  0.46868043832E+03  0.23961937249E+04  0.23499112779E+04 0.  0.
        5    1    3    3  502    0  0.29879580408E+03  0.72760907529E+03 -0.65566448717E+03  0.10240175334E+04  0.46999998093E+01 0. -1.
       -5    1    3    3    0  502 -0.29879580408E+03 -0.72760907529E+03  0.11243449255E+04  0.13721761915E+04  0.46999998093E+01 0.  1.
</event>
<event>
 5   0  0.1237296E-04  0.2251484E+04  0.7818609E-02  0.8497300E-01
        2   -1    0    0  501    0  0.00000000000E+00  0.00000000000E+00  0.86014084626E+03  0.86014084626E+03  0.25500000920E-02 0. -1.
       -2   -1    0    0    0  501  0.00000000000E+00  0.00000000000E+00 -0.14733578821E+04  0.14733578821E+04  0.25500000920E-02 0.  1.
    10030    2    1    2    0    0  0.00000000000E+00  0.00000000000E+00 -0.61321703582E+03  0.23334987283E+04  0.22514842176E+04 0.  0.
        1    1    3    3  502    0 -0.43467934266E+03 -0.20866201871E+03 -0.13609197388E+04  0.14438104115E+04  0.50400001928E-02 0.  1.
       -1    1    3    3    0  502  0.43467934266E+03  0.20866201871E+03  0.74770270298E+03  0.88968831680E+03  0.50400001928E-02 0. -1.
</event>
<event>
 5   0  0.1281432E-04  0.2271054E+04  0.7818609E-02  0.8489422E-01
        2   -1    0    0  501    0  0.00000000000E+00  0.00000000000E+00  0.11137655260E+04  0.11137655260E+04  0.25500000920E-02 0.  1.
       -2   -1    0    0    0  501  0.00000000000E+00  0.00000000000E+00 -0.11577140427E+04  0.11577140427E+04  0.25500000920E-02 0. -1.
    10030    2    1    2    0    0  0.00000000000E+00  0.00000000000E+00 -0.43948516711E+02  0.22714795687E+04  0.22710543717E+04 0.  0.
        4    1    3    3  502    0 -0.98024377462E+03  0.29843004056E+03  0.46748637568E+03  0.11262697151E+04  0.12699999809E+01 0.  1.
       -4    1    3    3    0  502  0.98024377462E+03 -0.29843004056E+03 -0.51143489239E+03  0.11452098536E+04  0.12699999809E+01 0. -1.
</event>
<event>
 5   0  0.1234988E-04  0.2258591E+04  0.7818609E-02  0.8494429E-01
        2   -1    0    0  501    0  0.00000000000E+00  0.00000000000E+00  0.22796872651E+04  0.22796872651E+04  0.25500000920E-02 0. -1.
       -2   -1    0    0    0  501  0.00000000000E+00  0.00000000000E+00 -0.55942261744E+03  0.55942261745E+03  0.25500000920E-02 0.  1.
    10030    2    1    2    0    0  0.00000000000E+00  0.00000000000E+00  0.17202646477E+04  0.28391098826E+04  0.22585912572E+04 0.  0.
        5    1    3    3  502    0 -0.98448172038E+03 -0.52198880992E+03  0.10905832728E+04  0.15591890650E+04  0.46999998093E+01 0.  1.
       -5    1    3    3    0  502  0.98448172038E+03  0.52198880992E+03  0.62968137486E+03  0.12799208176E+04  0.46999998093E+01 0. -1.
</event>
<event>
 5   0  0.5632156E-05  0.2029590E+04  0.7818609E-02  0.8592910E-01
        1   -1    0    0  501    0  0.00000000000E+00  0.00000000000E+00  0.84363096167E+03  0.84363096169E+03  0.50400001928E-02 0. -1.
       -1   -1    0    0    0  501  0.00000000000E+00  0.00000000000E+00 -0.12206860927E+04  0.12206860928E+04  0.50400001928E-02 0.  1.
    10030    2    1    2    0    0  0.00000000000E+00  0.00000000000E+00 -0.37705513107E+03  0.20643170544E+04  0.20295896948E+04 0.  0.
        4    1    3    3  502    0  0.12056922588E+03 -0.50230822597E+03  0.69989183482E+03  0.86988544387E+03  0.12699999809E+01 0. -1.
       -4    1    3    3    0  502 -0.12056922588E+03  0.50230822597E+03 -0.10769469659E+04  0.11944316106E+04  0.12699999809E+01 0.  1.
</event>
<event>
 5   0  0.1237296E-04  0.2406667E+04  0.7818609E-02  0.8437012E-01
        2   -1    0    0  501    0  0.00000000000E+00  0.00000000000E+00  0.10151490462E+04  0.10151490462E+04  0.25500000920E-02 0. -1.
       -2   -1    0    0    0  501  0.00000000000E+00  0.00000000000E+00 -0.14264026618E+04  0.14264026618E+04  0.25500000920E-02 0.  1.
    10030    2    1    2    0    0  0.00000000000E+00  0.00000000000E+00 -0.41125361562E+03  0.24415517079E+04  0.24066668249E+04 0.  0.
        1    1    3    3  502    0  0.87239126056E+03  0.80766996528E+03 -0.16881589714E+02  0.11889837141E+04  0.50400001928E-02 0. -1.
       -1    1    3    3    0  502 -0.87239126056E+03 -0.80766996528E+03 -0.39437202591E+03  0.12525679938E+04  0.50400001928E-02 0.  1.
</event>
<event>
 5   0  0.5632156E-05  0.2265615E+04  0.7818609E-02  0.8491603E-01
       -1   -1    0    0    0  501  0.00000000000E+00  0.00000000000E+00  0.68370232597E+03  0.68370232599E+03  0.50400001928E-02 0.  1.
        1   -1    0    0  501    0  0.00000000000E+00  0.00000000000E+00 -0.18769172859E+04  0.18769172859E+04  0.50400001928E-02 0. -1.
    10030    2    1    2    0    0  0.00000000000E+00  0.00000000000E+00 -0.11932149599E+04  0.25606196119E+04  0.22656148958E+04 0.  0.
        4    1    3    3  502    0  0.71669950015E+03  0.12264360107E+03  0.38514817653E+03  0.82282462116E+03  0.12699999809E+01 0.  1.
       -4    1    3    3    0  502 -0.71669950015E+03 -0.12264360107E+03 -0.15783631365E+04  0.17377949907E+04  0.12699999809E+01 0. -1.
</event>
<event>
 5   0  0.5843670E-05  0.2320041E+04  0.7818609E-02  0.8470061E-01
       -1   -1    0    0    0  501  0.00000000000E+00  0.00000000000E+00  0.14772910053E+04  0.14772910053E+04  0.50400001928E-02 0. -1.
        1   -1    0    0  501    0  0.00000000000E+00  0.00000000000E+00 -0.91088836177E+03  0.91088836178E+03  0.50400001928E-02 0.  1.
    10030    2    1    2    0    0  0.00000000000E+00  0.00000000000E+00  0.56640264352E+03  0.23881793671E+04  0.23200406752E+04 0.  0.
        2    1    3    3  502    0 -0.73069560426E+03  0.60511297927E+03 -0.40391303284E+03  0.10311273063E+04  0.25500000920E-02 0.  1.
       -2    1    3    3    0  502  0.73069560426E+03 -0.60511297927E+03  0.97031567636E+03  0.13570520607E+04  0.25500000920E-02 0. -1.
</event>
<event>
 5   0  0.4489500E-05  0.2244463E+04  0.7818609E-02  0.8500146E-01
        4   -1    0    0  501    0  0.00000000000E+00  0.00000000000E+00  0.14885089633E+04  0.14885095051E+04  0.12699999809E+01 0. -1.
       -4   -1    0    0    0  501  0.00000000000E+00  0.00000000000E+00 -0.84608312641E+03  0.84608407957E+03  0.12699999809E+01 0.  1.
    10030    2    1    2    0    0  0.00000000000E+00  0.00000000000E+00  0.64242583691E+03  0.23345935847E+04  0.22444634659E+04 0.  0.
        1    1    3    3  502    0  0.93946864286E+03 -0.10103615398E+03  0.95099699606E+03  0.13405987177E+04  0.50400001928E-02 0. -1.
       -1    1    3    3    0  502 -0.93946864286E+03  0.10103615398E+03 -0.30857115914E+03  0.99399486699E+03  0.50400001928E-02 0.  1.
</event>
<event>
 5   0  0.5642466E-05  0.2307197E+04  0.7818609E-02  0.8475089E-01
        1   -1    0    0  501    0  0.00000000000E+00  0.00000000000E+00  0.68812748782E+03  0.68812748784E+03  0.50400001928E-02 0.  1.
       -1   -1    0    0    0  501  0.00000000000E+00  0.00000000000E+00 -0.19339288568E+04  0.19339288568E+04  0.50400001928E-02 0. -1.
    10030    2    1    2    0    0  0.00000000000E+00  0.00000000000E+00 -0.12458013690E+04  0.26220563446E+04  0.23071970925E+04 0.  0.
        1    1    3    3  502    0 -0.56935175758E+03  0.16075100116E+03  0.50259734878E+03  0.77627727215E+03  0.50400001928E-02 0.  1.
       -1    1    3    3    0  502  0.56935175758E+03 -0.16075100116E+03 -0.17483987177E+04  0.18457790725E+04  0.50400001928E-02 0. -1.
</event>
<event>
 5   0  0.5632156E-05  0.2206898E+04  0.7818609E-02  0.8515562E-01
       -1   -1    0    0    0  501  0.00000000000E+00  0.00000000000E+00  0.88115922111E+03  0.88115922112E+03  0.50400001928E-02 0. -1.
        1   -1    0    0  501    0  0.00000000000E+00  0.00000000000E+00 -0.13818160173E+04  0.13818160173E+04  0.50400001928E-02 0.  1.
    10030    2    1    2    0    0  0.00000000000E+00  0.00000000000E+00 -0.50065679617E+03  0.22629752384E+04  0.22068982084E+04 0.  0.
        4    1    3    3  502    0 -0.64082170751E+03  0.88577235636E+03 -0.97019556792E+02  0.10975698317E+04  0.12699999809E+01 0. -1.
       -4    1    3    3    0  502  0.64082170751E+03 -0.88577235636E+03 -0.40363723938E+03  0.11654054067E+04  0.12699999809E+01 0.  1.
</event>
<event>
 5   0  0.1281432E-04  0.1851610E+04  0.7818609E-02  0.8679325E-01
        2   -1    0    0  501    0  0.00000000000E+00  0.00000000000E+00  0.12233414971E+04  0.12233414971E+04  0.25500000920E-02 0. -1.
       -2   -1    0    0    0  501  0.00000000000E+00  0.00000000000E+00 -0.70063409949E+03  0.70063409949E+03  0.25500000920E-02 0.  1.
    10030    2    1    2    0    0  0.00000000000E+00  0.00000000000E+00  0.52270739763E+03  0.19239755966E+04  0.18516098598E+04 0.  0.
        4    1    3    3  502    0 -0.30385499648E+03  0.60443625928E+03  0.91806878832E+03  0.11404047367E+04  0.12699999809E+01 0. -1.
       -4    1    3    3    0  502  0.30385499648E+03 -0.60443625928E+03 -0.39536139069E+03  0.78357085995E+03  0.12699999809E+01 0.  1.
</event>
<event>
 5   0  0.1281432E-04  0.2204522E+04  0.7818609E-02  0.8516548E-01
       -2   -1    0    0    0  501  0.00000000000E+00  0.00000000000E+00  0.77745788765E+03  0.77745788766E+03  0.25500000920E-02 0.  1.
        2   -1    0    0  501    0  0.00000000000E+00  0.00000000000E+00 -0.15627586443E+04  0.15627586443E+04  0.25500000920E-02 0. -1.
    10030    2    1    2    0    0  0.00000000000E+00  0.00000000000E+00 -0.78530075664E+03  0.23402165320E+04  0.22045217481E+04 0.  0.
        4    1    3    3  502    0  0.22324473616E+03 -0.10633871918E+04 -0.19591368676E+03  0.11040898140E+04  0.12699999809E+01 0.  1.
       -4    1    3    3    0  502 -0.22324473616E+03  0.10633871918E+04 -0.58938706988E+03  0.12361267180E+04  0.12699999809E+01 0. -1.
</event>
<event>
 5   0  0.5663790E-05  0.1466118E+04  0.7818609E-02  0.8907302E-01
       -1   -1    0    0    0  501  0.00000000000E+00  0.00000000000E+00  0.59377173304E+03  0.59377173307E+03  0.50400001928E-02 0.  1.
        1   -1    0    0  501    0  0.00000000000E+00  0.00000000000E+00 -0.90502088491E+03  0.90502088493E+03  0.50400001928E-02 0. -1.
    10030    2    1    2    0    0  0.00000000000E+00  0.00000000000E+00 -0.31124915187E+03  0.14987926180E+04  0.14661184390E+04 0.  0.
        3    1    3    3  502    0 -0.38869684421E+03  0.36740545102E+03  0.35684964447E+03  0.64297253526E+03  0.10100000352E+00 0.  1.
       -3    1    3    3    0  502  0.38869684421E+03 -0.36740545102E+03 -0.66809879634E+03  0.85582008273E+03  0.10100000352E+00 0. -1.
</event>
<event>
 5   0  0.1270613E-04  0.2396565E+04  0.7818609E-02  0.8440791E-01
       -2   -1    0    0    0  501  0.00000000000E+00  0.00000000000E+00  0.49987170128E+03  0.49987170128E+03  0.25500000920E-02 0. -1.
        2   -1    0    0  501    0  0.00000000000E+00  0.00000000000E+00 -0.28724990989E+04  0.28724990989E+04  0.25500000920E-02 0.  1.
    10030    2    1    2    0    0  0.00000000000E+00  0.00000000000E+00 -0.23726273976E+04  0.33723708002E+04  0.23965650515E+04 0.  0.
        2    1    3    3  502    0 -0.31471310236E+03 -0.52281673780E+02 -0.28116409906E+04  0.28296824504E+04  0.25500000920E-02 0.  1.
       -2    1    3    3    0  502  0.31471310236E+03  0.52281673780E+02  0.43901359294E+03  0.54268834979E+03  0.25500000920E-02 0. -1.
</event>
<event>
 5   0  0.5924654E-05  0.2251968E+04  0.7818609E-02  0.8497104E-01
        1   -1    0    0  501    0  0.00000000000E+00  0.00000000000E+00  0.21453938252E+04  0.21453938252E+04  0.50400001928E-02 0.  1.
       -1   -1    0    0    0  501  0.00000000000E+00  0.00000000000E+00 -0.59095893606E+03  0.59095893608E+03  0.50400001928E-02 0. -1.
    10030    2    1    2    0    0  0.00000000000E+00  0.00000000000E+00  0.15544348891E+04  0.27363527613E+04  0.22519677195E+04 0.  0.
        5    1    3    3  502    0  0.85958141268E+03  0.72283568234E+03  0.87477318761E+03  0.14235946925E+04  0.46999998093E+01 0.  1.
       -5    1    3    3    0  502 -0.85958141268E+03 -0.72283568234E+03  0.67966170151E+03  0.13127580688E+04  0.46999998093E+01 0. -1.
</event>
<event>
 5   0  0.1237296E-04  0.2375322E+04  0.7818609E-02  0.8448801E-01
       -2   -1    0    0    0  501  0.00000000000E+00  0.00000000000E+00  0.69660734754E+03  0.69660734754E+03  0.25500000920E-02 0. -1.
        2   -1    0    0  501    0  0.00000000000E+00  0.00000000000E+00 -0.20248687284E+04  0.20248687284E+04  0.25500000920E-02 0.  1.
    10030    2    1    2    0    0  0.00000000000E+00  0.00000000000E+00 -0.13282613809E+04  0.27214760759E+04  0.23753218174E+04 0.  0.
        1    1    3    3  502    0 -0.14396365210E+03 -0.58556434184E+03  0.50817352317E+03  0.78857559006E+03  0.50400001928E-02 0. -1.
       -1    1    3    3    0  502  0.14396365210E+03  0.58556434184E+03 -0.18364349040E+04  0.19329004859E+04  0.50400001928E-02 0.  1.
</event>
<event>
 5   0  0.1281432E-04  0.2220820E+04  0.7818609E-02  0.8509812E-01
        2   -1    0    0  501    0  0.00000000000E+00  0.00000000000E+00  0.13797763300E+04  0.13797763300E+04  0.25500000920E-02 0.  1.
       -2   -1    0    0    0  501  0.00000000000E+00  0.00000000000E+00 -0.89363071904E+03  0.89363071904E+03  0.25500000920E-02 0. -1.
    10030    2    1    2    0    0  0.00000000000E+00  0.00000000000E+00  0.48614561097E+03  0.22734070491E+04  0.22208201313E+04 0.  0.
        4    1    3    3  502    0  0.56684579006E+03  0.92737711825E+03  0.10387985522E+02  0.10869461773E+04  0.12699999809E+01 0. -1.
       -4    1    3    3    0  502 -0.56684579006E+03 -0.92737711825E+03  0.47575762545E+03  0.11864608718E+04  0.12699999809E+01 0.  1.
</event>
<event>
 5   0  0.5663790E-05  0.2260468E+04  0.7818609E-02  0.8493673E-01
        1   -1    0    0  501    0  0.00000000000E+00  0.00000000000E+00  0.19775238467E+04  0.19775238467E+04  0.50400001928E-02 0. -1.
       -1   -1    0    0    0  501  0.00000000000E+00  0.00000000000E+00 -0.64597387478E+03  0.64597387480E+03  0.50400001928E-02 0.  1.
    10030    2    1    2    0    0  0.00000000000E+00  0.00000000000E+00  0.13315499719E+04  0.26234977215E+04  0.22604678646E+04 0.  0.
        3    1    3    3  502    0  0.51437254417E+03  0.19356905967E+03  0.18119987779E+04  0.18935119953E+04  0.10100000352E+00 0. -1.
       -3    1    3    3    0  502 -0.51437254417E+03 -0.19356905967E+03 -0.48044880599E+03  0.72998572619E+03  0.10100000352E+00 0.  1.
</event>
<event>
 5   0  0.1281432E-04  0.2178153E+04  0.7818609E-02  0.8527577E-01
        2   -1    0    0  501    0  0.00000000000E+00  0.00000000000E+00  0.11795109513E+04  0.11795109513E+04  0.25500000920E-02 0. -1.
       -2   -1    0    0    0  501  0.00000000000E+00  0.00000000000E+00 -0.10055753710E+04  0.10055753710E+04  0.25500000920E-02 0.  1.
    10030    2    1    2    0    0  0.00000000000E+00  0.00000000000E+00  0.17393558033E+03  0.21850863222E+04  0.21781525772E+04 0.  0.
        4    1    3    3  502    0 -0.76152170626E+03 -0.47768903084E+03  0.70372847380E+03  0.11416380762E+04  0.12699999809E+01 0. -1.
       -4    1    3    3    0  502  0.76152170626E+03  0.47768903084E+03 -0.52979289347E+03  0.10434482460E+04  0.12699999809E+01 0.  1.
</event>
<event>
 5   0  0.1234988E-04  0.1586951E+04  0.7818609E-02  0.8828605E-01
       -2   -1    0    0    0  501  0.00000000000E+00  0.00000000000E+00  0.15630632904E+04  0.15630632904E+04  0.25500000920E-02 0. -1.
        2   -1    0    0  501    0  0.00000000000E+00  0.00000000000E+00 -0.40280080872E+03  0.40280080873E+03  0.25500000920E-02 0.  1.
    10030    2    1    2    0    0  0.00000000000E+00  0.00000000000E+00  0.11602624816E+04  0.19658640991E+04  0.15869507333E+04 0.  0.
        5    1    3    3  502    0 -0.29090798899E+03 -0.30494809415E+03  0.14129302055E+04  0.14744540189E+04  0.46999998093E+01 0. -1.
       -5    1    3    3    0  502  0.29090798899E+03  0.30494809415E+03 -0.25266772391E+03  0.49141008016E+03  0.46999998093E+01 0.  1.
</event>
<event>
 5   0  0.1237296E-04  0.2316298E+04  0.7818609E-02  0.8471523E-01
        2   -1    0    0  501    0  0.00000000000E+00  0.00000000000E+00  0.14316999910E+04  0.14316999910E+04  0.25500000920E-02 0. -1.
       -2   -1    0    0    0  501  0.00000000000E+00  0.00000000000E+00 -0.93686457262E+03  0.93686457262E+03  0.25500000920E-02 0.  1.
    10030    2    1    2    0    0  0.00000000000E+00  0.00000000000E+00  0.49483541840E+03  0.23685645636E+04  0.23162979085E+04 0.  0.
        1    1    3    3  502    0 -0.86832547395E+03  0.77823468337E+02  0.10270275162E+04  0.13471566873E+04  0.50400001928E-02 0. -1.
       -1    1    3    3    0  502  0.86832547395E+03 -0.77823468337E+02 -0.53219209782E+03  0.10214078764E+04  0.50400001928E-02 0.  1.
</event>
<event>
 5   0  0.5632156E-05  0.2167119E+04  0.7818609E-02  0.8532240E-01
        1   -1    0    0  501    0  0.00000000000E+00  0.00000000000E+00  0.13978250979E+04  0.13978250979E+04  0.50400001928E-02 0. -1.
       -1   -1    0    0    0  501  0.00000000000E+00  0.00000000000E+00 -0.83994818112E+03  0.83994818113E+03  0.50400001928E-02 0.  1.
    10030    2    1    2    0    0  0.00000000000E+00  0.00000000000E+00  0.55787691675E+03  0.22377732790E+04  0.21671185002E+04 0.  0.
        4    1    3    3  502    0 -0.85251784503E+03 -0.64820645304E+03  0.10882276634E+03  0.10764767946E+04  0.12699999809E+01 0. -1.
       -4    1    3    3    0  502  0.85251784503E+03  0.64820645304E+03  0.44905415041E+03  0.11612964844E+04  0.12699999809E+01 0.  1.
</event>
<event>
 5   0  0.1237296E-04  0.2323100E+04  0.7818609E-02  0.8468868E-01
       -2   -1    0    0    0  501  0.00000000000E+00  0.00000000000E+00  0.68058376118E+03  0.68058376118E+03  0.25500000920E-02 0.  1.
        2   -1    0    0  501    0  0.00000000000E+00  0.00000000000E+00 -0.19824140543E+04  0.19824140543E+04  0.25500000920E-02 0. -1.
    10030    2    1    2    0    0  0.00000000000E+00  0.00000000000E+00 -0.13018302932E+04  0.26629978155E+04  0.23231003537E+04 0.  0.
        1    1    3    3  502    0 -0.64779523440E+02 -0.10504917473E+03 -0.19748767742E+04  0.19787293876E+04  0.50400001928E-02 0. -1.
       -1    1    3    3    0  502  0.64779523440E+02  0.10504917473E+03  0.67304648108E+03  0.68426842795E+03  0.50400001928E-02 0.  1.
</event>
<event>
 5   0  0.5843670E-05  0.2298585E+04  0.7818609E-02  0.8478479E-01
        1   -1    0    0  501    0  0.00000000000E+00  0.00000000000E+00  0.10733535147E+04  0.10733535147E+04  0.50400001928E-02 0. -1.
       -1   -1    0    0    0  501  0.00000000000E+00  0.00000000000E+00 -0.12306043968E+04  0.12306043968E+04  0.50400001928E-02 0.  1.
    10030    2    1    2    0    0  0.00000000000E+00  0.00000000000E+00 -0.15725088210E+03  0.23039579115E+04  0.22985852645E+04 0.  0.
        2    1    3    3  502    0  0.27607734752E+02  0.21854219741E+03  0.10519963075E+04  0.10748111974E+04  0.25500000920E-02 0. -1.
       -2    1    3    3    0  502 -0.27607734752E+02 -0.21854219741E+03 -0.12092471896E+04  0.12291467141E+04  0.25500000920E-02 0.  1.
</event>
<event>
 5   0  0.1257524E-04  0.2267895E+04  0.7818609E-02  0.8490688E-01
        2   -1    0    0  501    0  0.00000000000E+00  0.00000000000E+00  0.25623012554E+04  0.25623012554E+04  0.25500000920E-02 0. -1.
       -2   -1    0    0    0  501  0.00000000000E+00  0.00000000000E+00 -0.50182903390E+03  0.50182903390E+03  0.25500000920E-02 0.  1.
    10030    2    1    2    0    0  0.00000000000E+00  0.00000000000E+00  0.20604722215E+04  0.30641302893E+04  0.22678952035E+04 0.  0.
        3    1    3    3  502    0  0.70402885221E+03 -0.76918431265E+03  0.42822583672E+03  0.11272437665E+04  0.10100000352E+00 0.  1.
       -3    1    3    3    0  502 -0.70402885221E+03  0.76918431265E+03  0.16322463847E+04  0.19368865228E+04  0.10100000352E+00 0. -1.
</event>
<event>
 5   0  0.5632156E-05  0.2316270E+04  0.7818609E-02  0.8471534E-01
       -1   -1    0    0    0  501  0.00000000000E+00  0.00000000000E+00  0.19459617998E+04  0.19459617998E+04  0.50400001928E-02 0.  1.
        1   -1    0    0  501    0  0.00000000000E+00  0.00000000000E+00 -0.68926154953E+03  0.68926154955E+03  0.50400001928E-02 0. -1.
    10030    2    1    2    0    0  0.00000000000E+00  0.00000000000E+00  0.12567002502E+04  0.26352233493E+04  0.23162699717E+04 0.  0.
        4    1    3    3  502    0 -0.68119634327E+03 -0.54176274575E+03 -0.24088620362E+03  0.90308532641E+03  0.12699999809E+01 0. -1.
       -4    1    3    3    0  502  0.68119634327E+03  0.54176274575E+03  0.14975864539E+04  0.17321380229E+04  0.12699999809E+01 0.  1.
</event>
<event>
 5   0  0.5632156E-05  0.2468675E+04  0.7818609E-02  0.8414231E-01
       -1   -1    0    0    0  501  0.00000000000E+00  0.00000000000E+00  0.12486353601E+04  0.12486353601E+04  0.50400001928E-02 0.  1.
        1   -1    0    0  501    0  0.00000000000E+00  0.00000000000E+00 -0.12202031198E+04  0.12202031198E+04  0.50400001928E-02 0. -1.
    10030    2    1    2    0    0  0.00000000000E+00  0.00000000000E+00  0.28432240281E+02  0.24688384799E+04  0.24686747553E+04 0.  0.
        4    1    3    3  502    0  0.50852670044E+03 -0.99774099574E+02 -0.11061406749E+04  0.12215167136E+04  0.12699999809E+01 0. -1.
       -4    1    3    3    0  502 -0.50852670044E+03  0.99774099574E+02  0.11345729152E+04  0.12473217663E+04  0.12699999809E+01 0.  1.
</event>
<event>
 5   0  0.1237296E-04  0.2038904E+04  0.7818609E-02  0.8588645E-01
       -2   -1    0    0    0  501  0.00000000000E+00  0.00000000000E+00  0.11267701598E+04  0.11267701598E+04  0.25500000920E-02 0. -1.
        2   -1    0    0  501    0  0.00000000000E+00  0.00000000000E+00 -0.92235483983E+03  0.92235483983E+03  0.25500000920E-02 0.  1.
    10030    2    1    2    0    0  0.00000000000E+00  0.00000000000E+00  0.20441531995E+03  0.20491249996E+04  0.20389035389E+04 0.  0.
        1    1    3    3  502    0 -0.77398980737E+03  0.27720125198E+03 -0.50362540459E+03  0.96412618686E+03  0.50400001928E-02 0.  1.
       -1    1    3    3    0  502  0.77398980737E+03 -0.27720125198E+03  0.70804072454E+03  0.10849988127E+04  0.50400001928E-02 0. -1.
</event>
<event>
 5   0  0.1281432E-04  0.1471057E+04  0.7818609E-02  0.8903931E-01
        2   -1    0    0  501    0  0.00000000000E+00  0.00000000000E+00  0.11131691792E+04  0.11131691792E+04  0.25500000920E-02 0. -1.
       -2   -1    0    0    0  501  0.00000000000E+00  0.00000000000E+00 -0.48600160135E+03  0.48600160135E+03  0.25500000920E-02 0.  1.
    10030    2    1    2    0    0  0.00000000000E+00  0.00000000000E+00  0.62716757789E+03  0.15991707806E+04  0.14710567680E+04 0.  0.
        4    1    3    3  502    0 -0.13942738394E+03  0.64950797183E+03 -0.29667783228E+02  0.66496796248E+03  0.12699999809E+01 0. -1.
       -4    1    3    3    0  502  0.13942738394E+03 -0.64950797183E+03  0.65683536111E+03  0.93420281811E+03  0.12699999809E+01 0.  1.
</event>
<event>
 5   0  0.5924654E-05  0.2359413E+04  0.7818609E-02  0.8454857E-01
       -1   -1    0    0    0  501  0.00000000000E+00  0.00000000000E+00  0.11760087182E+04  0.11760087182E+04  0.50400001928E-02 0. -1.
        1   -1    0    0  501    0  0.00000000000E+00  0.00000000000E+00 -0.11834159640E+04  0.11834159640E+04  0.50400001928E-02 0.  1.
    10030    2    1    2    0    0  0.00000000000E+00  0.00000000000E+00 -0.74072457514E+01  0.23594246822E+04  0.23594130550E+04 0.  0.
        5    1    3    3  502    0  0.16633595778E+03  0.11673934655E+04 -0.38492396391E+02  0.11798215580E+04  0.46999998093E+01 0. -1.
       -5    1    3    3    0  502 -0.16633595778E+03 -0.11673934655E+04  0.31085150640E+02  0.11796031242E+04  0.46999998093E+01 0.  1.
</event>
<event>
 5   0  0.1237296E-04  0.2341759E+04  0.7818609E-02  0.8461636E-01
       -2   -1    0    0    0  501  0.00000000000E+00  0.00000000000E+00  0.94967049964E+03  0.94967049965E+03  0.25500000920E-02 0. -1.
        2   -1    0    0  501    0  0.00000000000E+00  0.00000000000E+00 -0.14436149215E+04  0.14436149215E+04  0.25500000920E-02 0.  1.
    10030    2    1    2    0    0  0.00000000000E+00  0.00000000000E+00 -0.49394442181E+03  0.23932854211E+04  0.23417587440E+04 0.  0.
        1    1    3    3  502    0  0.50777215353E+03  0.69752207926E+03  0.56201879033E+03  0.10296770036E+04  0.50400001928E-02 0. -1.
       -1    1    3    3    0  502 -0.50777215353E+03 -0.69752207926E+03 -0.10559632121E+04  0.13636084175E+04  0.50400001928E-02 0.  1.
</event>
<event>
 5   0  0.1257524E-04  0.1607297E+04  0.7818609E-02  0.8816078E-01
        2   -1    0    0  501    0  0.00000000000E+00  0.00000000000E+00  0.94708426175E+03  0.94708426175E+03  0.25500000920E-02 0. -1.
       -2   -1    0    0    0  501  0.00000000000E+00  0.00000000000E+00 -0.68193608781E+03  0.68193608781E+03  0.25500000920E-02 0.  1.
    10030    2    1    2    0    0  0.00000000000E+00  0.00000000000E+00  0.26514817394E+03  0.16290203496E+04  0.16072970308E+04 0.  0.
        3    1    3    3  502    0 -0.35851294500E+03 -0.63212713616E+03 -0.21518826742E+03  0.75790649070E+03  0.10100000352E+00 0.  1.
       -3    1    3    3    0  502  0.35851294500E+03  0.63212713616E+03  0.48033644136E+03  0.87111385886E+03  0.10100000352E+00 0. -1.
</event>
<event>
 5   0  0.5642466E-05  0.2394184E+04  0.7818609E-02  0.8441684E-01
       -1   -1    0    0    0  501  0.00000000000E+00  0.00000000000E+00  0.87478989922E+03  0.87478989923E+03  0.50400001928E-02 0. -1.
        1   -1    0    0  501    0  0.00000000000E+00  0.00000000000E+00 -0.16381411692E+04  0.16381411693E+04  0.50400001928E-02 0.  1.
    10030    2    1    2    0    0  0.00000000000E+00  0.00000000000E+00 -0.76335127003E+03  0.25129310685E+04  0.23941840768E+04 0.  0.
        1    1    3    3  502    0  0.70396990801E+02  0.91503873615E+03 -0.11884184257E+04  0.15015292137E+04  0.50400001928E-02 0.  1.
       -1    1    3    3    0  502 -0.70396990801E+02 -0.91503873615E+03  0.42506715570E+03  0.10114018548E+04  0.50400001928E-02 0. -1.
</event>
<event>
 5   0  0.5632156E-05  0.2282571E+04  0.7818609E-02  0.8484825E-01
        1   -1    0    0  501    0  0.00000000000E+00  0.00000000000E+00  0.10350505323E+04  0.10350505324E+04  0.50400001928E-02 0. -1.
       -1   -1    0    0    0  501  0.00000000000E+00  0.00000000000E+00 -0.12584241229E+04  0.12584241229E+04  0.50400001928E-02 0.  1.
    10030    2    1    2    0    0  0.00000000000E+00  0.00000000000E+00 -0.22337359056E+03  0.22934746553E+04  0.22825709701E+04 0.  0.
        4    1    3    3  502    0 -0.10514412874E+04 -0.43984398739E+03 -0.17146411097E+03  0.11525593556E+04  0.12699999809E+01 0.  1.
       -4    1    3    3    0  502  0.10514412874E+04  0.43984398739E+03 -0.51909479590E+02  0.11409152996E+04  0.12699999809E+01 0. -1.
</event>
<event>
 5   0  0.5663790E-05  0.1196429E+04  0.7818609E-02  0.9115988E-01
        1   -1    0    0  501    0  0.00000000000E+00  0.00000000000E+00  0.36441505352E+03  0.36441505356E+03  0.50400001928E-02 0.  1.
       -1   -1    0    0    0  501  0.00000000000E+00  0.00000000000E+00 -0.98201327939E+03  0.98201327940E+03  0.50400001928E-02 0. -1.
    10030    2    1    2    0    0  0.00000000000E+00  0.00000000000E+00 -0.61759822587E+03  0.13464283330E+04  0.11964287222E+04 0.  0.
        3    1    3    3  502    0  0.22456162545E+03  0.17204961760E+03 -0.90197991723E+03  0.94530247848E+03  0.10100000352E+00 0. -1.
       -3    1    3    3    0  502 -0.22456162545E+03 -0.17204961760E+03  0.28438169136E+03  0.40112585447E+03  0.10100000352E+00 0.  1.
</event>
<event>
 5   0  0.5924654E-05  0.2301383E+04  0.7818609E-02  0.8477376E-01
        1   -1    0    0  501    0  0.00000000000E+00  0.00000000000E+00  0.18581720070E+04  0.18581720070E+04  0.50400001928E-02 0.  1.
       -1   -1    0    0    0  501  0.00000000000E+00  0.00000000000E+00 -0.71257717215E+03  0.71257717217E+03  0.50400001928E-02 0. -1.
    10030    2    1    2    0    0  0.00000000000E+00  0.00000000000E+00  0.11455948349E+04  0.25707491792E+04  0.23013830226E+04 0.  0.
        5    1    3    3  502    0 -0.48701607778E+03  0.92641979402E+03  0.38678512628E+02  0.10473568695E+04  0.46999998093E+01 0. -1.
       -5    1    3    3    0  502  0.48701607778E+03 -0.92641979402E+03  0.11069163222E+04  0.15233923097E+04  0.46999998093E+01 0.  1.
</event>
<event>
 5   0  0.5663790E-05  0.2357391E+04  0.7818609E-02  0.8455630E-01
        1   -1    0    0  501    0  0.00000000000E+00  0.00000000000E+00  0.12004815407E+04  0.12004815407E+04  0.50400001928E-02 0.  1.
       -1   -1    0    0    0  501  0.00000000000E+00  0.00000000000E+00 -0.11573049627E+04  0.11573049627E+04  0.50400001928E-02 0. -1.
    10030    2    1    2    0    0  0.00000000000E+00  0.00000000000E+00  0.43176578052E+02  0.23577865034E+04  0.23573911382E+04 0.  0.
        3    1    3    3  502    0 -0.10952834411E+04 -0.27673620876E+03  0.35793993058E+03  0.11850526359E+04  0.10100000352E+00 0.  1.
       -3    1    3    3    0  502  0.10952834411E+04  0.27673620876E+03 -0.31476335252E+03  0.11727338675E+04  0.10100000352E+00 0. -1.
</event>
<event>
 5   0  0.1281432E-04  0.2206991E+04  0.7818609E-02  0.8515524E-01
        2   -1    0    0  501    0  0.00000000000E+00  0.00000000000E+00  0.11185745232E+04  0.11185745232E+04  0.25500000920E-02 0. -1.
       -2   -1    0    0    0  501  0.00000000000E+00  0.00000000000E+00 -0.10886200615E+04  0.10886200615E+04  0.25500000920E-02 0.  1.
    10030    2    1    2    0    0  0.00000000000E+00  0.00000000000E+00  0.29954461688E+02  0.22071945847E+04  0.22069913151E+04 0.  0.
        4    1    3    3  502    0  0.67170960249E+02  0.93167574118E+03  0.60254255801E+03  0.11115713075E+04  0.12699999809E+01 0. -1.
       -4    1    3    3    0  502 -0.67170960249E+02 -0.93167574118E+03 -0.57258809632E+03  0.10956232772E+04  0.12699999809E+01 0.  1.
</event>
<event>
 5   0  0.1237296E-04  0.2394351E+04  0.7818609E-02  0.8441621E-01
       -2   -1    0    0    0  501  0.00000000000E+00  0.00000000000E+00  0.10207548603E+04  0.10207548603E+04  0.25500000920E-02 0. -1.
        2   -1    0    0  501    0  0.00000000000E+00  0.00000000000E+00 -0.14040879041E+04  0.14040879041E+04  0.25500000920E-02 0.  1.
    10030    2    1    2    0    0  0.00000000000E+00  0.00000000000E+00 -0.38333304387E+03  0.24248427644E+04  0.23943513129E+04 0.  0.
        1    1    3    3  502    0 -0.49349860990E+03  0.10870827007E+04 -0.10142579733E+03  0.11981556112E+04  0.50400001928E-02 0.  1.
       -1    1    3    3    0  502  0.49349860990E+03 -0.10870827007E+04 -0.28190724654E+03  0.12266871532E+04  0.50400001928E-02 0. -1.
</event>
<event>
 5   0  0.5843670E-05  0.2330742E+04  0.7818609E-02  0.8465898E-01
       -1   -1    0    0    0  501  0.00000000000E+00  0.00000000000E+00  0.10643573492E+04  0.10643573492E+04  0.50400001928E-02 0.  1.
        1   -1    0    0  501    0  0.00000000000E+00  0.00000000000E+00 -0.12759713727E+04  0.12759713728E+04  0.50400001928E-02 0. -1.
    10030    2    1    2    0    0  0.00000000000E+00  0.00000000000E+00 -0.21161402353E+03  0.23403287220E+04  0.23307419488E+04 0.  0.
        2    1    3    3  502    0 -0.26864131598E+03  0.95654499213E+02  0.10287838240E+04  0.10675739302E+04  0.25500000920E-02 0.  1.
       -2    1    3    3    0  502  0.26864131598E+03 -0.95654499213E+02 -0.12403978475E+04  0.12727547918E+04  0.25500000920E-02 0. -1.
</event>
<event>
 5   0  0.1234988E-04  0.2261323E+04  0.7818609E-02  0.8493329E-01
       -2   -1    0    0    0  501  0.00000000000E+00  0.00000000000E+00  0.14825089226E+04  0.14825089226E+04  0.25500000920E-02 0. -1.
        2   -1    0    0  501    0  0.00000000000E+00  0.00000000000E+00 -0.86231880297E+03  0.86231880297E+03  0.25500000920E-02 0.  1.
    10030    2    1    2    0    0  0.00000000000E+00  0.00000000000E+00  0.62019011965E+03  0.23448277256E+04  0.22613229045E+04 0.  0.
        5    1    3    3  502    0 -0.38873826289E+02 -0.10189398827E+03  0.14770322216E+04  0.14810603745E+04  0.46999998093E+01 0. -1.
       -5    1    3    3    0  502  0.38873826289E+02  0.10189398827E+03 -0.85684210194E+03  0.86376735113E+03  0.46999998093E+01 0.  1.
</event>
<event>
 5   0  0.5843670E-05  0.2249311E+04  0.7818609E-02  0.8498180E-01
        1   -1    0    0  501    0  0.00000000000E+00  0.00000000000E+00  0.94298878105E+03  0.94298878106E+03  0.50400001928E-02 0.  1.
       -1   -1    0    0    0  501  0.00000000000E+00  0.00000000000E+00 -0.13413204809E+04  0.13413204810E+04  0.50400001928E-02 0. -1.
    10030    2    1    2    0    0  0.00000000000E+00  0.00000000000E+00 -0.39833169990E+03  0.22843092620E+04  0.22493111526E+04 0.  0.
        2    1    3    3  502    0  0.40989180696E+03  0.77195802046E+02  0.86153713292E+03  0.95719210020E+03  0.25500000920E-02 0.  1.
       -2    1    3    3    0  502 -0.40989180696E+03 -0.77195802046E+02 -0.12598688328E+04  0.13271171618E+04  0.25500000920E-02 0. -1.
</event>
<event>
 5   0  0.1270613E-04  0.2119893E+04  0.7818609E-02  0.8552530E-01
        2   -1    0    0  501    0  0.00000000000E+00  0.00000000000E+00  0.18232910116E+04  0.18232910116E+04  0.25500000920E-02 0.  1.
       -2   -1    0    0    0  501  0.00000000000E+00  0.00000000000E+00 -0.61618629214E+03  0.61618629214E+03  0.25500000920E-02 0. -1.
    10030    2    1    2    0    0  0.00000000000E+00  0.00000000000E+00  0.12071047195E+04  0.24394773037E+04  0.21198933256E+04 0.  0.
        2    1    3    3  502    0  0.84926761212E+03  0.44805841992E+03  0.87024836470E+02  0.96414996076E+03  0.25500000920E-02 0. -1.
       -2    1    3    3    0  502 -0.84926761212E+03 -0.44805841992E+03  0.11200798830E+04  0.14753273430E+04  0.25500000920E-02 0.  1.
</event>
<event>
 5   0  0.1257524E-04  0.2261188E+04  0.7818609E-02  0.8493383E-01
        2   -1    0    0  501    0  0.00000000000E+00  0.00000000000E+00  0.14954834220E+04  0.14954834220E+04  0.25500000920E-02 0. -1.
       -2   -1    0    0    0  501  0.00000000000E+00  0.00000000000E+00 -0.85473520578E+03  0.85473520578E+03  0.25500000920E-02 0.  1.
    10030    2    1    2    0    0  0.00000000000E+00  0.00000000000E+00  0.64074821622E+03  0.23502186278E+04  0.22611875910E+04 0.  0.
        3    1    3    3  502    0  0.52159278453E+03  0.85185885055E+03 -0.23012094447E+03  0.10250259477E+04  0.10100000352E+00 0.  1.
       -3    1    3    3    0  502 -0.52159278453E+03 -0.85185885055E+03  0.87086916069E+03  0.13251926801E+04  0.10100000352E+00 0. -1.
</event>
<event>
 5   0  0.4489500E-05  0.2079011E+04  0.7818609E-02  0.8570546E-01
       -3   -1    0    0    0  501  0.00000000000E+00  0.00000000000E+00  0.86384964558E+03  0.86384965149E+03  0.10100000352E+00 0. -1.
        3   -1    0    0  501    0  0.00000000000E+00  0.00000000000E+00 -0.12508798527E+04  0.12508798567E+04  0.10100000352E+00 0.  1.
    10030    2    1    2    0    0  0.00000000000E+00  0.00000000000E+00 -0.38703020708E+03  0.21147295082E+04  0.20790114266E+04 0.  0.
        1    1    3    3  502    0  0.61479507130E+03 -0.80282790808E+03 -0.43862495519E+03  0.11022238797E+04  0.50400001928E-02 0. -1.
       -1    1    3    3    0  502 -0.61479507130E+03  0.80282790808E+03  0.51594748102E+02  0.10125056285E+04  0.50400001928E-02 0.  1.
</event>
<event>
 5   0  0.1237296E-04  0.2253472E+04  0.7818609E-02  0.8496496E-01
       -2   -1    0    0    0  501  0.00000000000E+00  0.00000000000E+00  0.71864282862E+03  0.71864282862E+03  0.25500000920E-02 0. -1.
        2   -1    0    0  501    0  0.00000000000E+00  0.00000000000E+00 -0.17665721157E+04  0.17665721157E+04  0.25500000920E-02 0.  1.
    10030    2    1    2    0    0  0.00000000000E+00  0.00000000000E+00 -0.10479292871E+04  0.24852149444E+04  0.22534723271E+04 0.  0.
        1    1    3    3  502    0 -0.73091939504E+02  0.99942331934E+03  0.44125382642E+02  0.10030635335E+04  0.50400001928E-02 0. -1.
       -1    1    3    3    0  502  0.73091939504E+02 -0.99942331934E+03 -0.10920546698E+04  0.14821514108E+04  0.50400001928E-02 0.  1.
</event>
<event>
 5   0  0.1281432E-04  0.1915420E+04  0.7818609E-02  0.8647219E-01
       -2   -1    0    0    0  501  0.00000000000E+00  0.00000000000E+00  0.79376148451E+03  0.79376148452E+03  0.25500000920E-02 0.  1.
        2   -1    0    0  501    0  0.00000000000E+00  0.00000000000E+00 -0.11555215046E+04  0.11555215046E+04  0.25500000920E-02 0. -1.
    10030    2    1    2    0    0  0.00000000000E+00  0.00000000000E+00 -0.36176002009E+03  0.19492829891E+04  0.19154200217E+04 0.  0.
        4    1    3    3  502    0  0.47987359012E+03  0.60446512204E+03 -0.75795891424E+03  0.10817393747E+04  0.12699999809E+01 0. -1.
       -4    1    3    3    0  502 -0.47987359012E+03 -0.60446512204E+03  0.39619889415E+03  0.86754361440E+03  0.12699999809E+01 0.  1.
</event>
<event>
 5   0  0.5924654E-05  0.1954126E+04  0.7818609E-02  0.8628374E-01
       -1   -1    0    0    0  501  0.00000000000E+00  0.00000000000E+00  0.53596018633E+03  0.53596018636E+03  0.50400001928E-02 0.  1.
        1   -1    0    0  501    0  0.00000000000E+00  0.00000000000E+00 -0.17812003117E+04  0.17812003117E+04  0.50400001928E-02 0. -1.
    10030    2    1    2    0    0  0.00000000000E+00  0.00000000000E+00 -0.12452401253E+04  0.23171604980E+04  0.19541263531E+04 0.  0.
        5    1    3    3  502    0 -0.21200558232E+02 -0.96440568066E+02 -0.17752551322E+04  0.17780053772E+04  0.46999998093E+01 0. -1.
       -5    1    3    3    0  502  0.21200558232E+02  0.96440568066E+02  0.53001500687E+03  0.53915512086E+03  0.46999998093E+01 0.  1.
</event>
<event>
 5   0  0.5632156E-05  0.2139882E+04  0.7818609E-02  0.8543876E-01
       -1   -1    0    0    0  501  0.00000000000E+00  0.00000000000E+00  0.99153225638E+03  0.99153225640E+03  0.50400001928E-02 0.  1.
        1   -1    0    0  501    0  0.00000000000E+00  0.00000000000E+00 -0.11545501567E+04  0.11545501567E+04  0.50400001928E-02 0. -1.
    10030    2    1    2    0    0  0.00000000000E+00  0.00000000000E+00 -0.16301790034E+03  0.21460824131E+04  0.21398819800E+04 0.  0.
        4    1    3    3  502    0  0.43423915632E+03  0.33707644116E+03 -0.10020945828E+04  0.11429695262E+04  0.12699999809E+01 0. -1.
       -4    1    3    3    0  502 -0.43423915632E+03 -0.33707644116E+03  0.83907668243E+03  0.10031128869E+04  0.12699999809E+01 0.  1.
</event>
<event>
 5   0  0.5924654E-05  0.2235664E+04  0.7818609E-02  0.8503729E-01
        1   -1    0    0  501    0  0.00000000000E+00  0.00000000000E+00  0.14703797510E+04  0.14703797510E+04  0.50400001928E-02 0. -1.
       -1   -1    0    0    0  501  0.00000000000E+00  0.00000000000E+00 -0.84981341635E+03  0.84981341637E+03  0.50400001928E-02 0.  1.
    10030    2    1    2    0    0  0.00000000000E+00  0.00000000000E+00  0.62056633464E+03  0.23201931674E+04  0.22356640531E+04 0.  0.
        5    1    3    3  502    0  0.51636012200E+03  0.95383379697E+03  0.29691168234E+02  0.10850485442E+04  0.46999998093E+01 0.  1.
       -5    1    3    3    0  502 -0.51636012200E+03 -0.95383379697E+03  0.59087516641E+03  0.12351446232E+04  0.46999998093E+01 0. -1.
</event>
<event>
 5   0  0.1257524E-04  0.2399809E+04  0.7818609E-02  0.8439575E-01
       -2   -1    0    0    0  501  0.00000000000E+00  0.00000000000E+00  0.59753107338E+03  0.59753107339E+03  0.25500000920E-02 0.  1.
        2   -1    0    0  501    0  0.00000000000E+00  0.00000000000E+00 -0.24095337738E+04  0.24095337738E+04  0.25500000920E-02 0. -1.
    10030    2    1    2    0    0  0.00000000000E+00  0.00000000000E+00 -0.18120027004E+04  0.30070648472E+04  0.23998094110E+04 0.  0.
        3    1    3    3  502    0  0.17214948840E+03 -0.55012998516E+03  0.41266980422E+03  0.70892511906E+03  0.10100000352E+00 0.  1.
       -3    1    3    3    0  502 -0.17214948840E+03  0.55012998516E+03 -0.22246725046E+04  0.22981397281E+04  0.10100000352E+00 0. -1.
</event>
<event>
 5   0  0.1270613E-04  0.2280297E+04  0.7818609E-02  0.8485730E-01
        2   -1    0    0  501    0  0.00000000000E+00  0.00000000000E+00  0.73821543659E+03  0.73821543660E+03  0.25500000920E-02 0.  1.
       -2   -1    0    0    0  501  0.00000000000E+00  0.00000000000E+00 -0.17609209028E+04  0.17609209028E+04  0.25500000920E-02 0. -1.
    10030    2    1    2    0    0  0.00000000000E+00  0.00000000000E+00 -0.10227054662E+04  0.24991363394E+04  0.22802973430E+04 0.  0.
        2    1    3    3  502    0  0.36235456876E+03  0.92922524940E+03 -0.11167988572E+04  0.14973309871E+04  0.25500000920E-02 0. -1.
       -2    1    3    3    0  502 -0.36235456876E+03 -0.92922524940E+03  0.94093390955E+02  0.10018053523E+04  0.25500000920E-02 0.  1.
</event>
<event>
 5   0  0.1234988E-04  0.2315387E+04  0.7818609E-02  0.8471879E-01
        2   -1    0    0  501    0  0.00000000000E+00  0.00000000000E+00  0.14730080698E+04  0.14730080698E+04  0.25500000920E-02 0. -1.
       -2   -1    0    0    0  501  0.00000000000E+00  0.00000000000E+00 -0.90987544573E+03  0.90987544574E+03  0.25500000920E-02 0.  1.
    10030    2    1    2    0    0  0.00000000000E+00  0.00000000000E+00  0.56313262410E+03  0.23828835156E+04  0.23153866840E+04 0.  0.
        5    1    3    3  502    0 -0.10067031359E+04 -0.27505844967E+03  0.79729690992E+03  0.13133212886E+04  0.46999998093E+01 0. -1.
       -5    1    3    3    0  502  0.10067031359E+04  0.27505844967E+03 -0.23416428582E+03  0.10695622269E+04  0.46999998093E+01 0.  1.
</event>
<event>
 5   0  0.5632156E-05  0.2216612E+04  0.7818609E-02  0.8511545E-01
        1   -1    0    0  501    0  0.00000000000E+00  0.00000000000E+00  0.69217623928E+03  0.69217623929E+03  0.50400001928E-02 0.  1.
       -1   -1    0    0    0  501  0.00000000000E+00  0.00000000000E+00 -0.17746092689E+04  0.17746092689E+04  0.50400001928E-02 0. -1.
    10030    2    1    2    0    0  0.00000000000E+00  0.00000000000E+00 -0.10824330296E+04  0.24667855082E+04  0.22166121627E+04 0.  0.
        4    1    3    3  502    0  0.74972862309E+03 -0.76434438814E+03 -0.22249170666E+03  0.10935353329E+04  0.12699999809E+01 0.  1.
       -4    1    3    3    0  502 -0.74972862309E+03  0.76434438814E+03 -0.85994132293E+03  0.13732501752E+04  0.12699999809E+01 0. -1.
</event>
<event>
 5   0  0.5642466E-05  0.2254818E+04  0.7818609E-02  0.8495952E-01
       -1   -1    0    0    0  501  0.00000000000E+00  0.00000000000E+00  0.98217229674E+03  0.98217229675E+03  0.50400001928E-02 0.  1.
        1   -1    0    0  501    0  0.00000000000E+00  0.00000000000E+00 -0.12941223845E+04  0.12941223845E+04  0.50400001928E-02 0. -1.
    10030    2    1    2    0    0  0.00000000000E+00  0.00000000000E+00 -0.31195008780E+03  0.22762946813E+04  0.22548180900E+04 0.  0.
        1    1    3    3  502    0 -0.75084033880E+03 -0.28276736997E+03 -0.95556234095E+03  0.12477251249E+04  0.50400001928E-02 0. -1.
       -1    1    3    3    0  502  0.75084033880E+03  0.28276736997E+03  0.64361225315E+03  0.10285695564E+04  0.50400001928E-02 0.  1.
</event>
<event>
 5   0  0.1270613E-04  0.2332704E+04  0.7818609E-02  0.8465137E-01
        2   -1    0    0  501    0  0.00000000000E+00  0.00000000000E+00  0.10465945427E+04  0.10465945427E+04  0.25500000920E-02 0. -1.
       -2   -1    0    0    0  501  0.00000000000E+00  0.00000000000E+00 -0.12998132912E+04  0.12998132912E+04  0.25500000920E-02 0.  1.
    10030    2    1    2    0    0  0.00000000000E+00  0.00000000000E+00 -0.25321874847E+03  0.23464078339E+04  0.23327044365E+04 0.  0.
        2    1    3    3  502    0  0.23303845752E+02  0.53300127977E+03  0.91666433615E+03  0.10606163013E+04  0.25500000920E-02 0. -1.
       -2    1    3    3    0  502 -0.23303845752E+02 -0.53300127977E+03 -0.11698830846E+04  0.12857915325E+04  0.25500000920E-02 0.  1.
</event>
<event>
 5   0  0.4489500E-05  0.2301550E+04  0.7818609E-02  0.8477310E-01
        3   -1    0    0  501    0  0.00000000000E+00  0.00000000000E+00  0.14651937079E+04  0.14651937114E+04  0.10100000352E+00 0.  1.
       -3   -1    0    0    0  501  0.00000000000E+00  0.00000000000E+00 -0.90382796774E+03  0.90382797339E+03  0.10100000352E+00 0. -1.
    10030    2    1    2    0    0  0.00000000000E+00  0.00000000000E+00  0.56136574015E+03  0.23690216848E+04  0.23015499666E+04 0.  0.
        4    1    3    3  502    0 -0.29650619960E+03 -0.89193782554E+03 -0.40271803300E+03  0.10225714831E+04  0.12699999809E+01 0. -1.
       -4    1    3    3    0  502  0.29650619960E+03  0.89193782554E+03  0.96408377315E+03  0.13464502017E+04  0.12699999809E+01 0.  1.
</event>
<event>
 5   0  0.5632156E-05  0.2365729E+04  0.7818609E-02  0.8452447E-01
        1   -1    0    0  501    0  0.00000000000E+00  0.00000000000E+00  0.11836489396E+04  0.11836489397E+04  0.50400001928E-02 0.  1.
       -1   -1    0    0    0  501  0.00000000000E+00  0.00000000000E+00 -0.11820807607E+04  0.11820807607E+04  0.50400001928E-02 0. -1.
    10030    2    1    2    0    0  0.00000000000E+00  0.00000000000E+00  0.15681789513E+01  0.23657297004E+04  0.23657291806E+04 0.  0.
        4    1    3    3  502    0  0.76055302250E+02 -0.39362384505E+03  0.11136378219E+04  0.11836025312E+04  0.12699999809E+01 0.  1.
       -4    1    3    3    0  502 -0.76055302250E+02  0.39362384505E+03 -0.11120696430E+04  0.11821271692E+04  0.12699999809E+01 0. -1.
</event>
<event>
 5   0  0.1281432E-04  0.2310842E+04  0.7818609E-02  0.8473659E-01
       -2   -1    0    0    0  501  0.00000000000E+00  0.00000000000E+00  0.71524806513E+03  0.71524806514E+03  0.25500000920E-02 0. -1.
        2   -1    0    0  501    0  0.00000000000E+00  0.00000000000E+00 -0.18664817454E+04  0.18664817454E+04  0.25500000920E-02 0.  1.
    10030    2    1    2    0    0  0.00000000000E+00  0.00000000000E+00 -0.11512336803E+04  0.25817298106E+04  0.23108418008E+04 0.  0.
        4    1    3    3  502    0  0.88967210824E+03  0.20011224053E+03  0.21708898744E+03  0.93738498513E+03  0.12699999809E+01 0. -1.
       -4    1    3    3    0  502 -0.88967210824E+03 -0.20011224053E+03 -0.13683226678E+04  0.16443448254E+04  0.12699999809E+01 0.  1.
</event>
<event>
 5   0  0.5924654E-05  0.2304683E+04  0.7818609E-02  0.8476077E-01
        1   -1    0    0  501    0  0.00000000000E+00  0.00000000000E+00  0.12825743250E+04  0.12825743250E+04  0.50400001928E-02 0. -1.
       -1   -1    0    0    0  501  0.00000000000E+00  0.00000000000E+00 -0.10353325787E+04  0.10353325788E+04  0.50400001928E-02 0.  1.
    10030    2    1    2    0    0  0.00000000000E+00  0.00000000000E+00  0.24724174627E+03  0.23179069038E+04  0.23046830441E+04 0.  0.
        5    1    3    3  502    0 -0.26247546052E+03  0.10687213107E+04  0.46735711627E+03  0.11956184055E+04  0.46999998093E+01 0. -1.
       -5    1    3    3    0  502  0.26247546052E+03 -0.10687213107E+04 -0.22011537000E+03  0.11222884983E+04  0.46999998093E+01 0.  1.
</event>
<event>
 5   0  0.1257524E-04  0.2242582E+04  0.7818609E-02  0.8500911E-01
        2   -1    0    0  501    0  0.00000000000E+00  0.00000000000E+00  0.13224013043E+04  0.13224013043E+04  0.25500000920E-02 0.  1.
       -2   -1    0    0    0  501  0.00000000000E+00  0.00000000000E+00 -0.95076536267E+03  0.95076536268E+03  0.25500000920E-02 0. -1.
    10030    2    1    2    0    0  0.00000000000E+00  0.00000000000E+00  0.37163594159E+03  0.22731666669E+04  0.22425818653E+04 0.  0.
        3    1    3    3  502    0 -0.34735436740E+03  0.31115662766E+03 -0.84780469307E+03  0.96759821790E+03  0.10100000352E+00 0. -1.
       -3    1    3    3    0  502  0.34735436740E+03 -0.31115662766E+03  0.12194406347E+04  0.13055684490E+04  0.10100000352E+00 0.  1.
</event>
<event>
 5   0  0.1237296E-04  0.2051926E+04  0.7818609E-02  0.8582721E-01
        2   -1    0    0  501    0  0.00000000000E+00  0.00000000000E+00  0.13853315834E+04  0.13853315834E+04  0.25500000920E-02 0.  1.
       -2   -1    0    0    0  501  0.00000000000E+00  0.00000000000E+00 -0.75981798241E+03  0.75981798241E+03  0.25500000920E-02 0. -1.
    10030    2    1    2    0    0  0.00000000000E+00  0.00000000000E+00  0.62551360099E+03  0.21451495658E+04  0.20519257771E+04 0.  0.
        1    1    3    3  502    0  0.54393895062E+03 -0.76380698694E+03 -0.12248614260E+03  0.94566037797E+03  0.50400001928E-02 0.  1.
       -1    1    3    3    0  502 -0.54393895062E+03  0.76380698694E+03  0.74799974359E+03  0.11994891878E+04  0.50400001928E-02 0. -1.
</event>
<event>
 5   0  0.5642466E-05  0.2264475E+04  0.7818609E-02  0.8492061E-01
        1   -1    0    0  501    0  0.00000000000E+00  0.00000000000E+00  0.26571627671E+04  0.26571627671E+04  0.50400001928E-02 0.  1.
       -1   -1    0    0    0  501  0.00000000000E+00  0.00000000000E+00 -0.48245493661E+03  0.48245493663E+03  0.50400001928E-02 0. -1.
    10030    2    1    2    0    0  0.00000000000E+00  0.00000000000E+00  0.21747078305E+04  0.31396177037E+04  0.22644745920E+04 0.  0.
        1    1    3    3  502    0  0.10588493011E+04 -0.15716870837E+03  0.57586725716E+03  0.12155192072E+04  0.50400001928E-02 0. -1.
       -1    1    3    3    0  502 -0.10588493011E+04  0.15716870837E+03  0.15988405733E+04  0.19240984965E+04  0.50400001928E-02 0.  1.
</event>
<event>
 5   0  0.5843670E-05  0.2299648E+04  0.7818609E-02  0.8478060E-01
       -1   -1    0    0    0  501  0.00000000000E+00  0.00000000000E+00  0.61164401456E+03  0.61164401458E+03  0.50400001928E-02 0.  1.
        1   -1    0    0  501    0  0.00000000000E+00  0.00000000000E+00 -0.21615434226E+04  0.21615434226E+04  0.50400001928E-02 0. -1.
    10030    2    1    2    0    0  0.00000000000E+00  0.00000000000E+00 -0.15498994080E+04  0.27731874372E+04  0.22996478832E+04 0.  0.
        2    1    3    3  502    0  0.48572277713E+03 -0.20558235066E+03 -0.20070561810E+04  0.20752024559E+04  0.25500000920E-02 0. -1.
       -2    1    3    3    0  502 -0.48572277713E+03  0.20558235066E+03  0.45715677294E+03  0.69798498134E+03  0.25500000920E-02 0.  1.
</event>
<event>
 5   0  0.5632156E-05  0.2268169E+04  0.7818609E-02  0.8490578E-01
       -1   -1    0    0    0  501  0.00000000000E+00  0.00000000000E+00  0.12928732108E+04  0.12928732108E+04  0.50400001928E-02 0. -1.
        1   -1    0    0  501    0  0.00000000000E+00  0.00000000000E+00 -0.99479792746E+03  0.99479792747E+03  0.50400001928E-02 0.  1.
    10030    2    1    2    0    0  0.00000000000E+00  0.00000000000E+00  0.29807528330E+03  0.22876711382E+04  0.22681689448E+04 0.  0.
        4    1    3    3  502    0  0.19255787718E+03  0.11079388629E+04  0.29706095859E+03  0.11631224725E+04  0.12699999809E+01 0. -1.
       -4    1    3    3    0  502 -0.19255787718E+03 -0.11079388629E+04  0.10143247148E+01  0.11245486658E+04  0.12699999809E+01 0.  1.
</event>
<event>
 5   0  0.5632156E-05  0.2277938E+04  0.7818609E-02  0.8486671E-01
        1   -1    0    0  501    0  0.00000000000E+00  0.00000000000E+00  0.11861381982E+04  0.11861381982E+04  0.50400001928E-02 0. -1.
       -1   -1    0    0    0  501  0.00000000000E+00  0.00000000000E+00 -0.10936759737E+04  0.10936759737E+04  0.50400001928E-02 0.  1.
    10030    2    1    2    0    0  0.00000000000E+00  0.00000000000E+00  0.92462224482E+02  0.22798141719E+04  0.22779384091E+04 0.  0.
        4    1    3    3  502    0 -0.33554799766E+03  0.83156427860E+03  0.74906120627E+03  0.11684117048E+04  0.12699999809E+01 0. -1.
       -4    1    3    3    0  502  0.33554799766E+03 -0.83156427860E+03 -0.65659898178E+03  0.11114024671E+04  0.12699999809E+01 0.  1.
</event>
<event>
 5   0  0.5642466E-05  0.2255094E+04  0.7818609E-02  0.8495840E-01
       -1   -1    0    0    0  501  0.00000000000E+00  0.00000000000E+00  0.80711902375E+03  0.80711902377E+03  0.50400001928E-02 0. -1.
        1   -1    0    0  501    0  0.00000000000E+00  0.00000000000E+00 -0.15751851824E+04  0.15751851824E+04  0.50400001928E-02 0.  1.
    10030    2    1    2    0    0  0.00000000000E+00  0.00000000000E+00 -0.76806615866E+03  0.23823042062E+04  0.22550937246E+04 0.  0.
        1    1    3    3  502    0 -0.52015903706E+03 -0.73191500209E+03 -0.11044839304E+04  0.14234288695E+04  0.50400001928E-02 0.  1.
       -1    1    3    3    0  502  0.52015903706E+03  0.73191500209E+03  0.33641777170E+03  0.95887533666E+03  0.50400001928E-02 0. -1.
</event>
<event>
 5   0  0.1234988E-04  0.2231701E+04  0.7818609E-02  0.8505348E-01
       -2   -1    0    0    0  501  0.00000000000E+00  0.00000000000E+00  0.51656534843E+03  0.51656534843E+03  0.25500000920E-02 0.  1.
        2   -1    0    0  501    0  0.00000000000E+00  0.00000000000E+00 -0.24103866356E+04  0.24103866356E+04  0.25500000920E-02 0. -1.
    10030    2    1    2    0    0  0.00000000000E+00  0.00000000000E+00 -0.18938212872E+04  0.29269519840E+04  0.22317008870E+04 0.  0.
        5    1    3    3  502    0 -0.39656161666E+03 -0.15758610585E+03  0.40530947579E+03  0.58855106637E+03  0.46999998093E+01 0.  1.
       -5    1    3    3    0  502  0.39656161666E+03  0.15758610585E+03 -0.22991307630E+04  0.23384009177E+04  0.46999998093E+01 0. -1.
</event>
<event>
 5   0  0.1270613E-04  0.2300943E+04  0.7818609E-02  0.8477549E-01
        2   -1    0    0  501    0  0.00000000000E+00  0.00000000000E+00  0.10911385898E+04  0.10911385898E+04  0.25500000920E-02 0. -1.
       -2   -1    0    0    0  501  0.00000000000E+00  0.00000000000E+00 -0.12130311911E+04  0.12130311911E+04  0.25500000920E-02 0.  1.
    10030    2    1    2    0    0  0.00000000000E+00  0.00000000000E+00 -0.12189260129E+03  0.23041697809E+04  0.23009434094E+04 0.  0.
        2    1    3    3  502    0  0.85316078319E+03  0.14794938830E+03 -0.81951279279E+03  0.11922137229E+04  0.25500000920E-02 0.  1.
       -2    1    3    3    0  502 -0.85316078319E+03 -0.14794938830E+03  0.69762019150E+03  0.11119560581E+04  0.25500000920E-02 0. -1.
</event>
<event>
 5   0  0.5843670E-05  0.2309184E+04  0.7818609E-02  0.8474309E-01
       -1   -1    0    0    0  501  0.00000000000E+00  0.00000000000E+00  0.14360533332E+04  0.14360533332E+04  0.50400001928E-02 0.  1.
        1   -1    0    0  501    0  0.00000000000E+00  0.00000000000E+00 -0.92829648485E+03  0.92829648486E+03  0.50400001928E-02 0. -1.
    10030    2    1    2    0    0  0.00000000000E+00  0.00000000000E+00  0.50775684838E+03  0.23643498181E+04  0.23091844979E+04 0.  0.
        2    1    3    3  502    0 -0.43806478449E+02 -0.79796161837E+03  0.11071056049E+04  0.13654100382E+04  0.25500000920E-02 0.  1.
       -2    1    3    3    0  502  0.43806478449E+02  0.79796161837E+03 -0.59934875652E+03  0.99893977992E+03  0.25500000920E-02 0. -1.
</event>
<event>
 5   0  0.5642466E-05  0.2337047E+04  0.7818609E-02  0.8463456E-01
       -1   -1    0    0    0  501  0.00000000000E+00  0.00000000000E+00  0.55058373573E+03  0.55058373575E+03  0.50400001928E-02 0. -1.
        1   -1    0    0  501    0  0.00000000000E+00  0.00000000000E+00 -0.24799994825E+04  0.24799994825E+04  0.50400001928E-02 0.  1.
    10030    2    1    2    0    0  0.00000000000E+00  0.00000000000E+00 -0.19294157467E+04  0.30305832182E+04  0.23370471794E+04 0.  0.
        1    1    3    3  502    0  0.10311230201E+04 -0.26005028593E+03 -0.15928078784E+04  0.19151704288E+04  0.50400001928E-02 0.  1.
       -1    1    3    3    0  502 -0.10311230201E+04  0.26005028593E+03 -0.33660786834E+03  0.11154127894E+04  0.50400001928E-02 0. -1.
</event>
<event>
 5   0  0.5663790E-05  0.2245419E+04  0.7818609E-02  0.8499758E-01
        1   -1    0    0  501    0  0.00000000000E+00  0.00000000000E+00  0.11669170023E+04  0.11669170023E+04  0.50400001928E-02 0. -1.
       -1   -1    0    0    0  501  0.00000000000E+00  0.00000000000E+00 -0.10801766815E+04  0.10801766815E+04  0.50400001928E-02 0.  1.
    10030    2    1    2    0    0  0.00000000000E+00  0.00000000000E+00  0.86740320801E+02  0.22470936838E+04  0.22454189232E+04 0.  0.
        3    1    3    3  502    0  0.49126972742E+03  0.50564840609E+03  0.91777827045E+03  0.11572999696E+04  0.10100000352E+00 0. -1.
       -3    1    3    3    0  502 -0.49126972742E+03 -0.50564840609E+03 -0.83103794965E+03  0.10897937143E+04  0.10100000352E+00 0.  1.
</event>
<event>
 5   0  0.5642466E-05  0.2330742E+04  0.7818609E-02  0.8465898E-01
        1   -1    0    0  501    0  0.00000000000E+00  0.00000000000E+00  0.17649668311E+04  0.17649668311E+04  0.50400001928E-02 0.  1.
       -1   -1    0    0    0  501  0.00000000000E+00  0.00000000000E+00 -0.76947026185E+03  0.76947026187E+03  0.50400001928E-02 0. -1.
    10030    2    1    2    0    0  0.00000000000E+00  0.00000000000E+00  0.99549656924E+03  0.25344370930E+04  0.23307419331E+04 0.  0.
        1    1    3    3  502    0  0.10199906082E+04  0.95207993837E+02 -0.10636210769E+03  0.10299312117E+04  0.50400001928E-02 0. -1.
       -1    1    3    3    0  502 -0.10199906082E+04 -0.95207993837E+02  0.11018586769E+04  0.15045058813E+04  0.50400001928E-02 0.  1.
</event>
<event>
 5   0  0.5632156E-05  0.2283835E+04  0.7818609E-02  0.8484322E-01
        1   -1    0    0  501    0  0.00000000000E+00  0.00000000000E+00  0.15689701703E+04  0.15689701704E+04  0.50400001928E-02 0. -1.
       -1   -1    0    0    0  501  0.00000000000E+00  0.00000000000E+00 -0.83110298073E+03  0.83110298075E+03  0.50400001928E-02 0.  1.
    10030    2    1    2    0    0  0.00000000000E+00  0.00000000000E+00  0.73786718962E+03  0.24000731511E+04  0.22838351826E+04 0.  0.
        4    1    3    3  502    0 -0.82128185972E+03  0.46176167837E+03 -0.30907465986E+03  0.99159290991E+03  0.12699999809E+01 0.  1.
       -4    1    3    3    0  502  0.82128185972E+03 -0.46176167837E+03  0.10469418495E+04  0.14084802412E+04  0.12699999809E+01 0. -1.
</event>
<event>
 5   0  0.5632156E-05  0.2260324E+04  0.7818609E-02  0.8493731E-01
       -1   -1    0    0    0  501  0.00000000000E+00  0.00000000000E+00  0.82010939277E+03  0.82010939278E+03  0.50400001928E-02 0. -1.
        1   -1    0    0  501    0  0.00000000000E+00  0.00000000000E+00 -0.15574334815E+04  0.15574334815E+04  0.50400001928E-02 0.  1.
    10030    2    1    2    0    0  0.00000000000E+00  0.00000000000E+00 -0.73732408872E+03  0.23775428743E+04  0.22603237174E+04 0.  0.
        4    1    3    3  502    0 -0.82523735848E+03 -0.55938266935E+03  0.19123805580E+03  0.10151351021E+04  0.12699999809E+01 0. -1.
       -4    1    3    3    0  502  0.82523735848E+03  0.55938266935E+03 -0.92856214453E+03  0.13624077722E+04  0.12699999809E+01 0.  1.
</event>
<event>
 5   0  0.5663790E-05  0.2309845E+04  0.7818609E-02  0.8474049E-01
        1   -1    0    0  501    0  0.00000000000E+00  0.00000000000E+00  0.10673685055E+04  0.10673685055E+04  0.50400001928E-02 0. -1.
       -1   -1    0    0    0  501  0.00000000000E+00  0.00000000000E+00 -0.12496585792E+04  0.12496585792E+04  0.50400001928E-02 0.  1.
    10030    2    1    2    0    0  0.00000000000E+00  0.00000000000E+00 -0.18229007375E+03  0.23170270847E+04  0.23098451984E+04 0.  0.
        3    1    3    3  502    0 -0.46372384592E+03 -0.44970233244E+03 -0.10515005880E+04  0.12340686731E+04  0.10100000352E+00 0.  1.
       -3    1    3    3    0  502  0.46372384592E+03  0.44970233244E+03  0.86921051426E+03  0.10829584117E+04  0.10100000352E+00 0. -1.
</event>
<event>
 5   0  0.1270613E-04  0.2335496E+04  0.7818609E-02  0.8464055E-01
       -2   -1    0    0    0  501  0.00000000000E+00  0.00000000000E+00  0.15864971846E+04  0.15864971846E+04  0.25500000920E-02 0.  1.
        2   -1    0    0  501    0  0.00000000000E+00  0.00000000000E+00 -0.85952615088E+03  0.85952615088E+03  0.25500000920E-02 0. -1.
    10030    2    1    2    0    0  0.00000000000E+00  0.00000000000E+00  0.72697103369E+03  0.24460233355E+04  0.23354963656E+04 0.  0.
        2    1    3    3  502    0  0.47659317629E+02  0.17137241715E+03  0.15722253789E+04  0.15822555287E+04  0.25500000920E-02 0.  1.
       -2    1    3    3    0  502 -0.47659317629E+02 -0.17137241715E+03 -0.84525434522E+03  0.86376780679E+03  0.25500000920E-02 0. -1.
</event>
<event>
 5   0  0.5924654E-05  0.2257213E+04  0.7818609E-02  0.8494985E-01
        1   -1    0    0  501    0  0.00000000000E+00  0.00000000000E+00  0.17414202075E+04  0.17414202075E+04  0.50400001928E-02 0.  1.
       -1   -1    0    0    0  501  0.00000000000E+00  0.00000000000E+00 -0.73144446640E+03  0.73144446642E+03  0.50400001928E-02 0. -1.
    10030    2    1    2    0    0  0.00000000000E+00  0.00000000000E+00  0.10099757411E+04  0.24728646740E+04  0.22572125948E+04 0.  0.
        5    1    3    3  502    0  0.13664435129E+03 -0.37025585620E+03  0.16633457776E+04  0.17095327852E+04  0.46999998093E+01 0.  1.
       -5    1    3    3    0  502 -0.13664435129E+03  0.37025585620E+03 -0.65337003649E+03  0.76333188875E+03  0.46999998093E+01 0. -1.
</event>
<event>
 5   0  0.1237296E-04  0.2247614E+04  0.7818609E-02  0.8498868E-01
        2   -1    0    0  501    0  0.00000000000E+00  0.00000000000E+00  0.11537067919E+04  0.11537067919E+04  0.25500000920E-02 0.  1.
       -2   -1    0    0    0  501  0.00000000000E+00  0.00000000000E+00 -0.10946818472E+04  0.10946818472E+04  0.25500000920E-02 0. -1.
    10030    2    1    2    0    0  0.00000000000E+00  0.00000000000E+00  0.59024944644E+02  0.22483886391E+04  0.22476137409E+04 0.  0.
        1    1    3    3  502    0 -0.16846930147E+03  0.10964107517E+04 -0.15067025351E+03  0.11194641429E+04  0.50400001928E-02 0. -1.
       -1    1    3    3    0  502  0.16846930147E+03 -0.10964107517E+04  0.20969519816E+03  0.11289244962E+04  0.50400001928E-02 0.  1.
</event>
<event>
 5   0  0.5663790E-05  0.1444829E+04  0.7818609E-02  0.8921994E-01
       -1   -1    0    0    0  501  0.00000000000E+00  0.00000000000E+00  0.61512630430E+03  0.61512630432E+03  0.50400001928E-02 0. -1.
        1   -1    0    0  501    0  0.00000000000E+00  0.00000000000E+00 -0.84841512704E+03  0.84841512706E+03  0.50400001928E-02 0.  1.
    10030    2    1    2    0    0  0.00000000000E+00  0.00000000000E+00 -0.23328882274E+03  0.14635414314E+04  0.14448286565E+04 0.  0.
        3    1    3    3  502    0 -0.41722667898E+03  0.53142985510E+03  0.14237555810E+03  0.69048287617E+03  0.10100000352E+00 0. -1.
       -3    1    3    3    0  502  0.41722667898E+03 -0.53142985510E+03 -0.37566438084E+03  0.77305855521E+03  0.10100000352E+00 0.  1.
</event>
<event>
 5   0  0.1237296E-04  0.2346185E+04  0.7818609E-02  0.8459930E-01
        2   -1    0    0  501    0  0.00000000000E+00  0.00000000000E+00  0.22255860838E+04  0.22255860838E+04  0.25500000920E-02 0.  1.
       -2   -1    0    0    0  501  0.00000000000E+00  0.00000000000E+00 -0.61832966959E+03  0.61832966960E+03  0.25500000920E-02 0. -1.
    10030    2    1    2    0    0  0.00000000000E+00  0.00000000000E+00  0.16072564142E+04  0.28439157534E+04  0.23461849099E+04 0.  0.
        1    1    3    3  502    0  0.31588307087E+03  0.69771779254E+03 -0.27344524019E+03  0.81324321816E+03  0.50400001928E-02 0. -1.
       -1    1    3    3    0  502 -0.31588307087E+03 -0.69771779254E+03  0.18807016544E+04  0.20306725352E+04  0.50400001928E-02 0.  1.
</event>
<event>
 5   0  0.5642466E-05  0.2163842E+04  0.7818609E-02  0.8533630E-01
       -1   -1    0    0    0  501  0.00000000000E+00  0.00000000000E+00  0.97645448255E+03  0.97645448256E+03  0.50400001928E-02 0.  1.
        1   -1    0    0  501    0  0.00000000000E+00  0.00000000000E+00 -0.11987791807E+04  0.11987791807E+04  0.50400001928E-02 0. -1.
    10030    2    1    2    0    0  0.00000000000E+00  0.00000000000E+00 -0.22232469814E+03  0.21752336633E+04  0.21638422351E+04 0.  0.
        1    1    3    3  502    0 -0.67256885084E+03  0.97326639008E+02  0.73513179225E+03  0.10011194163E+04  0.50400001928E-02 0.  1.
       -1    1    3    3    0  502  0.67256885084E+03 -0.97326639008E+02 -0.95745649039E+03  0.11741142469E+04  0.50400001928E-02 0. -1.
</event>
<event>
 5   0  0.1234988E-04  0.1481878E+04  0.7818609E-02  0.8896594E-01
        2   -1    0    0  501    0  0.00000000000E+00  0.00000000000E+00  0.17696294840E+04  0.17696294840E+04  0.25500000920E-02 0. -1.
       -2   -1    0    0    0  501  0.00000000000E+00  0.00000000000E+00 -0.31022917434E+03  0.31022917435E+03  0.25500000920E-02 0.  1.
    10030    2    1    2    0    0  0.00000000000E+00  0.00000000000E+00  0.14594003097E+04  0.20798586583E+04  0.14818781242E+04 0.  0.
        5    1    3    3  502    0  0.50019538309E+03 -0.17904731313E+03  0.14545453312E+04  0.15485404651E+04  0.46999998093E+01 0. -1.
       -5    1    3    3    0  502 -0.50019538309E+03  0.17904731313E+03  0.48549784206E+01  0.53131819319E+03  0.46999998093E+01 0.  1.
</event>
<event>
 5   0  0.5843670E-05  0.1614434E+04  0.7818609E-02  0.8811729E-01
       -1   -1    0    0    0  501  0.00000000000E+00  0.00000000000E+00  0.21555857510E+04  0.21555857510E+04  0.50400001928E-02 0. -1.
        1   -1    0    0  501    0  0.00000000000E+00  0.00000000000E+00 -0.30228410452E+03  0.30228410456E+03  0.50400001928E-02 0.  1.
    10030    2    1    2    0    0  0.00000000000E+00  0.00000000000E+00  0.18533016464E+04  0.24578698555E+04  0.16144340290E+04 0.  0.
        2    1    3    3  502    0  0.78721078488E+03 -0.17813186217E+03  0.94635610901E+03  0.12437932566E+04  0.25500000920E-02 0.  1.
       -2    1    3    3    0  502 -0.78721078488E+03  0.17813186217E+03  0.90694553743E+03  0.12140765989E+04  0.25500000920E-02 0. -1.
</event>
<event>
 5   0  0.1257524E-04  0.2068712E+04  0.7818609E-02  0.8575152E-01
       -2   -1    0    0    0  501  0.00000000000E+00  0.00000000000E+00  0.16433848881E+04  0.16433848881E+04  0.25500000920E-02 0.  1.
        2   -1    0    0  501    0  0.00000000000E+00  0.00000000000E+00 -0.65102991939E+03  0.65102991940E+03  0.25500000920E-02 0. -1.
    10030    2    1    2    0    0  0.00000000000E+00  0.00000000000E+00  0.99235496875E+03  0.22944148075E+04  0.20687123834E+04 0.  0.
        3    1    3    3  502    0  0.30856499005E+03  0.98648036097E+03  0.45269746393E+03  0.11284019052E+04  0.10100000352E+00 0.  1.
       -3    1    3    3    0  502 -0.30856499005E+03 -0.98648036097E+03  0.53965750482E+03  0.11660129023E+04  0.10100000352E+00 0. -1.
</event>
<event>
 5   0  0.1270613E-04  0.2342757E+04  0.7818609E-02  0.8461251E-01
        2   -1    0    0  501    0  0.00000000000E+00  0.00000000000E+00  0.17973391856E+04  0.17973391856E+04  0.25500000920E-02 0. -1.
       -2   -1    0    0    0  501  0.00000000000E+00  0.00000000000E+00 -0.76342138204E+03  0.76342138204E+03  0.25500000920E-02 0.  1.
    10030    2    1    2    0    0  0.00000000000E+00  0.00000000000E+00  0.10339178036E+04  0.25607605676E+04  0.23427566370E+04 0.  0.
        2    1    3    3  502    0  0.42361663202E+03 -0.37756306045E+03 -0.60315381233E+03  0.82813008451E+03  0.25500000920E-02 0.  1.
       -2    1    3    3    0  502 -0.42361663202E+03  0.37756306045E+03  0.16370716159E+04  0.17326304831E+04  0.25500000920E-02 0. -1.
</event>
<event>
 5   0  0.4489500E-05  0.2234805E+04  0.7818609E-02  0.8504079E-01
        4   -1    0    0  501    0  0.00000000000E+00  0.00000000000E+00  0.20658892564E+04  0.20658896468E+04  0.12699999809E+01 0. -1.
       -4   -1    0    0    0  501  0.00000000000E+00  0.00000000000E+00 -0.60438211803E+03  0.60438345236E+03  0.12699999809E+01 0.  1.
    10030    2    1    2    0    0  0.00000000000E+00  0.00000000000E+00  0.14615071384E+04  0.26702730991E+04  0.22348054296E+04 0.  0.
        5    1    3    3  502    0 -0.97155736450E+03  0.12214892261E+03  0.87611085202E+02  0.98312861013E+03  0.46999998093E+01 0.  1.
       -5    1    3    3    0  502  0.97155736450E+03 -0.12214892261E+03  0.13738960532E+04  0.16871444890E+04  0.46999998093E+01 0. -1.
</event>
<event>
 5   0  0.1234988E-04  0.2271027E+04  0.7818609E-02  0.8489433E-01
       -2   -1    0    0    0  501  0.00000000000E+00  0.00000000000E+00  0.55181229943E+03  0.55181229943E+03  0.25500000920E-02 0.  1.
        2   -1    0    0  501    0  0.00000000000E+00  0.00000000000E+00 -0.23366477681E+04  0.23366477681E+04  0.25500000920E-02 0. -1.
    10030    2    1    2    0    0  0.00000000000E+00  0.00000000000E+00 -0.17848354687E+04  0.28884600675E+04  0.22710270609E+04 0.  0.
        5    1    3    3  502    0  0.74380665228E+02 -0.87169720211E+03 -0.18130826140E+04  0.20131267100E+04  0.46999998093E+01 0. -1.
       -5    1    3    3    0  502 -0.74380665228E+02  0.87169720211E+03  0.28247145314E+02  0.87533335750E+03  0.46999998093E+01 0.  1.
</event>
<event>
 5   0  0.1234988E-04  0.1733565E+04  0.7818609E-02  0.8742449E-01
       -2   -1    0    0    0  501  0.00000000000E+00  0.00000000000E+00  0.74065832059E+03  0.74065832059E+03  0.25500000920E-02 0. -1.
        2   -1    0    0  501    0  0.00000000000E+00  0.00000000000E+00 -0.10143844962E+04  0.10143844962E+04  0.25500000920E-02 0.  1.
    10030    2    1    2    0    0  0.00000000000E+00  0.00000000000E+00 -0.27372617562E+03  0.17550428168E+04  0.17335654789E+04 0.  0.
        5    1    3    3  502    0  0.61314410352E+02 -0.54146729634E+03 -0.81926437091E+03  0.98395248328E+03  0.46999998093E+01 0.  1.
       -5    1    3    3    0  502 -0.61314410352E+02  0.54146729634E+03  0.54553819530E+03  0.77109033352E+03  0.46999998093E+01 0. -1.
</event>
<event>
 5   0  0.1257524E-04  0.1473333E+04  0.7818609E-02  0.8902382E-01
        2   -1    0    0  501    0  0.00000000000E+00  0.00000000000E+00  0.12441115273E+04  0.12441115273E+04  0.25500000920E-02 0. -1.
       -2   -1    0    0    0  501  0.00000000000E+00  0.00000000000E+00 -0.43619692314E+03  0.43619692314E+03  0.25500000920E-02 0.  1.
    10030    2    1    2    0    0  0.00000000000E+00  0.00000000000E+00  0.80791460412E+03  0.16803084504E+04  0.14733331195E+04 0.  0.
        3    1    3    3  502    0 -0.50413557284E+03 -0.12397179557E+03 -0.19210735963E+03  0.55355842485E+03  0.10100000352E+00 0.  1.
       -3    1    3    3    0  502  0.50413557284E+03  0.12397179557E+03  0.10000219637E+04  0.11267500255E+04  0.10100000352E+00 0. -1.
</event>
<event>
 5   0  0.1237296E-04  0.2314319E+04  0.7818609E-02  0.8472297E-01
       -2   -1    0    0    0  501  0.00000000000E+00  0.00000000000E+00  0.96305053148E+03  0.96305053148E+03  0.25500000920E-02 0. -1.
        2   -1    0    0  501    0  0.00000000000E+00  0.00000000000E+00 -0.13903918362E+04  0.13903918362E+04  0.25500000920E-02 0.  1.
    10030    2    1    2    0    0  0.00000000000E+00  0.00000000000E+00 -0.42734130471E+03  0.23534423677E+04  0.23143185579E+04 0.  0.
        1    1    3    3  502    0 -0.48681089060E+03 -0.56490811011E+03  0.68611028550E+03  0.10133377226E+04  0.50400001928E-02 0. -1.
       -1    1    3    3    0  502  0.48681089060E+03  0.56490811011E+03 -0.11134515902E+04  0.13401046451E+04  0.50400001928E-02 0.  1.
</event>
<event>
 5   0  0.5924654E-05  0.2202487E+04  0.7818609E-02  0.8517394E-01
        1   -1    0    0  501    0  0.00000000000E+00  0.00000000000E+00  0.23973407745E+04  0.23973407745E+04  0.50400001928E-02 0.  1.
       -1   -1    0    0    0  501  0.00000000000E+00  0.00000000000E+00 -0.50586781045E+03  0.50586781047E+03  0.50400001928E-02 0. -1.
    10030    2    1    2    0    0  0.00000000000E+00  0.00000000000E+00  0.18914729641E+04  0.29032085850E+04  0.22024872563E+04 0.  0.
        5    1    3    3  502    0  0.24341501815E+03 -0.50060191961E+03  0.21982303007E+04  0.22676180670E+04  0.46999998093E+01 0.  1.
       -5    1    3    3    0  502 -0.24341501815E+03  0.50060191961E+03 -0.30675733662E+03  0.63559051798E+03  0.46999998093E+01 0. -1.
</event>
<event>
 5   0  0.5642466E-05  0.2003218E+04  0.7818609E-02  0.8605118E-01
        1   -1    0    0  501    0  0.00000000000E+00  0.00000000000E+00  0.14220178768E+04  0.14220178768E+04  0.50400001928E-02 0.  1.
       -1   -1    0    0    0  501  0.00000000000E+00  0.00000000000E+00 -0.70549066357E+03  0.70549066358E+03  0.50400001928E-02 0. -1.
    10030    2    1    2    0    0  0.00000000000E+00  0.00000000000E+00  0.71652721328E+03  0.21275085404E+04  0.20032177471E+04 0.  0.
        1    1    3    3  502    0  0.28401970298E+03  0.76993242646E+03  0.96813785817E+03  0.12691548548E+04  0.50400001928E-02 0.  1.
       -1    1    3    3    0  502 -0.28401970298E+03 -0.76993242646E+03 -0.25161064490E+03  0.85835368564E+03  0.50400001928E-02 0. -1.
</event>
<event>
 5   0  0.1270613E-04  0.2160109E+04  0.7818609E-02  0.8535217E-01
        2   -1    0    0  501    0  0.00000000000E+00  0.00000000000E+00  0.16075946772E+04  0.16075946772E+04  0.25500000920E-02 0. -1.
       -2   -1    0    0    0  501  0.00000000000E+00  0.00000000000E+00 -0.72562957630E+03  0.72562957630E+03  0.25500000920E-02 0.  1.
    10030    2    1    2    0    0  0.00000000000E+00  0.00000000000E+00  0.88196510094E+03  0.23332242535E+04  0.21601094829E+04 0.  0.
        2    1    3    3  502    0 -0.72845048116E+03  0.60975343656E+03  0.99605230017E+03  0.13764299988E+04  0.25500000920E-02 0. -1.
       -2    1    3    3    0  502  0.72845048116E+03 -0.60975343656E+03 -0.11408719923E+03  0.95679425475E+03  0.25500000920E-02 0.  1.
</event>
<event>
 5   0  0.5843670E-05  0.2360267E+04  0.7818609E-02  0.8454531E-01
       -1   -1    0    0    0  501  0.00000000000E+00  0.00000000000E+00  0.14350351240E+04  0.14350351240E+04  0.50400001928E-02 0. -1.
        1   -1    0    0  501    0  0.00000000000E+00  0.00000000000E+00 -0.97050950284E+03  0.97050950285E+03  0.50400001928E-02 0.  1.
    10030    2    1    2    0    0  0.00000000000E+00  0.00000000000E+00  0.46452562120E+03  0.24055446269E+04  0.23602671246E+04 0.  0.
        2    1    3    3  502    0  0.10699483623E+04 -0.49617200760E+03  0.18976072418E+03  0.11945648964E+04  0.25500000920E-02 0.  1.
       -2    1    3    3    0  502 -0.10699483623E+04  0.49617200760E+03  0.27476489703E+03  0.12109797305E+04  0.25500000920E-02 0. -1.
</event>
<event>
 5   0  0.1237296E-04  0.2334688E+04  0.7818609E-02  0.8464368E-01
        2   -1    0    0  501    0  0.00000000000E+00  0.00000000000E+00  0.13090369238E+04  0.13090369238E+04  0.25500000920E-02 0.  1.
       -2   -1    0    0    0  501  0.00000000000E+00  0.00000000000E+00 -0.10409883194E+04  0.10409883194E+04  0.25500000920E-02 0. -1.
    10030    2    1    2    0    0  0.00000000000E+00  0.00000000000E+00  0.26804860444E+03  0.23500252432E+04  0.23346881140E+04 0.  0.
        1    1    3    3  502    0  0.26061667515E+03 -0.10285770060E+04  0.62384248918E+03  0.12308822689E+04  0.50400001928E-02 0.  1.
       -1    1    3    3    0  502 -0.26061667515E+03  0.10285770060E+04 -0.35579388474E+03  0.11191429743E+04  0.50400001928E-02 0. -1.
</event>
<event>
 5   0  0.1234988E-04  0.2301131E+04  0.7818609E-02  0.8477475E-01
       -2   -1    0    0    0  501  0.00000000000E+00  0.00000000000E+00  0.14371177557E+04  0.14371177557E+04  0.25500000920E-02 0.  1.
        2   -1    0    0  501    0  0.00000000000E+00  0.00000000000E+00 -0.92114975901E+03  0.92114975901E+03  0.25500000920E-02 0. -1.
    10030    2    1    2    0    0  0.00000000000E+00  0.00000000000E+00  0.51596799669E+03  0.23582675147E+04  0.23011307432E+04 0.  0.
        5    1    3    3  502    0  0.10424676062E+04 -0.40256173423E+03 -0.22647139623E+02  0.11177341557E+04  0.46999998093E+01 0. -1.
       -5    1    3    3    0  502 -0.10424676062E+04  0.40256173423E+03  0.53861513631E+03  0.12405333590E+04  0.46999998093E+01 0.  1.
</event>
<event>
 5   0  0.5663790E-05  0.2318701E+04  0.7818609E-02  0.8470584E-01
        1   -1    0    0  501    0  0.00000000000E+00  0.00000000000E+00  0.52833796624E+03  0.52833796626E+03  0.50400001928E-02 0.  1.
       -1   -1    0    0    0  501  0.00000000000E+00  0.00000000000E+00 -0.25440037285E+04  0.25440037285E+04  0.50400001928E-02 0. -1.
    10030    2    1    2    0    0  0.00000000000E+00  0.00000000000E+00 -0.20156657622E+04  0.30723416947E+04  0.23187011502E+04 0.  0.
        3    1    3    3  502    0  0.94068181685E+03  0.43477511989E+02 -0.11177638888E+03  0.94829665501E+03  0.10100000352E+00 0.  1.
       -3    1    3    3    0  502 -0.94068181685E+03 -0.43477511989E+02 -0.19038893733E+04  0.21240450397E+04  0.10100000352E+00 0. -1.
</event>
<event>
 5   0  0.5924654E-05  0.2482495E+04  0.7818609E-02  0.8409248E-01
       -1   -1    0    0    0  501  0.00000000000E+00  0.00000000000E+00  0.11783955242E+04  0.11783955243E+04  0.50400001928E-02 0.  1.
        1   -1    0    0  501    0  0.00000000000E+00  0.00000000000E+00 -0.13074518718E+04  0.13074518718E+04  0.50400001928E-02 0. -1.
    10030    2    1    2    0    0  0.00000000000E+00  0.00000000000E+00 -0.12905634752E+03  0.24858473960E+04  0.24824950625E+04 0.  0.
        5    1    3    3  502    0  0.12031734553E+04 -0.29726700802E+03  0.39696559127E+01  0.12393675345E+04  0.46999998093E+01 0.  1.
       -5    1    3    3    0  502 -0.12031734553E+04  0.29726700802E+03 -0.13302600343E+03  0.12464798615E+04  0.46999998093E+01 0. -1.
</event>
<event>
 5   0  0.1237296E-04  0.1777848E+04  0.7818609E-02  0.8718169E-01
        2   -1    0    0  501    0  0.00000000000E+00  0.00000000000E+00  0.50412472898E+03  0.50412472898E+03  0.25500000920E-02 0. -1.
       -2   -1    0    0    0  501  0.00000000000E+00  0.00000000000E+00 -0.15674410045E+04  0.15674410045E+04  0.25500000920E-02 0.  1.
    10030    2    1    2    0    0  0.00000000000E+00  0.00000000000E+00 -0.10633162755E+04  0.20715657334E+04  0.17778478805E+04 0.  0.
        1    1    3    3  502    0 -0.29704253524E+03  0.64021972045E+03 -0.11613785255E+04  0.13590127438E+04  0.50400001928E-02 0.  1.
       -1    1    3    3    0  502  0.29704253524E+03 -0.64021972045E+03  0.98062250020E+02  0.71255298968E+03  0.50400001928E-02 0. -1.
</event>
<event>
 5   0  0.1281432E-04  0.2307321E+04  0.7818609E-02  0.8475040E-01
        2   -1    0    0  501    0  0.00000000000E+00  0.00000000000E+00  0.11221028103E+04  0.11221028103E+04  0.25500000920E-02 0.  1.
       -2   -1    0    0    0  501  0.00000000000E+00  0.00000000000E+00 -0.11861057877E+04  0.11861057877E+04  0.25500000920E-02 0. -1.
    10030    2    1    2    0    0  0.00000000000E+00  0.00000000000E+00 -0.64002977420E+02  0.23082085980E+04  0.23073210766E+04 0.  0.
        4    1    3    3  502    0  0.62601619163E+03  0.75424290236E+03 -0.64063702259E+03  0.11709808007E+04  0.12699999809E+01 0. -1.
       -4    1    3    3    0  502 -0.62601619163E+03 -0.75424290236E+03  0.57663404517E+03  0.11372277973E+04  0.12699999809E+01 0.  1.
</event>
<event>
 5   0  0.4489500E-05  0.2333843E+04  0.7818609E-02  0.8464696E-01
        4   -1    0    0  501    0  0.00000000000E+00  0.00000000000E+00  0.11016115574E+04  0.11016122895E+04  0.12699999809E+01 0.  1.
       -4   -1    0    0    0  501  0.00000000000E+00  0.00000000000E+00 -0.12361014907E+04  0.12361021431E+04  0.12699999809E+01 0. -1.
    10030    2    1    2    0    0  0.00000000000E+00  0.00000000000E+00 -0.13448993328E+03  0.23377144326E+04  0.23338425882E+04 0.  0.
        4    1    3    3  502    0 -0.65142869855E+02 -0.81312295884E+03 -0.90306992690E+03  0.12169426632E+04  0.12699999809E+01 0. -1.
       -4    1    3    3    0  502  0.65142869855E+02  0.81312295884E+03  0.76857999362E+03  0.11207717694E+04  0.12699999809E+01 0.  1.
</event>
<event>
 5   0  0.5632156E-05  0.2289802E+04  0.7818609E-02  0.8481953E-01
        1   -1    0    0  501    0  0.00000000000E+00  0.00000000000E+00  0.10399180570E+04  0.10399180570E+04  0.50400001928E-02 0.  1.
       -1   -1    0    0    0  501  0.00000000000E+00  0.00000000000E+00 -0.12604827703E+04  0.12604827703E+04  0.50400001928E-02 0. -1.
    10030    2    1    2    0    0  0.00000000000E+00  0.00000000000E+00 -0.22056471337E+03  0.23004008273E+04  0.22898024311E+04 0.  0.
        4    1    3    3  502    0 -0.11023671696E+04  0.95866500441E+02  0.18500566572E+03  0.11218879051E+04  0.12699999809E+01 0.  1.
       -4    1    3    3    0  502  0.11023671696E+04 -0.95866500441E+02 -0.40557037909E+03  0.11785129222E+04  0.12699999809E+01 0. -1.
</event>
<event>
 5   0  0.1257524E-04  0.1882175E+04  0.7818609E-02  0.8663780E-01
       -2   -1    0    0    0  501  0.00000000000E+00  0.00000000000E+00  0.80975441534E+03  0.80975441534E+03  0.25500000920E-02 0.  1.
        2   -1    0    0  501    0  0.00000000000E+00  0.00000000000E+00 -0.10937210522E+04  0.10937210522E+04  0.25500000920E-02 0. -1.
    10030    2    1    2    0    0  0.00000000000E+00  0.00000000000E+00 -0.28396663682E+03  0.19034754675E+04  0.18821747540E+04 0.  0.
        3    1    3    3  502    0 -0.33114454194E+03  0.28812919180E+03 -0.98385257748E+03  0.10773305172E+04  0.10100000352E+00 0. -1.
       -3    1    3    3    0  502  0.33114454194E+03 -0.28812919180E+03  0.69988594066E+03  0.82614495033E+03  0.10100000352E+00 0.  1.
</event>
<event>
 5   0  0.5642466E-05  0.2231695E+04  0.7818609E-02  0.8505351E-01
        1   -1    0    0  501    0  0.00000000000E+00  0.00000000000E+00  0.16260126694E+04  0.16260126694E+04  0.50400001928E-02 0. -1.
       -1   -1    0    0    0  501  0.00000000000E+00  0.00000000000E+00 -0.76574764019E+03  0.76574764021E+03  0.50400001928E-02 0.  1.
    10030    2    1    2    0    0  0.00000000000E+00  0.00000000000E+00  0.86026502917E+03  0.23917603096E+04  0.22316947502E+04 0.  0.
        1    1    3    3  502    0 -0.43821118735E+02  0.11147062264E+04  0.45692781497E+03  0.12055178512E+04  0.50400001928E-02 0. -1.
       -1    1    3    3    0  502  0.43821118735E+02 -0.11147062264E+04  0.40333721420E+03  0.11862424583E+04  0.50400001928E-02 0.  1.
</event>
<event>
 5   0  0.1257524E-04  0.2233719E+04  0.7818609E-02  0.8504523E-01
        2   -1    0    0  501    0  0.00000000000E+00  0.00000000000E+00  0.18484572026E+04  0.18484572026E+04  0.25500000920E-02 0. -1.
       -2   -1    0    0    0  501  0.00000000000E+00  0.00000000000E+00 -0.67481953471E+03  0.67481953471E+03  0.25500000920E-02 0.  1.
    10030    2    1    2    0    0  0.00000000000E+00  0.00000000000E+00  0.11736376679E+04  0.25232767373E+04  0.22337188985E+04 0.  0.
        3    1    3    3  502    0 -0.81292991932E+03  0.24366609744E+03  0.14069855709E+04  0.16431179591E+04  0.10100000352E+00 0. -1.
       -3    1    3    3    0  502  0.81292991932E+03 -0.24366609744E+03 -0.23334790299E+03  0.88015877818E+03  0.10100000352E+00 0.  1.
</event>
<event>
 5   0  0.5843670E-05  0.2302546E+04  0.7818609E-02  0.8476918E-01
       -1   -1    0    0    0  501  0.00000000000E+00  0.00000000000E+00  0.10345951031E+04  0.10345951031E+04  0.50400001928E-02 0.  1.
        1   -1    0    0  501    0  0.00000000000E+00  0.00000000000E+00 -0.12811099371E+04  0.12811099371E+04  0.50400001928E-02 0. -1.
    10030    2    1    2    0    0  0.00000000000E+00  0.00000000000E+00 -0.24651483396E+03  0.23157050402E+04  0.23025464750E+04 0.  0.
        2    1    3    3  502    0  0.82533203167E+03 -0.47923496308E+03  0.52430964057E+03  0.10889167606E+04  0.25500000920E-02 0.  1.
       -2    1    3    3    0  502 -0.82533203167E+03  0.47923496308E+03 -0.77082447453E+03  0.12267882796E+04  0.25500000920E-02 0. -1.
</event>
<event>
 5   0  0.1237296E-04  0.2302463E+04  0.7818609E-02  0.8476951E-01
        2   -1    0    0  501    0  0.00000000000E+00  0.00000000000E+00  0.17197715342E+04  0.17197715342E+04  0.25500000920E-02 0.  1.
       -2   -1    0    0    0  501  0.00000000000E+00  0.00000000000E+00 -0.77064510502E+03  0.77064510503E+03  0.25500000920E-02 0. -1.
    10030    2    1    2    0    0  0.00000000000E+00  0.00000000000E+00  0.94912642920E+03  0.24904166393E+04  0.23024626074E+04 0.  0.
        1    1    3    3  502    0  0.33980392804E+03 -0.22763336002E+03 -0.68941017679E+03  0.80160467064E+03  0.50400001928E-02 0. -1.
       -1    1    3    3    0  502 -0.33980392804E+03  0.22763336002E+03  0.16385366060E+04  0.16888119686E+04  0.50400001928E-02 0.  1.
</event>
<event>
 5   0  0.1270613E-04  0.2389170E+04  0.7818609E-02  0.8443569E-01
       -2   -1    0    0    0  501  0.00000000000E+00  0.00000000000E+00  0.74746575020E+03  0.74746575020E+03  0.25500000920E-02 0. -1.
        2   -1    0    0  501    0  0.00000000000E+00  0.00000000000E+00 -0.19091617006E+04  0.19091617006E+04  0.25500000920E-02 0.  1.
    10030    2    1    2    0    0  0.00000000000E+00  0.00000000000E+00 -0.11616959504E+04  0.26566274508E+04  0.23891697159E+04 0.  0.
        2    1    3    3  502    0  0.70223450799E+03  0.55225671694E+03 -0.14626653741E+04  0.17139167956E+04  0.25500000920E-02 0.  1.
       -2    1    3    3    0  502 -0.70223450799E+03 -0.55225671694E+03  0.30096942363E+03  0.94271065528E+03  0.25500000920E-02 0. -1.
</event>
<event>
 5   0  0.5924654E-05  0.2279646E+04  0.7818609E-02  0.8485990E-01
        1   -1    0    0  501    0  0.00000000000E+00  0.00000000000E+00  0.14913284944E+04  0.14913284944E+04  0.50400001928E-02 0.  1.
       -1   -1    0    0    0  501  0.00000000000E+00  0.00000000000E+00 -0.87116713026E+03  0.87116713028E+03  0.50400001928E-02 0. -1.
    10030    2    1    2    0    0  0.00000000000E+00  0.00000000000E+00  0.62016136413E+03  0.23624956247E+04  0.22796459065E+04 0.  0.
        5    1    3    3  502    0 -0.30015727111E+03 -0.67774079987E+03 -0.58726767661E+03  0.94569148944E+03  0.46999998093E+01 0. -1.
       -5    1    3    3    0  502  0.30015727111E+03  0.67774079987E+03  0.12074290407E+04  0.14168041352E+04  0.46999998093E+01 0.  1.
</event>
<event>
 5   0  0.5632156E-05  0.2276910E+04  0.7818609E-02  0.8487081E-01
        1   -1    0    0  501    0  0.00000000000E+00  0.00000000000E+00  0.12715822522E+04  0.12715822522E+04  0.50400001928E-02 0. -1.
       -1   -1    0    0    0  501  0.00000000000E+00  0.00000000000E+00 -0.10192657727E+04  0.10192657728E+04  0.50400001928E-02 0.  1.
    10030    2    1    2    0    0  0.00000000000E+00  0.00000000000E+00  0.25231647941E+03  0.22908480249E+04  0.22769104215E+04 0.  0.
        4    1    3    3  502    0  0.14684158428E+03  0.21072537480E+03  0.12420510736E+04  0.12683296562E+04  0.12699999809E+01 0. -1.
       -4    1    3    3    0  502 -0.14684158428E+03 -0.21072537480E+03 -0.98973459421E+03  0.10225183687E+04  0.12699999809E+01 0.  1.
</event>
<event>
 5   0  0.4489500E-05  0.2327289E+04  0.7818609E-02  0.8467239E-01
        3   -1    0    0  501    0  0.00000000000E+00  0.00000000000E+00  0.16352500486E+04  0.16352500517E+04  0.10100000352E+00 0. -1.
       -3   -1    0    0    0  501  0.00000000000E+00  0.00000000000E+00 -0.82804947907E+03  0.82804948523E+03  0.10100000352E+00 0.  1.
    10030    2    1    2    0    0  0.00000000000E+00  0.00000000000E+00  0.80720056949E+03  0.24632995369E+04  0.23272885187E+04 0.  0.
        3    1    3    3  502    0  0.63158559214E+03 -0.65017780798E+03 -0.36872609941E+03  0.97856552605E+03  0.10100000352E+00 0.  1.
       -3    1    3    3    0  502 -0.63158559214E+03  0.65017780798E+03  0.11759266689E+04  0.14847340109E+04  0.10100000352E+00 0. -1.
</event>
<event>
 5   0  0.1281432E-04  0.2330717E+04  0.7818609E-02  0.8465907E-01
        2   -1    0    0  501    0  0.00000000000E+00  0.00000000000E+00  0.17753650817E+04  0.17753650817E+04  0.25500000920E-02 0. -1.
       -2   -1    0    0    0  501  0.00000000000E+00  0.00000000000E+00 -0.76494733965E+03  0.76494733966E+03  0.25500000920E-02 0.  1.
    10030    2    1    2    0    0  0.00000000000E+00  0.00000000000E+00  0.10104177420E+04  0.25403124213E+04  0.23307173112E+04 0.  0.
        4    1    3    3  502    0  0.88919198762E+03 -0.73908404836E+03  0.66372328179E+03  0.13332058465E+04  0.12699999809E+01 0. -1.
       -4    1    3    3    0  502 -0.88919198762E+03  0.73908404836E+03  0.34669446022E+03  0.12071065748E+04  0.12699999809E+01 0.  1.
</event>
<event>
 5   0  0.1234988E-04  0.2293556E+04  0.7818609E-02  0.8480466E-01
       -2   -1    0    0    0  501  0.00000000000E+00  0.00000000000E+00  0.65902091509E+03  0.65902091510E+03  0.25500000920E-02 0.  1.
        2   -1    0    0  501    0  0.00000000000E+00  0.00000000000E+00 -0.19955349761E+04  0.19955349761E+04  0.25500000920E-02 0. -1.
    10030    2    1    2    0    0  0.00000000000E+00  0.00000000000E+00 -0.13365140610E+04  0.26545558912E+04  0.22935555681E+04 0.  0.
        5    1    3    3  502    0  0.37860991772E+03  0.27914119868E+03  0.54221269655E+03  0.71783144044E+03  0.46999998093E+01 0.  1.
       -5    1    3    3    0  502 -0.37860991772E+03 -0.27914119868E+03 -0.18787267575E+04  0.19367244507E+04  0.46999998093E+01 0. -1.
</event>
<event>
 5   0  0.5642466E-05  0.1337402E+04  0.7818609E-02  0.9000420E-01
       -1   -1    0    0    0  501  0.00000000000E+00  0.00000000000E+00  0.13547742060E+04  0.13547742060E+04  0.50400001928E-02 0.  1.
        1   -1    0    0  501    0  0.00000000000E+00  0.00000000000E+00 -0.33006289926E+03  0.33006289930E+03  0.50400001928E-02 0. -1.
    10030    2    1    2    0    0  0.00000000000E+00  0.00000000000E+00  0.10247113068E+04  0.16848371053E+04  0.13374015139E+04 0.  0.
        1    1    3    3  502    0  0.17625221936E+03  0.45288238755E+03 -0.66313781633E+02  0.49047407622E+03  0.50400001928E-02 0. -1.
       -1    1    3    3    0  502 -0.17625221936E+03 -0.45288238755E+03  0.10910250884E+04  0.11943630291E+04  0.50400001928E-02 0.  1.
</event>
<event>
 5   0  0.1281432E-04  0.2195204E+04  0.7818609E-02  0.8520427E-01
        2   -1    0    0  501    0  0.00000000000E+00  0.00000000000E+00  0.15774329030E+04  0.15774329030E+04  0.25500000920E-02 0.  1.
       -2   -1    0    0    0  501  0.00000000000E+00  0.00000000000E+00 -0.76372844340E+03  0.76372844341E+03  0.25500000920E-02 0. -1.
    10030    2    1    2    0    0  0.00000000000E+00  0.00000000000E+00  0.81370445955E+03  0.23411613464E+04  0.21952042051E+04 0.  0.
        4    1    3    3  502    0 -0.83913514293E+03 -0.18220722028E+03  0.11359607608E+04  0.14239928799E+04  0.12699999809E+01 0.  1.
       -4    1    3    3    0  502  0.83913514293E+03  0.18220722028E+03 -0.32225630121E+03  0.91716846642E+03  0.12699999809E+01 0. -1.
</event>
<event>
 5   0  0.4489500E-05  0.2303362E+04  0.7818609E-02  0.8476597E-01
       -3   -1    0    0    0  501  0.00000000000E+00  0.00000000000E+00  0.22581310836E+04  0.22581310859E+04  0.10100000352E+00 0. -1.
        3   -1    0    0  501    0  0.00000000000E+00  0.00000000000E+00 -0.58737492331E+03  0.58737493200E+03  0.10100000352E+00 0.  1.
    10030    2    1    2    0    0  0.00000000000E+00  0.00000000000E+00  0.16707561603E+04  0.28455060179E+04  0.23033624010E+04 0.  0.
        1    1    3    3  502    0  0.79683643182E+03  0.66847186075E+03  0.22444187736E+03  0.10640381027E+04  0.50400001928E-02 0.  1.
       -1    1    3    3    0  502 -0.79683643182E+03 -0.66847186075E+03  0.14463142829E+04  0.17814679152E+04  0.50400001928E-02 0. -1.
</event>
<event>
 5   0  0.5663790E-05  0.2321539E+04  0.7818609E-02  0.8469477E-01
        1   -1    0    0  501    0  0.00000000000E+00  0.00000000000E+00  0.18585067056E+04  0.18585067056E+04  0.50400001928E-02 0.  1.
       -1   -1    0    0    0  501  0.00000000000E+00  0.00000000000E+00 -0.72498322688E+03  0.72498322690E+03  0.50400001928E-02 0. -1.
    10030    2    1    2    0    0  0.00000000000E+00  0.00000000000E+00  0.11335234788E+04  0.25834899325E+04  0.23215393071E+04 0.  0.
        3    1    3    3  502    0  0.63625394976E+03 -0.39723868566E+03 -0.41906709809E+03  0.85920597348E+03  0.10100000352E+00 0. -1.
       -3    1    3    3    0  502 -0.63625394976E+03  0.39723868566E+03  0.15525905768E+04  0.17242839591E+04  0.10100000352E+00 0.  1.
</event>
<event>
 5   0  0.5843670E-05  0.2434067E+04  0.7818609E-02  0.8426858E-01
        1   -1    0    0  501    0  0.00000000000E+00  0.00000000000E+00  0.12709383071E+04  0.12709383071E+04  0.50400001928E-02 0.  1.
       -1   -1    0    0    0  501  0.00000000000E+00  0.00000000000E+00 -0.11654153239E+04  0.11654153239E+04  0.50400001928E-02 0. -1.
    10030    2    1    2    0    0  0.00000000000E+00  0.00000000000E+00  0.10552298320E+03  0.24363536311E+04  0.24340673605E+04 0.  0.
        2    1    3    3  502    0  0.11076993822E+04  0.14884229714E+03  0.53489746244E+03  0.12390590164E+04  0.25500000920E-02 0.  1.
       -2    1    3    3    0  502 -0.11076993822E+04 -0.14884229714E+03 -0.42937447924E+03  0.11972946146E+04  0.25500000920E-02 0. -1.
</event>
<event>
 5   0  0.5843670E-05  0.2221611E+04  0.7818609E-02  0.8509487E-01
       -1   -1    0    0    0  501  0.00000000000E+00  0.00000000000E+00  0.95895327569E+03  0.95895327570E+03  0.50400001928E-02 0.  1.
        1   -1    0    0  501    0  0.00000000000E+00  0.00000000000E+00 -0.12867039802E+04  0.12867039802E+04  0.50400001928E-02 0. -1.
    10030    2    1    2    0    0  0.00000000000E+00  0.00000000000E+00 -0.32775070453E+03  0.22456572559E+04  0.22216111241E+04 0.  0.
        2    1    3    3  502    0  0.48829433821E+03  0.16938227083E+03 -0.11577609641E+04  0.12678849177E+04  0.25500000920E-02 0. -1.
       -2    1    3    3    0  502 -0.48829433821E+03 -0.16938227083E+03  0.83001025960E+03  0.97777233825E+03  0.25500000920E-02 0.  1.
</event>
<event>
 5   0  0.5642466E-05  0.2385316E+04  0.7818609E-02  0.8445022E-01
       -1   -1    0    0    0  501  0.00000000000E+00  0.00000000000E+00  0.12065303577E+04  0.12065303577E+04  0.50400001928E-02 0.  1.
        1   -1    0    0  501    0  0.00000000000E+00  0.00000000000E+00 -0.11789449212E+04  0.11789449213E+04  0.50400001928E-02 0. -1.
    10030    2    1    2    0    0  0.00000000000E+00  0.00000000000E+00  0.27585436493E+02  0.23854752790E+04  0.23853157758E+04 0.  0.
        1    1    3    3  502    0 -0.10740852610E+04 -0.51786284499E+03 -0.10535098589E+02  0.11924563147E+04  0.50400001928E-02 0. -1.
       -1    1    3    3    0  502  0.10740852610E+04  0.51786284499E+03  0.38120535082E+02  0.11930189643E+04  0.50400001928E-02 0.  1.
</event>
<event>
 5   0  0.5924654E-05  0.2269095E+04  0.7818609E-02  0.8490207E-01
       -1   -1    0    0    0  501  0.00000000000E+00  0.00000000000E+00  0.43253828220E+03  0.43253828223E+03  0.50400001928E-02 0. -1.
        1   -1    0    0  501    0  0.00000000000E+00  0.00000000000E+00 -0.29759179952E+04  0.29759179952E+04  0.50400001928E-02 0.  1.
    10030    2    1    2    0    0  0.00000000000E+00  0.00000000000E+00 -0.25433797130E+04  0.34084562775E+04  0.22690953772E+04 0.  0.
        5    1    3    3  502    0 -0.60394992438E+03  0.66909070639E+03 -0.23066704230E+04  0.24765274913E+04  0.46999998093E+01 0.  1.
       -5    1    3    3    0  502  0.60394992438E+03 -0.66909070639E+03 -0.23670928998E+03  0.93192878617E+03  0.46999998093E+01 0. -1.
</event>
<event>
 5   0  0.5843670E-05  0.2296925E+04  0.7818609E-02  0.8479135E-01
        1   -1    0    0  501    0  0.00000000000E+00  0.00000000000E+00  0.15567394979E+04  0.15567394979E+04  0.50400001928E-02 0. -1.
       -1   -1    0    0    0  501  0.00000000000E+00  0.00000000000E+00 -0.84726188329E+03  0.84726188331E+03  0.50400001928E-02 0.  1.
    10030    2    1    2    0    0  0.00000000000E+00  0.00000000000E+00  0.70947761464E+03  0.24040013812E+04  0.22969249346E+04 0.  0.
        2    1    3    3  502    0 -0.60933088134E+03  0.39599868987E+03  0.12855029094E+04  0.14766911713E+04  0.25500000920E-02 0. -1.
       -2    1    3    3    0  502  0.60933088134E+03 -0.39599868987E+03 -0.57602529473E+03  0.92731020997E+03  0.25500000920E-02 0.  1.
</event>
<event>
 5   0  0.1281432E-04  0.2255344E+04  0.7818609E-02  0.8495739E-01
       -2   -1    0    0    0  501  0.00000000000E+00  0.00000000000E+00  0.14279292638E+04  0.14279292638E+04  0.25500000920E-02 0.  1.
        2   -1    0    0  501    0  0.00000000000E+00  0.00000000000E+00 -0.89055129239E+03  0.89055129240E+03  0.25500000920E-02 0. -1.
    10030    2    1    2    0    0  0.00000000000E+00  0.00000000000E+00  0.53737797137E+03  0.23184805562E+04  0.22553440991E+04 0.  0.
        4    1    3    3  502    0 -0.56885330453E+03  0.30151319005E+03  0.12204241379E+04  0.13798336767E+04  0.12699999809E+01 0.  1.
       -4    1    3    3    0  502  0.56885330453E+03 -0.30151319005E+03 -0.68304616657E+03  0.93864687951E+03  0.12699999809E+01 0. -1.
</event>
<event>
 5   0  0.1281432E-04  0.2126992E+04  0.7818609E-02  0.8549445E-01
        2   -1    0    0  501    0  0.00000000000E+00  0.00000000000E+00  0.11235958764E+04  0.11235958764E+04  0.25500000920E-02 0.  1.
       -2   -1    0    0    0  501  0.00000000000E+00  0.00000000000E+00 -0.10066112403E+04  0.10066112403E+04  0.25500000920E-02 0. -1.
    10030    2    1    2    0    0  0.00000000000E+00  0.00000000000E+00  0.11698463611E+03  0.21302071167E+04  0.21269924670E+04 0.  0.
        4    1    3    3  502    0 -0.43804764244E+03 -0.80165980298E+03  0.60381359686E+03  0.10950509803E+04  0.12699999809E+01 0.  1.
       -4    1    3    3    0  502  0.43804764244E+03  0.80165980298E+03 -0.48682896075E+03  0.10351561364E+04  0.12699999809E+01 0. -1.
</event>
<event>
 5   0  0.1237296E-04  0.2310073E+04  0.7818609E-02  0.8473960E-01
       -2   -1    0    0    0  501  0.00000000000E+00  0.00000000000E+00  0.86862279589E+03  0.86862279590E+03  0.25500000920E-02 0. -1.
        2   -1    0    0  501    0  0.00000000000E+00  0.00000000000E+00 -0.15358904443E+04  0.15358904443E+04  0.25500000920E-02 0.  1.
    10030    2    1    2    0    0  0.00000000000E+00  0.00000000000E+00 -0.66726764838E+03  0.24045132402E+04  0.23100731174E+04 0.  0.
        1    1    3    3  502    0  0.11539960176E+03 -0.13974799300E+03 -0.15209980711E+04  0.15317577164E+04  0.50400001928E-02 0.  1.
       -1    1    3    3    0  502 -0.11539960176E+03  0.13974799300E+03  0.85373042267E+03  0.87275552376E+03  0.50400001928E-02 0. -1.
</event>
<event>
 5   0  0.5632156E-05  0.2271281E+04  0.7818609E-02  0.8489331E-01
        1   -1    0    0  501    0  0.00000000000E+00  0.00000000000E+00  0.14514404169E+04  0.14514404169E+04  0.50400001928E-02 0.  1.
       -1   -1    0    0    0  501  0.00000000000E+00  0.00000000000E+00 -0.88855166242E+03  0.88855166244E+03  0.50400001928E-02 0. -1.
    10030    2    1    2    0    0  0.00000000000E+00  0.00000000000E+00  0.56288875443E+03  0.23399920793E+04  0.22712813963E+04 0.  0.
        4    1    3    3  502    0 -0.66881128947E+02  0.41825175169E+03 -0.80412568425E+03  0.90886046353E+03  0.12699999809E+01 0. -1.
       -4    1    3    3    0  502  0.66881128947E+02 -0.41825175169E+03  0.13670144387E+04  0.14311316158E+04  0.12699999809E+01 0.  1.
</event>
<event>
 5   0  0.5632156E-05  0.2246930E+04  0.7818609E-02  0.8499145E-01
        1   -1    0    0  501    0  0.00000000000E+00  0.00000000000E+00  0.10932021468E+04  0.10932021468E+04  0.50400001928E-02 0. -1.
       -1   -1    0    0    0  501  0.00000000000E+00  0.00000000000E+00 -0.11545652992E+04  0.11545652993E+04  0.50400001928E-02 0.  1.
    10030    2    1    2    0    0  0.00000000000E+00  0.00000000000E+00 -0.61363152422E+02  0.22477674461E+04  0.22469296952E+04 0.  0.
        4    1    3    3  502    0 -0.10328756550E+04  0.27769084302E+03 -0.37465178520E+03  0.11332739722E+04  0.12699999809E+01 0.  1.
       -4    1    3    3    0  502  0.10328756550E+04 -0.27769084302E+03  0.31328863278E+03  0.11144934739E+04  0.12699999809E+01 0. -1.
</event>
<event>
 5   0  0.1234988E-04  0.2287505E+04  0.7818609E-02  0.8482864E-01
        2   -1    0    0  501    0  0.00000000000E+00  0.00000000000E+00  0.10910564862E+04  0.10910564862E+04  0.25500000920E-02 0. -1.
       -2   -1    0    0    0  501  0.00000000000E+00  0.00000000000E+00 -0.11989933418E+04  0.11989933418E+04  0.25500000920E-02 0.  1.
    10030    2    1    2    0    0  0.00000000000E+00  0.00000000000E+00 -0.10793685556E+03  0.22900498280E+04  0.22875047213E+04 0.  0.
        5    1    3    3  502    0 -0.49449951729E+02 -0.24901726206E+02 -0.11976413250E+04  0.11989296172E+04  0.46999998093E+01 0.  1.
       -5    1    3    3    0  502  0.49449951729E+02  0.24901726206E+02  0.10897044695E+04  0.10911202108E+04  0.46999998093E+01 0. -1.
</event>
<event>
 5   0  0.5924654E-05  0.2288459E+04  0.7818609E-02  0.8482486E-01
        1   -1    0    0  501    0  0.00000000000E+00  0.00000000000E+00  0.15031926450E+04  0.15031926450E+04  0.50400001928E-02 0. -1.
       -1   -1    0    0    0  501  0.00000000000E+00  0.00000000000E+00 -0.87098660242E+03  0.87098660243E+03  0.50400001928E-02 0.  1.
    10030    2    1    2    0    0  0.00000000000E+00  0.00000000000E+00  0.63220604261E+03  0.23741792475E+04  0.22884585683E+04 0.  0.
        5    1    3    3  502    0  0.15737718288E+03 -0.11151340164E+04  0.10616935459E+03  0.11311876387E+04  0.46999998093E+01 0. -1.
       -5    1    3    3    0  502 -0.15737718288E+03  0.11151340164E+04  0.52603668802E+03  0.12429916087E+04  0.46999998093E+01 0.  1.
</event>
<event>
 5   0  0.5924654E-05  0.2283369E+04  0.7818609E-02  0.8484507E-01
        1   -1    0    0  501    0  0.00000000000E+00  0.00000000000E+00  0.88027535130E+03  0.88027535131E+03  0.50400001928E-02 0. -1.
       -1   -1    0    0    0  501  0.00000000000E+00  0.00000000000E+00 -0.14807226155E+04  0.14807226155E+04  0.50400001928E-02 0.  1.
    10030    2    1    2    0    0  0.00000000000E+00  0.00000000000E+00 -0.60044726420E+03  0.23609979668E+04  0.22833691077E+04 0.  0.
        5    1    3    3  502    0 -0.14242845524E+03  0.11036661404E+04 -0.56395729157E+03  0.12475715335E+04  0.46999998093E+01 0.  1.
       -5    1    3    3    0  502  0.14242845524E+03 -0.11036661404E+04 -0.36489972622E+02  0.11134264334E+04  0.46999998093E+01 0. -1.
</event>
<event>
 5   0  0.1270613E-04  0.2327551E+04  0.7818609E-02  0.8467137E-01
       -2   -1    0    0    0  501  0.00000000000E+00  0.00000000000E+00  0.14983996894E+04  0.14983996894E+04  0.25500000920E-02 0.  1.
        2   -1    0    0  501    0  0.00000000000E+00  0.00000000000E+00 -0.90388009813E+03  0.90388009813E+03  0.25500000920E-02 0. -1.
    10030    2    1    2    0    0  0.00000000000E+00  0.00000000000E+00  0.59451959127E+03  0.24022797875E+04  0.23275512096E+04 0.  0.
        2    1    3    3  502    0 -0.28871538277E+03 -0.72851076634E+03  0.11852844723E+04  0.14209094937E+04  0.25500000920E-02 0.  1.
       -2    1    3    3    0  502  0.28871538277E+03  0.72851076634E+03 -0.59076488106E+03  0.98137029383E+03  0.25500000920E-02 0. -1.
</event>
<event>
 5   0  0.5663790E-05  0.1162970E+04  0.7818609E-02  0.9145901E-01
        1   -1    0    0  501    0  0.00000000000E+00  0.00000000000E+00  0.69311735658E+03  0.69311735659E+03  0.50400001928E-02 0.  1.
       -1   -1    0    0    0  501  0.00000000000E+00  0.00000000000E+00 -0.48783163652E+03  0.48783163654E+03  0.50400001928E-02 0. -1.
    10030    2    1    2    0    0  0.00000000000E+00  0.00000000000E+00  0.20528572006E+03  0.11809489931E+04  0.11629696030E+04 0.  0.
        3    1    3    3  502    0  0.15657822350E+03  0.55389426990E+03  0.18643498959E+03  0.60504017870E+03  0.10100000352E+00 0.  1.
       -3    1    3    3    0  502 -0.15657822350E+03 -0.55389426990E+03  0.18850730468E+02  0.57590881443E+03  0.10100000352E+00 0. -1.
</event>
<event>
 5   0  0.1257524E-04  0.2161455E+04  0.7818609E-02  0.8534645E-01
        2   -1    0    0  501    0  0.00000000000E+00  0.00000000000E+00  0.92925299166E+03  0.92925299167E+03  0.25500000920E-02 0.  1.
       -2   -1    0    0    0  501  0.00000000000E+00  0.00000000000E+00 -0.12568930789E+04  0.12568930789E+04  0.25500000920E-02 0. -1.
    10030    2    1    2    0    0  0.00000000000E+00  0.00000000000E+00 -0.32764008723E+03  0.21861460706E+04  0.21614547451E+04 0.  0.
        3    1    3    3  502    0 -0.82448773986E+03  0.68741771723E+01  0.54283451634E+03  0.98716594847E+03  0.10100000352E+00 0.  1.
       -3    1    3    3    0  502  0.82448773986E+03 -0.68741771723E+01 -0.87047460358E+03  0.11989801221E+04  0.10100000352E+00 0. -1.
</event>
<event>
 5   0  0.4489500E-05  0.1983737E+04  0.7818609E-02  0.8614262E-01
        3   -1    0    0  501    0  0.00000000000E+00  0.00000000000E+00  0.11876445585E+04  0.11876445628E+04  0.10100000352E+00 0. -1.
       -3   -1    0    0    0  501  0.00000000000E+00  0.00000000000E+00 -0.82836500228E+03  0.82836500843E+03  0.10100000352E+00 0.  1.
    10030    2    1    2    0    0  0.00000000000E+00  0.00000000000E+00  0.35927955619E+03  0.20160095712E+04  0.19837370773E+04 0.  0.
        3    1    3    3  502    0 -0.84529348211E+03  0.32186293444E+03  0.59330772254E+03  0.10817258818E+04  0.10100000352E+00 0. -1.
       -3    1    3    3    0  502  0.84529348211E+03 -0.32186293444E+03 -0.23402816635E+03  0.93428368942E+03  0.10100000352E+00 0.  1.
</event>
<event>
 5   0  0.1281432E-04  0.2416801E+04  0.7818609E-02  0.8433240E-01
        2   -1    0    0  501    0  0.00000000000E+00  0.00000000000E+00  0.17147247399E+04  0.17147247399E+04  0.25500000920E-02 0.  1.
       -2   -1    0    0    0  501  0.00000000000E+00  0.00000000000E+00 -0.85158379666E+03  0.85158379666E+03  0.25500000920E-02 0. -1.
    10030    2    1    2    0    0  0.00000000000E+00  0.00000000000E+00  0.86314094329E+03  0.25663085366E+04  0.24168010297E+04 0.  0.
        4    1    3    3  502    0  0.11031423645E+04 -0.25321827120E+03 -0.17921536613E+02  0.11319741002E+04  0.12699999809E+01 0. -1.
       -4    1    3    3    0  502 -0.11031423645E+04  0.25321827120E+03  0.88106247990E+03  0.14343344364E+04  0.12699999809E+01 0.  1.
</event>
<event>
 5   0  0.1281432E-04  0.2404864E+04  0.7818609E-02  0.8437685E-01
        2   -1    0    0  501    0  0.00000000000E+00  0.00000000000E+00  0.12761934686E+04  0.12761934686E+04  0.25500000920E-02 0.  1.
       -2   -1    0    0    0  501  0.00000000000E+00  0.00000000000E+00 -0.11329335282E+04  0.11329335282E+04  0.25500000920E-02 0. -1.
    10030    2    1    2    0    0  0.00000000000E+00  0.00000000000E+00  0.14325994038E+03  0.24091269968E+04  0.24048637126E+04 0.  0.
        4    1    3    3  502    0  0.16798442939E+03  0.11792585603E+04 -0.92890387916E+02  0.11947802131E+04  0.12699999809E+01 0.  1.
       -4    1    3    3    0  502 -0.16798442939E+03 -0.11792585603E+04  0.23615032829E+03  0.12143467837E+04  0.12699999809E+01 0. -1.
</event>
<event>
 5   0  0.5843670E-05  0.2017991E+04  0.7818609E-02  0.8598255E-01
       -1   -1    0    0    0  501  0.00000000000E+00  0.00000000000E+00  0.89061873199E+03  0.89061873201E+03  0.50400001928E-02 0. -1.
        1   -1    0    0  501    0  0.00000000000E+00  0.00000000000E+00 -0.11431063669E+04  0.11431063669E+04  0.50400001928E-02 0.  1.
    10030    2    1    2    0    0  0.00000000000E+00  0.00000000000E+00 -0.25248763492E+03  0.20337250989E+04  0.20179910238E+04 0.  0.
        2    1    3    3  502    0  0.22899868558E+03  0.98023636811E+03 -0.56653214327E+02  0.10082228534E+04  0.25500000920E-02 0. -1.
       -2    1    3    3    0  502 -0.22899868558E+03 -0.98023636811E+03 -0.19583442059E+03  0.10255022456E+04  0.25500000920E-02 0.  1.
</event>
<event>
 5   0  0.1237296E-04  0.2252710E+04  0.7818609E-02  0.8496804E-01
        2   -1    0    0  501    0  0.00000000000E+00  0.00000000000E+00  0.10408752490E+04  0.10408752490E+04  0.25500000920E-02 0.  1.
       -2   -1    0    0    0  501  0.00000000000E+00  0.00000000000E+00 -0.12188543931E+04  0.12188543931E+04  0.25500000920E-02 0. -1.
    10030    2    1    2    0    0  0.00000000000E+00  0.00000000000E+00 -0.17797914409E+03  0.22597296420E+04  0.22527098080E+04 0.  0.
        1    1    3    3  502    0  0.78243479699E+03  0.64913343631E+03  0.39738932204E+03  0.10915570086E+04  0.50400001928E-02 0.  1.
       -1    1    3    3    0  502 -0.78243479699E+03 -0.64913343631E+03 -0.57536846613E+03  0.11681726334E+04  0.50400001928E-02 0. -1.
</event>
<event>
 5   0  0.5642466E-05  0.2292452E+04  0.7818609E-02  0.8480903E-01
        1   -1    0    0  501    0  0.00000000000E+00  0.00000000000E+00  0.11417803232E+04  0.11417803232E+04  0.50400001928E-02 0. -1.
       -1   -1    0    0    0  501  0.00000000000E+00  0.00000000000E+00 -0.11506885381E+04  0.11506885381E+04  0.50400001928E-02 0.  1.
    10030    2    1    2    0    0  0.00000000000E+00  0.00000000000E+00 -0.89082149101E+01  0.22924688614E+04  0.22924515533E+04 0.  0.
        1    1    3    3  502    0 -0.48576917005E+03  0.10378814784E+04  0.21311979001E+02  0.11461343073E+04  0.50400001928E-02 0. -1.
       -1    1    3    3    0  502  0.48576917005E+03 -0.10378814784E+04 -0.30220193911E+02  0.11463345541E+04  0.50400001928E-02 0.  1.
</event>
<event>
 5   0  0.5924654E-05  0.2273768E+04  0.7818609E-02  0.8488337E-01
        1   -1    0    0  501    0  0.00000000000E+00  0.00000000000E+00  0.18797945932E+04  0.18797945932E+04  0.50400001928E-02 0.  1.
       -1   -1    0    0    0  501  0.00000000000E+00  0.00000000000E+00 -0.68757765340E+03  0.68757765342E+03  0.50400001928E-02 0. -1.
    10030    2    1    2    0    0  0.00000000000E+00  0.00000000000E+00  0.11922169398E+04  0.25673722466E+04  0.22737675829E+04 0.  0.
        5    1    3    3  502    0  0.52399020756E+02 -0.35324133280E+01 -0.68619628211E+03  0.68821912419E+03  0.46999998093E+01 0. -1.
       -5    1    3    3    0  502 -0.52399020756E+02  0.35324133280E+01  0.18784132219E+04  0.18791531224E+04  0.46999998093E+01 0.  1.
</event>
<event>
 5   0  0.1237296E-04  0.2425988E+04  0.7818609E-02  0.8429838E-01
       -2   -1    0    0    0  501  0.00000000000E+00  0.00000000000E+00  0.73302376777E+03  0.73302376777E+03  0.25500000920E-02 0. -1.
        2   -1    0    0  501    0  0.00000000000E+00  0.00000000000E+00 -0.20072397590E+04  0.20072397590E+04  0.25500000920E-02 0.  1.
    10030    2    1    2    0    0  0.00000000000E+00  0.00000000000E+00 -0.12742159912E+04  0.27402635268E+04  0.24259880057E+04 0.  0.
        1    1    3    3  502    0  0.11851702619E+04  0.19170264929E+03 -0.83267270526E+03  0.14610688860E+04  0.50400001928E-02 0. -1.
       -1    1    3    3    0  502 -0.11851702619E+04 -0.19170264929E+03 -0.44154328595E+03  0.12791946408E+04  0.50400001928E-02 0.  1.
</event>
<event>
 5   0  0.5924654E-05  0.2333237E+04  0.7818609E-02  0.8464930E-01
       -1   -1    0    0    0  501  0.00000000000E+00  0.00000000000E+00  0.96680699529E+03  0.96680699530E+03  0.50400001928E-02 0.  1.
        1   -1    0    0  501    0  0.00000000000E+00  0.00000000000E+00 -0.14077258056E+04  0.14077258056E+04  0.50400001928E-02 0. -1.
    10030    2    1    2    0    0  0.00000000000E+00  0.00000000000E+00 -0.44091881027E+03  0.23745328009E+04  0.23332373701E+04 0.  0.
        5    1    3    3  502    0 -0.11941006489E+03 -0.93027692042E+03  0.48557945206E+03  0.10561644789E+04  0.46999998093E+01 0.  1.
       -5    1    3    3    0  502  0.11941006489E+03  0.93027692042E+03 -0.92649826232E+03  0.13183683220E+04  0.46999998093E+01 0. -1.
</event>
<event>
 5   0  0.5663790E-05  0.2207331E+04  0.7818609E-02  0.8515383E-01
        1   -1    0    0  501    0  0.00000000000E+00  0.00000000000E+00  0.19578839039E+04  0.19578839039E+04  0.50400001928E-02 0. -1.
       -1   -1    0    0    0  501  0.00000000000E+00  0.00000000000E+00 -0.62213992123E+03  0.62213992126E+03  0.50400001928E-02 0.  1.
    10030    2    1    2    0    0  0.00000000000E+00  0.00000000000E+00  0.13357439826E+04  0.25800238251E+04  0.22073311829E+04 0.  0.
        3    1    3    3  502    0  0.48741029056E+03  0.95569615212E+03  0.36497740047E+03  0.11331956758E+04  0.10100000352E+00 0.  1.
       -3    1    3    3    0  502 -0.48741029056E+03 -0.95569615212E+03  0.97076658215E+03  0.14468281493E+04  0.10100000352E+00 0. -1.
</event>
<event>
 5   0  0.5632156E-05  0.1838728E+04  0.7818609E-02  0.8685971E-01
       -1   -1    0    0    0  501  0.00000000000E+00  0.00000000000E+00  0.50903493034E+03  0.50903493037E+03  0.50400001928E-02 0. -1.
        1   -1    0    0  501    0  0.00000000000E+00  0.00000000000E+00 -0.16604562733E+04  0.16604562733E+04  0.50400001928E-02 0.  1.
    10030    2    1    2    0    0  0.00000000000E+00  0.00000000000E+00 -0.11514213430E+04  0.21694912037E+04  0.18387280859E+04 0.  0.
        4    1    3    3  502    0 -0.63510589484E+03  0.12598104782E+03  0.19438399793E+03  0.67603067506E+03  0.12699999809E+01 0. -1.
       -4    1    3    3    0  502  0.63510589484E+03 -0.12598104782E+03 -0.13458053409E+04  0.14934605286E+04  0.12699999809E+01 0.  1.
</event>
<event>
 5   0  0.1234988E-04  0.2105957E+04  0.7818609E-02  0.8558624E-01
        2   -1    0    0  501    0  0.00000000000E+00  0.00000000000E+00  0.22239189383E+04  0.22239189383E+04  0.25500000920E-02 0. -1.
       -2   -1    0    0    0  501  0.00000000000E+00  0.00000000000E+00 -0.49856300608E+03  0.49856300608E+03  0.25500000920E-02 0.  1.
    10030    2    1    2    0    0  0.00000000000E+00  0.00000000000E+00  0.17253559323E+04  0.27224819444E+04  0.21059569902E+04 0.  0.
        5    1    3    3  502    0 -0.28171044369E+03  0.31147558855E+03 -0.38559111532E+03  0.57015823642E+03  0.46999998093E+01 0.  1.
       -5    1    3    3    0  502  0.28171044369E+03 -0.31147558855E+03  0.21109470476E+04  0.21523237080E+04  0.46999998093E+01 0. -1.
</event>
<event>
 5   0  0.1237296E-04  0.2219859E+04  0.7818609E-02  0.8510208E-01
        2   -1    0    0  501    0  0.00000000000E+00  0.00000000000E+00  0.10690010968E+04  0.10690010968E+04  0.25500000920E-02 0. -1.
       -2   -1    0    0    0  501  0.00000000000E+00  0.00000000000E+00 -0.11524247125E+04  0.11524247126E+04  0.25500000920E-02 0.  1.
    10030    2    1    2    0    0  0.00000000000E+00  0.00000000000E+00 -0.83423615788E+02  0.22214258093E+04  0.22198588078E+04 0.  0.
        1    1    3    3  502    0 -0.37535220013E+03 -0.56995774745E+03 -0.91765945577E+03  0.11436083179E+04  0.50400001928E-02 0.  1.
       -1    1    3    3    0  502  0.37535220013E+03  0.56995774745E+03  0.83423583998E+03  0.10778174914E+04  0.50400001928E-02 0. -1.
</event>
<event>
 5   0  0.5843670E-05  0.2309223E+04  0.7818609E-02  0.8474293E-01
       -1   -1    0    0    0  501  0.00000000000E+00  0.00000000000E+00  0.71542692642E+03  0.71542692643E+03  0.50400001928E-02 0. -1.
        1   -1    0    0  501    0  0.00000000000E+00  0.00000000000E+00 -0.18634020877E+04  0.18634020877E+04  0.50400001928E-02 0.  1.
    10030    2    1    2    0    0  0.00000000000E+00  0.00000000000E+00 -0.11479751613E+04  0.25788290142E+04  0.23092232706E+04 0.  0.
        2    1    3    3  502    0  0.52096774548E+03  0.18238388637E+02  0.57653119004E+03  0.77725687115E+03  0.25500000920E-02 0. -1.
       -2    1    3    3    0  502 -0.52096774548E+03 -0.18238388637E+02 -0.17245063514E+04  0.18015721430E+04  0.25500000920E-02 0.  1.
</event>
<event>
 5   0  0.5924654E-05  0.2266612E+04  0.7818609E-02  0.8491203E-01
       -1   -1    0    0    0  501  0.00000000000E+00  0.00000000000E+00  0.26029637902E+04  0.26029637902E+04  0.50400001928E-02 0.  1.
        1   -1    0    0  501    0  0.00000000000E+00  0.00000000000E+00 -0.49343099235E+03  0.49343099237E+03  0.50400001928E-02 0. -1.
    10030    2    1    2    0    0  0.00000000000E+00  0.00000000000E+00  0.21095327978E+04  0.30963947825E+04  0.22666124557E+04 0.  0.
        5    1    3    3  502    0 -0.36242730498E+03 -0.24065030377E+03  0.24843347128E+04  0.25221433693E+04  0.46999998093E+01 0.  1.
       -5    1    3    3    0  502  0.36242730498E+03  0.24065030377E+03 -0.37480191500E+03  0.57425141322E+03  0.46999998093E+01 0. -1.
</event>
<event>
 5   0  0.1257524E-04  0.2278438E+04  0.7818609E-02  0.8486471E-01
        2   -1    0    0  501    0  0.00000000000E+00  0.00000000000E+00  0.15115764057E+04  0.15115764057E+04  0.25500000920E-02 0. -1.
       -2   -1    0    0    0  501  0.00000000000E+00  0.00000000000E+00 -0.85858710591E+03  0.85858710591E+03  0.25500000920E-02 0.  1.
    10030    2    1    2    0    0  0.00000000000E+00  0.00000000000E+00  0.65298929980E+03  0.23701635116E+04  0.22784380716E+04 0.  0.
        3    1    3    3  502    0 -0.67278991854E+02  0.52017826020E+03 -0.72550823388E+03  0.89525085465E+03  0.10100000352E+00 0.  1.
       -3    1    3    3    0  502  0.67278991854E+02 -0.52017826020E+03  0.13784975337E+04  0.14749126570E+04  0.10100000352E+00 0. -1.
</event>
<event>
 5   0  0.1237296E-04  0.2293410E+04  0.7818609E-02  0.8480524E-01
        2   -1    0    0  501    0  0.00000000000E+00  0.00000000000E+00  0.13258414014E+04  0.13258414014E+04  0.25500000920E-02 0.  1.
       -2   -1    0    0    0  501  0.00000000000E+00  0.00000000000E+00 -0.99177211453E+03  0.99177211454E+03  0.25500000920E-02 0. -1.
    10030    2    1    2    0    0  0.00000000000E+00  0.00000000000E+00  0.33406928691E+03  0.23176135160E+04  0.22934101511E+04 0.  0.
        1    1    3    3  502    0 -0.76081768118E+03  0.18070840709E+03 -0.68052602544E+03  0.10366362639E+04  0.50400001928E-02 0. -1.
       -1    1    3    3    0  502  0.76081768118E+03 -0.18070840709E+03  0.10145953123E+04  0.12809772520E+04  0.50400001928E-02 0.  1.
</event>
<event>
 5   0  0.5924654E-05  0.1701956E+04  0.7818609E-02  0.8760249E-01
        1   -1    0    0  501    0  0.00000000000E+00  0.00000000000E+00  0.21535345775E+04  0.21535345775E+04  0.50400001928E-02 0. -1.
       -1   -1    0    0    0  501  0.00000000000E+00  0.00000000000E+00 -0.33626758294E+03  0.33626758297E+03  0.50400001928E-02 0.  1.
    10030    2    1    2    0    0  0.00000000000E+00  0.00000000000E+00  0.18172669945E+04  0.24898021605E+04  0.17019563651E+04 0.  0.
        5    1    3    3  502    0  0.84139055004E+03  0.12134186787E+03  0.85235684049E+03  0.12038256436E+04  0.46999998093E+01 0. -1.
       -5    1    3    3    0  502 -0.84139055004E+03 -0.12134186787E+03  0.96491015404E+03  0.12859765169E+04  0.46999998093E+01 0.  1.
</event>
<event>
 5   0  0.5843670E-05  0.2290245E+04  0.7818609E-02  0.8481777E-01
       -1   -1    0    0    0  501  0.00000000000E+00  0.00000000000E+00  0.72579065747E+03  0.72579065748E+03  0.50400001928E-02 0. -1.
        1   -1    0    0  501    0  0.00000000000E+00  0.00000000000E+00 -0.18067269247E+04  0.18067269248E+04  0.50400001928E-02 0.  1.
    10030    2    1    2    0    0  0.00000000000E+00  0.00000000000E+00 -0.10809362673E+04  0.25325175822E+04  0.22902449848E+04 0.  0.
        2    1    3    3  502    0  0.20917769162E+03  0.83953031761E+03 -0.13699827817E+04  0.16203145630E+04  0.25500000920E-02 0.  1.
       -2    1    3    3    0  502 -0.20917769162E+03 -0.83953031761E+03  0.28904651441E+03  0.91220301926E+03  0.25500000920E-02 0. -1.
</event>
<event>
 5   0  0.5924654E-05  0.2257238E+04  0.7818609E-02  0.8494975E-01
        1   -1    0    0  501    0  0.00000000000E+00  0.00000000000E+00  0.10988188024E+04  0.10988188024E+04  0.50400001928E-02 0. -1.
       -1   -1    0    0    0  501  0.00000000000E+00  0.00000000000E+00 -0.11592278377E+04  0.11592278377E+04  0.50400001928E-02 0.  1.
    10030    2    1    2    0    0  0.00000000000E+00  0.00000000000E+00 -0.60409035234E+02  0.22580466401E+04  0.22572384405E+04 0.  0.
        5    1    3    3  502    0 -0.24889818020E+03 -0.18571073853E+03 -0.11156370107E+04  0.11580616617E+04  0.46999998093E+01 0.  1.
       -5    1    3    3    0  502  0.24889818020E+03  0.18571073853E+03  0.10552279755E+04  0.10999849784E+04  0.46999998093E+01 0. -1.
</event>
<event>
 5   0  0.5843670E-05  0.1945600E+04  0.7818609E-02  0.8632486E-01
       -1   -1    0    0    0  501  0.00000000000E+00  0.00000000000E+00  0.80129158916E+03  0.80129158918E+03  0.50400001928E-02 0. -1.
        1   -1    0    0  501    0  0.00000000000E+00  0.00000000000E+00 -0.11810175443E+04  0.11810175443E+04  0.50400001928E-02 0.  1.
    10030    2    1    2    0    0  0.00000000000E+00  0.00000000000E+00 -0.37972595515E+03  0.19823091335E+04  0.19455995733E+04 0.  0.
        2    1    3    3  502    0  0.60354278373E+02 -0.24627304018E+03  0.76703057756E+03  0.80785453899E+03  0.25500000920E-02 0. -1.
       -2    1    3    3    0  502 -0.60354278373E+02  0.24627304018E+03 -0.11467565327E+04  0.11744545945E+04  0.25500000920E-02 0.  1.
</event>
<event>
 5   0  0.5924654E-05  0.2326998E+04  0.7818609E-02  0.8467351E-01
        1   -1    0    0  501    0  0.00000000000E+00  0.00000000000E+00  0.24915156674E+04  0.24915156674E+04  0.50400001928E-02 0.  1.
       -1   -1    0    0    0  501  0.00000000000E+00  0.00000000000E+00 -0.54333611209E+03  0.54333611211E+03  0.50400001928E-02 0. -1.
    10030    2    1    2    0    0  0.00000000000E+00  0.00000000000E+00  0.19481795553E+04  0.30348517795E+04  0.23269984409E+04 0.  0.
        5    1    3    3  502    0 -0.11340128709E+04  0.16912735605E+03  0.12320399224E+04  0.16830132841E+04  0.46999998093E+01 0. -1.
       -5    1    3    3    0  502  0.11340128709E+04 -0.16912735605E+03  0.71613963287E+03  0.13518384954E+04  0.46999998093E+01 0.  1.
</event>
<event>
 5   0  0.4489500E-05  0.2069460E+04  0.7818609E-02  0.8574817E-01
        4   -1    0    0  501    0  0.00000000000E+00  0.00000000000E+00  0.13253769511E+04  0.13253775595E+04  0.12699999809E+01 0. -1.
       -4   -1    0    0    0  501  0.00000000000E+00  0.00000000000E+00 -0.80781908894E+03  0.80782008724E+03  0.12699999809E+01 0.  1.
    10030    2    1    2    0    0  0.00000000000E+00  0.00000000000E+00  0.51755786213E+03  0.21331976468E+04  0.20694603305E+04 0.  0.
        5    1    3    3  502    0  0.70669220315E+03 -0.50176672061E+03 -0.32383748642E+03  0.92524403241E+03  0.46999998093E+01 0.  1.
       -5    1    3    3    0  502 -0.70669220315E+03  0.50176672061E+03  0.84139534855E+03  0.12079536144E+04  0.46999998093E+01 0. -1.
</event>
<event>
 5   0  0.1257524E-04  0.2304266E+04  0.7818609E-02  0.8476241E-01
       -2   -1    0    0    0  501  0.00000000000E+00  0.00000000000E+00  0.93212102027E+03  0.93212102028E+03  0.25500000920E-02 0. -1.
        2   -1    0    0  501    0  0.00000000000E+00  0.00000000000E+00 -0.14240756600E+04  0.14240756600E+04  0.25500000920E-02 0.  1.
    10030    2    1    2    0    0  0.00000000000E+00  0.00000000000E+00 -0.49195463970E+03  0.23561966803E+04  0.23042663536E+04 0.  0.
        3    1    3    3  502    0 -0.43670661908E+03 -0.10526081787E+04 -0.41924884803E+03  0.12142760213E+04  0.10100000352E+00 0.  1.
       -3    1    3    3    0  502  0.43670661908E+03  0.10526081787E+04 -0.72705791674E+02  0.11419206590E+04  0.10100000352E+00 0. -1.
</event>
<event>
 5   0  0.1270613E-04  0.2306757E+04  0.7818609E-02  0.8475262E-01
       -2   -1    0    0    0  501  0.00000000000E+00  0.00000000000E+00  0.83412326444E+03  0.83412326444E+03  0.25500000920E-02 0.  1.
        2   -1    0    0  501    0  0.00000000000E+00  0.00000000000E+00 -0.15948259672E+04  0.15948259672E+04  0.25500000920E-02 0. -1.
    10030    2    1    2    0    0  0.00000000000E+00  0.00000000000E+00 -0.76070270276E+03  0.24289492316E+04  0.23067565472E+04 0.  0.
        2    1    3    3  502    0  0.12410592872E+02  0.94593037235E+03  0.31440501196E+03  0.99688956445E+03  0.25500000920E-02 0.  1.
       -2    1    3    3    0  502 -0.12410592872E+02 -0.94593037235E+03 -0.10751077147E+04  0.14320596672E+04  0.25500000920E-02 0. -1.
</event>
<event>
 5   0  0.1237296E-04  0.1184273E+04  0.7818609E-02  0.9126735E-01
        2   -1    0    0  501    0  0.00000000000E+00  0.00000000000E+00  0.60409737989E+03  0.60409737990E+03  0.25500000920E-02 0.  1.
       -2   -1    0    0    0  501  0.00000000000E+00  0.00000000000E+00 -0.58041199830E+03  0.58041199830E+03  0.25500000920E-02 0. -1.
    10030    2    1    2    0    0  0.00000000000E+00  0.00000000000E+00  0.23685381593E+02  0.11845093782E+04  0.11842725488E+04 0.  0.
        1    1    3    3  502    0 -0.24774423325E+03  0.35202889306E+03  0.41852432290E+03  0.60038667169E+03  0.50400001928E-02 0.  1.
       -1    1    3    3    0  502  0.24774423325E+03 -0.35202889306E+03 -0.39483894131E+03  0.58412270651E+03  0.50400001928E-02 0. -1.
</event>
<event>
 5   0  0.5843670E-05  0.2174156E+04  0.7818609E-02  0.8529263E-01
       -1   -1    0    0    0  501  0.00000000000E+00  0.00000000000E+00  0.13857793946E+04  0.13857793946E+04  0.50400001928E-02 0. -1.
        1   -1    0    0  501    0  0.00000000000E+00  0.00000000000E+00 -0.85276076524E+03  0.85276076526E+03  0.50400001928E-02 0.  1.
    10030    2    1    2    0    0  0.00000000000E+00  0.00000000000E+00  0.53301862939E+03  0.22385401599E+04  0.21741557415E+04 0.  0.
        2    1    3    3  502    0 -0.69666827675E+02 -0.92974232673E+03 -0.30902902353E+03  0.98222868945E+03  0.25500000920E-02 0. -1.
       -2    1    3    3    0  502  0.69666827675E+02  0.92974232673E+03  0.84204765292E+03  0.12563114704E+04  0.25500000920E-02 0.  1.
</event>
<event>
 5   0  0.1281432E-04  0.1298581E+04  0.7818609E-02  0.9030691E-01
        2   -1    0    0  501    0  0.00000000000E+00  0.00000000000E+00  0.15291845498E+04  0.15291845498E+04  0.25500000920E-02 0.  1.
       -2   -1    0    0    0  501  0.00000000000E+00  0.00000000000E+00 -0.27568834747E+03  0.27568834748E+03  0.25500000920E-02 0. -1.
    10030    2    1    2    0    0  0.00000000000E+00  0.00000000000E+00  0.12534962023E+04  0.18048728972E+04  0.12985813205E+04 0.  0.
        4    1    3    3  502    0  0.50246873321E+03  0.33207788784E+03  0.96385128869E+03  0.11365568490E+04  0.12699999809E+01 0. -1.
       -4    1    3    3    0  502 -0.50246873321E+03 -0.33207788784E+03  0.28964491359E+03  0.66831604822E+03  0.12699999809E+01 0.  1.
</event>
<event>
 5   0  0.5642466E-05  0.2301183E+04  0.7818609E-02  0.8477455E-01
       -1   -1    0    0    0  501  0.00000000000E+00  0.00000000000E+00  0.60702836303E+03  0.60702836306E+03  0.50400001928E-02 0.  1.
        1   -1    0    0  501    0  0.00000000000E+00  0.00000000000E+00 -0.21808881198E+04  0.21808881198E+04  0.50400001928E-02 0. -1.
    10030    2    1    2    0    0  0.00000000000E+00  0.00000000000E+00 -0.15738597568E+04  0.27879164829E+04  0.23011831265E+04 0.  0.
        1    1    3    3  502    0 -0.10386818111E+04 -0.10064266212E+03 -0.19978633466E+03  0.10624986728E+04  0.50400001928E-02 0.  1.
       -1    1    3    3    0  502  0.10386818111E+04  0.10064266212E+03 -0.13740734221E+04  0.17254178101E+04  0.50400001928E-02 0. -1.
</event>
<event>
 5   0  0.5632156E-05  0.1897122E+04  0.7818609E-02  0.8656290E-01
        1   -1    0    0  501    0  0.00000000000E+00  0.00000000000E+00  0.15508272747E+04  0.15508272747E+04  0.50400001928E-02 0.  1.
       -1   -1    0    0    0  501  0.00000000000E+00  0.00000000000E+00 -0.58018562963E+03  0.58018562965E+03  0.50400001928E-02 0. -1.
    10030    2    1    2    0    0  0.00000000000E+00  0.00000000000E+00  0.97064164504E+03  0.21310129043E+04  0.18971217134E+04 0.  0.
        4    1    3    3  502    0 -0.18426486817E+03 -0.76780915287E+03 -0.10510712264E+03  0.79657614639E+03  0.12699999809E+01 0. -1.
       -4    1    3    3    0  502  0.18426486817E+03  0.76780915287E+03  0.10757487677E+04  0.13344367579E+04  0.12699999809E+01 0.  1.
</event>
<event>
 5   0  0.1257524E-04  0.2326259E+04  0.7818609E-02  0.8467639E-01
        2   -1    0    0  501    0  0.00000000000E+00  0.00000000000E+00  0.11426038672E+04  0.11426038672E+04  0.25500000920E-02 0. -1.
       -2   -1    0    0    0  501  0.00000000000E+00  0.00000000000E+00 -0.11840241200E+04  0.11840241200E+04  0.25500000920E-02 0.  1.
    10030    2    1    2    0    0  0.00000000000E+00  0.00000000000E+00 -0.41420252845E+02  0.23266279873E+04  0.23262592619E+04 0.  0.
        3    1    3    3  502    0 -0.10474694846E+04  0.24208729465E+03 -0.46470835601E+03  0.11712183595E+04  0.10100000352E+00 0.  1.
       -3    1    3    3    0  502  0.10474694846E+04 -0.24208729465E+03  0.42328810317E+03  0.11554096277E+04  0.10100000352E+00 0. -1.
</event>
<event>
 5   0  0.5924654E-05  0.2276577E+04  0.7818609E-02  0.8487214E-01
       -1   -1    0    0    0  501  0.00000000000E+00  0.00000000000E+00  0.10875934720E+04  0.10875934720E+04  0.50400001928E-02 0.  1.
        1   -1    0    0  501    0  0.00000000000E+00  0.00000000000E+00 -0.11913462185E+04  0.11913462185E+04  0.50400001928E-02 0. -1.
    10030    2    1    2    0    0  0.00000000000E+00  0.00000000000E+00 -0.10375274653E+03  0.22789396905E+04  0.22765767021E+04 0.  0.
        5    1    3    3  502    0 -0.87922727748E+03 -0.28059507886E+02  0.67126553343E+03  0.11065475353E+04  0.46999998093E+01 0.  1.
       -5    1    3    3    0  502  0.87922727748E+03  0.28059507886E+02 -0.77501827996E+03  0.11723921553E+04  0.46999998093E+01 0. -1.
</event>
<event>
 5   0  0.1257524E-04  0.2328028E+04  0.7818609E-02  0.8466951E-01
        2   -1    0    0  501    0  0.00000000000E+00  0.00000000000E+00  0.12630228780E+04  0.12630228780E+04  0.25500000920E-02 0. -1.
       -2   -1    0    0    0  501  0.00000000000E+00  0.00000000000E+00 -0.10727667668E+04  0.10727667668E+04  0.25500000920E-02 0.  1.
    10030    2    1    2    0    0  0.00000000000E+00  0.00000000000E+00  0.19025611125E+03  0.23357896448E+04  0.23280283239E+04 0.  0.
        3    1    3    3  502    0  0.11263012727E+04 -0.29052676614E+03  0.50611224972E+02  0.11642688113E+04  0.10100000352E+00 0. -1.
       -3    1    3    3    0  502 -0.11263012727E+04  0.29052676614E+03  0.13964488628E+03  0.11715208335E+04  0.10100000352E+00 0.  1.
</event>
<event>
 5   0  0.5632156E-05  0.2288325E+04  0.7818609E-02  0.8482539E-01
       -1   -1    0    0    0  501  0.00000000000E+00  0.00000000000E+00  0.72839567789E+03  0.72839567791E+03  0.50400001928E-02 0.  1.
        1   -1    0    0  501    0  0.00000000000E+00  0.00000000000E+00 -0.17972474980E+04  0.17972474980E+04  0.50400001928E-02 0. -1.
    10030    2    1    2    0    0  0.00000000000E+00  0.00000000000E+00 -0.10688518201E+04  0.25256431759E+04  0.22883245484E+04 0.  0.
        4    1    3    3  502    0 -0.12163218201E+03  0.78741816888E+03  0.37188202077E+03  0.87927220510E+03  0.12699999809E+01 0.  1.
       -4    1    3    3    0  502  0.12163218201E+03 -0.78741816888E+03 -0.14407338408E+04  0.16463709708E+04  0.12699999809E+01 0. -1.
</event>
<event>
 5   0  0.5924654E-05  0.2265723E+04  0.7818609E-02  0.8491560E-01
        1   -1    0    0  501    0  0.00000000000E+00  0.00000000000E+00  0.15398060736E+04  0.15398060736E+04  0.50400001928E-02 0.  1.
       -1   -1    0    0    0  501  0.00000000000E+00  0.00000000000E+00 -0.83346522975E+03  0.83346522977E+03  0.50400001928E-02 0. -1.
    10030    2    1    2    0    0  0.00000000000E+00  0.00000000000E+00  0.70634084381E+03  0.23732713033E+04  0.22657226864E+04 0.  0.
        5    1    3    3  502    0  0.41047020102E+02  0.38201324345E+03  0.14694652224E+04  0.15188709971E+04  0.46999998093E+01 0.  1.
       -5    1    3    3    0  502 -0.41047020102E+02 -0.38201324345E+03 -0.76312437861E+03  0.85440030621E+03  0.46999998093E+01 0. -1.
</event>
<event>
 5   0  0.1234988E-04  0.2267226E+04  0.7818609E-02  0.8490957E-01
        2   -1    0    0  501    0  0.00000000000E+00  0.00000000000E+00  0.17469229030E+04  0.17469229030E+04  0.25500000920E-02 0. -1.
       -2   -1    0    0    0  501  0.00000000000E+00  0.00000000000E+00 -0.73562379239E+03  0.73562379240E+03  0.25500000920E-02 0.  1.
    10030    2    1    2    0    0  0.00000000000E+00  0.00000000000E+00  0.10112991106E+04  0.24825466954E+04  0.22672256623E+04 0.  0.
        5    1    3    3  502    0 -0.93710935279E+03 -0.50461163505E+03  0.93289758886E+03  0.14153186364E+04  0.46999998093E+01 0. -1.
       -5    1    3    3    0  502  0.93710935279E+03  0.50461163505E+03  0.78401521788E+02  0.10672280590E+04  0.46999998093E+01 0.  1.
</event>
<event>
 5   0  0.5642466E-05  0.1222579E+04  0.7818609E-02  0.9093319E-01
       -1   -1    0    0    0  501  0.00000000000E+00  0.00000000000E+00  0.14575357262E+04  0.14575357262E+04  0.50400001928E-02 0.  1.
        1   -1    0    0  501    0  0.00000000000E+00  0.00000000000E+00 -0.25637446121E+03  0.25637446126E+03  0.50400001928E-02 0. -1.
    10030    2    1    2    0    0  0.00000000000E+00  0.00000000000E+00  0.12011612650E+04  0.17139101875E+04  0.12225791370E+04 0.  0.
        1    1    3    3  502    0  0.16011082854E+03 -0.54235781143E+03  0.27515260739E+03  0.62888506932E+03  0.50400001928E-02 0. -1.
       -1    1    3    3    0  502 -0.16011082854E+03  0.54235781143E+03  0.92600865760E+03  0.10850251181E+04  0.50400001928E-02 0.  1.
</event>
<event>
 5   0  0.1234988E-04  0.2290884E+04  0.7818609E-02  0.8481524E-01
        2   -1    0    0  501    0  0.00000000000E+00  0.00000000000E+00  0.27214198853E+04  0.27214198853E+04  0.25500000920E-02 0. -1.
       -2   -1    0    0    0  501  0.00000000000E+00  0.00000000000E+00 -0.48211520073E+03  0.48211520074E+03  0.25500000920E-02 0.  1.
    10030    2    1    2    0    0  0.00000000000E+00  0.00000000000E+00  0.22393046845E+04  0.32035350860E+04  0.22908844530E+04 0.  0.
        5    1    3    3  502    0  0.25342968651E+03  0.69872978142E+03 -0.99081937772E+02  0.74985947606E+03  0.46999998093E+01 0.  1.
       -5    1    3    3    0  502 -0.25342968651E+03 -0.69872978142E+03  0.23383866223E+04  0.24536756099E+04  0.46999998093E+01 0. -1.
</event>
<event>
 5   0  0.5843670E-05  0.1702718E+04  0.7818609E-02  0.8759816E-01
        1   -1    0    0  501    0  0.00000000000E+00  0.00000000000E+00  0.55094591909E+03  0.55094591911E+03  0.50400001928E-02 0. -1.
       -1   -1    0    0    0  501  0.00000000000E+00  0.00000000000E+00 -0.13155772534E+04  0.13155772534E+04  0.50400001928E-02 0.  1.
    10030    2    1    2    0    0  0.00000000000E+00  0.00000000000E+00 -0.76463133430E+03  0.18665231725E+04  0.17027177324E+04 0.  0.
        2    1    3    3  502    0 -0.22815343705E+03 -0.20585609124E+03 -0.12526624988E+04  0.12898038832E+04  0.25500000920E-02 0.  1.
       -2    1    3    3    0  502  0.22815343705E+03  0.20585609124E+03  0.48803116451E+03  0.57671928932E+03  0.25500000920E-02 0. -1.
</event>
<event>
 5   0  0.5663790E-05  0.2229270E+04  0.7818609E-02  0.8506343E-01
        1   -1    0    0  501    0  0.00000000000E+00  0.00000000000E+00  0.16342992700E+04  0.16342992700E+04  0.50400001928E-02 0. -1.
       -1   -1    0    0    0  501  0.00000000000E+00  0.00000000000E+00 -0.76021029844E+03  0.76021029846E+03  0.50400001928E-02 0.  1.
    10030    2    1    2    0    0  0.00000000000E+00  0.00000000000E+00  0.87408897158E+03  0.23945095685E+04  0.22292699575E+04 0.  0.
        3    1    3    3  502    0 -0.10486695748E+04  0.29089499766E+03  0.17817566952E+03  0.11027576144E+04  0.10100000352E+00 0. -1.
       -3    1    3    3    0  502  0.10486695748E+04 -0.29089499766E+03  0.69591330206E+03  0.12917519541E+04  0.10100000352E+00 0.  1.
</event>
<event>
 5   0  0.5924654E-05  0.2254383E+04  0.7818609E-02  0.8496127E-01
       -1   -1    0    0    0  501  0.00000000000E+00  0.00000000000E+00  0.17101444912E+04  0.17101444912E+04  0.50400001928E-02 0. -1.
        1   -1    0    0  501    0  0.00000000000E+00  0.00000000000E+00 -0.74295533488E+03  0.74295533490E+03  0.50400001928E-02 0.  1.
    10030    2    1    2    0    0  0.00000000000E+00  0.00000000000E+00  0.96718915630E+03  0.24530998261E+04  0.22543832621E+04 0.  0.
        5    1    3    3  502    0  0.37407685550E+03 -0.85963006235E+03  0.11645706440E+04  0.14950398699E+04  0.46999998093E+01 0. -1.
       -5    1    3    3    0  502 -0.37407685550E+03  0.85963006235E+03 -0.19738148767E+03  0.95805995615E+03  0.46999998093E+01 0.  1.
</event>
<event>
 5   0  0.1270613E-04  0.2385755E+04  0.7818609E-02  0.8444856E-01
        2   -1    0    0  501    0  0.00000000000E+00  0.00000000000E+00  0.12015062177E+04  0.12015062177E+04  0.25500000920E-02 0. -1.
       -2   -1    0    0    0  501  0.00000000000E+00  0.00000000000E+00 -0.11843107060E+04  0.11843107060E+04  0.25500000920E-02 0.  1.
    10030    2    1    2    0    0  0.00000000000E+00  0.00000000000E+00  0.17195511739E+02  0.23858169237E+04  0.23857549555E+04 0.  0.
        2    1    3    3  502    0 -0.59211121476E+03 -0.98674245773E+03  0.32277196829E+03  0.11951728377E+04  0.25500000920E-02 0. -1.
       -2    1    3    3    0  502  0.59211121476E+03  0.98674245773E+03 -0.30557645655E+03  0.11906440859E+04  0.25500000920E-02 0.  1.
</event>
<event>
 5   0  0.1237296E-04  0.2275166E+04  0.7818609E-02  0.8487777E-01
        2   -1    0    0  501    0  0.00000000000E+00  0.00000000000E+00  0.28107375209E+04  0.28107375209E+04  0.25500000920E-02 0.  1.
       -2   -1    0    0    0  501  0.00000000000E+00  0.00000000000E+00 -0.46041138822E+03  0.46041138823E+03  0.25500000920E-02 0. -1.
    10030    2    1    2    0    0  0.00000000000E+00  0.00000000000E+00  0.23503261327E+04  0.32711489091E+04  0.22751664237E+04 0.  0.
        1    1    3    3  502    0 -0.90548136863E+03 -0.45477909104E+03  0.19186058845E+04  0.21697394016E+04  0.50400001928E-02 0.  1.
       -1    1    3    3    0  502  0.90548136863E+03  0.45477909104E+03  0.43172024810E+03  0.11014095075E+04  0.50400001928E-02 0. -1.
</event>
<event>
 5   0  0.5642466E-05  0.2284116E+04  0.7818609E-02  0.8484210E-01
        1   -1    0    0  501    0  0.00000000000E+00  0.00000000000E+00  0.16385206545E+04  0.16385206545E+04  0.50400001928E-02 0.  1.
       -1   -1    0    0    0  501  0.00000000000E+00  0.00000000000E+00 -0.79602104477E+03  0.79602104479E+03  0.50400001928E-02 0. -1.
    10030    2    1    2    0    0  0.00000000000E+00  0.00000000000E+00  0.84249960971E+03  0.24345416993E+04  0.22841163922E+04 0.  0.
        1    1    3    3  502    0 -0.52670588581E+03  0.17648976212E+03  0.14848284478E+04  0.15853337963E+04  0.50400001928E-02 0.  1.
       -1    1    3    3    0  502  0.52670588581E+03 -0.17648976212E+03 -0.64232883806E+03  0.84920790300E+03  0.50400001928E-02 0. -1.
</event>
<event>
 5   0  0.5663790E-05  0.2269415E+04  0.7818609E-02  0.8490079E-01
       -1   -1    0    0    0  501  0.00000000000E+00  0.00000000000E+00  0.80595112043E+03  0.80595112045E+03  0.50400001928E-02 0.  1.
        1   -1    0    0  501    0  0.00000000000E+00  0.00000000000E+00 -0.15975666275E+04  0.15975666275E+04  0.50400001928E-02 0. -1.
    10030    2    1    2    0    0  0.00000000000E+00  0.00000000000E+00 -0.79161550704E+03  0.24035177479E+04  0.22694145619E+04 0.  0.
        3    1    3    3  502    0  0.10981507077E+04  0.25474372536E+03 -0.25881492540E+03  0.11566393207E+04  0.10100000352E+00 0. -1.
       -3    1    3    3    0  502 -0.10981507077E+04 -0.25474372536E+03 -0.53280058163E+03  0.12468784272E+04  0.10100000352E+00 0.  1.
</event>
<event>
 5   0  0.5663790E-05  0.1973237E+04  0.7818609E-02  0.8619236E-01
        1   -1    0    0  501    0  0.00000000000E+00  0.00000000000E+00  0.11071840388E+04  0.11071840388E+04  0.50400001928E-02 0.  1.
       -1   -1    0    0    0  501  0.00000000000E+00  0.00000000000E+00 -0.87918198139E+03  0.87918198140E+03  0.50400001928E-02 0. -1.
    10030    2    1    2    0    0  0.00000000000E+00  0.00000000000E+00  0.22800205737E+03  0.19863660202E+04  0.19732371951E+04 0.  0.
        3    1    3    3  502    0 -0.55914011215E+03 -0.23393096933E+03  0.89767597281E+03  0.10831359683E+04  0.10100000352E+00 0.  1.
       -3    1    3    3    0  502  0.55914011215E+03  0.23393096933E+03 -0.66967391543E+03  0.90323005189E+03  0.10100000352E+00 0. -1.
</event>
<event>
 5   0  0.5843670E-05  0.1303052E+04  0.7818609E-02  0.9027149E-01
       -1   -1    0    0    0  501  0.00000000000E+00  0.00000000000E+00  0.39840942239E+03  0.39840942242E+03  0.50400001928E-02 0.  1.
        1   -1    0    0  501    0  0.00000000000E+00  0.00000000000E+00 -0.10654516585E+04  0.10654516585E+04  0.50400001928E-02 0. -1.
    10030    2    1    2    0    0  0.00000000000E+00  0.00000000000E+00 -0.66704223606E+03  0.14638610809E+04  0.13030517716E+04 0.  0.
        2    1    3    3  502    0 -0.38627481205E+03 -0.26115170086E+02  0.25516676526E+03  0.46368125973E+03  0.25500000920E-02 0.  1.
       -2    1    3    3    0  502  0.38627481205E+03  0.26115170086E+02 -0.92220900132E+03  0.10001798212E+04  0.25500000920E-02 0. -1.
</event>
<event>
 5   0  0.1237296E-04  0.2302951E+04  0.7818609E-02  0.8476758E-01
        2   -1    0    0  501    0  0.00000000000E+00  0.00000000000E+00  0.16478772157E+04  0.16478772157E+04  0.25500000920E-02 0. -1.
       -2   -1    0    0    0  501  0.00000000000E+00  0.00000000000E+00 -0.80460859931E+03  0.80460859932E+03  0.25500000920E-02 0.  1.
    10030    2    1    2    0    0  0.00000000000E+00  0.00000000000E+00  0.84326861641E+03  0.24524858150E+04  0.23029513051E+04 0.  0.
        1    1    3    3  502    0  0.65552686100E+02  0.70691915629E+03 -0.54379797032E+03  0.89428635276E+03  0.50400001928E-02 0.  1.
       -1    1    3    3    0  502 -0.65552686100E+02 -0.70691915629E+03  0.13870665867E+04  0.15581994623E+04  0.50400001928E-02 0. -1.
</event>
<event>
 5   0  0.1257524E-04  0.2284958E+04  0.7818609E-02  0.8483876E-01
       -2   -1    0    0    0  501  0.00000000000E+00  0.00000000000E+00  0.10059275608E+04  0.10059275608E+04  0.25500000920E-02 0. -1.
        2   -1    0    0  501    0  0.00000000000E+00  0.00000000000E+00 -0.12975663074E+04  0.12975663074E+04  0.25500000920E-02 0.  1.
    10030    2    1    2    0    0  0.00000000000E+00  0.00000000000E+00 -0.29163874657E+03  0.23034938682E+04  0.22849575143E+04 0.  0.
        3    1    3    3  502    0  0.59030209004E+03  0.58751863384E+03  0.64258828585E+03  0.10519289035E+04  0.10100000352E+00 0. -1.
       -3    1    3    3    0  502 -0.59030209004E+03 -0.58751863384E+03 -0.93422703242E+03  0.12515649647E+04  0.10100000352E+00 0.  1.
</event>
<event>
 5   0  0.5663790E-05  0.2330247E+04  0.7818609E-02  0.8466090E-01
        1   -1    0    0  501    0  0.00000000000E+00  0.00000000000E+00  0.17038134482E+04  0.17038134482E+04  0.50400001928E-02 0.  1.
       -1   -1    0    0    0  501  0.00000000000E+00  0.00000000000E+00 -0.79674949620E+03  0.79674949621E+03  0.50400001928E-02 0. -1.
    10030    2    1    2    0    0  0.00000000000E+00  0.00000000000E+00  0.90706395198E+03  0.25005629444E+04  0.23302467736E+04 0.  0.
        3    1    3    3  502    0  0.39684504049E+03 -0.10901267053E+04  0.33770652696E+03  0.12082664972E+04  0.10100000352E+00 0. -1.
       -3    1    3    3    0  502 -0.39684504049E+03  0.10901267053E+04  0.56935742501E+03  0.12922964472E+04  0.10100000352E+00 0.  1.
</event>
<event>
 5   0  0.1281432E-04  0.1349182E+04  0.7818609E-02  0.8991447E-01
       -2   -1    0    0    0  501  0.00000000000E+00  0.00000000000E+00  0.47663917599E+03  0.47663917600E+03  0.25500000920E-02 0. -1.
        2   -1    0    0  501    0  0.00000000000E+00  0.00000000000E+00 -0.95475433165E+03  0.95475433165E+03  0.25500000920E-02 0.  1.
    10030    2    1    2    0    0  0.00000000000E+00  0.00000000000E+00 -0.47811515565E+03  0.14313935077E+04  0.13491824457E+04 0.  0.
        4    1    3    3  502    0  0.23017651626E+03 -0.51476700485E+03 -0.63189753269E+03  0.84691345640E+03  0.12699999809E+01 0. -1.
       -4    1    3    3    0  502 -0.23017651626E+03  0.51476700485E+03  0.15378237703E+03  0.58448005125E+03  0.12699999809E+01 0.  1.
</event>
<event>
 5   0  0.5663790E-05  0.2297819E+04  0.7818609E-02  0.8478781E-01
       -1   -1    0    0    0  501  0.00000000000E+00  0.00000000000E+00  0.74160685875E+03  0.74160685877E+03  0.50400001928E-02 0.  1.
        1   -1    0    0  501    0  0.00000000000E+00  0.00000000000E+00 -0.17799101140E+04  0.17799101140E+04  0.50400001928E-02 0. -1.
    10030    2    1    2    0    0  0.00000000000E+00  0.00000000000E+00 -0.10383032553E+04  0.25215169728E+04  0.22978194433E+04 0.  0.
        3    1    3    3  502    0 -0.11371500289E+03 -0.60326972980E+03  0.54653945355E+03  0.82193117307E+03  0.10100000352E+00 0.  1.
       -3    1    3    3    0  502  0.11371500289E+03  0.60326972980E+03 -0.15848427088E+04  0.16995857997E+04  0.10100000352E+00 0. -1.
</event>
<event>
 5   0  0.5663790E-05  0.2387174E+04  0.7818609E-02  0.8444321E-01
        1   -1    0    0  501    0  0.00000000000E+00  0.00000000000E+00  0.98988662778E+03  0.98988662780E+03  0.50400001928E-02 0. -1.
       -1   -1    0    0    0  501  0.00000000000E+00  0.00000000000E+00 -0.14392054595E+04  0.14392054595E+04  0.50400001928E-02 0.  1.
    10030    2    1    2    0    0  0.00000000000E+00  0.00000000000E+00 -0.44931883175E+03  0.24290920873E+04  0.23871742618E+04 0.  0.
        3    1    3    3  502    0  0.11354031689E+04  0.27574353258E+03 -0.47281751770E+03  0.12604488355E+04  0.10100000352E+00 0.  1.
       -3    1    3    3    0  502 -0.11354031689E+04 -0.27574353258E+03  0.23498685945E+02  0.11686432518E+04  0.10100000352E+00 0. -1.
</event>
<event>
 5   0  0.1257524E-04  0.2176662E+04  0.7818609E-02  0.8528205E-01
        2   -1    0    0  501    0  0.00000000000E+00  0.00000000000E+00  0.11314750539E+04  0.11314750539E+04  0.25500000920E-02 0. -1.
       -2   -1    0    0    0  501  0.00000000000E+00  0.00000000000E+00 -0.10468323654E+04  0.10468323655E+04  0.25500000920E-02 0.  1.
    10030    2    1    2    0    0  0.00000000000E+00  0.00000000000E+00  0.84642688490E+02  0.21783074194E+04  0.21766623139E+04 0.  0.
        3    1    3    3  502    0 -0.84566333923E+03 -0.79356939439E+02 -0.63864917614E+03  0.10626931766E+04  0.10100000352E+00 0.  1.
       -3    1    3    3    0  502  0.84566333923E+03  0.79356939439E+02  0.72329186463E+03  0.11156142428E+04  0.10100000352E+00 0. -1.
</event>
<event>
 5   0  0.5632156E-05  0.2291276E+04  0.7818609E-02  0.8481369E-01
       -1   -1    0    0    0  501  0.00000000000E+00  0.00000000000E+00  0.75571405448E+03  0.75571405449E+03  0.50400001928E-02 0.  1.
        1   -1    0    0  501    0  0.00000000000E+00  0.00000000000E+00 -0.17367508012E+04  0.17367508012E+04  0.50400001928E-02 0. -1.
    10030    2    1    2    0    0  0.00000000000E+00  0.00000000000E+00 -0.98103674674E+03  0.24924648557E+04  0.22912764911E+04 0.  0.
        4    1    3    3  502    0 -0.63907744800E+03 -0.54761091156E+03  0.35502809021E+03  0.91342446471E+03  0.12699999809E+01 0.  1.
       -4    1    3    3    0  502  0.63907744800E+03  0.54761091156E+03 -0.13360648370E+04  0.15790403910E+04  0.12699999809E+01 0. -1.
</event>
<event>
 5   0  0.5663790E-05  0.2314583E+04  0.7818609E-02  0.8472193E-01
        1   -1    0    0  501    0  0.00000000000E+00  0.00000000000E+00  0.42525729118E+03  0.42525729121E+03  0.50400001928E-02 0.  1.
       -1   -1    0    0    0  501  0.00000000000E+00  0.00000000000E+00 -0.31494443684E+04  0.31494443684E+04  0.50400001928E-02 0. -1.
    10030    2    1    2    0    0  0.00000000000E+00  0.00000000000E+00 -0.27241870772E+04  0.35747016596E+04  0.23145834881E+04 0.  0.
        3    1    3    3  502    0 -0.10013281614E+04 -0.34165846370E+03 -0.63779985829E+03  0.12353854710E+04  0.10100000352E+00 0.  1.
       -3    1    3    3    0  502  0.10013281614E+04  0.34165846370E+03 -0.20863872189E+04  0.23393161885E+04  0.10100000352E+00 0. -1.
</event>
<event>
 5   0  0.1270613E-04  0.2432307E+04  0.7818609E-02  0.8427506E-01
       -2   -1    0    0    0  501  0.00000000000E+00  0.00000000000E+00  0.83036845024E+03  0.83036845024E+03  0.25500000920E-02 0. -1.
        2   -1    0    0  501    0  0.00000000000E+00  0.00000000000E+00 -0.17811728699E+04  0.17811728699E+04  0.25500000920E-02 0.  1.
    10030    2    1    2    0    0  0.00000000000E+00  0.00000000000E+00 -0.95080441970E+03  0.26115413202E+04  0.24323073454E+04 0.  0.
        2    1    3    3  502    0 -0.66653611529E+02  0.21763987426E+03 -0.17580986877E+04  0.17727720707E+04  0.25500000920E-02 0.  1.
       -2    1    3    3    0  502  0.66653611529E+02 -0.21763987426E+03  0.80729426800E+03  0.83876924953E+03  0.25500000920E-02 0. -1.
</event>
<event>
 5   0  0.5632156E-05  0.2250536E+04  0.7818609E-02  0.8497683E-01
        1   -1    0    0  501    0  0.00000000000E+00  0.00000000000E+00  0.10709829265E+04  0.10709829265E+04  0.50400001928E-02 0.  1.
       -1   -1    0    0    0  501  0.00000000000E+00  0.00000000000E+00 -0.11823048671E+04  0.11823048671E+04  0.50400001928E-02 0. -1.
    10030    2    1    2    0    0  0.00000000000E+00  0.00000000000E+00 -0.11132194054E+03  0.22532877936E+04  0.22505362264E+04 0.  0.
        4    1    3    3  502    0  0.13290477682E+03 -0.69450602664E+03 -0.93207364258E+03  0.11699423870E+04  0.12699999809E+01 0. -1.
       -4    1    3    3    0  502 -0.13290477682E+03  0.69450602664E+03  0.82075170205E+03  0.10833454066E+04  0.12699999809E+01 0.  1.
</event>
<event>
 5   0  0.1237296E-04  0.2296320E+04  0.7818609E-02  0.8479373E-01
       -2   -1    0    0    0  501  0.00000000000E+00  0.00000000000E+00  0.58606928461E+03  0.58606928462E+03  0.25500000920E-02 0.  1.
        2   -1    0    0  501    0  0.00000000000E+00  0.00000000000E+00 -0.22493445475E+04  0.22493445475E+04  0.25500000920E-02 0. -1.
    10030    2    1    2    0    0  0.00000000000E+00  0.00000000000E+00 -0.16632752628E+04  0.28354138321E+04  0.22963203172E+04 0.  0.
        1    1    3    3  502    0  0.40470160268E+03 -0.10688802722E+04 -0.69647000849E+03  0.13384165631E+04  0.50400001928E-02 0.  1.
       -1    1    3    3    0  502 -0.40470160268E+03  0.10688802722E+04 -0.96680525436E+03  0.14969972690E+04  0.50400001928E-02 0. -1.
</event>
<event>
 5   0  0.5843670E-05  0.2271825E+04  0.7818609E-02  0.8489114E-01
       -1   -1    0    0    0  501  0.00000000000E+00  0.00000000000E+00  0.50637932383E+03  0.50637932386E+03  0.50400001928E-02 0. -1.
        1   -1    0    0  501    0  0.00000000000E+00  0.00000000000E+00 -0.25480838220E+04  0.25480838220E+04  0.50400001928E-02 0.  1.
    10030    2    1    2    0    0  0.00000000000E+00  0.00000000000E+00 -0.20417044981E+04  0.30544631458E+04  0.22718247845E+04 0.  0.
        2    1    3    3  502    0  0.99951827436E+03  0.51536688850E+01 -0.29527975290E+03  0.10422348457E+04  0.25500000920E-02 0. -1.
       -2    1    3    3    0  502 -0.99951827436E+03 -0.51536688850E+01 -0.17464247452E+04  0.20122283001E+04  0.25500000920E-02 0.  1.
</event>
<event>
 5   0  0.5632156E-05  0.2317482E+04  0.7818609E-02  0.8471060E-01
       -1   -1    0    0    0  501  0.00000000000E+00  0.00000000000E+00  0.29490532318E+04  0.29490532318E+04  0.50400001928E-02 0.  1.
        1   -1    0    0  501    0  0.00000000000E+00  0.00000000000E+00 -0.45529223772E+03  0.45529223775E+03  0.50400001928E-02 0. -1.
    10030    2    1    2    0    0  0.00000000000E+00  0.00000000000E+00  0.24937609941E+04  0.34043454696E+04  0.23174822935E+04 0.  0.
        4    1    3    3  502    0  0.91894121500E+03 -0.15954067900E+03  0.22569322982E+04  0.24420588028E+04  0.12699999809E+01 0.  1.
       -4    1    3    3    0  502 -0.91894121500E+03  0.15954067900E+03  0.23682869587E+03  0.96228666673E+03  0.12699999809E+01 0. -1.
</event>
<event>
 5   0  0.1257524E-04  0.2359872E+04  0.7818609E-02  0.8454682E-01
        2   -1    0    0  501    0  0.00000000000E+00  0.00000000000E+00  0.13161230818E+04  0.13161230818E+04  0.25500000920E-02 0.  1.
       -2   -1    0    0    0  501  0.00000000000E+00  0.00000000000E+00 -0.10578406289E+04  0.10578406290E+04  0.25500000920E-02 0. -1.
    10030    2    1    2    0    0  0.00000000000E+00  0.00000000000E+00  0.25828245285E+03  0.23739637107E+04  0.23598715801E+04 0.  0.
        3    1    3    3  502    0  0.27707647811E+03 -0.75461095230E+03  0.99803480214E+03  0.12815157200E+04  0.10100000352E+00 0.  1.
       -3    1    3    3    0  502 -0.27707647811E+03  0.75461095230E+03 -0.73975234929E+03  0.10924479908E+04  0.10100000352E+00 0. -1.
</event>
<event>
 5   0  0.5663790E-05  0.2823515E+04  0.7818609E-02  0.8296005E-01
       -1   -1    0    0    0  501  0.00000000000E+00  0.00000000000E+00  0.15367458305E+04  0.15367458305E+04  0.50400001928E-02 0. -1.
        1   -1    0    0  501    0  0.00000000000E+00  0.00000000000E+00 -0.12969349473E+04  0.12969349473E+04  0.50400001928E-02 0.  1.
    10030    2    1    2    0    0  0.00000000000E+00  0.00000000000E+00  0.23981088319E+03  0.28336807778E+04  0.28235150948E+04 0.  0.
        3    1    3    3  502    0 -0.58816006051E+03  0.12726219444E+04  0.28651668162E+03  0.14309404911E+04  0.10100000352E+00 0. -1.
       -3    1    3    3    0  502  0.58816006051E+03 -0.12726219444E+04 -0.46705798424E+02  0.14027402867E+04  0.10100000352E+00 0.  1.
</event>
<event>
 5   0  0.1270613E-04  0.2283800E+04  0.7818609E-02  0.8484336E-01
       -2   -1    0    0    0  501  0.00000000000E+00  0.00000000000E+00  0.11063476614E+04  0.11063476614E+04  0.25500000920E-02 0. -1.
        2   -1    0    0  501    0  0.00000000000E+00  0.00000000000E+00 -0.11785945270E+04  0.11785945270E+04  0.25500000920E-02 0.  1.
    10030    2    1    2    0    0  0.00000000000E+00  0.00000000000E+00 -0.72246865649E+02  0.22849421884E+04  0.22837997274E+04 0.  0.
        2    1    3    3  502    0  0.65707237549E+03 -0.11450752144E+03 -0.96345235827E+03  0.11717920147E+04  0.25500000920E-02 0.  1.
       -2    1    3    3    0  502 -0.65707237549E+03  0.11450752144E+03  0.89120549262E+03  0.11131501737E+04  0.25500000920E-02 0. -1.
</event>
<event>
 5   0  0.1257524E-04  0.2332803E+04  0.7818609E-02  0.8465099E-01
        2   -1    0    0  501    0  0.00000000000E+00  0.00000000000E+00  0.16689558123E+04  0.16689558123E+04  0.25500000920E-02 0. -1.
       -2   -1    0    0    0  501  0.00000000000E+00  0.00000000000E+00 -0.81517574604E+03  0.81517574605E+03  0.25500000920E-02 0.  1.
    10030    2    1    2    0    0  0.00000000000E+00  0.00000000000E+00  0.85378006621E+03  0.24841315583E+04  0.23328028630E+04 0.  0.
        3    1    3    3  502    0  0.48257997215E+03 -0.25605068897E+03  0.15242987390E+04  0.16192381050E+04  0.10100000352E+00 0. -1.
       -3    1    3    3    0  502 -0.48257997215E+03  0.25605068897E+03 -0.67051867276E+03  0.86489345330E+03  0.10100000352E+00 0.  1.
</event>
<event>
 5   0  0.1270613E-04  0.2336908E+04  0.7818609E-02  0.8463510E-01
       -2   -1    0    0    0  501  0.00000000000E+00  0.00000000000E+00  0.98363899884E+03  0.98363899884E+03  0.25500000920E-02 0. -1.
        2   -1    0    0  501    0  0.00000000000E+00  0.00000000000E+00 -0.13879932085E+04  0.13879932085E+04  0.25500000920E-02 0.  1.
    10030    2    1    2    0    0  0.00000000000E+00  0.00000000000E+00 -0.40435420962E+03  0.23716322073E+04  0.23369075720E+04 0.  0.
        2    1    3    3  502    0  0.83035131566E+03  0.25461570793E+03 -0.99543861192E+03  0.13210641530E+04  0.25500000920E-02 0.  1.
       -2    1    3    3    0  502 -0.83035131566E+03 -0.25461570793E+03  0.59108440230E+03  0.10505680543E+04  0.25500000920E-02 0. -1.
</event>
<event>
 5   0  0.1270613E-04  0.2417308E+04  0.7818609E-02  0.8433052E-01
        2   -1    0    0  501    0  0.00000000000E+00  0.00000000000E+00  0.87268656149E+03  0.87268656150E+03  0.25500000920E-02 0. -1.
       -2   -1    0    0    0  501  0.00000000000E+00  0.00000000000E+00 -0.16739626023E+04  0.16739626023E+04  0.25500000920E-02 0.  1.
    10030    2    1    2    0    0  0.00000000000E+00  0.00000000000E+00 -0.80127604082E+03  0.25466491638E+04  0.24173081454E+04 0.  0.
        2    1    3    3  502    0  0.36015271108E+03 -0.49107038611E+03  0.69924697683E+03  0.92725747990E+03  0.25500000920E-02 0. -1.
       -2    1    3    3    0  502 -0.36015271108E+03  0.49107038611E+03 -0.15005230176E+04  0.16193916839E+04  0.25500000920E-02 0.  1.
</event>
<event>
 5   0  0.5924654E-05  0.2338979E+04  0.7818609E-02  0.8462709E-01
       -1   -1    0    0    0  501  0.00000000000E+00  0.00000000000E+00  0.78611219302E+03  0.78611219304E+03  0.50400001928E-02 0. -1.
        1   -1    0    0  501    0  0.00000000000E+00  0.00000000000E+00 -0.17398348551E+04  0.17398348551E+04  0.50400001928E-02 0.  1.
    10030    2    1    2    0    0  0.00000000000E+00  0.00000000000E+00 -0.95372266203E+03  0.25259470481E+04  0.23389787459E+04 0.  0.
        5    1    3    3  502    0 -0.11290763443E+04  0.30439244029E+03 -0.49270198777E+03  0.12689544861E+04  0.46999998093E+01 0.  1.
       -5    1    3    3    0  502  0.11290763443E+04 -0.30439244029E+03 -0.46102067426E+03  0.12569925620E+04  0.46999998093E+01 0. -1.
</event>
<event>
 5   0  0.5632156E-05  0.2269040E+04  0.7818609E-02  0.8490229E-01
        1   -1    0    0  501    0  0.00000000000E+00  0.00000000000E+00  0.22475885998E+04  0.22475885998E+04  0.50400001928E-02 0. -1.
       -1   -1    0    0    0  501  0.00000000000E+00  0.00000000000E+00 -0.57267416770E+03  0.57267416772E+03  0.50400001928E-02 0.  1.
    10030    2    1    2    0    0  0.00000000000E+00  0.00000000000E+00  0.16749144321E+04  0.28202627676E+04  0.22690402648E+04 0.  0.
        4    1    3    3  502    0  0.86835814748E+03  0.76541624190E+02  0.17399575193E+04  0.19461136335E+04  0.12699999809E+01 0. -1.
       -4    1    3    3    0  502 -0.86835814748E+03 -0.76541624190E+02 -0.65043087159E+02  0.87414913408E+03  0.12699999809E+01 0.  1.
</event>
<event>
 5   0  0.1270613E-04  0.2158573E+04  0.7818609E-02  0.8535872E-01
        2   -1    0    0  501    0  0.00000000000E+00  0.00000000000E+00  0.15823053950E+04  0.15823053950E+04  0.25500000920E-02 0. -1.
       -2   -1    0    0    0  501  0.00000000000E+00  0.00000000000E+00 -0.73617827550E+03  0.73617827551E+03  0.25500000920E-02 0.  1.
    10030    2    1    2    0    0  0.00000000000E+00  0.00000000000E+00  0.84612711946E+03  0.23184836705E+04  0.21585725441E+04 0.  0.
        2    1    3    3  502    0  0.66524055121E+03  0.38545822186E+03  0.12366306586E+04  0.14561519212E+04  0.25500000920E-02 0. -1.
       -2    1    3    3    0  502 -0.66524055121E+03 -0.38545822186E+03 -0.39050353912E+03  0.86233174930E+03  0.25500000920E-02 0.  1.
</event>
<event>
 5   0  0.1270613E-04  0.2341167E+04  0.7818609E-02  0.8461864E-01
       -2   -1    0    0    0  501  0.00000000000E+00  0.00000000000E+00  0.12442716998E+04  0.12442716998E+04  0.25500000920E-02 0.  1.
        2   -1    0    0  501    0  0.00000000000E+00  0.00000000000E+00 -0.11012597091E+04  0.11012597091E+04  0.25500000920E-02 0. -1.
    10030    2    1    2    0    0  0.00000000000E+00  0.00000000000E+00  0.14301199068E+03  0.23455314089E+04  0.23411674781E+04 0.  0.
        2    1    3    3  502    0 -0.65535870641E+03 -0.41757994685E+03  0.94857955898E+03  0.12262427271E+04  0.25500000920E-02 0.  1.
       -2    1    3    3    0  502  0.65535870641E+03  0.41757994685E+03 -0.80556756829E+03  0.11192886818E+04  0.25500000920E-02 0. -1.
</event>
<event>
 5   0  0.4489500E-05  0.2146216E+04  0.7818609E-02  0.8541154E-01
       -3   -1    0    0    0  501  0.00000000000E+00  0.00000000000E+00  0.14819838600E+04  0.14819838635E+04  0.10100000352E+00 0. -1.
        3   -1    0    0  501    0  0.00000000000E+00  0.00000000000E+00 -0.77704025403E+03  0.77704026059E+03  0.10100000352E+00 0.  1.
    10030    2    1    2    0    0  0.00000000000E+00  0.00000000000E+00  0.70494360602E+03  0.22590241241E+04  0.21462163231E+04 0.  0.
        4    1    3    3  502    0 -0.45038683655E+03 -0.86752451913E+03  0.81859414967E+03  0.12749686618E+04  0.12699999809E+01 0. -1.
       -4    1    3    3    0  502  0.45038683655E+03  0.86752451913E+03 -0.11365054366E+03  0.98405546226E+03  0.12699999809E+01 0.  1.
</event>
<event>
 5   0  0.1257524E-04  0.2328115E+04  0.7818609E-02  0.8466918E-01
       -2   -1    0    0    0  501  0.00000000000E+00  0.00000000000E+00  0.16590275949E+04  0.16590275949E+04  0.25500000920E-02 0.  1.
        2   -1    0    0  501    0  0.00000000000E+00  0.00000000000E+00 -0.81676117871E+03  0.81676117871E+03  0.25500000920E-02 0. -1.
    10030    2    1    2    0    0  0.00000000000E+00  0.00000000000E+00  0.84226641622E+03  0.24757887736E+04  0.23281145452E+04 0.  0.
        3    1    3    3  502    0  0.11946844115E+03 -0.95634463680E+03  0.11153520190E+04  0.14740684886E+04  0.10100000352E+00 0.  1.
       -3    1    3    3    0  502 -0.11946844115E+03  0.95634463680E+03 -0.27308560275E+03  0.10017202850E+04  0.10100000352E+00 0. -1.
</event>
<event>
 5   0  0.4489500E-05  0.2143107E+04  0.7818609E-02  0.8542489E-01
        4   -1    0    0  501    0  0.00000000000E+00  0.00000000000E+00  0.92278005200E+03  0.92278092593E+03  0.12699999809E+01 0. -1.
       -4   -1    0    0    0  501  0.00000000000E+00  0.00000000000E+00 -0.12443107662E+04  0.12443114143E+04  0.12699999809E+01 0.  1.
    10030    2    1    2    0    0  0.00000000000E+00  0.00000000000E+00 -0.32153071421E+03  0.21670923402E+04  0.21431069061E+04 0.  0.
        4    1    3    3  502    0 -0.22345348216E+03 -0.62001195304E+03  0.69360438062E+03  0.95678363819E+03  0.12699999809E+01 0. -1.
       -4    1    3    3    0  502  0.22345348216E+03  0.62001195304E+03 -0.10151350948E+04  0.12103087020E+04  0.12699999809E+01 0.  1.
</event>
<event>
 5   0  0.5642466E-05  0.2318046E+04  0.7818609E-02  0.8470840E-01
       -1   -1    0    0    0  501  0.00000000000E+00  0.00000000000E+00  0.11433041832E+04  0.11433041832E+04  0.50400001928E-02 0.  1.
        1   -1    0    0  501    0  0.00000000000E+00  0.00000000000E+00 -0.11749579512E+04  0.11749579512E+04  0.50400001928E-02 0. -1.
    10030    2    1    2    0    0  0.00000000000E+00  0.00000000000E+00 -0.31653768011E+02  0.23182621344E+04  0.23180460226E+04 0.  0.
        1    1    3    3  502    0  0.18563192546E+03  0.94723438349E+03 -0.65746455937E+03  0.11678920480E+04  0.50400001928E-02 0. -1.
       -1    1    3    3    0  502 -0.18563192546E+03 -0.94723438349E+03  0.62581079136E+03  0.11503700864E+04  0.50400001928E-02 0.  1.
</event>
<event>
 5   0  0.1270613E-04  0.2305645E+04  0.7818609E-02  0.8475699E-01
       -2   -1    0    0    0  501  0.00000000000E+00  0.00000000000E+00  0.15167394397E+04  0.15167394397E+04  0.25500000920E-02 0. -1.
        2   -1    0    0  501    0  0.00000000000E+00  0.00000000000E+00 -0.87622166105E+03  0.87622166106E+03  0.25500000920E-02 0.  1.
    10030    2    1    2    0    0  0.00000000000E+00  0.00000000000E+00  0.64051777867E+03  0.23929611008E+04  0.23056452036E+04 0.  0.
        2    1    3    3  502    0 -0.61676701952E+03  0.66185955166E+03  0.10618391950E+04  0.13949774545E+04  0.25500000920E-02 0. -1.
       -2    1    3    3    0  502  0.61676701952E+03 -0.66185955166E+03 -0.42132141629E+03  0.99798364632E+03  0.25500000920E-02 0.  1.
</event>
<event>
 5   0  0.1234988E-04  0.2301766E+04  0.7818609E-02  0.8477225E-01
        2   -1    0    0  501    0  0.00000000000E+00  0.00000000000E+00  0.16732486137E+04  0.16732486137E+04  0.25500000920E-02 0. -1.
       -2   -1    0    0    0  501  0.00000000000E+00  0.00000000000E+00 -0.79159277006E+03  0.79159277006E+03  0.25500000920E-02 0.  1.
    10030    2    1    2    0    0  0.00000000000E+00  0.00000000000E+00  0.88165584359E+03  0.24648413837E+04  0.23017658483E+04 0.  0.
        5    1    3    3  502    0 -0.83664540163E+03 -0.44140152705E+03  0.11427837652E+04  0.14835051938E+04  0.46999998093E+01 0. -1.
       -5    1    3    3    0  502  0.83664540163E+03  0.44140152705E+03 -0.26112792159E+03  0.98133618989E+03  0.46999998093E+01 0.  1.
</event>
<event>
 5   0  0.4489500E-05  0.1424573E+04  0.7818609E-02  0.8936221E-01
        4   -1    0    0  501    0  0.00000000000E+00  0.00000000000E+00  0.68501222710E+03  0.68501340438E+03  0.12699999809E+01 0.  1.
       -4   -1    0    0    0  501  0.00000000000E+00  0.00000000000E+00 -0.74064422677E+03  0.74064531562E+03  0.12699999809E+01 0. -1.
    10030    2    1    2    0    0  0.00000000000E+00  0.00000000000E+00 -0.55631999672E+02  0.14256587200E+04  0.14245728716E+04 0.  0.
        2    1    3    3  502    0 -0.24990901902E+03 -0.50180199774E+02  0.63780704720E+03  0.68685544309E+03  0.25500000920E-02 0.  1.
       -2    1    3    3    0  502  0.24990901902E+03  0.50180199774E+02 -0.69343904687E+03  0.73880327691E+03  0.25500000920E-02 0. -1.
</event>
<event>
 5   0  0.5924654E-05  0.2261386E+04  0.7818609E-02  0.8493303E-01
       -1   -1    0    0    0  501  0.00000000000E+00  0.00000000000E+00  0.71952161852E+03  0.71952161854E+03  0.50400001928E-02 0. -1.
        1   -1    0    0  501    0  0.00000000000E+00  0.00000000000E+00 -0.17768289920E+04  0.17768289920E+04  0.50400001928E-02 0.  1.
    10030    2    1    2    0    0  0.00000000000E+00  0.00000000000E+00 -0.10573073734E+04  0.24963506105E+04  0.22613861874E+04 0.  0.
        5    1    3    3  502    0  0.70727258957E+02 -0.11110040070E+04 -0.31033605065E+03  0.11557087882E+04  0.46999998093E+01 0.  1.
       -5    1    3    3    0  502 -0.70727258957E+02  0.11110040070E+04 -0.74697132278E+03  0.13406418223E+04  0.46999998093E+01 0. -1.
</event>
<event>
 5   0  0.1281432E-04  0.2315200E+04  0.7818609E-02  0.8471952E-01
        2   -1    0    0  501    0  0.00000000000E+00  0.00000000000E+00  0.17043027998E+04  0.17043027998E+04  0.25500000920E-02 0.  1.
       -2   -1    0    0    0  501  0.00000000000E+00  0.00000000000E+00 -0.78626761170E+03  0.78626761171E+03  0.25500000920E-02 0. -1.
    10030    2    1    2    0    0  0.00000000000E+00  0.00000000000E+00  0.91803518806E+03  0.24905704115E+04  0.23152002868E+04 0.  0.
        4    1    3    3  502    0 -0.56622489936E+03  0.48625919099E+03  0.14109037104E+04  0.15961546073E+04  0.12699999809E+01 0.  1.
       -4    1    3    3    0  502  0.56622489936E+03 -0.48625919099E+03 -0.49286852237E+03  0.89441580415E+03  0.12699999809E+01 0. -1.
</event>
<event>
 5   0  0.5663790E-05  0.1435379E+04  0.7818609E-02  0.8928600E-01
       -1   -1    0    0    0  501  0.00000000000E+00  0.00000000000E+00  0.51850239519E+03  0.51850239521E+03  0.50400001928E-02 0.  1.
        1   -1    0    0  501    0  0.00000000000E+00  0.00000000000E+00 -0.99339558661E+03  0.99339558662E+03  0.50400001928E-02 0. -1.
    10030    2    1    2    0    0  0.00000000000E+00  0.00000000000E+00 -0.47489319142E+03  0.15118979818E+04  0.14353786832E+04 0.  0.
        3    1    3    3  502    0 -0.12151657248E+03 -0.45256442866E+03  0.33512874083E+03  0.57610079205E+03  0.10100000352E+00 0.  1.
       -3    1    3    3    0  502  0.12151657248E+03  0.45256442866E+03 -0.81002193225E+03  0.93579718978E+03  0.10100000352E+00 0. -1.
</event>
<event>
 5   0  0.5843670E-05  0.2280965E+04  0.7818609E-02  0.8485464E-01
       -1   -1    0    0    0  501  0.00000000000E+00  0.00000000000E+00  0.12577198149E+04  0.12577198149E+04  0.50400001928E-02 0.  1.
        1   -1    0    0  501    0  0.00000000000E+00  0.00000000000E+00 -0.10341731481E+04  0.10341731481E+04  0.50400001928E-02 0. -1.
    10030    2    1    2    0    0  0.00000000000E+00  0.00000000000E+00  0.22354666681E+03  0.22918929630E+04  0.22809647611E+04 0.  0.
        2    1    3    3  502    0 -0.99051945353E+03 -0.25411545851E+03 -0.39561789558E+03  0.10964565533E+04  0.25500000920E-02 0. -1.
       -2    1    3    3    0  502  0.99051945353E+03  0.25411545851E+03  0.61916456239E+03  0.11954364096E+04  0.25500000920E-02 0.  1.
</event>
<event>
 5   0  0.1270613E-04  0.2419385E+04  0.7818609E-02  0.8432282E-01
        2   -1    0    0  501    0  0.00000000000E+00  0.00000000000E+00  0.21947543464E+04  0.21947543464E+04  0.25500000920E-02 0.  1.
       -2   -1    0    0    0  501  0.00000000000E+00  0.00000000000E+00 -0.66675139238E+03  0.66675139239E+03  0.25500000920E-02 0. -1.
    10030    2    1    2    0    0  0.00000000000E+00  0.00000000000E+00  0.15280029540E+04  0.28615057388E+04  0.24193846461E+04 0.  0.
        2    1    3    3  502    0  0.10775466347E+04  0.46874037741E+03  0.42422066738E+03  0.12493147986E+04  0.25500000920E-02 0.  1.
       -2    1    3    3    0  502 -0.10775466347E+04 -0.46874037741E+03  0.11037822866E+04  0.16121909402E+04  0.25500000920E-02 0. -1.
</event>
<event>
 5   0  0.1257524E-04  0.2252805E+04  0.7818609E-02  0.8496765E-01
       -2   -1    0    0    0  501  0.00000000000E+00  0.00000000000E+00  0.99618575311E+03  0.99618575311E+03  0.25500000920E-02 0.  1.
        2   -1    0    0  501    0  0.00000000000E+00  0.00000000000E+00 -0.12736406839E+04  0.12736406839E+04  0.25500000920E-02 0. -1.
    10030    2    1    2    0    0  0.00000000000E+00  0.00000000000E+00 -0.27745493076E+03  0.22698264370E+04  0.22528050993E+04 0.  0.
        3    1    3    3  502    0  0.40734704302E+03  0.64711857194E+03 -0.97207320003E+03  0.12367782243E+04  0.10100000352E+00 0. -1.
       -3    1    3    3    0  502 -0.40734704302E+03 -0.64711857194E+03  0.69461826926E+03  0.10330482127E+04  0.10100000352E+00 0.  1.
</event>
<event>
 5   0  0.5632156E-05  0.1677867E+04  0.7818609E-02  0.8774089E-01
        1   -1    0    0  501    0  0.00000000000E+00  0.00000000000E+00  0.86009340215E+03  0.86009340217E+03  0.50400001928E-02 0.  1.
       -1   -1    0    0    0  501  0.00000000000E+00  0.00000000000E+00 -0.81829401708E+03  0.81829401710E+03  0.50400001928E-02 0. -1.
    10030    2    1    2    0    0  0.00000000000E+00  0.00000000000E+00  0.41799385068E+02  0.16783874193E+04  0.16778668423E+04 0.  0.
        4    1    3    3  502    0  0.16646301744E+03  0.54096068641E+03  0.64033270246E+03  0.85462037371E+03  0.12699999809E+01 0.  1.
       -4    1    3    3    0  502 -0.16646301744E+03 -0.54096068641E+03 -0.59853331739E+03  0.82376704556E+03  0.12699999809E+01 0. -1.
</event>
<event>
 5   0  0.1257524E-04  0.2183286E+04  0.7818609E-02  0.8525417E-01
       -2   -1    0    0    0  501  0.00000000000E+00  0.00000000000E+00  0.53698950371E+03  0.53698950371E+03  0.25500000920E-02 0. -1.
        2   -1    0    0  501    0  0.00000000000E+00  0.00000000000E+00 -0.22191960388E+04  0.22191960388E+04  0.25500000920E-02 0.  1.
    10030    2    1    2    0    0  0.00000000000E+00  0.00000000000E+00 -0.16822065351E+04  0.27561855425E+04  0.21832864947E+04 0.  0.
        3    1    3    3  502    0 -0.20234538579E+03  0.81820409002E+03 -0.17168895829E+04  0.19126189997E+04  0.10100000352E+00 0. -1.
       -3    1    3    3    0  502  0.20234538579E+03 -0.81820409002E+03  0.34683047817E+02  0.84356654277E+03  0.10100000352E+00 0.  1.
</event>
<event>
 5   0  0.5663790E-05  0.2327125E+04  0.7818609E-02  0.8467302E-01
       -1   -1    0    0    0  501  0.00000000000E+00  0.00000000000E+00  0.48470829515E+03  0.48470829518E+03  0.50400001928E-02 0.  1.
        1   -1    0    0  501    0  0.00000000000E+00  0.00000000000E+00 -0.27931801120E+04  0.27931801120E+04  0.50400001928E-02 0. -1.
    10030    2    1    2    0    0  0.00000000000E+00  0.00000000000E+00 -0.23084718168E+04  0.32778884072E+04  0.23271248958E+04 0.  0.
        3    1    3    3  502    0 -0.56320877939E+03 -0.45189220505E+03 -0.24393981290E+04  0.25440271099E+04  0.10100000352E+00 0. -1.
       -3    1    3    3    0  502  0.56320877939E+03  0.45189220505E+03  0.13092631215E+03  0.73386129723E+03  0.10100000352E+00 0.  1.
</event>
<event>
 5   0  0.1270613E-04  0.2271042E+04  0.7818609E-02  0.8489427E-01
        2   -1    0    0  501    0  0.00000000000E+00  0.00000000000E+00  0.97465524128E+03  0.97465524128E+03  0.25500000920E-02 0.  1.
       -2   -1    0    0    0  501  0.00000000000E+00  0.00000000000E+00 -0.13229375847E+04  0.13229375847E+04  0.25500000920E-02 0. -1.
    10030    2    1    2    0    0  0.00000000000E+00  0.00000000000E+00 -0.34828234340E+03  0.22975928260E+04  0.22710420963E+04 0.  0.
        2    1    3    3  502    0 -0.20293150019E+02 -0.77638353268E+03 -0.10122127301E+04  0.12758361230E+04  0.25500000920E-02 0. -1.
       -2    1    3    3    0  502  0.20293150019E+02  0.77638353268E+03  0.66393038667E+03  0.10217567030E+04  0.25500000920E-02 0.  1.
</event>
<event>
 5   0  0.1257524E-04  0.2285692E+04  0.7818609E-02  0.8483584E-01
       -2   -1    0    0    0  501  0.00000000000E+00  0.00000000000E+00  0.74919040531E+03  0.74919040532E+03  0.25500000920E-02 0.  1.
        2   -1    0    0  501    0  0.00000000000E+00  0.00000000000E+00 -0.17433449948E+04  0.17433449948E+04  0.25500000920E-02 0. -1.
    10030    2    1    2    0    0  0.00000000000E+00  0.00000000000E+00 -0.99415458952E+03  0.24925354002E+04  0.22856923181E+04 0.  0.
        3    1    3    3  502    0  0.57265963654E+03  0.28066813358E+03 -0.15312571310E+04  0.16587531679E+04  0.10100000352E+00 0. -1.
       -3    1    3    3    0  502 -0.57265963654E+03 -0.28066813358E+03  0.53710254150E+03  0.83378223225E+03  0.10100000352E+00 0.  1.
</event>
<event>
 5   0  0.1237296E-04  0.2410259E+04  0.7818609E-02  0.8435673E-01
       -2   -1    0    0    0  501  0.00000000000E+00  0.00000000000E+00  0.11651732320E+04  0.11651732320E+04  0.25500000920E-02 0. -1.
        2   -1    0    0  501    0  0.00000000000E+00  0.00000000000E+00 -0.12464563168E+04  0.12464563168E+04  0.25500000920E-02 0.  1.
    10030    2    1    2    0    0  0.00000000000E+00  0.00000000000E+00 -0.81283084789E+02  0.24116295489E+04  0.24102593514E+04 0.  0.
        1    1    3    3  502    0  0.58720805632E+03 -0.19999748869E+03  0.99315695274E+03  0.11709709773E+04  0.50400001928E-02 0. -1.
       -1    1    3    3    0  502 -0.58720805632E+03  0.19999748869E+03 -0.10744400375E+04  0.12406585716E+04  0.50400001928E-02 0.  1.
</event>
<event>
 5   0  0.5642466E-05  0.2434285E+04  0.7818609E-02  0.8426778E-01
        1   -1    0    0  501    0  0.00000000000E+00  0.00000000000E+00  0.15699283641E+04  0.15699283641E+04  0.50400001928E-02 0.  1.
       -1   -1    0    0    0  501  0.00000000000E+00  0.00000000000E+00 -0.94363242933E+03  0.94363242935E+03  0.50400001928E-02 0. -1.
    10030    2    1    2    0    0  0.00000000000E+00  0.00000000000E+00  0.62629593475E+03  0.25135607934E+04  0.24342845488E+04 0.  0.
        1    1    3    3  502    0 -0.88276478283E+03  0.13219677156E+03 -0.54125681327E+03  0.10438910796E+04  0.50400001928E-02 0. -1.
       -1    1    3    3    0  502  0.88276478283E+03 -0.13219677156E+03  0.11675527480E+04  0.14696697138E+04  0.50400001928E-02 0.  1.
</event>
<event>
 5   0  0.1257524E-04  0.1365251E+04  0.7818609E-02  0.8979363E-01
       -2   -1    0    0    0  501  0.00000000000E+00  0.00000000000E+00  0.55142677152E+03  0.55142677153E+03  0.25500000920E-02 0.  1.
        2   -1    0    0  501    0  0.00000000000E+00  0.00000000000E+00 -0.84503968084E+03  0.84503968084E+03  0.25500000920E-02 0. -1.
    10030    2    1    2    0    0  0.00000000000E+00  0.00000000000E+00 -0.29361290931E+03  0.13964664524E+04  0.13652508971E+04 0.  0.
        3    1    3    3  502    0  0.34054392631E+03 -0.57016830860E+03  0.14648807135E+02  0.66428658246E+03  0.10100000352E+00 0.  1.
       -3    1    3    3    0  502 -0.34054392631E+03  0.57016830860E+03 -0.30826171645E+03  0.73217986991E+03  0.10100000352E+00 0. -1.
</event>
<event>
 5   0  0.5632156E-05  0.1864266E+04  0.7818609E-02  0.8672851E-01
       -1   -1    0    0    0  501  0.00000000000E+00  0.00000000000E+00  0.87097228540E+03  0.87097228541E+03  0.50400001928E-02 0. -1.
        1   -1    0    0  501    0  0.00000000000E+00  0.00000000000E+00 -0.99758878276E+03  0.99758878278E+03  0.50400001928E-02 0.  1.
    10030    2    1    2    0    0  0.00000000000E+00  0.00000000000E+00 -0.12661649736E+03  0.18685610682E+04  0.18642662707E+04 0.  0.
        4    1    3    3  502    0 -0.48373543930E+03 -0.28121730237E+03 -0.81053723597E+03  0.98491388973E+03  0.12699999809E+01 0.  1.
       -4    1    3    3    0  502  0.48373543930E+03  0.28121730237E+03  0.68392073861E+03  0.88364717846E+03  0.12699999809E+01 0. -1.
</event>
<event>
 5   0  0.1234988E-04  0.2310884E+04  0.7818609E-02  0.8473642E-01
        2   -1    0    0  501    0  0.00000000000E+00  0.00000000000E+00  0.19637473093E+04  0.19637473093E+04  0.25500000920E-02 0. -1.
       -2   -1    0    0    0  501  0.00000000000E+00  0.00000000000E+00 -0.67984609672E+03  0.67984609672E+03  0.25500000920E-02 0.  1.
    10030    2    1    2    0    0  0.00000000000E+00  0.00000000000E+00  0.12839012126E+04  0.26435934060E+04  0.23108837644E+04 0.  0.
        5    1    3    3  502    0 -0.62914266994E+03 -0.83077777272E+02  0.17465244003E+04  0.18582497106E+04  0.46999998093E+01 0. -1.
       -5    1    3    3    0  502  0.62914266994E+03  0.83077777272E+02 -0.46262318766E+03  0.78534369544E+03  0.46999998093E+01 0.  1.
</event>
<event>
 5   0  0.5632156E-05  0.2225142E+04  0.7818609E-02  0.8508036E-01
        1   -1    0    0  501    0  0.00000000000E+00  0.00000000000E+00  0.21256053781E+04  0.21256053781E+04  0.50400001928E-02 0.  1.
       -1   -1    0    0    0  501  0.00000000000E+00  0.00000000000E+00 -0.58233498179E+03  0.58233498182E+03  0.50400001928E-02 0. -1.
    10030    2    1    2    0    0  0.00000000000E+00  0.00000000000E+00  0.15432703963E+04  0.27079403600E+04  0.22251421251E+04 0.  0.
        4    1    3    3  502    0  0.10592768011E+04 -0.19564228436E+03  0.11103598060E+04  0.15470112334E+04  0.12699999809E+01 0. -1.
       -4    1    3    3    0  502 -0.10592768011E+04  0.19564228436E+03  0.43291059039E+03  0.11609291266E+04  0.12699999809E+01 0.  1.
</event>
<event>
 5   0  0.5663790E-05  0.2254009E+04  0.7818609E-02  0.8496279E-01
        1   -1    0    0  501    0  0.00000000000E+00  0.00000000000E+00  0.13240925495E+04  0.13240925496E+04  0.50400001928E-02 0. -1.
       -1   -1    0    0    0  501  0.00000000000E+00  0.00000000000E+00 -0.95925223984E+03  0.95925223985E+03  0.50400001928E-02 0.  1.
    10030    2    1    2    0    0  0.00000000000E+00  0.00000000000E+00  0.36484030971E+03  0.22833447894E+04  0.22540086459E+04 0.  0.
        3    1    3    3  502    0  0.90770126575E+01  0.10837038891E+04  0.49570598155E+03  0.11917302303E+04  0.10100000352E+00 0.  1.
       -3    1    3    3    0  502 -0.90770126575E+01 -0.10837038891E+04 -0.13086567184E+03  0.10916145591E+04  0.10100000352E+00 0. -1.
</event>
<event>
 5   0  0.1237296E-04  0.2202796E+04  0.7818609E-02  0.8517265E-01
        2   -1    0    0  501    0  0.00000000000E+00  0.00000000000E+00  0.60287851074E+03  0.60287851075E+03  0.25500000920E-02 0.  1.
       -2   -1    0    0    0  501  0.00000000000E+00  0.00000000000E+00 -0.20121417740E+04  0.20121417740E+04  0.25500000920E-02 0. -1.
    10030    2    1    2    0    0  0.00000000000E+00  0.00000000000E+00 -0.14092632633E+04  0.26150202848E+04  0.22027955295E+04 0.  0.
        1    1    3    3  502    0 -0.31348766886E+03  0.92992575590E+03 -0.12982483820E+04  0.16274167541E+04  0.50400001928E-02 0.  1.
       -1    1    3    3    0  502  0.31348766886E+03 -0.92992575590E+03 -0.11101488129E+03  0.98760353073E+03  0.50400001928E-02 0. -1.
</event>
<event>
 5   0  0.1281432E-04  0.2235187E+04  0.7818609E-02  0.8503923E-01
       -2   -1    0    0    0  501  0.00000000000E+00  0.00000000000E+00  0.78847494506E+03  0.78847494506E+03  0.25500000920E-02 0.  1.
        2   -1    0    0  501    0  0.00000000000E+00  0.00000000000E+00 -0.15840906267E+04  0.15840906267E+04  0.25500000920E-02 0. -1.
    10030    2    1    2    0    0  0.00000000000E+00  0.00000000000E+00 -0.79561568168E+03  0.23725655718E+04  0.22351874820E+04 0.  0.
        4    1    3    3  502    0  0.14261860128E+03  0.50157019252E+03  0.65143035686E+03  0.83443145086E+03  0.12699999809E+01 0.  1.
       -4    1    3    3    0  502 -0.14261860128E+03 -0.50157019252E+03 -0.14470460385E+04  0.15381341209E+04  0.12699999809E+01 0. -1.
</event>
<event>
 5   0  0.1257524E-04  0.2305997E+04  0.7818609E-02  0.8475560E-01
        2   -1    0    0  501    0  0.00000000000E+00  0.00000000000E+00  0.22606170719E+04  0.22606170719E+04  0.25500000920E-02 0. -1.
       -2   -1    0    0    0  501  0.00000000000E+00  0.00000000000E+00 -0.58807183255E+03  0.58807183255E+03  0.25500000920E-02 0.  1.
    10030    2    1    2    0    0  0.00000000000E+00  0.00000000000E+00  0.16725452394E+04  0.28486889045E+04  0.23059967252E+04 0.  0.
        3    1    3    3  502    0 -0.36449891477E+03  0.14067134949E+03  0.21763497428E+04  0.22111413570E+04  0.10100000352E+00 0. -1.
       -3    1    3    3    0  502  0.36449891477E+03 -0.14067134949E+03 -0.50380450342E+03  0.63754754748E+03  0.10100000352E+00 0.  1.
</event>
<event>
 5   0  0.5843670E-05  0.2804421E+04  0.7818609E-02  0.8301897E-01
        1   -1    0    0  501    0  0.00000000000E+00  0.00000000000E+00  0.16469411044E+04  0.16469411044E+04  0.50400001928E-02 0.  1.
       -1   -1    0    0    0  501  0.00000000000E+00  0.00000000000E+00 -0.11938458541E+04  0.11938458541E+04  0.50400001928E-02 0. -1.
    10030    2    1    2    0    0  0.00000000000E+00  0.00000000000E+00  0.45309525030E+03  0.28407869584E+04  0.28044206598E+04 0.  0.
        2    1    3    3  502    0 -0.40714420815E+01 -0.13222974272E+04 -0.24609343932E+03  0.13450089380E+04  0.25500000920E-02 0. -1.
       -2    1    3    3    0  502  0.40714420815E+01  0.13222974272E+04  0.69918868962E+03  0.14957780204E+04  0.25500000920E-02 0.  1.
</event>
<event>
 5   0  0.5843670E-05  0.2315181E+04  0.7818609E-02  0.8471960E-01
       -1   -1    0    0    0  501  0.00000000000E+00  0.00000000000E+00  0.12508959801E+04  0.12508959801E+04  0.50400001928E-02 0.  1.
        1   -1    0    0  501    0  0.00000000000E+00  0.00000000000E+00 -0.10712444519E+04  0.10712444519E+04  0.50400001928E-02 0. -1.
    10030    2    1    2    0    0  0.00000000000E+00  0.00000000000E+00  0.17965152827E+03  0.23221404320E+04  0.23151806656E+04 0.  0.
        2    1    3    3  502    0  0.99600682831E+03  0.49092170200E+03 -0.23823799549E+03  0.11356896856E+04  0.25500000920E-02 0. -1.
       -2    1    3    3    0  502 -0.99600682831E+03 -0.49092170200E+03  0.41788952376E+03  0.11864507464E+04  0.25500000920E-02 0.  1.
</event>
<event>
 5   0  0.1234988E-04  0.2256019E+04  0.7818609E-02  0.8495467E-01
       -2   -1    0    0    0  501  0.00000000000E+00  0.00000000000E+00  0.12157952408E+04  0.12157952408E+04  0.25500000920E-02 0. -1.
        2   -1    0    0  501    0  0.00000000000E+00  0.00000000000E+00 -0.10465619617E+04  0.10465619618E+04  0.25500000920E-02 0.  1.
    10030    2    1    2    0    0  0.00000000000E+00  0.00000000000E+00  0.16923327904E+03  0.22623572025E+04  0.22560186633E+04 0.  0.
        5    1    3    3  502    0 -0.19981162368E+03  0.39413076453E+03 -0.95614284119E+03  0.10533256701E+04  0.46999998093E+01 0.  1.
       -5    1    3    3    0  502  0.19981162368E+03 -0.39413076453E+03  0.11253761202E+04  0.12090315325E+04  0.46999998093E+01 0. -1.
</event>
<event>
 5   0  0.5642466E-05  0.2295047E+04  0.7818609E-02  0.8479876E-01
       -1   -1    0    0    0  501  0.00000000000E+00  0.00000000000E+00  0.19135756552E+04  0.19135756552E+04  0.50400001928E-02 0.  1.
        1   -1    0    0  501    0  0.00000000000E+00  0.00000000000E+00 -0.68814141009E+03  0.68814141011E+03  0.50400001928E-02 0. -1.
    10030    2    1    2    0    0  0.00000000000E+00  0.00000000000E+00  0.12254342451E+04  0.26017170653E+04  0.22950474067E+04 0.  0.
        1    1    3    3  502    0  0.27998786515E+03 -0.39288897147E+03 -0.56758776012E+03  0.74492336116E+03  0.50400001928E-02 0. -1.
       -1    1    3    3    0  502 -0.27998786515E+03  0.39288897147E+03  0.17930220053E+04  0.18567937042E+04  0.50400001928E-02 0.  1.
</event>
<event>
 5   0  0.1257524E-04  0.2284739E+04  0.7818609E-02  0.8483963E-01
       -2   -1    0    0    0  501  0.00000000000E+00  0.00000000000E+00  0.57243504610E+03  0.57243504611E+03  0.25500000920E-02 0.  1.
        2   -1    0    0  501    0  0.00000000000E+00  0.00000000000E+00 -0.22797487771E+04  0.22797487771E+04  0.25500000920E-02 0. -1.
    10030    2    1    2    0    0  0.00000000000E+00  0.00000000000E+00 -0.17073137310E+04  0.28521838232E+04  0.22847390191E+04 0.  0.
        3    1    3    3  502    0  0.33398175641E+03 -0.53898463016E+03 -0.20399038773E+04  0.21361779149E+04  0.10100000352E+00 0. -1.
       -3    1    3    3    0  502 -0.33398175641E+03  0.53898463016E+03  0.33259014630E+03  0.71600590834E+03  0.10100000352E+00 0.  1.
</event>
<event>
 5   0  0.5843670E-05  0.2315268E+04  0.7818609E-02  0.8471925E-01
       -1   -1    0    0    0  501  0.00000000000E+00  0.00000000000E+00  0.83250302877E+03  0.83250302878E+03  0.50400001928E-02 0.  1.
        1   -1    0    0  501    0  0.00000000000E+00  0.00000000000E+00 -0.16097434770E+04  0.16097434770E+04  0.50400001928E-02 0. -1.
    10030    2    1    2    0    0  0.00000000000E+00  0.00000000000E+00 -0.77724044825E+03  0.24422465058E+04  0.23152678637E+04 0.  0.
        2    1    3    3  502    0 -0.74017362683E+03 -0.70175191653E+03 -0.96619291859E+03  0.14049346982E+04  0.25500000920E-02 0. -1.
       -2    1    3    3    0  502  0.74017362683E+03  0.70175191653E+03  0.18895247034E+03  0.10373118076E+04  0.25500000920E-02 0.  1.
</event>
<event>
 5   0  0.5632156E-05  0.2264258E+04  0.7818609E-02  0.8492148E-01
       -1   -1    0    0    0  501  0.00000000000E+00  0.00000000000E+00  0.14056550044E+04  0.14056550044E+04  0.50400001928E-02 0.  1.
        1   -1    0    0  501    0  0.00000000000E+00  0.00000000000E+00 -0.91182832049E+03  0.91182832051E+03  0.50400001928E-02 0. -1.
    10030    2    1    2    0    0  0.00000000000E+00  0.00000000000E+00  0.49382668390E+03  0.23174833249E+04  0.22642579728E+04 0.  0.
        4    1    3    3  502    0  0.12108853058E+03  0.49765066540E+03  0.12802982979E+04  0.13789430596E+04  0.12699999809E+01 0.  1.
       -4    1    3    3    0  502 -0.12108853058E+03 -0.49765066540E+03 -0.78647161404E+03  0.93854026531E+03  0.12699999809E+01 0. -1.
</event>
<event>
 5   0  0.5924654E-05  0.2346150E+04  0.7818609E-02  0.8459944E-01
       -1   -1    0    0    0  501  0.00000000000E+00  0.00000000000E+00  0.76391983730E+03  0.76391983732E+03  0.50400001928E-02 0. -1.
        1   -1    0    0  501    0  0.00000000000E+00  0.00000000000E+00 -0.18013740415E+04  0.18013740415E+04  0.50400001928E-02 0.  1.
    10030    2    1    2    0    0  0.00000000000E+00  0.00000000000E+00 -0.10374542042E+04  0.25652938788E+04  0.23461503487E+04 0.  0.
        5    1    3    3  502    0  0.90164390433E+03 -0.72213422894E+03 -0.29559814314E+03  0.11924092951E+04  0.46999998093E+01 0. -1.
       -5    1    3    3    0  502 -0.90164390433E+03  0.72213422894E+03 -0.74185606101E+03  0.13728845837E+04  0.46999998093E+01 0.  1.
</event>
<event>
 5   0  0.1281432E-04  0.2271458E+04  0.7818609E-02  0.8489260E-01
        2   -1    0    0  501    0  0.00000000000E+00  0.00000000000E+00  0.93984393525E+03  0.93984393525E+03  0.25500000920E-02 0. -1.
       -2   -1    0    0    0  501  0.00000000000E+00  0.00000000000E+00 -0.13724415184E+04  0.13724415184E+04  0.25500000920E-02 0.  1.
    10030    2    1    2    0    0  0.00000000000E+00  0.00000000000E+00 -0.43259758313E+03  0.23122854536E+04  0.22714584192E+04 0.  0.
        4    1    3    3  502    0 -0.44554780424E+03  0.68110386165E+03  0.59006502390E+03  0.10052828764E+04  0.12699999809E+01 0. -1.
       -4    1    3    3    0  502  0.44554780424E+03 -0.68110386165E+03 -0.10226626070E+04  0.13070025773E+04  0.12699999809E+01 0.  1.
</event>
<event>
 5   0  0.5924654E-05  0.2203787E+04  0.7818609E-02  0.8516853E-01
       -1   -1    0    0    0  501  0.00000000000E+00  0.00000000000E+00  0.12676173341E+04  0.12676173341E+04  0.50400001928E-02 0.  1.
        1   -1    0    0  501    0  0.00000000000E+00  0.00000000000E+00 -0.95783595523E+03  0.95783595525E+03  0.50400001928E-02 0. -1.
    10030    2    1    2    0    0  0.00000000000E+00  0.00000000000E+00  0.30978137885E+03  0.22254532893E+04  0.22037871586E+04 0.  0.
        5    1    3    3  502    0 -0.24642798747E+03  0.10648160774E+04  0.29622140197E+03  0.11323997707E+04  0.46999998093E+01 0. -1.
       -5    1    3    3    0  502  0.24642798747E+03 -0.10648160774E+04  0.13559976881E+02  0.10930535187E+04  0.46999998093E+01 0.  1.
</event>
<event>
 5   0  0.1270613E-04  0.2299264E+04  0.7818609E-02  0.8478211E-01
       -2   -1    0    0    0  501  0.00000000000E+00  0.00000000000E+00  0.16236070946E+04  0.16236070946E+04  0.25500000920E-02 0. -1.
        2   -1    0    0  501    0  0.00000000000E+00  0.00000000000E+00 -0.81402315935E+03  0.81402315935E+03  0.25500000920E-02 0.  1.
    10030    2    1    2    0    0  0.00000000000E+00  0.00000000000E+00  0.80958393528E+03  0.24376302540E+04  0.22992640359E+04 0.  0.
        2    1    3    3  502    0  0.10154600787E+04 -0.50298683244E+03  0.61009150417E+03  0.12869990554E+04  0.25500000920E-02 0. -1.
       -2    1    3    3    0  502 -0.10154600787E+04  0.50298683244E+03  0.19949243111E+03  0.11506311986E+04  0.25500000920E-02 0.  1.
</event>
<event>
 5   0  0.5843670E-05  0.2220875E+04  0.7818609E-02  0.8509789E-01
       -1   -1    0    0    0  501  0.00000000000E+00  0.00000000000E+00  0.79917375146E+03  0.79917375148E+03  0.50400001928E-02 0.  1.
        1   -1    0    0  501    0  0.00000000000E+00  0.00000000000E+00 -0.15429334302E+04  0.15429334302E+04  0.50400001928E-02 0. -1.
    10030    2    1    2    0    0  0.00000000000E+00  0.00000000000E+00 -0.74375967876E+03  0.23421071817E+04  0.22208754109E+04 0.  0.
        2    1    3    3  502    0 -0.68334588314E+03 -0.13670080758E+03  0.53984934035E+03  0.88152482499E+03  0.25500000920E-02 0.  1.
       -2    1    3    3    0  502  0.68334588314E+03  0.13670080758E+03 -0.12836090191E+04  0.14605823567E+04  0.25500000920E-02 0. -1.
</event>
<event>
 5   0  0.5642466E-05  0.1681265E+04  0.7818609E-02  0.8772122E-01
       -1   -1    0    0    0  501  0.00000000000E+00  0.00000000000E+00  0.76910385775E+03  0.76910385777E+03  0.50400001928E-02 0.  1.
        1   -1    0    0  501    0  0.00000000000E+00  0.00000000000E+00 -0.91881351985E+03  0.91881351987E+03  0.50400001928E-02 0. -1.
    10030    2    1    2    0    0  0.00000000000E+00  0.00000000000E+00 -0.14970966210E+03  0.16879173776E+04  0.16812650269E+04 0.  0.
        1    1    3    3  502    0 -0.57957899659E+03 -0.21588973199E+03 -0.64644298183E+03  0.89465564238E+03  0.50400001928E-02 0. -1.
       -1    1    3    3    0  502  0.57957899659E+03  0.21588973199E+03  0.49673331973E+03  0.79326173525E+03  0.50400001928E-02 0.  1.
</event>
<event>
 5   0  0.1270613E-04  0.2318579E+04  0.7818609E-02  0.8470631E-01
        2   -1    0    0  501    0  0.00000000000E+00  0.00000000000E+00  0.10055024570E+04  0.10055024570E+04  0.25500000920E-02 0. -1.
       -2   -1    0    0    0  501  0.00000000000E+00  0.00000000000E+00 -0.13365980739E+04  0.13365980739E+04  0.25500000920E-02 0.  1.
    10030    2    1    2    0    0  0.00000000000E+00  0.00000000000E+00 -0.33109561686E+03  0.23421005309E+04  0.23185794335E+04 0.  0.
        2    1    3    3  502    0  0.10179589171E+03  0.11384371566E+04  0.30199046799E+02  0.11433781289E+04  0.25500000920E-02 0. -1.
       -2    1    3    3    0  502 -0.10179589171E+03 -0.11384371566E+04 -0.36129466366E+03  0.11987224020E+04  0.25500000920E-02 0.  1.
</event>
<event>
 5   0  0.1281432E-04  0.2286013E+04  0.7818609E-02  0.8483457E-01
       -2   -1    0    0    0  501  0.00000000000E+00  0.00000000000E+00  0.69238257577E+03  0.69238257577E+03  0.25500000920E-02 0. -1.
        2   -1    0    0  501    0  0.00000000000E+00  0.00000000000E+00 -0.18869100715E+04  0.18869100715E+04  0.25500000920E-02 0.  1.
    10030    2    1    2    0    0  0.00000000000E+00  0.00000000000E+00 -0.11945274958E+04  0.25792926473E+04  0.22860128220E+04 0.  0.
        4    1    3    3  502    0 -0.12952889386E+02 -0.11307464651E+04 -0.78507185535E+03  0.13766244138E+04  0.12699999809E+01 0.  1.
       -4    1    3    3    0  502  0.12952889386E+02  0.11307464651E+04 -0.40945564040E+03  0.12026682335E+04  0.12699999809E+01 0. -1.
</event>
<event>
 5   0  0.5843670E-05  0.1966505E+04  0.7818609E-02  0.8622443E-01
        1   -1    0    0  501    0  0.00000000000E+00  0.00000000000E+00  0.45071056259E+03  0.45071056262E+03  0.50400001928E-02 0.  1.
       -1   -1    0    0    0  501  0.00000000000E+00  0.00000000000E+00 -0.21450255643E+04  0.21450255643E+04  0.50400001928E-02 0. -1.
    10030    2    1    2    0    0  0.00000000000E+00  0.00000000000E+00 -0.16943150017E+04  0.25957361269E+04  0.19665052036E+04 0.  0.
        2    1    3    3  502    0 -0.51697808515E+03 -0.38434490496E+03  0.13336064087E+03  0.65785439653E+03  0.25500000920E-02 0.  1.
       -2    1    3    3    0  502  0.51697808515E+03  0.38434490496E+03 -0.18276756426E+04  0.19378817304E+04  0.25500000920E-02 0. -1.
</event>
<event>
 5   0  0.5642466E-05  0.2298682E+04  0.7818609E-02  0.8478441E-01
        1   -1    0    0  501    0  0.00000000000E+00  0.00000000000E+00  0.11016286962E+04  0.11016286962E+04  0.50400001928E-02 0.  1.
       -1   -1    0    0    0  501  0.00000000000E+00  0.00000000000E+00 -0.11991193564E+04  0.11991193564E+04  0.50400001928E-02 0. -1.
    10030    2    1    2    0    0  0.00000000000E+00  0.00000000000E+00 -0.97490660234E+02  0.23007480526E+04  0.22986816162E+04 0.  0.
        1    1    3    3  502    0  0.46921362887E+03  0.10303389592E+04 -0.24697511479E+03  0.11587737086E+04  0.50400001928E-02 0.  1.
       -1    1    3    3    0  502 -0.46921362887E+03 -0.10303389592E+04  0.14948445456E+03  0.11419743441E+04  0.50400001928E-02 0. -1.
</event>
<event>
 5   0  0.5632156E-05  0.2303360E+04  0.7818609E-02  0.8476597E-01
        1   -1    0    0  501    0  0.00000000000E+00  0.00000000000E+00  0.12473748772E+04  0.12473748772E+04  0.50400001928E-02 0.  1.
       -1   -1    0    0    0  501  0.00000000000E+00  0.00000000000E+00 -0.10633269323E+04  0.10633269323E+04  0.50400001928E-02 0. -1.
    10030    2    1    2    0    0  0.00000000000E+00  0.00000000000E+00  0.18404794491E+03  0.23107018095E+04  0.23033604161E+04 0.  0.
        4    1    3    3  502    0  0.46093247701E+03  0.10544283095E+04  0.13786293931E+03  0.11590019893E+04  0.12699999809E+01 0. -1.
       -4    1    3    3    0  502 -0.46093247701E+03 -0.10544283095E+04  0.46185005602E+02  0.11516998202E+04  0.12699999809E+01 0.  1.
</event>
<event>
 5   0  0.1281432E-04  0.2278809E+04  0.7818609E-02  0.8486324E-01
        2   -1    0    0  501    0  0.00000000000E+00  0.00000000000E+00  0.18020692680E+04  0.18020692680E+04  0.25500000920E-02 0. -1.
       -2   -1    0    0    0  501  0.00000000000E+00  0.00000000000E+00 -0.72041763653E+03  0.72041763654E+03  0.25500000920E-02 0.  1.
    10030    2    1    2    0    0  0.00000000000E+00  0.00000000000E+00  0.10816516314E+04  0.25224869045E+04  0.22788088844E+04 0.  0.
        4    1    3    3  502    0 -0.51824998908E+03  0.55421085187E+03 -0.40007185118E+03  0.85778308360E+03  0.12699999809E+01 0.  1.
       -4    1    3    3    0  502  0.51824998908E+03 -0.55421085187E+03  0.14817234826E+04  0.16647038209E+04  0.12699999809E+01 0. -1.
</event>
<event>
 5   0  0.5663790E-05  0.2230643E+04  0.7818609E-02  0.8505781E-01
        1   -1    0    0  501    0  0.00000000000E+00  0.00000000000E+00  0.99671507534E+03  0.99671507535E+03  0.50400001928E-02 0. -1.
       -1   -1    0    0    0  501  0.00000000000E+00  0.00000000000E+00 -0.12480418115E+04  0.12480418115E+04  0.50400001928E-02 0.  1.
    10030    2    1    2    0    0  0.00000000000E+00  0.00000000000E+00 -0.25132673618E+03  0.22447568869E+04  0.22306430357E+04 0.  0.
        3    1    3    3  502    0 -0.20357544512E+03  0.11470465664E+02 -0.12291265785E+04  0.12459240304E+04  0.10100000352E+00 0.  1.
       -3    1    3    3    0  502  0.20357544512E+03 -0.11470465664E+02  0.97779984228E+03  0.99883285649E+03  0.10100000352E+00 0. -1.
</event>
<event>
 5   0  0.5642466E-05  0.2305856E+04  0.7818609E-02  0.8475616E-01
        1   -1    0    0  501    0  0.00000000000E+00  0.00000000000E+00  0.12209781751E+04  0.12209781751E+04  0.50400001928E-02 0.  1.
       -1   -1    0    0    0  501  0.00000000000E+00  0.00000000000E+00 -0.10886706754E+04  0.10886706754E+04  0.50400001928E-02 0. -1.
    10030    2    1    2    0    0  0.00000000000E+00  0.00000000000E+00  0.13230749965E+03  0.23096488505E+04  0.23058561400E+04 0.  0.
        1    1    3    3  502    0  0.59998858742E+02  0.10985468033E+04  0.41144992416E+03  0.11746046068E+04  0.50400001928E-02 0.  1.
       -1    1    3    3    0  502 -0.59998858742E+02 -0.10985468033E+04 -0.27914242451E+03  0.11350442438E+04  0.50400001928E-02 0. -1.
</event>
<event>
 5   0  0.5642466E-05  0.2307436E+04  0.7818609E-02  0.8474995E-01
        1   -1    0    0  501    0  0.00000000000E+00  0.00000000000E+00  0.17582830432E+04  0.17582830433E+04  0.50400001928E-02 0.  1.
       -1   -1    0    0    0  501  0.00000000000E+00  0.00000000000E+00 -0.75702570823E+03  0.75702570824E+03  0.50400001928E-02 0. -1.
    10030    2    1    2    0    0  0.00000000000E+00  0.00000000000E+00  0.10012573350E+04  0.25153087515E+04  0.23074362103E+04 0.  0.
        1    1    3    3  502    0  0.66350275747E+03 -0.73810200580E+02  0.15263439991E+04  0.16659561394E+04  0.50400001928E-02 0.  1.
       -1    1    3    3    0  502 -0.66350275747E+03  0.73810200580E+02 -0.52508666405E+03  0.84935261209E+03  0.50400001928E-02 0. -1.
</event>
<event>
 5   0  0.1281432E-04  0.2149331E+04  0.7818609E-02  0.8539819E-01
       -2   -1    0    0    0  501  0.00000000000E+00  0.00000000000E+00  0.10194334548E+04  0.10194334548E+04  0.25500000920E-02 0.  1.
        2   -1    0    0  501    0  0.00000000000E+00  0.00000000000E+00 -0.11328900324E+04  0.11328900324E+04  0.25500000920E-02 0. -1.
    10030    2    1    2    0    0  0.00000000000E+00  0.00000000000E+00 -0.11345657763E+03  0.21523234872E+04  0.21493310584E+04 0.  0.
        4    1    3    3  502    0 -0.79164941247E+03 -0.36839815683E+03 -0.68408147299E+03  0.11092317471E+04  0.12699999809E+01 0. -1.
       -4    1    3    3    0  502  0.79164941247E+03  0.36839815683E+03  0.57062489535E+03  0.10430917401E+04  0.12699999809E+01 0.  1.
</event>
<event>
 5   0  0.1257524E-04  0.1997277E+04  0.7818609E-02  0.8607895E-01
       -2   -1    0    0    0  501  0.00000000000E+00  0.00000000000E+00  0.63607130546E+03  0.63607130547E+03  0.25500000920E-02 0. -1.
        2   -1    0    0  501    0  0.00000000000E+00  0.00000000000E+00 -0.15678733239E+04  0.15678733239E+04  0.25500000920E-02 0.  1.
    10030    2    1    2    0    0  0.00000000000E+00  0.00000000000E+00 -0.93180201847E+03  0.22039446294E+04  0.19972773788E+04 0.  0.
        3    1    3    3  502    0 -0.97745665071E+02 -0.16032635098E+03  0.61641592162E+03  0.64438137193E+03  0.10100000352E+00 0. -1.
       -3    1    3    3    0  502  0.97745665071E+02  0.16032635098E+03 -0.15482179401E+04  0.15595632575E+04  0.10100000352E+00 0.  1.
</event>
<event>
 5   0  0.1234988E-04  0.2355397E+04  0.7818609E-02  0.8456393E-01
        2   -1    0    0  501    0  0.00000000000E+00  0.00000000000E+00  0.14415758042E+04  0.14415758042E+04  0.25500000920E-02 0.  1.
       -2   -1    0    0    0  501  0.00000000000E+00  0.00000000000E+00 -0.96212356843E+03  0.96212356843E+03  0.25500000920E-02 0. -1.
    10030    2    1    2    0    0  0.00000000000E+00  0.00000000000E+00  0.47945223581E+03  0.24036993727E+04  0.23553972548E+04 0.  0.
        5    1    3    3  502    0 -0.14932928097E+03 -0.37522531983E+03 -0.88924186040E+03  0.97666086800E+03  0.46999998093E+01 0. -1.
       -5    1    3    3    0  502  0.14932928097E+03  0.37522531983E+03  0.13686940962E+04  0.14270385047E+04  0.46999998093E+01 0.  1.
</event>
<event>
 5   0  0.1257524E-04  0.2315188E+04  0.7818609E-02  0.8471957E-01
       -2   -1    0    0    0  501  0.00000000000E+00  0.00000000000E+00  0.12008235896E+04  0.12008235896E+04  0.25500000920E-02 0.  1.
        2   -1    0    0  501    0  0.00000000000E+00  0.00000000000E+00 -0.11159210025E+04  0.11159210025E+04  0.25500000920E-02 0. -1.
    10030    2    1    2    0    0  0.00000000000E+00  0.00000000000E+00  0.84902587099E+02  0.23167445921E+04  0.23151883413E+04 0.  0.
        3    1    3    3  502    0 -0.15317085953E+03  0.27008616204E+03 -0.10734738232E+04  0.11174765798E+04  0.10100000352E+00 0. -1.
       -3    1    3    3    0  502  0.15317085953E+03 -0.27008616204E+03  0.11583764103E+04  0.11992680123E+04  0.10100000352E+00 0.  1.
</event>
<event>
 5   0  0.5924654E-05  0.2335408E+04  0.7818609E-02  0.8464090E-01
       -1   -1    0    0    0  501  0.00000000000E+00  0.00000000000E+00  0.12582776817E+04  0.12582776817E+04  0.50400001928E-02 0. -1.
        1   -1    0    0  501    0  0.00000000000E+00  0.00000000000E+00 -0.10836503651E+04  0.10836503651E+04  0.50400001928E-02 0.  1.
    10030    2    1    2    0    0  0.00000000000E+00  0.00000000000E+00  0.17462731663E+03  0.23419280468E+04  0.23354083747E+04 0.  0.
        5    1    3    3  502    0 -0.60857493338E+03 -0.79002745328E+03  0.69646659361E+03  0.12163858896E+04  0.46999998093E+01 0. -1.
       -5    1    3    3    0  502  0.60857493338E+03  0.79002745328E+03 -0.52183927699E+03  0.11255421571E+04  0.46999998093E+01 0.  1.
</event>
<event>
 5   0  0.1234988E-04  0.2215751E+04  0.7818609E-02  0.8511901E-01
        2   -1    0    0  501    0  0.00000000000E+00  0.00000000000E+00  0.20065115666E+04  0.20065115666E+04  0.25500000920E-02 0.  1.
       -2   -1    0    0    0  501  0.00000000000E+00  0.00000000000E+00 -0.61170233417E+03  0.61170233418E+03  0.25500000920E-02 0. -1.
    10030    2    1    2    0    0  0.00000000000E+00  0.00000000000E+00  0.13948092324E+04  0.26182139007E+04  0.22157507160E+04 0.  0.
        5    1    3    3  502    0  0.27268367006E+03  0.96362769955E+03  0.12571952659E+04  0.16073259638E+04  0.46999998093E+01 0.  1.
       -5    1    3    3    0  502 -0.27268367006E+03 -0.96362769955E+03  0.13761396645E+03  0.10108879369E+04  0.46999998093E+01 0. -1.
</event>
<event>
 5   0  0.1270613E-04  0.2328059E+04  0.7818609E-02  0.8466939E-01
       -2   -1    0    0    0  501  0.00000000000E+00  0.00000000000E+00  0.16140374351E+04  0.16140374351E+04  0.25500000920E-02 0. -1.
        2   -1    0    0  501    0  0.00000000000E+00  0.00000000000E+00 -0.83948772831E+03  0.83948772831E+03  0.25500000920E-02 0.  1.
    10030    2    1    2    0    0  0.00000000000E+00  0.00000000000E+00  0.77454970675E+03  0.24535251634E+04  0.23280589509E+04 0.  0.
        2    1    3    3  502    0  0.67475993853E+03  0.94750595680E+03  0.34138380735E+03  0.12122753057E+04  0.25500000920E-02 0. -1.
       -2    1    3    3    0  502 -0.67475993853E+03 -0.94750595680E+03  0.43316589940E+03  0.12412498577E+04  0.25500000920E-02 0.  1.
</event>
<event>
 5   0  0.1234988E-04  0.1133140E+04  0.7818609E-02  0.9173480E-01
        2   -1    0    0  501    0  0.00000000000E+00  0.00000000000E+00  0.10785283382E+04  0.10785283382E+04  0.25500000920E-02 0. -1.
       -2   -1    0    0    0  501  0.00000000000E+00  0.00000000000E+00 -0.29762938252E+03  0.29762938253E+03  0.25500000920E-02 0.  1.
    10030    2    1    2    0    0  0.00000000000E+00  0.00000000000E+00  0.78089895563E+03  0.13761577207E+04  0.11331402796E+04 0.  0.
        5    1    3    3  502    0  0.43627147831E+03  0.13539509534E+02  0.82911052029E+03  0.93699651331E+03  0.46999998093E+01 0. -1.
       -5    1    3    3    0  502 -0.43627147831E+03 -0.13539509534E+02 -0.48211564661E+02  0.43916120738E+03  0.46999998093E+01 0.  1.
</event>
<event>
 5   0  0.5642466E-05  0.2286282E+04  0.7818609E-02  0.8483350E-01
       -1   -1    0    0    0  501  0.00000000000E+00  0.00000000000E+00  0.32802807735E+04  0.32802807735E+04  0.50400001928E-02 0. -1.
        1   -1    0    0  501    0  0.00000000000E+00  0.00000000000E+00 -0.39837176091E+03  0.39837176094E+03  0.50400001928E-02 0.  1.
    10030    2    1    2    0    0  0.00000000000E+00  0.00000000000E+00  0.28819090125E+04  0.36786525344E+04  0.22862818969E+04 0.  0.
        1    1    3    3  502    0 -0.11041118820E+04  0.36454893914E+02  0.19138483190E+04  0.22097980441E+04  0.50400001928E-02 0. -1.
       -1    1    3    3    0  502  0.11041118820E+04 -0.36454893914E+02  0.96806069353E+03  0.14688544903E+04  0.50400001928E-02 0.  1.
</event>
<event>
 5   0  0.1270613E-04  0.2236250E+04  0.7818609E-02  0.8503490E-01
        2   -1    0    0  501    0  0.00000000000E+00  0.00000000000E+00  0.22487429665E+04  0.22487429665E+04  0.25500000920E-02 0.  1.
       -2   -1    0    0    0  501  0.00000000000E+00  0.00000000000E+00 -0.55595653421E+03  0.55595653422E+03  0.25500000920E-02 0. -1.
    10030    2    1    2    0    0  0.00000000000E+00  0.00000000000E+00  0.16927864323E+04  0.28046995007E+04  0.22362498483E+04 0.  0.
        2    1    3    3  502    0 -0.51253047472E+03  0.99012157564E+03  0.74015501306E+03  0.13382293023E+04  0.25500000920E-02 0. -1.
       -2    1    3    3    0  502  0.51253047472E+03 -0.99012157564E+03  0.95263141924E+03  0.14664701985E+04  0.25500000920E-02 0.  1.
</event>
<event>
 5   0  0.5924654E-05  0.1481082E+04  0.7818609E-02  0.8897131E-01
       -1   -1    0    0    0  501  0.00000000000E+00  0.00000000000E+00  0.37421096915E+03  0.37421096918E+03  0.50400001928E-02 0. -1.
        1   -1    0    0  501    0  0.00000000000E+00  0.00000000000E+00 -0.14654862749E+04  0.14654862749E+04  0.50400001928E-02 0.  1.
    10030    2    1    2    0    0  0.00000000000E+00  0.00000000000E+00 -0.10912753058E+04  0.18396972441E+04  0.14810820899E+04 0.  0.
        5    1    3    3  502    0  0.12051708217E+03  0.69230562675E+03 -0.25547984508E+03  0.74773223092E+03  0.46999998093E+01 0. -1.
       -5    1    3    3    0  502 -0.12051708217E+03 -0.69230562675E+03 -0.83579546072E+03  0.10919650132E+04  0.46999998093E+01 0.  1.
</event>
<event>
 5   0  0.5663790E-05  0.2298394E+04  0.7818609E-02  0.8478555E-01
       -1   -1    0    0    0  501  0.00000000000E+00  0.00000000000E+00  0.93965527871E+03  0.93965527872E+03  0.50400001928E-02 0. -1.
        1   -1    0    0  501    0  0.00000000000E+00  0.00000000000E+00 -0.14054656092E+04  0.14054656092E+04  0.50400001928E-02 0.  1.
    10030    2    1    2    0    0  0.00000000000E+00  0.00000000000E+00 -0.46581033046E+03  0.23451208879E+04  0.22983935074E+04 0.  0.
        3    1    3    3  502    0  0.11034336393E+04 -0.75132929053E+02  0.85598818242E+02  0.11092961378E+04  0.10100000352E+00 0.  1.
       -3    1    3    3    0  502 -0.11034336393E+04  0.75132929053E+02 -0.55140914870E+03  0.12358247501E+04  0.10100000352E+00 0. -1.
</event>
<event>
 5   0  0.1281432E-04  0.2252837E+04  0.7818609E-02  0.8496752E-01
       -2   -1    0    0    0  501  0.00000000000E+00  0.00000000000E+00  0.10276985726E+04  0.10276985726E+04  0.25500000920E-02 0.  1.
        2   -1    0    0  501    0  0.00000000000E+00  0.00000000000E+00 -0.12346213072E+04  0.12346213072E+04  0.25500000920E-02 0. -1.
    10030    2    1    2    0    0  0.00000000000E+00  0.00000000000E+00 -0.20692273458E+03  0.22623198797E+04  0.22528369271E+04 0.  0.
        4    1    3    3  502    0 -0.80038138060E+03  0.27170475456E+03  0.64424185525E+03  0.10627713814E+04  0.12699999809E+01 0.  1.
       -4    1    3    3    0  502  0.80038138060E+03 -0.27170475456E+03 -0.85116458984E+03  0.11995484984E+04  0.12699999809E+01 0. -1.
</event>
<event>
 5   0  0.5663790E-05  0.2163200E+04  0.7818609E-02  0.8533903E-01
       -1   -1    0    0    0  501  0.00000000000E+00  0.00000000000E+00  0.74864749146E+03  0.74864749147E+03  0.50400001928E-02 0.  1.
        1   -1    0    0  501    0  0.00000000000E+00  0.00000000000E+00 -0.15626289753E+04  0.15626289753E+04  0.50400001928E-02 0. -1.
    10030    2    1    2    0    0  0.00000000000E+00  0.00000000000E+00 -0.81398148382E+03  0.23112764668E+04  0.21631997249E+04 0.  0.
        3    1    3    3  502    0  0.25006727789E+03 -0.20709720691E+03  0.69534762684E+03  0.76741854873E+03  0.10100000352E+00 0.  1.
       -3    1    3    3    0  502 -0.25006727789E+03  0.20709720691E+03 -0.15093291107E+04  0.15438579180E+04  0.10100000352E+00 0. -1.
</event>
<event>
 5   0  0.5632156E-05  0.2325540E+04  0.7818609E-02  0.8467919E-01
       -1   -1    0    0    0  501  0.00000000000E+00  0.00000000000E+00  0.11849327058E+04  0.11849327058E+04  0.50400001928E-02 0. -1.
        1   -1    0    0  501    0  0.00000000000E+00  0.00000000000E+00 -0.11410215180E+04  0.11410215180E+04  0.50400001928E-02 0.  1.
    10030    2    1    2    0    0  0.00000000000E+00  0.00000000000E+00  0.43911187814E+02  0.23259542238E+04  0.23255396919E+04 0.  0.
        4    1    3    3  502    0 -0.63620778657E+03 -0.34743058964E+03  0.93127316157E+03  0.11801439220E+04  0.12699999809E+01 0.  1.
       -4    1    3    3    0  502  0.63620778657E+03  0.34743058964E+03 -0.88736197376E+03  0.11458103018E+04  0.12699999809E+01 0. -1.
</event>
<event>
 5   0  0.5663790E-05  0.2392805E+04  0.7818609E-02  0.8442202E-01
        1   -1    0    0  501    0  0.00000000000E+00  0.00000000000E+00  0.95461798080E+03  0.95461798082E+03  0.50400001928E-02 0.  1.
       -1   -1    0    0    0  501  0.00000000000E+00  0.00000000000E+00 -0.14994262974E+04  0.14994262974E+04  0.50400001928E-02 0. -1.
    10030    2    1    2    0    0  0.00000000000E+00  0.00000000000E+00 -0.54480831661E+03  0.24540442782E+04  0.23928053029E+04 0.  0.
        3    1    3    3  502    0 -0.99230221005E+03  0.65067344855E+02  0.40981320230E+03  0.10755669698E+04  0.10100000352E+00 0.  1.
       -3    1    3    3    0  502  0.99230221005E+03 -0.65067344855E+02 -0.95462151891E+03  0.13784773085E+04  0.10100000352E+00 0. -1.
</event>
<event>
 5   0  0.1257524E-04  0.2327514E+04  0.7818609E-02  0.8467151E-01
        2   -1    0    0  501    0  0.00000000000E+00  0.00000000000E+00  0.77532239714E+03  0.77532239715E+03  0.25500000920E-02 0.  1.
       -2   -1    0    0    0  501  0.00000000000E+00  0.00000000000E+00 -0.17467964539E+04  0.17467964539E+04  0.25500000920E-02 0. -1.
    10030    2    1    2    0    0  0.00000000000E+00  0.00000000000E+00 -0.97147405673E+03  0.25221188510E+04  0.23275140506E+04 0.  0.
        3    1    3    3  502    0 -0.33058972657E+03  0.72811234173E+03 -0.14019445153E+04  0.16139657938E+04  0.10100000352E+00 0. -1.
       -3    1    3    3    0  502  0.33058972657E+03 -0.72811234173E+03  0.43047045852E+03  0.90815305723E+03  0.10100000352E+00 0.  1.
</event>
<event>
 5   0  0.5632156E-05  0.2303611E+04  0.7818609E-02  0.8476499E-01
       -1   -1    0    0    0  501  0.00000000000E+00  0.00000000000E+00  0.84940419237E+03  0.84940419239E+03  0.50400001928E-02 0. -1.
        1   -1    0    0  501    0  0.00000000000E+00  0.00000000000E+00 -0.15618669904E+04  0.15618669905E+04  0.50400001928E-02 0.  1.
    10030    2    1    2    0    0  0.00000000000E+00  0.00000000000E+00 -0.71246279807E+03  0.24112711828E+04  0.23036113992E+04 0.  0.
        4    1    3    3  502    0 -0.81504575052E+03 -0.78756633116E+03 -0.14147343198E+03  0.11421806540E+04  0.12699999809E+01 0. -1.
       -4    1    3    3    0  502  0.81504575052E+03  0.78756633116E+03 -0.57098936609E+03  0.12690905289E+04  0.12699999809E+01 0.  1.
</event>
<event>
 5   0  0.5924654E-05  0.2250987E+04  0.7818609E-02  0.8497501E-01
        1   -1    0    0  501    0  0.00000000000E+00  0.00000000000E+00  0.11855774706E+04  0.11855774706E+04  0.50400001928E-02 0. -1.
       -1   -1    0    0    0  501  0.00000000000E+00  0.00000000000E+00 -0.10684546552E+04  0.10684546552E+04  0.50400001928E-02 0.  1.
    10030    2    1    2    0    0  0.00000000000E+00  0.00000000000E+00  0.11712281546E+03  0.22540321258E+04  0.22509871324E+04 0.  0.
        5    1    3    3  502    0  0.61029037816E+03 -0.18629781053E+03  0.98693607740E+03  0.11752557725E+04  0.46999998093E+01 0. -1.
       -5    1    3    3    0  502 -0.61029037816E+03  0.18629781053E+03 -0.86981326194E+03  0.10787763533E+04  0.46999998093E+01 0.  1.
</event>
<event>
 5   0  0.1234988E-04  0.2285440E+04  0.7818609E-02  0.8483684E-01
        2   -1    0    0  501    0  0.00000000000E+00  0.00000000000E+00  0.13946624703E+04  0.13946624703E+04  0.25500000920E-02 0. -1.
       -2   -1    0    0    0  501  0.00000000000E+00  0.00000000000E+00 -0.93629004225E+03  0.93629004225E+03  0.25500000920E-02 0.  1.
    10030    2    1    2    0    0  0.00000000000E+00  0.00000000000E+00  0.45837242805E+03  0.23309525126E+04  0.22854396367E+04 0.  0.
        5    1    3    3  502    0 -0.19927522690E+03  0.80238613733E+03 -0.57535250249E+03  0.10072669564E+04  0.46999998093E+01 0.  1.
       -5    1    3    3    0  502  0.19927522690E+03 -0.80238613733E+03  0.10337249305E+04  0.13236855561E+04  0.46999998093E+01 0. -1.
</event>
<event>
 5   0  0.5924654E-05  0.2300944E+04  0.7818609E-02  0.8477549E-01
       -1   -1    0    0    0  501  0.00000000000E+00  0.00000000000E+00  0.10846304519E+04  0.10846304519E+04  0.50400001928E-02 0. -1.
        1   -1    0    0  501    0  0.00000000000E+00  0.00000000000E+00 -0.12203100643E+04  0.12203100643E+04  0.50400001928E-02 0.  1.
    10030    2    1    2    0    0  0.00000000000E+00  0.00000000000E+00 -0.13567961238E+03  0.23049405162E+04  0.23009436817E+04 0.  0.
        5    1    3    3  502    0 -0.91365301303E+03 -0.42064485205E+03 -0.62725361843E+03  0.11853999796E+04  0.46999998093E+01 0.  1.
       -5    1    3    3    0  502  0.91365301303E+03  0.42064485205E+03  0.49157400605E+03  0.11195405366E+04  0.46999998093E+01 0. -1.
</event>
<event>
 5   0  0.1281432E-04  0.2286312E+04  0.7818609E-02  0.8483338E-01
       -2   -1    0    0    0  501  0.00000000000E+00  0.00000000000E+00  0.99073823190E+03  0.99073823191E+03  0.25500000920E-02 0.  1.
        2   -1    0    0  501    0  0.00000000000E+00  0.00000000000E+00 -0.13190217343E+04  0.13190217343E+04  0.25500000920E-02 0. -1.
    10030    2    1    2    0    0  0.00000000000E+00  0.00000000000E+00 -0.32828350241E+03  0.23097599662E+04  0.22863116681E+04 0.  0.
        4    1    3    3  502    0  0.18447984862E+03 -0.49262673185E+03 -0.11894842226E+04  0.13006107182E+04  0.12699999809E+01 0. -1.
       -4    1    3    3    0  502 -0.18447984862E+03  0.49262673185E+03  0.86120072020E+03  0.10091492481E+04  0.12699999809E+01 0.  1.
</event>
<event>
 5   0  0.5843670E-05  0.2245040E+04  0.7818609E-02  0.8499912E-01
       -1   -1    0    0    0  501  0.00000000000E+00  0.00000000000E+00  0.19757387959E+04  0.19757387960E+04  0.50400001928E-02 0. -1.
        1   -1    0    0  501    0  0.00000000000E+00  0.00000000000E+00 -0.63776191915E+03  0.63776191917E+03  0.50400001928E-02 0.  1.
    10030    2    1    2    0    0  0.00000000000E+00  0.00000000000E+00  0.13379768768E+04  0.26135007151E+04  0.22450398360E+04 0.  0.
        2    1    3    3  502    0  0.97538678148E+03 -0.50227335829E+03  0.39254172784E+03  0.11652239733E+04  0.25500000920E-02 0. -1.
       -2    1    3    3    0  502 -0.97538678148E+03  0.50227335829E+03  0.94543514896E+03  0.14482767418E+04  0.25500000920E-02 0.  1.
</event>
<event>
 5   0  0.5843670E-05  0.2123627E+04  0.7818609E-02  0.8550907E-01
       -1   -1    0    0    0  501  0.00000000000E+00  0.00000000000E+00  0.78618650216E+03  0.78618650218E+03  0.50400001928E-02 0. -1.
        1   -1    0    0  501    0  0.00000000000E+00  0.00000000000E+00 -0.14340712509E+04  0.14340712509E+04  0.50400001928E-02 0.  1.
    10030    2    1    2    0    0  0.00000000000E+00  0.00000000000E+00 -0.64788474874E+03  0.22202577531E+04  0.21236265779E+04 0.  0.
        2    1    3    3  502    0  0.33421958289E+03 -0.87442565366E+03  0.19998343388E+03  0.95724413145E+03  0.25500000920E-02 0. -1.
       -2    1    3    3    0  502 -0.33421958289E+03  0.87442565366E+03 -0.84786818263E+03  0.12630136216E+04  0.25500000920E-02 0.  1.
</event>
<event>
 5   0  0.5642466E-05  0.2448009E+04  0.7818609E-02  0.8421745E-01
        1   -1    0    0  501    0  0.00000000000E+00  0.00000000000E+00  0.20678492875E+04  0.20678492875E+04  0.50400001928E-02 0.  1.
       -1   -1    0    0    0  501  0.00000000000E+00  0.00000000000E+00 -0.72451475916E+03  0.72451475918E+03  0.50400001928E-02 0. -1.
    10030    2    1    2    0    0  0.00000000000E+00  0.00000000000E+00  0.13433345283E+04  0.27923640467E+04  0.24480092553E+04 0.  0.
        1    1    3    3  502    0  0.45740834386E+03  0.68893365531E+03 -0.35767694849E+03  0.90099099550E+03  0.50400001928E-02 0. -1.
       -1    1    3    3    0  502 -0.45740834386E+03 -0.68893365531E+03  0.17010114768E+04  0.18913730512E+04  0.50400001928E-02 0.  1.
</event>
<event>
 5   0  0.1257524E-04  0.2272732E+04  0.7818609E-02  0.8488751E-01
       -2   -1    0    0    0  501  0.00000000000E+00  0.00000000000E+00  0.14171126772E+04  0.14171126772E+04  0.25500000920E-02 0.  1.
        2   -1    0    0  501    0  0.00000000000E+00  0.00000000000E+00 -0.91123872675E+03  0.91123872675E+03  0.25500000920E-02 0. -1.
    10030    2    1    2    0    0  0.00000000000E+00  0.00000000000E+00  0.50587395040E+03  0.23283514039E+04  0.22727322338E+04 0.  0.
        3    1    3    3  502    0  0.24991829677E+03 -0.22216303988E+03  0.13655688686E+04  0.14059139079E+04  0.10100000352E+00 0.  1.
       -3    1    3    3    0  502 -0.24991829677E+03  0.22216303988E+03 -0.85969491823E+03  0.92243749598E+03  0.10100000352E+00 0. -1.
</event>
<event>
 5   0  0.5843670E-05  0.2408638E+04  0.7818609E-02  0.8436277E-01
        1   -1    0    0  501    0  0.00000000000E+00  0.00000000000E+00  0.11234206123E+04  0.11234206123E+04  0.50400001928E-02 0. -1.
       -1   -1    0    0    0  501  0.00000000000E+00  0.00000000000E+00 -0.12910425548E+04  0.12910425548E+04  0.50400001928E-02 0.  1.
    10030    2    1    2    0    0  0.00000000000E+00  0.00000000000E+00 -0.16762194252E+03  0.24144631672E+04  0.24086376378E+04 0.  0.
        2    1    3    3  502    0  0.22603822318E+03 -0.56243581727E+03 -0.11269798460E+04  0.12796526482E+04  0.25500000920E-02 0.  1.
       -2    1    3    3    0  502 -0.22603822318E+03  0.56243581727E+03  0.95935790347E+03  0.11348105189E+04  0.25500000920E-02 0. -1.
</event>
<event>
 5   0  0.5843670E-05  0.2236802E+04  0.7818609E-02  0.8503265E-01
       -1   -1    0    0    0  501  0.00000000000E+00  0.00000000000E+00  0.20472975388E+04  0.20472975388E+04  0.50400001928E-02 0. -1.
        1   -1    0    0  501    0  0.00000000000E+00  0.00000000000E+00 -0.61096185260E+03  0.61096185262E+03  0.50400001928E-02 0.  1.
    10030    2    1    2    0    0  0.00000000000E+00  0.00000000000E+00  0.14363356862E+04  0.26582593915E+04  0.22368019109E+04 0.  0.
        2    1    3    3  502    0 -0.20093089382E+03  0.48601996534E+03 -0.45484033996E+03  0.69531889494E+03  0.25500000920E-02 0.  1.
       -2    1    3    3    0  502  0.20093089382E+03 -0.48601996534E+03  0.18911760262E+04  0.19629404965E+04  0.25500000920E-02 0. -1.
</event>
<event>
 5   0  0.1234988E-04  0.2292131E+04  0.7818609E-02  0.8481030E-01
        2   -1    0    0  501    0  0.00000000000E+00  0.00000000000E+00  0.11634124109E+04  0.11634124109E+04  0.25500000920E-02 0.  1.
       -2   -1    0    0    0  501  0.00000000000E+00  0.00000000000E+00 -0.11289767981E+04  0.11289767981E+04  0.25500000920E-02 0. -1.
    10030    2    1    2    0    0  0.00000000000E+00  0.00000000000E+00  0.34435612769E+02  0.22923892090E+04  0.22921305535E+04 0.  0.
        5    1    3    3  502    0 -0.16962353739E+02 -0.92275463140E+03 -0.66232902771E+03  0.11359866470E+04  0.46999998093E+01 0. -1.
       -5    1    3    3    0  502  0.16962353739E+02  0.92275463140E+03  0.69676464048E+03  0.11564025620E+04  0.46999998093E+01 0.  1.
</event>
<event>
 5   0  0.1281432E-04  0.2284341E+04  0.7818609E-02  0.8484121E-01
       -2   -1    0    0    0  501  0.00000000000E+00  0.00000000000E+00  0.16612354338E+04  0.16612354338E+04  0.25500000920E-02 0.  1.
        2   -1    0    0  501    0  0.00000000000E+00  0.00000000000E+00 -0.78529088866E+03  0.78529088867E+03  0.25500000920E-02 0. -1.
    10030    2    1    2    0    0  0.00000000000E+00  0.00000000000E+00  0.87594454516E+03  0.24465263225E+04  0.22843406489E+04 0.  0.
        4    1    3    3  502    0  0.12209289149E+03 -0.32239263315E+03  0.16041852091E+04  0.16408093985E+04  0.12699999809E+01 0.  1.
       -4    1    3    3    0  502 -0.12209289149E+03  0.32239263315E+03 -0.72824066398E+03  0.80571692400E+03  0.12699999809E+01 0. -1.
</event>
<event>
 5   0  0.5843670E-05  0.2008057E+04  0.7818609E-02  0.8602863E-01
        1   -1    0    0  501    0  0.00000000000E+00  0.00000000000E+00  0.19270822624E+04  0.19270822624E+04  0.50400001928E-02 0. -1.
       -1   -1    0    0    0  501  0.00000000000E+00  0.00000000000E+00 -0.52310862550E+03  0.52310862552E+03  0.50400001928E-02 0.  1.
    10030    2    1    2    0    0  0.00000000000E+00  0.00000000000E+00  0.14039736369E+04  0.24501908879E+04  0.20080571242E+04 0.  0.
        2    1    3    3  502    0 -0.33826156078E+03  0.34795344033E+03 -0.37050955735E+03  0.61054877957E+03  0.25500000920E-02 0.  1.
       -2    1    3    3    0  502  0.33826156078E+03 -0.34795344033E+03  0.17744831942E+04  0.18396421083E+04  0.25500000920E-02 0. -1.
</event>
<event>
 5   0  0.5642466E-05  0.2488533E+04  0.7818609E-02  0.8407082E-01
       -1   -1    0    0    0  501  0.00000000000E+00  0.00000000000E+00  0.11112159912E+04  0.11112159912E+04  0.50400001928E-02 0. -1.
        1   -1    0    0  501    0  0.00000000000E+00  0.00000000000E+00 -0.13932482503E+04  0.13932482503E+04  0.50400001928E-02 0.  1.
    10030    2    1    2    0    0  0.00000000000E+00  0.00000000000E+00 -0.28203225909E+03  0.25044642415E+04  0.24885334922E+04 0.  0.
        1    1    3    3  502    0 -0.11336646206E+04 -0.92832568806E+02  0.36657996357E+03  0.11950708044E+04  0.50400001928E-02 0. -1.
       -1    1    3    3    0  502  0.11336646206E+04  0.92832568806E+02 -0.64861222266E+03  0.13093934371E+04  0.50400001928E-02 0.  1.
</event>
<event>
 5   0  0.5663790E-05  0.2248727E+04  0.7818609E-02  0.8498416E-01
       -1   -1    0    0    0  501  0.00000000000E+00  0.00000000000E+00  0.72290927531E+03  0.72290927533E+03  0.50400001928E-02 0. -1.
        1   -1    0    0  501    0  0.00000000000E+00  0.00000000000E+00 -0.17487582995E+04  0.17487582995E+04  0.50400001928E-02 0.  1.
    10030    2    1    2    0    0  0.00000000000E+00  0.00000000000E+00 -0.10258490242E+04  0.24716675748E+04  0.22487272800E+04 0.  0.
        3    1    3    3  502    0 -0.38396505473E+03  0.28058018094E+02  0.64820570343E+03  0.75391449104E+03  0.10100000352E+00 0. -1.
       -3    1    3    3    0  502  0.38396505473E+03 -0.28058018094E+02 -0.16740547276E+04  0.17177530838E+04  0.10100000352E+00 0.  1.
</event>
<event>
 5   0  0.1270613E-04  0.2285714E+04  0.7818609E-02  0.8483575E-01
       -2   -1    0    0    0  501  0.00000000000E+00  0.00000000000E+00  0.14162064472E+04  0.14162064472E+04  0.25500000920E-02 0. -1.
        2   -1    0    0  501    0  0.00000000000E+00  0.00000000000E+00 -0.92226791207E+03  0.92226791207E+03  0.25500000920E-02 0.  1.
    10030    2    1    2    0    0  0.00000000000E+00  0.00000000000E+00  0.49393853514E+03  0.23384743593E+04  0.22857136856E+04 0.  0.
        2    1    3    3  502    0 -0.82871554485E+03  0.46048177538E+03 -0.40596987334E+03  0.10313217043E+04  0.25500000920E-02 0.  1.
       -2    1    3    3    0  502  0.82871554485E+03 -0.46048177538E+03  0.89990840848E+03  0.13071526550E+04  0.25500000920E-02 0. -1.
</event>
<event>
 5   0  0.5642466E-05  0.1880097E+04  0.7818609E-02  0.8664827E-01
       -1   -1    0    0    0  501  0.00000000000E+00  0.00000000000E+00  0.63652616566E+03  0.63652616568E+03  0.50400001928E-02 0.  1.
        1   -1    0    0  501    0  0.00000000000E+00  0.00000000000E+00 -0.13883032856E+04  0.13883032856E+04  0.50400001928E-02 0. -1.
    10030    2    1    2    0    0  0.00000000000E+00  0.00000000000E+00 -0.75177711992E+03  0.20248294513E+04  0.18800971966E+04 0.  0.
        1    1    3    3  502    0  0.56106150529E+03  0.62823930322E+03  0.73635642326E+02  0.84551572586E+03  0.50400001928E-02 0.  1.
       -1    1    3    3    0  502 -0.56106150529E+03 -0.62823930322E+03 -0.82541276225E+03  0.11793137254E+04  0.50400001928E-02 0. -1.
</event>
<event>
 5   0  0.1234988E-04  0.2273518E+04  0.7818609E-02  0.8488436E-01
        2   -1    0    0  501    0  0.00000000000E+00  0.00000000000E+00  0.85375716058E+03  0.85375716058E+03  0.25500000920E-02 0. -1.
       -2   -1    0    0    0  501  0.00000000000E+00  0.00000000000E+00 -0.15135698674E+04  0.15135698674E+04  0.25500000920E-02 0.  1.
    10030    2    1    2    0    0  0.00000000000E+00  0.00000000000E+00 -0.65981270683E+03  0.23673270280E+04  0.22735180776E+04 0.  0.
        5    1    3    3  502    0  0.20051930883E+03 -0.25809953940E+03 -0.14635794667E+04  0.14996367263E+04  0.46999998093E+01 0.  1.
       -5    1    3    3    0  502 -0.20051930883E+03  0.25809953940E+03  0.80376675986E+03  0.86769030172E+03  0.46999998093E+01 0. -1.
</event>
<event>
 5   0  0.5642466E-05  0.2213945E+04  0.7818609E-02  0.8512646E-01
       -1   -1    0    0    0  501  0.00000000000E+00  0.00000000000E+00  0.10963609441E+04  0.10963609442E+04  0.50400001928E-02 0. -1.
        1   -1    0    0  501    0  0.00000000000E+00  0.00000000000E+00 -0.11176869014E+04  0.11176869014E+04  0.50400001928E-02 0.  1.
    10030    2    1    2    0    0  0.00000000000E+00  0.00000000000E+00 -0.21325957237E+02  0.22140478455E+04  0.22139451362E+04 0.  0.
        1    1    3    3  502    0  0.10210727837E+04 -0.42754095901E+03 -0.79489561219E+01  0.11069977810E+04  0.50400001928E-02 0. -1.
       -1    1    3    3    0  502 -0.10210727837E+04  0.42754095901E+03 -0.13377001115E+02  0.11070500645E+04  0.50400001928E-02 0.  1.
</event>
<event>
 5   0  0.1270613E-04  0.2309406E+04  0.7818609E-02  0.8474222E-01
       -2   -1    0    0    0  501  0.00000000000E+00  0.00000000000E+00  0.12237796409E+04  0.12237796409E+04  0.25500000920E-02 0. -1.
        2   -1    0    0  501    0  0.00000000000E+00  0.00000000000E+00 -0.10895251275E+04  0.10895251275E+04  0.25500000920E-02 0.  1.
    10030    2    1    2    0    0  0.00000000000E+00  0.00000000000E+00  0.13425451339E+03  0.23133047683E+04  0.23094056978E+04 0.  0.
        2    1    3    3  502    0 -0.74811109921E+03 -0.83013760385E+03 -0.22412129231E+03  0.11397495390E+04  0.25500000920E-02 0.  1.
       -2    1    3    3    0  502  0.74811109921E+03  0.83013760385E+03  0.35837580570E+03  0.11735552293E+04  0.25500000920E-02 0. -1.
</event>
<event>
 5   0  0.4489500E-05  0.2257671E+04  0.7818609E-02  0.8494800E-01
        3   -1    0    0  501    0  0.00000000000E+00  0.00000000000E+00  0.14531657079E+04  0.14531657114E+04  0.10100000352E+00 0.  1.
       -3   -1    0    0    0  501  0.00000000000E+00  0.00000000000E+00 -0.87689220760E+03  0.87689221342E+03  0.10100000352E+00 0. -1.
    10030    2    1    2    0    0  0.00000000000E+00  0.00000000000E+00  0.57627350031E+03  0.23300579248E+04  0.22576710978E+04 0.  0.
        4    1    3    3  502    0 -0.11568228491E+03  0.34017410322E+03 -0.81629913249E+03  0.89187818571E+03  0.12699999809E+01 0. -1.
       -4    1    3    3    0  502  0.11568228491E+03 -0.34017410322E+03  0.13925726328E+04  0.14381797391E+04  0.12699999809E+01 0.  1.
</event>
<event>
 5   0  0.1234988E-04  0.2285372E+04  0.7818609E-02  0.8483711E-01
        2   -1    0    0  501    0  0.00000000000E+00  0.00000000000E+00  0.50140979656E+03  0.50140979657E+03  0.25500000920E-02 0. -1.
       -2   -1    0    0    0  501  0.00000000000E+00  0.00000000000E+00 -0.26041201473E+04  0.26041201473E+04  0.25500000920E-02 0.  1.
    10030    2    1    2    0    0  0.00000000000E+00  0.00000000000E+00 -0.21027103508E+04  0.31055299439E+04  0.22853720514E+04 0.  0.
        5    1    3    3  502    0 -0.10007281259E+04 -0.55145642376E+03 -0.10348073569E+04  0.15415606784E+04  0.46999998093E+01 0.  1.
       -5    1    3    3    0  502  0.10007281259E+04  0.55145642376E+03 -0.10679029939E+04  0.15639692655E+04  0.46999998093E+01 0. -1.
</event>
<event>
 5   0  0.5642466E-05  0.2189804E+04  0.7818609E-02  0.8522684E-01
        1   -1    0    0  501    0  0.00000000000E+00  0.00000000000E+00  0.13919643816E+04  0.13919643816E+04  0.50400001928E-02 0.  1.
       -1   -1    0    0    0  501  0.00000000000E+00  0.00000000000E+00 -0.86123653613E+03  0.86123653614E+03  0.50400001928E-02 0. -1.
    10030    2    1    2    0    0  0.00000000000E+00  0.00000000000E+00  0.53072784548E+03  0.22532009178E+04  0.21898041761E+04 0.  0.
        1    1    3    3  502    0  0.89484824494E+03 -0.63081555144E+03  0.25367995940E+03  0.11238483720E+04  0.50400001928E-02 0. -1.
       -1    1    3    3    0  502 -0.89484824494E+03  0.63081555144E+03  0.27704788608E+03  0.11293525458E+04  0.50400001928E-02 0.  1.
</event>
<event>
 5   0  0.5843670E-05  0.2236680E+04  0.7818609E-02  0.8503315E-01
       -1   -1    0    0    0  501  0.00000000000E+00  0.00000000000E+00  0.81757709143E+03  0.81757709145E+03  0.50400001928E-02 0. -1.
        1   -1    0    0  501    0  0.00000000000E+00  0.00000000000E+00 -0.15297442698E+04  0.15297442698E+04  0.50400001928E-02 0.  1.
    10030    2    1    2    0    0  0.00000000000E+00  0.00000000000E+00 -0.71216717832E+03  0.23473213612E+04  0.22366795664E+04 0.  0.
        2    1    3    3  502    0 -0.35804318414E+02  0.33002735392E+03 -0.14768454766E+04  0.15136950040E+04  0.25500000920E-02 0.  1.
       -2    1    3    3    0  502  0.35804318414E+02 -0.33002735392E+03  0.76467829825E+03  0.83362635717E+03  0.25500000920E-02 0. -1.
</event>
<event>
 5   0  0.1257524E-04  0.2301085E+04  0.7818609E-02  0.8477494E-01
       -2   -1    0    0    0  501  0.00000000000E+00  0.00000000000E+00  0.10213700903E+04  0.10213700903E+04  0.25500000920E-02 0.  1.
        2   -1    0    0  501    0  0.00000000000E+00  0.00000000000E+00 -0.12960509229E+04  0.12960509229E+04  0.25500000920E-02 0. -1.
    10030    2    1    2    0    0  0.00000000000E+00  0.00000000000E+00 -0.27468083258E+03  0.23174210133E+04  0.23010846558E+04 0.  0.
        3    1    3    3  502    0 -0.18578534991E+03 -0.69139437811E+03  0.76972314775E+03  0.10511974680E+04  0.10100000352E+00 0.  1.
       -3    1    3    3    0  502  0.18578534991E+03  0.69139437811E+03 -0.10444039803E+04  0.12662235453E+04  0.10100000352E+00 0. -1.
</event>
<event>
 5   0  0.5663790E-05  0.2426072E+04  0.7818609E-02  0.8429807E-01
        1   -1    0    0  501    0  0.00000000000E+00  0.00000000000E+00  0.29176009955E+04  0.29176009955E+04  0.50400001928E-02 0. -1.
       -1   -1    0    0    0  501  0.00000000000E+00  0.00000000000E+00 -0.50433768659E+03  0.50433768662E+03  0.50400001928E-02 0.  1.
    10030    2    1    2    0    0  0.00000000000E+00  0.00000000000E+00  0.24132633089E+04  0.34219386821E+04  0.24260718345E+04 0.  0.
        3    1    3    3  502    0  0.81424124341E+03 -0.46665801634E+03  0.12257700211E+03  0.94645847153E+03  0.10100000352E+00 0.  1.
       -3    1    3    3    0  502 -0.81424124341E+03  0.46665801634E+03  0.22906863068E+04  0.24754802106E+04  0.10100000352E+00 0. -1.
</event>
<event>
 5   0  0.1237296E-04  0.2306321E+04  0.7818609E-02  0.8475433E-01
        2   -1    0    0  501    0  0.00000000000E+00  0.00000000000E+00  0.27070303664E+04  0.27070303664E+04  0.25500000920E-02 0.  1.
       -2   -1    0    0    0  501  0.00000000000E+00  0.00000000000E+00 -0.49123188489E+03  0.49123188489E+03  0.25500000920E-02 0. -1.
    10030    2    1    2    0    0  0.00000000000E+00  0.00000000000E+00  0.22157984815E+04  0.31982622513E+04  0.23063214254E+04 0.  0.
        1    1    3    3  502    0  0.10353893609E+04 -0.42084964339E+03  0.15016791472E+04  0.18719470645E+04  0.50400001928E-02 0.  1.
       -1    1    3    3    0  502 -0.10353893609E+04  0.42084964339E+03  0.71411933433E+03  0.13263151868E+04  0.50400001928E-02 0. -1.
</event>
<event>
 5   0  0.5642466E-05  0.2305259E+04  0.7818609E-02  0.8475850E-01
        1   -1    0    0  501    0  0.00000000000E+00  0.00000000000E+00  0.18791544158E+04  0.18791544158E+04  0.50400001928E-02 0. -1.
       -1   -1    0    0    0  501  0.00000000000E+00  0.00000000000E+00 -0.70699628264E+03  0.70699628266E+03  0.50400001928E-02 0.  1.
    10030    2    1    2    0    0  0.00000000000E+00  0.00000000000E+00  0.11721581331E+04  0.25861506984E+04  0.23052593663E+04 0.  0.
        1    1    3    3  502    0  0.73210297428E+03 -0.78286644787E+03  0.11051532894E+03  0.10775287830E+04  0.50400001928E-02 0.  1.
       -1    1    3    3    0  502 -0.73210297428E+03  0.78286644787E+03  0.10616428042E+04  0.15086219155E+04  0.50400001928E-02 0. -1.
</event>
<event>
 5   0  0.1270613E-04  0.2361235E+04  0.7818609E-02  0.8454161E-01
        2   -1    0    0  501    0  0.00000000000E+00  0.00000000000E+00  0.79107964339E+03  0.79107964340E+03  0.25500000920E-02 0.  1.
       -2   -1    0    0    0  501  0.00000000000E+00  0.00000000000E+00 -0.17619687575E+04  0.17619687575E+04  0.25500000920E-02 0. -1.
    10030    2    1    2    0    0  0.00000000000E+00  0.00000000000E+00 -0.97088911414E+03  0.25530484009E+04  0.23612349450E+04 0.  0.
        2    1    3    3  502    0 -0.78446776711E+03 -0.75580464663E+03  0.67573638634E+01  0.10893465947E+04  0.25500000920E-02 0.  1.
       -2    1    3    3    0  502  0.78446776711E+03  0.75580464663E+03 -0.97764647800E+03  0.14637018062E+04  0.25500000920E-02 0. -1.
</event>
<event>
 5   0  0.5663790E-05  0.2301552E+04  0.7818609E-02  0.8477310E-01
        1   -1    0    0  501    0  0.00000000000E+00  0.00000000000E+00  0.19276548432E+04  0.19276548432E+04  0.50400001928E-02 0. -1.
       -1   -1    0    0    0  501  0.00000000000E+00  0.00000000000E+00 -0.68699285026E+03  0.68699285028E+03  0.50400001928E-02 0.  1.
    10030    2    1    2    0    0  0.00000000000E+00  0.00000000000E+00  0.12406619929E+04  0.26146476935E+04  0.23015517331E+04 0.  0.
        3    1    3    3  502    0  0.89532912896E+03  0.48011089715E+03  0.62777133868E+01  0.10159528250E+04  0.10100000352E+00 0. -1.
       -3    1    3    3    0  502 -0.89532912896E+03 -0.48011089715E+03  0.12343842795E+04  0.15986948685E+04  0.10100000352E+00 0.  1.
</event>
<event>
 5   0  0.1281432E-04  0.2032300E+04  0.7818609E-02  0.8591666E-01
        2   -1    0    0  501    0  0.00000000000E+00  0.00000000000E+00  0.67216791388E+03  0.67216791389E+03  0.25500000920E-02 0. -1.
       -2   -1    0    0    0  501  0.00000000000E+00  0.00000000000E+00 -0.15361651681E+04  0.15361651681E+04  0.25500000920E-02 0.  1.
    10030    2    1    2    0    0  0.00000000000E+00  0.00000000000E+00 -0.86399725423E+03  0.22083330820E+04  0.20323001121E+04 0.  0.
        4    1    3    3  502    0 -0.79383565840E+03  0.14273182100E+03 -0.11036055779E+04  0.13669287874E+04  0.12699999809E+01 0.  1.
       -4    1    3    3    0  502  0.79383565840E+03 -0.14273182100E+03  0.23960832371E+03  0.84140429460E+03  0.12699999809E+01 0. -1.
</event>
<event>
 5   0  0.1237296E-04  0.2208677E+04  0.7818609E-02  0.8514825E-01
       -2   -1    0    0    0  501  0.00000000000E+00  0.00000000000E+00  0.11875266310E+04  0.11875266310E+04  0.25500000920E-02 0. -1.
        2   -1    0    0  501    0  0.00000000000E+00  0.00000000000E+00 -0.10269774641E+04  0.10269774641E+04  0.25500000920E-02 0.  1.
    10030    2    1    2    0    0  0.00000000000E+00  0.00000000000E+00  0.16054916694E+03  0.22145040951E+04  0.22086766065E+04 0.  0.
        1    1    3    3  502    0  0.99400881551E+02 -0.87453248839E+03  0.74902426922E+03  0.11557356810E+04  0.50400001928E-02 0. -1.
       -1    1    3    3    0  502 -0.99400881551E+02  0.87453248839E+03 -0.58847510228E+03  0.10587684140E+04  0.50400001928E-02 0.  1.
</event>
<event>
 5   0  0.5663790E-05  0.1214827E+04  0.7818609E-02  0.9099976E-01
       -1   -1    0    0    0  501  0.00000000000E+00  0.00000000000E+00  0.33980401813E+03  0.33980401817E+03  0.50400001928E-02 0. -1.
        1   -1    0    0  501    0  0.00000000000E+00  0.00000000000E+00 -0.10857766795E+04  0.10857766795E+04  0.50400001928E-02 0.  1.
    10030    2    1    2    0    0  0.00000000000E+00  0.00000000000E+00 -0.74597266132E+03  0.14255806976E+04  0.12148271951E+04 0.  0.
        3    1    3    3  502    0 -0.23882899600E+03 -0.28477827436E+03 -0.93676381665E+03  0.10078017728E+04  0.10100000352E+00 0.  1.
       -3    1    3    3    0  502  0.23882899600E+03  0.28477827436E+03  0.19079115533E+03  0.41777892483E+03  0.10100000352E+00 0. -1.
</event>
<event>
 5   0  0.5924654E-05  0.1451412E+04  0.7818609E-02  0.8917422E-01
        1   -1    0    0  501    0  0.00000000000E+00  0.00000000000E+00  0.14054384607E+04  0.14054384607E+04  0.50400001928E-02 0.  1.
       -1   -1    0    0    0  501  0.00000000000E+00  0.00000000000E+00 -0.37472212006E+03  0.37472212009E+03  0.50400001928E-02 0. -1.
    10030    2    1    2    0    0  0.00000000000E+00  0.00000000000E+00  0.10307163407E+04  0.17801605808E+04  0.14514115607E+04 0.  0.
        5    1    3    3  502    0  0.68088334369E+03 -0.91063734909E+02  0.22841922897E+03  0.72394210106E+03  0.46999998093E+01 0. -1.
       -5    1    3    3    0  502 -0.68088334369E+03  0.91063734909E+02  0.80229711169E+03  0.10562184797E+04  0.46999998093E+01 0.  1.
</event>
<event>
 5   0  0.5663790E-05  0.2262743E+04  0.7818609E-02  0.8492758E-01
        1   -1    0    0  501    0  0.00000000000E+00  0.00000000000E+00  0.13107636166E+04  0.13107636166E+04  0.50400001928E-02 0.  1.
       -1   -1    0    0    0  501  0.00000000000E+00  0.00000000000E+00 -0.97653091769E+03  0.97653091770E+03  0.50400001928E-02 0. -1.
    10030    2    1    2    0    0  0.00000000000E+00  0.00000000000E+00  0.33423269887E+03  0.22872945343E+04  0.22627427581E+04 0.  0.
        3    1    3    3  502    0  0.97682456227E+03  0.55423128365E+03  0.30513592402E+03  0.11638154852E+04  0.10100000352E+00 0.  1.
       -3    1    3    3    0  502 -0.97682456227E+03 -0.55423128365E+03  0.29096774850E+02  0.11234790491E+04  0.10100000352E+00 0. -1.
</event>
<event>
 5   0  0.5924654E-05  0.2259075E+04  0.7818609E-02  0.8494234E-01
        1   -1    0    0  501    0  0.00000000000E+00  0.00000000000E+00  0.15327790483E+04  0.15327790483E+04  0.50400001928E-02 0. -1.
       -1   -1    0    0    0  501  0.00000000000E+00  0.00000000000E+00 -0.83238025685E+03  0.83238025686E+03  0.50400001928E-02 0.  1.
    10030    2    1    2    0    0  0.00000000000E+00  0.00000000000E+00  0.70039879141E+03  0.23651593051E+04  0.22590750478E+04 0.  0.
        5    1    3    3  502    0 -0.87444413978E+03  0.57748996892E+03 -0.91123023687E+02  0.10518900671E+04  0.46999998093E+01 0. -1.
       -5    1    3    3    0  502  0.87444413978E+03 -0.57748996892E+03  0.79152181510E+03  0.13132692380E+04  0.46999998093E+01 0.  1.
</event>
<event>
 5   0  0.1270613E-04  0.2281283E+04  0.7818609E-02  0.8485338E-01
       -2   -1    0    0    0  501  0.00000000000E+00  0.00000000000E+00  0.20607821392E+04  0.20607821392E+04  0.25500000920E-02 0.  1.
        2   -1    0    0  501    0  0.00000000000E+00  0.00000000000E+00 -0.63134419751E+03  0.63134419751E+03  0.25500000920E-02 0. -1.
    10030    2    1    2    0    0  0.00000000000E+00  0.00000000000E+00  0.14294379417E+04  0.26921263367E+04  0.22812828373E+04 0.  0.
        2    1    3    3  502    0 -0.36416525567E+03 -0.10548100073E+04  0.43590122975E+03  0.11980193517E+04  0.25500000920E-02 0. -1.
       -2    1    3    3    0  502  0.36416525567E+03  0.10548100073E+04  0.99353671197E+03  0.14941069851E+04  0.25500000920E-02 0.  1.
</event>
<event>
 5   0  0.5663790E-05  0.2372898E+04  0.7818609E-02  0.8449720E-01
       -1   -1    0    0    0  501  0.00000000000E+00  0.00000000000E+00  0.79719955997E+03  0.79719955999E+03  0.50400001928E-02 0. -1.
        1   -1    0    0  501    0  0.00000000000E+00  0.00000000000E+00 -0.17657578811E+04  0.17657578811E+04  0.50400001928E-02 0.  1.
    10030    2    1    2    0    0  0.00000000000E+00  0.00000000000E+00 -0.96855832113E+03  0.25629574411E+04  0.23728981486E+04 0.  0.
        3    1    3    3  502    0  0.85106680643E+03 -0.82575958341E+03 -0.44289870138E+03  0.12658407753E+04  0.10100000352E+00 0. -1.
       -3    1    3    3    0  502 -0.85106680643E+03  0.82575958341E+03 -0.52565961975E+03  0.12971166658E+04  0.10100000352E+00 0.  1.
</event>
<event>
 5   0  0.1237296E-04  0.2317773E+04  0.7818609E-02  0.8470946E-01
       -2   -1    0    0    0  501  0.00000000000E+00  0.00000000000E+00  0.74933822994E+03  0.74933822994E+03  0.25500000920E-02 0.  1.
        2   -1    0    0  501    0  0.00000000000E+00  0.00000000000E+00 -0.17922719527E+04  0.17922719527E+04  0.25500000920E-02 0. -1.
    10030    2    1    2    0    0  0.00000000000E+00  0.00000000000E+00 -0.10429337227E+04  0.25416101826E+04  0.23177729765E+04 0.  0.
        1    1    3    3  502    0 -0.36312995456E+03 -0.20453917869E+03 -0.17072476539E+04  0.17573827675E+04  0.50400001928E-02 0. -1.
       -1    1    3    3    0  502  0.36312995456E+03  0.20453917869E+03  0.66431393117E+03  0.78422741516E+03  0.50400001928E-02 0.  1.
</event>
<event>
 5   0  0.1281432E-04  0.2315348E+04  0.7818609E-02  0.8471894E-01
       -2   -1    0    0    0  501  0.00000000000E+00  0.00000000000E+00  0.73282620581E+03  0.73282620581E+03  0.25500000920E-02 0. -1.
        2   -1    0    0  501    0  0.00000000000E+00  0.00000000000E+00 -0.18288228614E+04  0.18288228614E+04  0.25500000920E-02 0.  1.
    10030    2    1    2    0    0  0.00000000000E+00  0.00000000000E+00 -0.10959966556E+04  0.25616490672E+04  0.23153481972E+04 0.  0.
        4    1    3    3  502    0  0.34420712117E+03 -0.54372897023E+03 -0.16127036928E+04  0.17363566883E+04  0.12699999809E+01 0.  1.
       -4    1    3    3    0  502 -0.34420712117E+03  0.54372897023E+03  0.51670703727E+03  0.82529237885E+03  0.12699999809E+01 0. -1.
</event>
<event>
 5   0  0.5663790E-05  0.2275472E+04  0.7818609E-02  0.8487655E-01
        1   -1    0    0  501    0  0.00000000000E+00  0.00000000000E+00  0.12178408042E+04  0.12178408042E+04  0.50400001928E-02 0. -1.
       -1   -1    0    0    0  501  0.00000000000E+00  0.00000000000E+00 -0.10629000884E+04  0.10629000884E+04  0.50400001928E-02 0.  1.
    10030    2    1    2    0    0  0.00000000000E+00  0.00000000000E+00  0.15494071577E+03  0.22807408926E+04  0.22754719057E+04 0.  0.
        3    1    3    3  502    0 -0.92944122678E+02 -0.17903497007E+02  0.12138875614E+04  0.12175722431E+04  0.10100000352E+00 0. -1.
       -3    1    3    3    0  502  0.92944122678E+02  0.17903497007E+02 -0.10589468456E+04  0.10631686495E+04  0.10100000352E+00 0.  1.
</event>
<event>
 5   0  0.1257524E-04  0.2277469E+04  0.7818609E-02  0.8486858E-01
        2   -1    0    0  501    0  0.00000000000E+00  0.00000000000E+00  0.13270679259E+04  0.13270679259E+04  0.25500000920E-02 0. -1.
       -2   -1    0    0    0  501  0.00000000000E+00  0.00000000000E+00 -0.97712889770E+03  0.97712889770E+03  0.25500000920E-02 0.  1.
    10030    2    1    2    0    0  0.00000000000E+00  0.00000000000E+00  0.34993902823E+03  0.23041968236E+04  0.22774691389E+04 0.  0.
        3    1    3    3  502    0 -0.30253002386E+03 -0.91162043180E+03  0.79381788174E+03  0.12460830898E+04  0.10100000352E+00 0. -1.
       -3    1    3    3    0  502  0.30253002386E+03  0.91162043180E+03 -0.44387885351E+03  0.10581137339E+04  0.10100000352E+00 0.  1.
</event>
<event>
 5   0  0.1237296E-04  0.1831460E+04  0.7818609E-02  0.8689746E-01
        2   -1    0    0  501    0  0.00000000000E+00  0.00000000000E+00  0.10664480758E+04  0.10664480758E+04  0.25500000920E-02 0.  1.
       -2   -1    0    0    0  501  0.00000000000E+00  0.00000000000E+00 -0.78631232681E+03  0.78631232681E+03  0.25500000920E-02 0. -1.
    10030    2    1    2    0    0  0.00000000000E+00  0.00000000000E+00  0.28013574899E+03  0.18527604026E+04  0.18314598198E+04 0.  0.
        1    1    3    3  502    0 -0.96199332126E+02  0.79853543174E+03  0.58293571813E+03  0.99334143110E+03  0.50400001928E-02 0.  1.
       -1    1    3    3    0  502  0.96199332126E+02 -0.79853543174E+03 -0.30279996915E+03  0.85941897150E+03  0.50400001928E-02 0. -1.
</event>
<event>
 5   0  0.5843670E-05  0.1797904E+04  0.7818609E-02  0.8707415E-01
        1   -1    0    0  501    0  0.00000000000E+00  0.00000000000E+00  0.11124328620E+04  0.11124328620E+04  0.50400001928E-02 0.  1.
       -1   -1    0    0    0  501  0.00000000000E+00  0.00000000000E+00 -0.72643902205E+03  0.72643902207E+03  0.50400001928E-02 0. -1.
    10030    2    1    2    0    0  0.00000000000E+00  0.00000000000E+00  0.38599383995E+03  0.18388718841E+04  0.17979039356E+04 0.  0.
        2    1    3    3  502    0 -0.83488017045E+03 -0.30279690895E+02  0.53248329115E+03  0.99069683256E+03  0.25500000920E-02 0. -1.
       -2    1    3    3    0  502  0.83488017045E+03  0.30279690895E+02 -0.14648945121E+03  0.84817505151E+03  0.25500000920E-02 0.  1.
</event>
<event>
 5   0  0.5924654E-05  0.2265751E+04  0.7818609E-02  0.8491549E-01
        1   -1    0    0  501    0  0.00000000000E+00  0.00000000000E+00  0.13132460372E+04  0.13132460372E+04  0.50400001928E-02 0. -1.
       -1   -1    0    0    0  501  0.00000000000E+00  0.00000000000E+00 -0.97727831945E+03  0.97727831946E+03  0.50400001928E-02 0.  1.
    10030    2    1    2    0    0  0.00000000000E+00  0.00000000000E+00  0.33596771778E+03  0.22905243567E+04  0.22657509839E+04 0.  0.
        5    1    3    3  502    0 -0.17967669802E+03 -0.80211086664E+03 -0.62010325658E+03  0.10296677605E+04  0.46999998093E+01 0.  1.
       -5    1    3    3    0  502  0.17967669802E+03  0.80211086664E+03  0.95607097435E+03  0.12608565962E+04  0.46999998093E+01 0. -1.
</event>
<event>
 5   0  0.5642466E-05  0.2280878E+04  0.7818609E-02  0.8485499E-01
       -1   -1    0    0    0  501  0.00000000000E+00  0.00000000000E+00  0.79361254385E+03  0.79361254386E+03  0.50400001928E-02 0. -1.
        1   -1    0    0  501    0  0.00000000000E+00  0.00000000000E+00 -0.16388358647E+04  0.16388358647E+04  0.50400001928E-02 0.  1.
    10030    2    1    2    0    0  0.00000000000E+00  0.00000000000E+00 -0.84522332089E+03  0.24324484086E+04  0.22808776377E+04 0.  0.
        1    1    3    3  502    0 -0.19329399452E+03 -0.63454641442E+03  0.56671460805E+03  0.87245467927E+03  0.50400001928E-02 0. -1.
       -1    1    3    3    0  502  0.19329399452E+03  0.63454641442E+03 -0.14119379289E+04  0.15599937293E+04  0.50400001928E-02 0.  1.
</event>
<event>
 5   0  0.1234988E-04  0.1347882E+04  0.7818609E-02  0.8992433E-01
       -2   -1    0    0    0  501  0.00000000000E+00  0.00000000000E+00  0.48983342692E+03  0.48983342692E+03  0.25500000920E-02 0. -1.
        2   -1    0    0  501    0  0.00000000000E+00  0.00000000000E+00 -0.92724620039E+03  0.92724620039E+03  0.25500000920E-02 0.  1.
    10030    2    1    2    0    0  0.00000000000E+00  0.00000000000E+00 -0.43741277347E+03  0.14170796273E+04  0.13478815733E+04 0.  0.
        5    1    3    3  502    0 -0.52644646692E+03  0.34752422425E+03  0.30651762070E+02  0.63156994030E+03  0.46999998093E+01 0. -1.
       -5    1    3    3    0  502  0.52644646692E+03 -0.34752422425E+03 -0.46806453554E+03  0.78550968702E+03  0.46999998093E+01 0.  1.
</event>
<event>
 5   0  0.1257524E-04  0.2238469E+04  0.7818609E-02  0.8502585E-01
        2   -1    0    0  501    0  0.00000000000E+00  0.00000000000E+00  0.14334862401E+04  0.14334862401E+04  0.25500000920E-02 0.  1.
       -2   -1    0    0    0  501  0.00000000000E+00  0.00000000000E+00 -0.87387337732E+03  0.87387337732E+03  0.25500000920E-02 0. -1.
    10030    2    1    2    0    0  0.00000000000E+00  0.00000000000E+00  0.55961286281E+03  0.23073596175E+04  0.22384686391E+04 0.  0.
        3    1    3    3  502    0  0.64727900541E+03  0.89215023660E+03  0.48016789487E+03  0.12022742503E+04  0.10100000352E+00 0. -1.
       -3    1    3    3    0  502 -0.64727900541E+03 -0.89215023660E+03  0.79444967937E+02  0.11050853671E+04  0.10100000352E+00 0.  1.
</event>
<event>
 5   0  0.1281432E-04  0.2303012E+04  0.7818609E-02  0.8476734E-01
        2   -1    0    0  501    0  0.00000000000E+00  0.00000000000E+00  0.19241433087E+04  0.19241433087E+04  0.25500000920E-02 0.  1.
       -2   -1    0    0    0  501  0.00000000000E+00  0.00000000000E+00 -0.68912023081E+03  0.68912023081E+03  0.25500000920E-02 0. -1.
    10030    2    1    2    0    0  0.00000000000E+00  0.00000000000E+00  0.12350230779E+04  0.26132635395E+04  0.23030120113E+04 0.  0.
        4    1    3    3  502    0  0.46791368751E+03  0.10519621227E+04  0.59490415251E+03  0.12959475645E+04  0.12699999809E+01 0.  1.
       -4    1    3    3    0  502 -0.46791368751E+03 -0.10519621227E+04  0.64011892542E+03  0.13173159750E+04  0.12699999809E+01 0. -1.
</event>
<event>
 5   0  0.1257524E-04  0.2262807E+04  0.7818609E-02  0.8492732E-01
        2   -1    0    0  501    0  0.00000000000E+00  0.00000000000E+00  0.29224502163E+04  0.29224502163E+04  0.25500000920E-02 0. -1.
       -2   -1    0    0    0  501  0.00000000000E+00  0.00000000000E+00 -0.43801396214E+03  0.43801396214E+03  0.25500000920E-02 0.  1.
    10030    2    1    2    0    0  0.00000000000E+00  0.00000000000E+00  0.24844362542E+04  0.33604641785E+04  0.22628071048E+04 0.  0.
        3    1    3    3  502    0 -0.10377552420E+04  0.15060300970E+03  0.18730858929E+04  0.21466410928E+04  0.10100000352E+00 0. -1.
       -3    1    3    3    0  502  0.10377552420E+04 -0.15060300970E+03  0.61135036129E+03  0.12138230857E+04  0.10100000352E+00 0.  1.
</event>
<event>
 5   0  0.5924654E-05  0.2280736E+04  0.7818609E-02  0.8485555E-01
        1   -1    0    0  501    0  0.00000000000E+00  0.00000000000E+00  0.80556249088E+03  0.80556249090E+03  0.50400001928E-02 0.  1.
       -1   -1    0    0    0  501  0.00000000000E+00  0.00000000000E+00 -0.16143248923E+04  0.16143248923E+04  0.50400001928E-02 0. -1.
    10030    2    1    2    0    0  0.00000000000E+00  0.00000000000E+00 -0.80876240145E+03  0.24198873832E+04  0.22807363560E+04 0.  0.
        5    1    3    3  502    0 -0.10178548938E+04  0.13999592354E+03  0.12056760075E+03  0.10344979844E+04  0.46999998093E+01 0. -1.
       -5    1    3    3    0  502  0.10178548938E+04 -0.13999592354E+03 -0.92933000220E+03  0.13853893988E+04  0.46999998093E+01 0.  1.
</event>
<event>
 5   0  0.5632156E-05  0.2280721E+04  0.7818609E-02  0.8485562E-01
       -1   -1    0    0    0  501  0.00000000000E+00  0.00000000000E+00  0.84010998009E+03  0.84010998011E+03  0.50400001928E-02 0.  1.
        1   -1    0    0  501    0  0.00000000000E+00  0.00000000000E+00 -0.15479185026E+04  0.15479185026E+04  0.50400001928E-02 0. -1.
    10030    2    1    2    0    0  0.00000000000E+00  0.00000000000E+00 -0.70780852247E+03  0.23880284827E+04  0.22807207478E+04 0.  0.
        4    1    3    3  502    0  0.40856147353E+02  0.95140741457E+03  0.30296822718E+03  0.99931809393E+03  0.12699999809E+01 0. -1.
       -4    1    3    3    0  502 -0.40856147353E+02 -0.95140741457E+03 -0.10107767497E+04  0.13887103887E+04  0.12699999809E+01 0.  1.
</event>
<event>
 5   0  0.5924654E-05  0.2261053E+04  0.7818609E-02  0.8493437E-01
       -1   -1    0    0    0  501  0.00000000000E+00  0.00000000000E+00  0.10363250088E+04  0.10363250088E+04  0.50400001928E-02 0. -1.
        1   -1    0    0  501    0  0.00000000000E+00  0.00000000000E+00 -0.12332911733E+04  0.12332911734E+04  0.50400001928E-02 0.  1.
    10030    2    1    2    0    0  0.00000000000E+00  0.00000000000E+00 -0.19696616452E+03  0.22696161822E+04  0.22610532821E+04 0.  0.
        5    1    3    3  502    0  0.13344875150E+03  0.88920185662E+03  0.58937107304E+03  0.10751134186E+04  0.46999998093E+01 0. -1.
       -5    1    3    3    0  502 -0.13344875150E+03 -0.88920185662E+03 -0.78633723756E+03  0.11945027636E+04  0.46999998093E+01 0.  1.
</event>
<event>
 5   0  0.5632156E-05  0.2135426E+04  0.7818609E-02  0.8545797E-01
       -1   -1    0    0    0  501  0.00000000000E+00  0.00000000000E+00  0.79342844119E+03  0.79342844120E+03  0.50400001928E-02 0. -1.
        1   -1    0    0  501    0  0.00000000000E+00  0.00000000000E+00 -0.14368161680E+04  0.14368161680E+04  0.50400001928E-02 0.  1.
    10030    2    1    2    0    0  0.00000000000E+00  0.00000000000E+00 -0.64338772678E+03  0.22302446092E+04  0.21354257772E+04 0.  0.
        4    1    3    3  502    0 -0.48448495864E+03 -0.92741579264E+03 -0.99691387867E+02  0.10510783574E+04  0.12699999809E+01 0. -1.
       -4    1    3    3    0  502  0.48448495864E+03  0.92741579264E+03 -0.54369633892E+03  0.11791662518E+04  0.12699999809E+01 0.  1.
</event>
<event>
 5   0  0.1257524E-04  0.2312729E+04  0.7818609E-02  0.8472919E-01
       -2   -1    0    0    0  501  0.00000000000E+00  0.00000000000E+00  0.75051379667E+03  0.75051379667E+03  0.25500000920E-02 0. -1.
        2   -1    0    0  501    0  0.00000000000E+00  0.00000000000E+00 -0.17816852943E+04  0.17816852944E+04  0.25500000920E-02 0.  1.
    10030    2    1    2    0    0  0.00000000000E+00  0.00000000000E+00 -0.10311714977E+04  0.25321990910E+04  0.23127294651E+04 0.  0.
        3    1    3    3  502    0 -0.86438408972E+03 -0.76024853848E+03 -0.63573380006E+03  0.13150266802E+04  0.10100000352E+00 0.  1.
       -3    1    3    3    0  502  0.86438408972E+03  0.76024853848E+03 -0.39543769762E+03  0.12171724108E+04  0.10100000352E+00 0. -1.
</event>
<event>
 5   0  0.5663790E-05  0.2331162E+04  0.7818609E-02  0.8465735E-01
        1   -1    0    0  501    0  0.00000000000E+00  0.00000000000E+00  0.85420877711E+03  0.85420877713E+03  0.50400001928E-02 0. -1.
       -1   -1    0    0    0  501  0.00000000000E+00  0.00000000000E+00 -0.15904527455E+04  0.15904527455E+04  0.50400001928E-02 0.  1.
    10030    2    1    2    0    0  0.00000000000E+00  0.00000000000E+00 -0.73624396837E+03  0.24446615226E+04  0.23311616802E+04 0.  0.
        3    1    3    3  502    0 -0.73974254236E+02  0.41707554047E+03 -0.15068806520E+04  0.15652838421E+04  0.10100000352E+00 0.  1.
       -3    1    3    3    0  502  0.73974254236E+02 -0.41707554047E+03  0.77063668360E+03  0.87937768055E+03  0.10100000352E+00 0. -1.
</event>
<event>
 5   0  0.1234988E-04  0.2337686E+04  0.7818609E-02  0.8463209E-01
        2   -1    0    0  501    0  0.00000000000E+00  0.00000000000E+00  0.20844455574E+04  0.20844455574E+04  0.25500000920E-02 0. -1.
       -2   -1    0    0    0  501  0.00000000000E+00  0.00000000000E+00 -0.65542303625E+03  0.65542303626E+03  0.25500000920E-02 0.  1.
    10030    2    1    2    0    0  0.00000000000E+00  0.00000000000E+00  0.14290225211E+04  0.27398685937E+04  0.23376857241E+04 0.  0.
        5    1    3    3  502    0  0.69538741934E+03  0.88099057928E+03  0.33208831402E+03  0.11704754598E+04  0.46999998093E+01 0. -1.
       -5    1    3    3    0  502 -0.69538741934E+03 -0.88099057928E+03  0.10969342071E+04  0.15693931338E+04  0.46999998093E+01 0.  1.
</event>
<event>
 5   0  0.1257524E-04  0.2306873E+04  0.7818609E-02  0.8475216E-01
       -2   -1    0    0    0  501  0.00000000000E+00  0.00000000000E+00  0.69641154609E+03  0.69641154609E+03  0.25500000920E-02 0.  1.
        2   -1    0    0  501    0  0.00000000000E+00  0.00000000000E+00 -0.19103874439E+04  0.19103874439E+04  0.25500000920E-02 0. -1.
    10030    2    1    2    0    0  0.00000000000E+00  0.00000000000E+00 -0.12139758979E+04  0.26067989900E+04  0.23068730988E+04 0.  0.
        3    1    3    3  502    0 -0.11039136146E+04  0.32841002865E+03 -0.53608060065E+03  0.12703782256E+04  0.10100000352E+00 0.  1.
       -3    1    3    3    0  502  0.11039136146E+04 -0.32841002865E+03 -0.67789529720E+03  0.13364207644E+04  0.10100000352E+00 0. -1.
</event>
<event>
 5   0  0.5663790E-05  0.1767680E+04  0.7818609E-02  0.8723678E-01
        1   -1    0    0  501    0  0.00000000000E+00  0.00000000000E+00  0.81578182217E+03  0.81578182219E+03  0.50400001928E-02 0. -1.
       -1   -1    0    0    0  501  0.00000000000E+00  0.00000000000E+00 -0.95757645261E+03  0.95757645262E+03  0.50400001928E-02 0.  1.
    10030    2    1    2    0    0  0.00000000000E+00  0.00000000000E+00 -0.14179463044E+03  0.17733582748E+04  0.17676803596E+04 0.  0.
        3    1    3    3  502    0 -0.67415161428E+03  0.24592637839E+03  0.44671857440E+03  0.84529147490E+03  0.10100000352E+00 0. -1.
       -3    1    3    3    0  502  0.67415161428E+03 -0.24592637839E+03 -0.58851320484E+03  0.92806679991E+03  0.10100000352E+00 0.  1.
</event>
<event>
 5   0  0.1281432E-04  0.2244748E+04  0.7818609E-02  0.8500030E-01
        2   -1    0    0  501    0  0.00000000000E+00  0.00000000000E+00  0.18212667754E+04  0.18212667754E+04  0.25500000920E-02 0.  1.
       -2   -1    0    0    0  501  0.00000000000E+00  0.00000000000E+00 -0.69167441595E+03  0.69167441595E+03  0.25500000920E-02 0. -1.
    10030    2    1    2    0    0  0.00000000000E+00  0.00000000000E+00  0.11295923595E+04  0.25129411914E+04  0.22447482114E+04 0.  0.
        4    1    3    3  502    0 -0.27112565531E+02  0.26052700923E+03  0.17865708063E+04  0.18056705881E+04  0.12699999809E+01 0.  1.
       -4    1    3    3    0  502  0.27112565531E+02 -0.26052700923E+03 -0.65697844686E+03  0.70727060329E+03  0.12699999809E+01 0. -1.
</event>
<event>
 5   0  0.1234988E-04  0.2297792E+04  0.7818609E-02  0.8478792E-01
       -2   -1    0    0    0  501  0.00000000000E+00  0.00000000000E+00  0.15112378536E+04  0.15112378536E+04  0.25500000920E-02 0. -1.
        2   -1    0    0  501    0  0.00000000000E+00  0.00000000000E+00 -0.87343084941E+03  0.87343084941E+03  0.25500000920E-02 0.  1.
    10030    2    1    2    0    0  0.00000000000E+00  0.00000000000E+00  0.63780700420E+03  0.23846687030E+04  0.22977917766E+04 0.  0.
        5    1    3    3  502    0  0.66357237311E+03 -0.37330947714E+03 -0.57400509276E+03  0.95351570338E+03  0.46999998093E+01 0.  1.
       -5    1    3    3    0  502 -0.66357237311E+03  0.37330947714E+03  0.12118120970E+04  0.14311529997E+04  0.46999998093E+01 0. -1.
</event>
<event>
 5   0  0.5843670E-05  0.2267313E+04  0.7818609E-02  0.8490922E-01
        1   -1    0    0  501    0  0.00000000000E+00  0.00000000000E+00  0.15663388293E+04  0.15663388293E+04  0.50400001928E-02 0. -1.
       -1   -1    0    0    0  501  0.00000000000E+00  0.00000000000E+00 -0.82049712546E+03  0.82049712547E+03  0.50400001928E-02 0.  1.
    10030    2    1    2    0    0  0.00000000000E+00  0.00000000000E+00  0.74584170381E+03  0.23868359547E+04  0.22673125121E+04 0.  0.
        2    1    3    3  502    0 -0.17002105438E+03  0.94943230916E+03  0.10000141310E+04  0.13893729272E+04  0.25500000920E-02 0. -1.
       -2    1    3    3    0  502  0.17002105438E+03 -0.94943230916E+03 -0.25417242718E+03  0.99746302756E+03  0.25500000920E-02 0.  1.
</event>
<event>
 5   0  0.5632156E-05  0.2343612E+04  0.7818609E-02  0.8460921E-01
       -1   -1    0    0    0  501  0.00000000000E+00  0.00000000000E+00  0.92666925356E+03  0.92666925357E+03  0.50400001928E-02 0.  1.
        1   -1    0    0  501    0  0.00000000000E+00  0.00000000000E+00 -0.14817903744E+04  0.14817903744E+04  0.50400001928E-02 0. -1.
    10030    2    1    2    0    0  0.00000000000E+00  0.00000000000E+00 -0.55512112080E+03  0.24084596279E+04  0.23436122377E+04 0.  0.
        4    1    3    3  502    0  0.27494373497E+03 -0.53635469452E+03 -0.13102831395E+04  0.14422600093E+04  0.12699999809E+01 0. -1.
       -4    1    3    3    0  502 -0.27494373497E+03  0.53635469452E+03  0.75516201871E+03  0.96619961868E+03  0.12699999809E+01 0.  1.
</event>
<event>
 5   0  0.5663790E-05  0.2374841E+04  0.7818609E-02  0.8448983E-01
        1   -1    0    0  501    0  0.00000000000E+00  0.00000000000E+00  0.24238906593E+04  0.24238906594E+04  0.50400001928E-02 0. -1.
       -1   -1    0    0    0  501  0.00000000000E+00  0.00000000000E+00 -0.58169585482E+03  0.58169585484E+03  0.50400001928E-02 0.  1.
    10030    2    1    2    0    0  0.00000000000E+00  0.00000000000E+00  0.18421948045E+04  0.30055865142E+04  0.23748407518E+04 0.  0.
        3    1    3    3  502    0  0.54330484668E+03  0.78967606311E+02  0.22536139140E+04  0.23195240294E+04  0.10100000352E+00 0. -1.
       -3    1    3    3    0  502 -0.54330484668E+03 -0.78967606311E+02 -0.41141910946E+03  0.68606248483E+03  0.10100000352E+00 0.  1.
</event>
<event>
 5   0  0.5924654E-05  0.2329654E+04  0.7818609E-02  0.8466320E-01
        1   -1    0    0  501    0  0.00000000000E+00  0.00000000000E+00  0.12102485942E+04  0.12102485942E+04  0.50400001928E-02 0. -1.
       -1   -1    0    0    0  501  0.00000000000E+00  0.00000000000E+00 -0.11211105859E+04  0.11211105859E+04  0.50400001928E-02 0.  1.
    10030    2    1    2    0    0  0.00000000000E+00  0.00000000000E+00  0.89138008291E+02  0.23313591800E+04  0.23296544898E+04 0.  0.
        5    1    3    3  502    0  0.11208817396E+04  0.19422383421E+03 -0.20601719674E+03  0.11560985889E+04  0.46999998093E+01 0.  1.
       -5    1    3    3    0  502 -0.11208817396E+04 -0.19422383421E+03  0.29515520503E+03  0.11752605911E+04  0.46999998093E+01 0. -1.
</event>
<event>
 5   0  0.1237296E-04  0.2273518E+04  0.7818609E-02  0.8488436E-01
       -2   -1    0    0    0  501  0.00000000000E+00  0.00000000000E+00  0.10236464786E+04  0.10236464786E+04  0.25500000920E-02 0. -1.
        2   -1    0    0  501    0  0.00000000000E+00  0.00000000000E+00 -0.12623704386E+04  0.12623704386E+04  0.25500000920E-02 0.  1.
    10030    2    1    2    0    0  0.00000000000E+00  0.00000000000E+00 -0.23872396000E+03  0.22860169173E+04  0.22735180266E+04 0.  0.
        1    1    3    3  502    0  0.98510926470E+03 -0.11154084991E+03 -0.67860256094E+03  0.12014087815E+04  0.50400001928E-02 0. -1.
       -1    1    3    3    0  502 -0.98510926470E+03  0.11154084991E+03  0.43987860094E+03  0.10846081358E+04  0.50400001928E-02 0.  1.
</event>
<event>
 5   0  0.5642466E-05  0.2405336E+04  0.7818609E-02  0.8437509E-01
       -1   -1    0    0    0  501  0.00000000000E+00  0.00000000000E+00  0.85816409419E+03  0.85816409420E+03  0.50400001928E-02 0. -1.
        1   -1    0    0  501    0  0.00000000000E+00  0.00000000000E+00 -0.16854704852E+04  0.16854704852E+04  0.50400001928E-02 0.  1.
    10030    2    1    2    0    0  0.00000000000E+00  0.00000000000E+00 -0.82730639100E+03  0.25436345794E+04  0.24053359451E+04 0.  0.
        1    1    3    3  502    0  0.55218767719E+03  0.82153208867E+03  0.30869055975E+03  0.10368780378E+04  0.50400001928E-02 0. -1.
       -1    1    3    3    0  502 -0.55218767719E+03 -0.82153208867E+03 -0.11359969507E+04  0.15067565416E+04  0.50400001928E-02 0.  1.
</event>
<event>
 5   0  0.1237296E-04  0.1478206E+04  0.7818609E-02  0.8899076E-01
       -2   -1    0    0    0  501  0.00000000000E+00  0.00000000000E+00  0.44509731584E+03  0.44509731585E+03  0.25500000920E-02 0.  1.
        2   -1    0    0  501    0  0.00000000000E+00  0.00000000000E+00 -0.12273125895E+04  0.12273125895E+04  0.25500000920E-02 0. -1.
    10030    2    1    2    0    0  0.00000000000E+00  0.00000000000E+00 -0.78221527368E+03  0.16724099054E+04  0.14782063987E+04 0.  0.
        1    1    3    3  502    0  0.32775531635E+03 -0.25603110348E+03 -0.10823582399E+04  0.11595149127E+04  0.50400001928E-02 0. -1.
       -1    1    3    3    0  502 -0.32775531635E+03  0.25603110348E+03  0.30014296618E+03  0.51289499268E+03  0.50400001928E-02 0.  1.
</event>
<event>
 5   0  0.5663790E-05  0.2284275E+04  0.7818609E-02  0.8484147E-01
       -1   -1    0    0    0  501  0.00000000000E+00  0.00000000000E+00  0.87407451793E+03  0.87407451794E+03  0.50400001928E-02 0.  1.
        1   -1    0    0  501    0  0.00000000000E+00  0.00000000000E+00 -0.14924104491E+04  0.14924104491E+04  0.50400001928E-02 0. -1.
    10030    2    1    2    0    0  0.00000000000E+00  0.00000000000E+00 -0.61833593113E+03  0.23664849670E+04  0.22842748905E+04 0.  0.
        3    1    3    3  502    0  0.99550349918E+03 -0.39062162643E+02  0.26943463522E+03  0.10320601253E+04  0.10100000352E+00 0.  1.
       -3    1    3    3    0  502 -0.99550349918E+03  0.39062162643E+02 -0.88777056635E+03  0.13344248417E+04  0.10100000352E+00 0. -1.
</event>
<event>
 5   0  0.5843670E-05  0.1594639E+04  0.7818609E-02  0.8823848E-01
       -1   -1    0    0    0  501  0.00000000000E+00  0.00000000000E+00  0.71166232707E+03  0.71166232709E+03  0.50400001928E-02 0. -1.
        1   -1    0    0  501    0  0.00000000000E+00  0.00000000000E+00 -0.89328618596E+03  0.89328618597E+03  0.50400001928E-02 0.  1.
    10030    2    1    2    0    0  0.00000000000E+00  0.00000000000E+00 -0.18162385888E+03  0.16049485131E+04  0.15946386749E+04 0.  0.
        2    1    3    3  502    0  0.20721748089E+03 -0.38072071141E+02  0.68313932095E+03  0.71489013060E+03  0.25500000920E-02 0. -1.
       -2    1    3    3    0  502 -0.20721748089E+03  0.38072071141E+02 -0.86476317984E+03  0.89005838246E+03  0.25500000920E-02 0.  1.
</event>
<event>
 5   0  0.5924654E-05  0.2128038E+04  0.7818609E-02  0.8548992E-01
        1   -1    0    0  501    0  0.00000000000E+00  0.00000000000E+00  0.13090027032E+04  0.13090027032E+04  0.50400001928E-02 0. -1.
       -1   -1    0    0    0  501  0.00000000000E+00  0.00000000000E+00 -0.86488460139E+03  0.86488460140E+03  0.50400001928E-02 0.  1.
    10030    2    1    2    0    0  0.00000000000E+00  0.00000000000E+00  0.44411810180E+03  0.21738873046E+04  0.21280378579E+04 0.  0.
        5    1    3    3  502    0 -0.74482088171E+03  0.36126337470E+02 -0.55327368084E+03  0.92854569839E+03  0.46999998093E+01 0.  1.
       -5    1    3    3    0  502  0.74482088171E+03 -0.36126337470E+02  0.99739178263E+03  0.12453416062E+04  0.46999998093E+01 0. -1.
</event>
<event>
 5   0  0.1234988E-04  0.2240924E+04  0.7818609E-02  0.8501585E-01
        2   -1    0    0  501    0  0.00000000000E+00  0.00000000000E+00  0.15877433745E+04  0.15877433745E+04  0.25500000920E-02 0.  1.
       -2   -1    0    0    0  501  0.00000000000E+00  0.00000000000E+00 -0.79070394047E+03  0.79070394047E+03  0.25500000920E-02 0. -1.
    10030    2    1    2    0    0  0.00000000000E+00  0.00000000000E+00  0.79703943406E+03  0.23784473150E+04  0.22409238655E+04 0.  0.
        5    1    3    3  502    0 -0.53452204638E+03 -0.20796481472E+03 -0.62307196836E+03  0.84687894647E+03  0.46999998093E+01 0. -1.
       -5    1    3    3    0  502  0.53452204638E+03  0.20796481472E+03  0.14201114024E+04  0.15315683685E+04  0.46999998093E+01 0.  1.
</event>
<event>
 5   0  0.1234988E-04  0.2258194E+04  0.7818609E-02  0.8494589E-01
       -2   -1    0    0    0  501  0.00000000000E+00  0.00000000000E+00  0.11687034643E+04  0.11687034643E+04  0.25500000920E-02 0.  1.
        2   -1    0    0  501    0  0.00000000000E+00  0.00000000000E+00 -0.10908329878E+04  0.10908329878E+04  0.25500000920E-02 0. -1.
    10030    2    1    2    0    0  0.00000000000E+00  0.00000000000E+00  0.77870476480E+02  0.22595364521E+04  0.22581942271E+04 0.  0.
        5    1    3    3  502    0  0.94071679993E+03  0.12151764243E+03  0.65177259924E+03  0.11508884595E+04  0.46999998093E+01 0.  1.
       -5    1    3    3    0  502 -0.94071679993E+03 -0.12151764243E+03 -0.57390212276E+03  0.11086479926E+04  0.46999998093E+01 0. -1.
</event>
<event>
 5   0  0.1234988E-04  0.2316421E+04  0.7818609E-02  0.8471474E-01
        2   -1    0    0  501    0  0.00000000000E+00  0.00000000000E+00  0.10118228827E+04  0.10118228827E+04  0.25500000920E-02 0. -1.
       -2   -1    0    0    0  501  0.00000000000E+00  0.00000000000E+00 -0.13257773644E+04  0.13257773644E+04  0.25500000920E-02 0.  1.
    10030    2    1    2    0    0  0.00000000000E+00  0.00000000000E+00 -0.31395448169E+03  0.23376002470E+04  0.23164212696E+04 0.  0.
        5    1    3    3  502    0  0.83593294540E+03  0.27405605941E+03  0.60326259323E+03  0.10666951107E+04  0.46999998093E+01 0. -1.
       -5    1    3    3    0  502 -0.83593294540E+03 -0.27405605941E+03 -0.91721707492E+03  0.12709051363E+04  0.46999998093E+01 0.  1.
</event>
<event>
 5   0  0.5632156E-05  0.2109660E+04  0.7818609E-02  0.8557000E-01
        1   -1    0    0  501    0  0.00000000000E+00  0.00000000000E+00  0.16245971058E+04  0.16245971058E+04  0.50400001928E-02 0.  1.
       -1   -1    0    0    0  501  0.00000000000E+00  0.00000000000E+00 -0.68488761155E+03  0.68488761157E+03  0.50400001928E-02 0. -1.
    10030    2    1    2    0    0  0.00000000000E+00  0.00000000000E+00  0.93970949428E+03  0.23094847174E+04  0.21096600973E+04 0.  0.
        4    1    3    3  502    0 -0.48609973989E+03 -0.49733712997E+03  0.13380901069E+04  0.15080198689E+04  0.12699999809E+01 0.  1.
       -4    1    3    3    0  502  0.48609973989E+03  0.49733712997E+03 -0.39838061262E+03  0.80146484850E+03  0.12699999809E+01 0. -1.
</event>
<event>
 5   0  0.1270613E-04  0.2507266E+04  0.7818609E-02  0.8400401E-01
        2   -1    0    0  501    0  0.00000000000E+00  0.00000000000E+00  0.20756285765E+04  0.20756285765E+04  0.25500000920E-02 0.  1.
       -2   -1    0    0    0  501  0.00000000000E+00  0.00000000000E+00 -0.75716638191E+03  0.75716638192E+03  0.25500000920E-02 0. -1.
    10030    2    1    2    0    0  0.00000000000E+00  0.00000000000E+00  0.13184621945E+04  0.28327949584E+04  0.25072663835E+04 0.  0.
        2    1    3    3  502    0  0.11364602111E+04 -0.14272022591E+03  0.83475259088E+02  0.11484245701E+04  0.25500000920E-02 0. -1.
       -2    1    3    3    0  502 -0.11364602111E+04  0.14272022591E+03  0.12349869354E+04  0.16843703883E+04  0.25500000920E-02 0.  1.
</event>
<event>
 5   0  0.1257524E-04  0.2316920E+04  0.7818609E-02  0.8471279E-01
       -2   -1    0    0    0  501  0.00000000000E+00  0.00000000000E+00  0.11513765571E+04  0.11513765571E+04  0.25500000920E-02 0. -1.
        2   -1    0    0  501    0  0.00000000000E+00  0.00000000000E+00 -0.11655874551E+04  0.11655874551E+04  0.25500000920E-02 0.  1.
    10030    2    1    2    0    0  0.00000000000E+00  0.00000000000E+00 -0.14210898017E+02  0.23169640122E+04  0.23169204312E+04 0.  0.
        3    1    3    3  502    0  0.18803182976E+03  0.11236419584E+04 -0.21711616416E+03  0.11597700886E+04  0.10100000352E+00 0. -1.
       -3    1    3    3    0  502 -0.18803182976E+03 -0.11236419584E+04  0.20290526615E+03  0.11571939236E+04  0.10100000352E+00 0.  1.
</event>
<event>
 5   0  0.5642466E-05  0.2249822E+04  0.7818609E-02  0.8497973E-01
       -1   -1    0    0    0  501  0.00000000000E+00  0.00000000000E+00  0.89657071435E+03  0.89657071436E+03  0.50400001928E-02 0. -1.
        1   -1    0    0  501    0  0.00000000000E+00  0.00000000000E+00 -0.14114052263E+04  0.14114052263E+04  0.50400001928E-02 0.  1.
    10030    2    1    2    0    0  0.00000000000E+00  0.00000000000E+00 -0.51483451195E+03  0.23079759407E+04  0.22498218525E+04 0.  0.
        1    1    3    3  502    0  0.11172269321E+04 -0.37323225320E+01 -0.39201326058E+03  0.11840119698E+04  0.50400001928E-02 0.  1.
       -1    1    3    3    0  502 -0.11172269321E+04  0.37323225320E+01 -0.12282125137E+03  0.11239639709E+04  0.50400001928E-02 0. -1.
</event>
<event>
 5   0  0.1257524E-04  0.2327734E+04  0.7818609E-02  0.8467066E-01
        2   -1    0    0  501    0  0.00000000000E+00  0.00000000000E+00  0.17273899551E+04  0.17273899551E+04  0.25500000920E-02 0. -1.
       -2   -1    0    0    0  501  0.00000000000E+00  0.00000000000E+00 -0.78418097300E+03  0.78418097301E+03  0.25500000920E-02 0.  1.
    10030    2    1    2    0    0  0.00000000000E+00  0.00000000000E+00  0.94320898205E+03  0.25115709281E+04  0.23277339502E+04 0.  0.
        3    1    3    3  502    0 -0.41276014420E+03 -0.99606043005E+03 -0.12767207332E+01  0.10781970864E+04  0.10100000352E+00 0. -1.
       -3    1    3    3    0  502  0.41276014420E+03  0.99606043005E+03  0.94448570279E+03  0.14333738416E+04  0.10100000352E+00 0.  1.
</event>
<event>
 5   0  0.5632156E-05  0.1536181E+04  0.7818609E-02  0.8860743E-01
        1   -1    0    0  501    0  0.00000000000E+00  0.00000000000E+00  0.80250281388E+03  0.80250281389E+03  0.50400001928E-02 0.  1.
       -1   -1    0    0    0  501  0.00000000000E+00  0.00000000000E+00 -0.73515381606E+03  0.73515381608E+03  0.50400001928E-02 0. -1.
    10030    2    1    2    0    0  0.00000000000E+00  0.00000000000E+00  0.67348997818E+02  0.15376566300E+04  0.15361809868E+04 0.  0.
        4    1    3    3  502    0  0.18526741266E+03 -0.62872754306E+03  0.43448273776E+03  0.78638362134E+03  0.12699999809E+01 0. -1.
       -4    1    3    3    0  502 -0.18526741266E+03  0.62872754306E+03 -0.36713373994E+03  0.75127300863E+03  0.12699999809E+01 0.  1.
</event>
<event>
 5   0  0.1234988E-04  0.2290021E+04  0.7818609E-02  0.8481866E-01
        2   -1    0    0  501    0  0.00000000000E+00  0.00000000000E+00  0.10871803196E+04  0.10871803196E+04  0.25500000920E-02 0. -1.
       -2   -1    0    0    0  501  0.00000000000E+00  0.00000000000E+00 -0.12059167100E+04  0.12059167100E+04  0.25500000920E-02 0.  1.
    10030    2    1    2    0    0  0.00000000000E+00  0.00000000000E+00 -0.11873639046E+03  0.22930970296E+04  0.22900208857E+04 0.  0.
        5    1    3    3  502    0 -0.18980386591E+03 -0.56691084789E+03 -0.10372112662E+04  0.11971811549E+04  0.46999998093E+01 0.  1.
       -5    1    3    3    0  502  0.18980386591E+03  0.56691084789E+03  0.91847487575E+03  0.10959158747E+04  0.46999998093E+01 0. -1.
</event>
<event>
 5   0  0.5663790E-05  0.2195439E+04  0.7818609E-02  0.8520329E-01
       -1   -1    0    0    0  501  0.00000000000E+00  0.00000000000E+00  0.70350844869E+03  0.70350844870E+03  0.50400001928E-02 0.  1.
        1   -1    0    0  501    0  0.00000000000E+00  0.00000000000E+00 -0.17128273609E+04  0.17128273610E+04  0.50400001928E-02 0. -1.
    10030    2    1    2    0    0  0.00000000000E+00  0.00000000000E+00 -0.10093189123E+04  0.24163358097E+04  0.21954393816E+04 0.  0.
        3    1    3    3  502    0  0.36605909041E+03 -0.13949337444E+03  0.62395822359E+03  0.73673708619E+03  0.10100000352E+00 0.  1.
       -3    1    3    3    0  502 -0.36605909041E+03  0.13949337444E+03 -0.16332771359E+04  0.16795987235E+04  0.10100000352E+00 0. -1.
</event>
<event>
 5   0  0.1270613E-04  0.2229984E+04  0.7818609E-02  0.8506051E-01
       -2   -1    0    0    0  501  0.00000000000E+00  0.00000000000E+00  0.11710893845E+04  0.11710893845E+04  0.25500000920E-02 0. -1.
        2   -1    0    0  501    0  0.00000000000E+00  0.00000000000E+00 -0.10615816900E+04  0.10615816900E+04  0.25500000920E-02 0.  1.
    10030    2    1    2    0    0  0.00000000000E+00  0.00000000000E+00  0.10950769450E+03  0.22326710744E+04  0.22299838993E+04 0.  0.
        2    1    3    3  502    0  0.11501103759E+03  0.10827761531E+04 -0.18548385546E+03  0.11045523967E+04  0.25500000920E-02 0.  1.
       -2    1    3    3    0  502 -0.11501103759E+03 -0.10827761531E+04  0.29499154996E+03  0.11281186777E+04  0.25500000920E-02 0. -1.
</event>
<event>
 5   0  0.5924654E-05  0.2242107E+04  0.7818609E-02  0.8501104E-01
       -1   -1    0    0    0  501  0.00000000000E+00  0.00000000000E+00  0.20846259315E+04  0.20846259315E+04  0.50400001928E-02 0. -1.
        1   -1    0    0  501    0  0.00000000000E+00  0.00000000000E+00 -0.60287128377E+03  0.60287128379E+03  0.50400001928E-02 0.  1.
    10030    2    1    2    0    0  0.00000000000E+00  0.00000000000E+00  0.14817546478E+04  0.26874972153E+04  0.22421071442E+04 0.  0.
        5    1    3    3  502    0  0.31066452269E+03 -0.51365457467E+03 -0.39397430363E+03  0.71804687149E+03  0.46999998093E+01 0.  1.
       -5    1    3    3    0  502 -0.31066452269E+03  0.51365457467E+03  0.18757289514E+04  0.19694503438E+04  0.46999998093E+01 0. -1.
</event>
<event>
 5   0  0.5843670E-05  0.2287240E+04  0.7818609E-02  0.8482969E-01
       -1   -1    0    0    0  501  0.00000000000E+00  0.00000000000E+00  0.97148661242E+03  0.97148661244E+03  0.50400001928E-02 0.  1.
        1   -1    0    0  501    0  0.00000000000E+00  0.00000000000E+00 -0.13462533048E+04  0.13462533048E+04  0.50400001928E-02 0. -1.
    10030    2    1    2    0    0  0.00000000000E+00  0.00000000000E+00 -0.37476669233E+03  0.23177399172E+04  0.22872403131E+04 0.  0.
        2    1    3    3  502    0  0.28583145260E+03  0.56435227356E+03  0.77804009664E+03  0.10027659248E+04  0.25500000920E-02 0.  1.
       -2    1    3    3    0  502 -0.28583145260E+03 -0.56435227356E+03 -0.11528067890E+04  0.13149739924E+04  0.25500000920E-02 0. -1.
</event>
<event>
 5   0  0.5924654E-05  0.1758657E+04  0.7818609E-02  0.8728600E-01
        1   -1    0    0  501    0  0.00000000000E+00  0.00000000000E+00  0.19282555139E+04  0.19282555140E+04  0.50400001928E-02 0.  1.
       -1   -1    0    0    0  501  0.00000000000E+00  0.00000000000E+00 -0.40099362793E+03  0.40099362796E+03  0.50400001928E-02 0. -1.
    10030    2    1    2    0    0  0.00000000000E+00  0.00000000000E+00  0.15272618860E+04  0.23292491419E+04  0.17586565033E+04 0.  0.
        5    1    3    3  502    0 -0.77228948387E+03  0.87045545224E+02  0.21885259087E+03  0.80741966806E+03  0.46999998093E+01 0. -1.
       -5    1    3    3    0  502  0.77228948387E+03 -0.87045545224E+02  0.13084092951E+04  0.15218294738E+04  0.46999998093E+01 0.  1.
</event>
<event>
 5   0  0.1234988E-04  0.1219931E+04  0.7818609E-02  0.9095588E-01
       -2   -1    0    0    0  501  0.00000000000E+00  0.00000000000E+00  0.58060258760E+03  0.58060258761E+03  0.25500000920E-02 0.  1.
        2   -1    0    0  501    0  0.00000000000E+00  0.00000000000E+00 -0.64081286434E+03  0.64081286434E+03  0.25500000920E-02 0. -1.
    10030    2    1    2    0    0  0.00000000000E+00  0.00000000000E+00 -0.60210276735E+02  0.12214154520E+04  0.12199305016E+04 0.  0.
        5    1    3    3  502    0  0.49384672002E+03  0.31186713071E+03 -0.20607409489E+03  0.61938220242E+03  0.46999998093E+01 0. -1.
       -5    1    3    3    0  502 -0.49384672002E+03 -0.31186713071E+03  0.14586381816E+03  0.60203324953E+03  0.46999998093E+01 0.  1.
</event>
<event>
 5   0  0.5924654E-05  0.2324724E+04  0.7818609E-02  0.8468236E-01
       -1   -1    0    0    0  501  0.00000000000E+00  0.00000000000E+00  0.85911933822E+03  0.85911933824E+03  0.50400001928E-02 0. -1.
        1   -1    0    0  501    0  0.00000000000E+00  0.00000000000E+00 -0.15726396318E+04  0.15726396318E+04  0.50400001928E-02 0.  1.
    10030    2    1    2    0    0  0.00000000000E+00  0.00000000000E+00 -0.71352029354E+03  0.24317589700E+04  0.23247237425E+04 0.  0.
        5    1    3    3  502    0  0.23857603637E+03  0.98960913317E+03 -0.94368045664E+03  0.13880920920E+04  0.46999998093E+01 0.  1.
       -5    1    3    3    0  502 -0.23857603637E+03 -0.98960913317E+03  0.23016016311E+03  0.10436668780E+04  0.46999998093E+01 0. -1.
</event>
<event>
 5   0  0.1237296E-04  0.2256595E+04  0.7818609E-02  0.8495234E-01
       -2   -1    0    0    0  501  0.00000000000E+00  0.00000000000E+00  0.15681349249E+04  0.15681349249E+04  0.25500000920E-02 0.  1.
        2   -1    0    0  501    0  0.00000000000E+00  0.00000000000E+00 -0.81182785314E+03  0.81182785314E+03  0.25500000920E-02 0. -1.
    10030    2    1    2    0    0  0.00000000000E+00  0.00000000000E+00  0.75630707174E+03  0.23799627780E+04  0.22565953199E+04 0.  0.
        1    1    3    3  502    0  0.10491230232E+04 -0.32091555082E+03  0.10029319223E+03  0.11016826371E+04  0.50400001928E-02 0. -1.
       -1    1    3    3    0  502 -0.10491230232E+04  0.32091555082E+03  0.65601387951E+03  0.12782801409E+04  0.50400001928E-02 0.  1.
</event>
<event>
 5   0  0.1234988E-04  0.2308222E+04  0.7818609E-02  0.8474686E-01
       -2   -1    0    0    0  501  0.00000000000E+00  0.00000000000E+00  0.10817815554E+04  0.10817815554E+04  0.25500000920E-02 0.  1.
        2   -1    0    0  501    0  0.00000000000E+00  0.00000000000E+00 -0.12312762893E+04  0.12312762893E+04  0.25500000920E-02 0. -1.
    10030    2    1    2    0    0  0.00000000000E+00  0.00000000000E+00 -0.14949473390E+03  0.23130578446E+04  0.23082218085E+04 0.  0.
        5    1    3    3  502    0  0.16541726516E+03 -0.10327557263E+04 -0.56362461894E+03  0.11881254407E+04  0.46999998093E+01 0. -1.
       -5    1    3    3    0  502 -0.16541726516E+03  0.10327557263E+04  0.41412988504E+03  0.11249324039E+04  0.46999998093E+01 0.  1.
</event>
<event>
 5   0  0.1234988E-04  0.2419468E+04  0.7818609E-02  0.8432251E-01
        2   -1    0    0  501    0  0.00000000000E+00  0.00000000000E+00  0.11039197870E+04  0.11039197870E+04  0.25500000920E-02 0.  1.
       -2   -1    0    0    0  501  0.00000000000E+00  0.00000000000E+00 -0.13256909258E+04  0.13256909258E+04  0.25500000920E-02 0. -1.
    10030    2    1    2    0    0  0.00000000000E+00  0.00000000000E+00 -0.22177113871E+03  0.24296107128E+04  0.24194680774E+04 0.  0.
        5    1    3    3  502    0  0.43482940057E+03  0.42411036028E+03  0.93967798211E+03  0.11189115270E+04  0.46999998093E+01 0.  1.
       -5    1    3    3    0  502 -0.43482940057E+03 -0.42411036028E+03 -0.11614491208E+04  0.13106991858E+04  0.46999998093E+01 0. -1.
</event>
<event>
 5   0  0.5663790E-05  0.2179378E+04  0.7818609E-02  0.8527061E-01
       -1   -1    0    0    0  501  0.00000000000E+00  0.00000000000E+00  0.91493064288E+03  0.91493064289E+03  0.50400001928E-02 0.  1.
        1   -1    0    0  501    0  0.00000000000E+00  0.00000000000E+00 -0.12978273893E+04  0.12978273893E+04  0.50400001928E-02 0. -1.
    10030    2    1    2    0    0  0.00000000000E+00  0.00000000000E+00 -0.38289674645E+03  0.22127580322E+04  0.21793779367E+04 0.  0.
        3    1    3    3  502    0 -0.12484101430E+03  0.95967484155E+03  0.31708318981E+03  0.10183824624E+04  0.10100000352E+00 0. -1.
       -3    1    3    3    0  502  0.12484101430E+03 -0.95967484155E+03 -0.69997993626E+03  0.11943755698E+04  0.10100000352E+00 0.  1.
</event>
<event>
 5   0  0.5924654E-05  0.1263246E+04  0.7818609E-02  0.9059230E-01
       -1   -1    0    0    0  501  0.00000000000E+00  0.00000000000E+00  0.61703949682E+03  0.61703949684E+03  0.50400001928E-02 0.  1.
        1   -1    0    0  501    0  0.00000000000E+00  0.00000000000E+00 -0.64655129236E+03  0.64655129238E+03  0.50400001928E-02 0. -1.
    10030    2    1    2    0    0  0.00000000000E+00  0.00000000000E+00 -0.29511795537E+02  0.12635907892E+04  0.12632461108E+04 0.  0.
        5    1    3    3  502    0 -0.49216440947E+03 -0.47134406227E+02 -0.40790020532E+03  0.64097747675E+03  0.46999998093E+01 0. -1.
       -5    1    3    3    0  502  0.49216440947E+03  0.47134406227E+02  0.37838840979E+03  0.62261331247E+03  0.46999998093E+01 0.  1.
</event>
<event>
 5   0  0.1234988E-04  0.2327409E+04  0.7818609E-02  0.8467192E-01
        2   -1    0    0  501    0  0.00000000000E+00  0.00000000000E+00  0.17895992271E+04  0.17895992271E+04  0.25500000920E-02 0.  1.
       -2   -1    0    0    0  501  0.00000000000E+00  0.00000000000E+00 -0.75671056796E+03  0.75671056797E+03  0.25500000920E-02 0. -1.
    10030    2    1    2    0    0  0.00000000000E+00  0.00000000000E+00  0.10328886591E+04  0.25463097951E+04  0.23274094161E+04 0.  0.
        5    1    3    3  502    0  0.39894340707E+03 -0.46698178393E+03 -0.56493126161E+03  0.83450419346E+03  0.46999998093E+01 0. -1.
       -5    1    3    3    0  502 -0.39894340707E+03  0.46698178393E+03  0.15978199207E+04  0.17118056016E+04  0.46999998093E+01 0.  1.
</event>
<event>
 5   0  0.5632156E-05  0.2295573E+04  0.7818609E-02  0.8479668E-01
        1   -1    0    0  501    0  0.00000000000E+00  0.00000000000E+00  0.16350513017E+04  0.16350513017E+04  0.50400001928E-02 0.  1.
       -1   -1    0    0    0  501  0.00000000000E+00  0.00000000000E+00 -0.80573276330E+03  0.80573276331E+03  0.50400001928E-02 0. -1.
    10030    2    1    2    0    0  0.00000000000E+00  0.00000000000E+00  0.82931853841E+03  0.24407840650E+04  0.22955734826E+04 0.  0.
        4    1    3    3  502    0 -0.69651971966E+03 -0.81454273616E+03 -0.22173928214E+02  0.10719668301E+04  0.12699999809E+01 0.  1.
       -4    1    3    3    0  502  0.69651971966E+03  0.81454273616E+03  0.85149246662E+03  0.13688172349E+04  0.12699999809E+01 0. -1.
</event>
<event>
 5   0  0.1237296E-04  0.2326306E+04  0.7818609E-02  0.8467621E-01
        2   -1    0    0  501    0  0.00000000000E+00  0.00000000000E+00  0.20878152072E+04  0.20878152072E+04  0.25500000920E-02 0. -1.
       -2   -1    0    0    0  501  0.00000000000E+00  0.00000000000E+00 -0.64800998769E+03  0.64800998770E+03  0.25500000920E-02 0.  1.
    10030    2    1    2    0    0  0.00000000000E+00  0.00000000000E+00  0.14398052195E+04  0.27358251949E+04  0.23263061765E+04 0.  0.
        1    1    3    3  502    0  0.10040087717E+04 -0.44540624264E+03  0.11700423505E+04  0.16048113399E+04  0.50400001928E-02 0. -1.
       -1    1    3    3    0  502 -0.10040087717E+04  0.44540624264E+03  0.26976286900E+03  0.11310138550E+04  0.50400001928E-02 0.  1.
</event>
<event>
 5   0  0.5924654E-05  0.2278615E+04  0.7818609E-02  0.8486401E-01
       -1   -1    0    0    0  501  0.00000000000E+00  0.00000000000E+00  0.59785733699E+03  0.59785733701E+03  0.50400001928E-02 0. -1.
        1   -1    0    0  501    0  0.00000000000E+00  0.00000000000E+00 -0.21711228400E+04  0.21711228400E+04  0.50400001928E-02 0.  1.
    10030    2    1    2    0    0  0.00000000000E+00  0.00000000000E+00 -0.15732655031E+04  0.27689801771E+04  0.22786151228E+04 0.  0.
        5    1    3    3  502    0 -0.82706726225E+03  0.73212703060E+03 -0.11259103737E+04  0.15772591749E+04  0.46999998093E+01 0. -1.
       -5    1    3    3    0  502  0.82706726225E+03 -0.73212703060E+03 -0.44735512936E+03  0.11917210022E+04  0.46999998093E+01 0.  1.
</event>
<event>
 5   0  0.5642466E-05  0.1920783E+04  0.7818609E-02  0.8644580E-01
       -1   -1    0    0    0  501  0.00000000000E+00  0.00000000000E+00  0.15472688592E+04  0.15472688592E+04  0.50400001928E-02 0.  1.
        1   -1    0    0  501    0  0.00000000000E+00  0.00000000000E+00 -0.59611622503E+03  0.59611622505E+03  0.50400001928E-02 0. -1.
    10030    2    1    2    0    0  0.00000000000E+00  0.00000000000E+00  0.95115263421E+03  0.21433850843E+04  0.19207832481E+04 0.  0.
        1    1    3    3  502    0  0.73758229012E+03  0.61254004158E+03  0.53789795777E+03  0.10993485117E+04  0.50400001928E-02 0. -1.
       -1    1    3    3    0  502 -0.73758229012E+03 -0.61254004158E+03  0.41325467643E+03  0.10440365726E+04  0.50400001928E-02 0.  1.
</event>
<event>
 5   0  0.5642466E-05  0.2247685E+04  0.7818609E-02  0.8498839E-01
        1   -1    0    0  501    0  0.00000000000E+00  0.00000000000E+00  0.10498250290E+04  0.10498250291E+04  0.50400001928E-02 0.  1.
       -1   -1    0    0    0  501  0.00000000000E+00  0.00000000000E+00 -0.12030782005E+04  0.12030782005E+04  0.50400001928E-02 0. -1.
    10030    2    1    2    0    0  0.00000000000E+00  0.00000000000E+00 -0.15325317148E+03  0.22529032296E+04  0.22476846815E+04 0.  0.
        1    1    3    3  502    0  0.35556647269E+02  0.90881999899E+03 -0.73831347445E+03  0.11714626978E+04  0.50400001928E-02 0. -1.
       -1    1    3    3    0  502 -0.35556647269E+02 -0.90881999899E+03  0.58506030297E+03  0.10814405318E+04  0.50400001928E-02 0.  1.
</event>
<event>
 5   0  0.5632156E-05  0.2288973E+04  0.7818609E-02  0.8482282E-01
        1   -1    0    0  501    0  0.00000000000E+00  0.00000000000E+00  0.21101742475E+04  0.21101742475E+04  0.50400001928E-02 0.  1.
       -1   -1    0    0    0  501  0.00000000000E+00  0.00000000000E+00 -0.62073021749E+03  0.62073021751E+03  0.50400001928E-02 0. -1.
    10030    2    1    2    0    0  0.00000000000E+00  0.00000000000E+00  0.14894440300E+04  0.27309044650E+04  0.22889726251E+04 0.  0.
        4    1    3    3  502    0 -0.29408492814E+03 -0.62997510645E+02 -0.57273877819E+03  0.64690490201E+03  0.12699999809E+01 0. -1.
       -4    1    3    3    0  502  0.29408492814E+03  0.62997510645E+02  0.20621828081E+04  0.20839995630E+04  0.12699999809E+01 0.  1.
</event>
<event>
 5   0  0.1281432E-04  0.2329721E+04  0.7818609E-02  0.8466294E-01
        2   -1    0    0  501    0  0.00000000000E+00  0.00000000000E+00  0.19863126646E+04  0.19863126646E+04  0.25500000920E-02 0.  1.
       -2   -1    0    0    0  501  0.00000000000E+00  0.00000000000E+00 -0.68312491041E+03  0.68312491041E+03  0.25500000920E-02 0. -1.
    10030    2    1    2    0    0  0.00000000000E+00  0.00000000000E+00  0.13031877542E+04  0.26694375750E+04  0.23297207224E+04 0.  0.
        4    1    3    3  502    0 -0.80768036495E+03 -0.83401998160E+03  0.54312686033E+03  0.12817664768E+04  0.12699999809E+01 0.  1.
       -4    1    3    3    0  502  0.80768036495E+03  0.83401998160E+03  0.76006089386E+03  0.13876710983E+04  0.12699999809E+01 0. -1.
</event>
<event>
 5   0  0.1237296E-04  0.1722910E+04  0.7818609E-02  0.8748404E-01
        2   -1    0    0  501    0  0.00000000000E+00  0.00000000000E+00  0.16066943739E+04  0.16066943739E+04  0.25500000920E-02 0.  1.
       -2   -1    0    0    0  501  0.00000000000E+00  0.00000000000E+00 -0.46188320044E+03  0.46188320045E+03  0.25500000920E-02 0. -1.
    10030    2    1    2    0    0  0.00000000000E+00  0.00000000000E+00  0.11448111734E+04  0.20685775743E+04  0.17229104905E+04 0.  0.
        1    1    3    3  502    0 -0.14887913824E+03 -0.22864620245E+03 -0.40863532586E+03  0.49135212757E+03  0.50400001928E-02 0. -1.
       -1    1    3    3    0  502  0.14887913824E+03  0.22864620245E+03  0.15534464993E+04  0.15772254467E+04  0.50400001928E-02 0.  1.
</event>
<event>
 5   0  0.5632156E-05  0.2354403E+04  0.7818609E-02  0.8456774E-01
        1   -1    0    0  501    0  0.00000000000E+00  0.00000000000E+00  0.13817205476E+04  0.13817205476E+04  0.50400001928E-02 0.  1.
       -1   -1    0    0    0  501  0.00000000000E+00  0.00000000000E+00 -0.10029548588E+04  0.10029548588E+04  0.50400001928E-02 0. -1.
    10030    2    1    2    0    0  0.00000000000E+00  0.00000000000E+00  0.37876568888E+03  0.23846754064E+04  0.23544029704E+04 0.  0.
        4    1    3    3  502    0 -0.72614657616E+03 -0.31554056886E+03  0.10717599001E+04  0.13324884979E+04  0.12699999809E+01 0.  1.
       -4    1    3    3    0  502  0.72614657616E+03  0.31554056886E+03 -0.69299421126E+03  0.10521869085E+04  0.12699999809E+01 0. -1.
</event>
<event>
 5   0  0.1234988E-04  0.2283406E+04  0.7818609E-02  0.8484493E-01
        2   -1    0    0  501    0  0.00000000000E+00  0.00000000000E+00  0.11654166514E+04  0.11654166514E+04  0.25500000920E-02 0. -1.
       -2   -1    0    0    0  501  0.00000000000E+00  0.00000000000E+00 -0.11184718751E+04  0.11184718751E+04  0.25500000920E-02 0.  1.
    10030    2    1    2    0    0  0.00000000000E+00  0.00000000000E+00  0.46944776291E+02  0.22838885266E+04  0.22834060063E+04 0.  0.
        5    1    3    3  502    0  0.67613253012E+03  0.69393851111E+03  0.62755183372E+03  0.11543609702E+04  0.46999998093E+01 0. -1.
       -5    1    3    3    0  502 -0.67613253012E+03 -0.69393851111E+03 -0.58060705743E+03  0.11295275564E+04  0.46999998093E+01 0.  1.
</event>
<event>
 5   0  0.1257524E-04  0.1557334E+04  0.7818609E-02  0.8847197E-01
       -2   -1    0    0    0  501  0.00000000000E+00  0.00000000000E+00  0.92290374714E+03  0.92290374715E+03  0.25500000920E-02 0.  1.
        2   -1    0    0  501    0  0.00000000000E+00  0.00000000000E+00 -0.65697240650E+03  0.65697240650E+03  0.25500000920E-02 0. -1.
    10030    2    1    2    0    0  0.00000000000E+00  0.00000000000E+00  0.26593134065E+03  0.15798761536E+04  0.15573339985E+04 0.  0.
        3    1    3    3  502    0 -0.56874806046E+03  0.11258745092E+03 -0.39433878896E+03  0.70117999192E+03  0.10100000352E+00 0. -1.
       -3    1    3    3    0  502  0.56874806046E+03 -0.11258745092E+03  0.66027012961E+03  0.87869616173E+03  0.10100000352E+00 0.  1.
</event>
<event>
 5   0  0.1281432E-04  0.2282793E+04  0.7818609E-02  0.8484737E-01
        2   -1    0    0  501    0  0.00000000000E+00  0.00000000000E+00  0.18333826327E+04  0.18333826327E+04  0.25500000920E-02 0.  1.
       -2   -1    0    0    0  501  0.00000000000E+00  0.00000000000E+00 -0.71059130777E+03  0.71059130778E+03  0.25500000920E-02 0. -1.
    10030    2    1    2    0    0  0.00000000000E+00  0.00000000000E+00  0.11227913250E+04  0.25439739405E+04  0.22827928181E+04 0.  0.
        4    1    3    3  502    0 -0.47017754792E+02  0.34454156891E+02  0.18317220450E+04  0.18326497268E+04  0.12699999809E+01 0.  1.
       -4    1    3    3    0  502  0.47017754792E+02 -0.34454156891E+02 -0.70893072006E+03  0.71132421366E+03  0.12699999809E+01 0. -1.
</event>
<event>
 5   0  0.1270613E-04  0.2282880E+04  0.7818609E-02  0.8484702E-01
       -2   -1    0    0    0  501  0.00000000000E+00  0.00000000000E+00  0.61661101328E+03  0.61661101328E+03  0.25500000920E-02 0. -1.
        2   -1    0    0  501    0  0.00000000000E+00  0.00000000000E+00 -0.21129772646E+04  0.21129772646E+04  0.25500000920E-02 0.  1.
    10030    2    1    2    0    0  0.00000000000E+00  0.00000000000E+00 -0.14963662513E+04  0.27295882778E+04  0.22828798060E+04 0.  0.
        2    1    3    3  502    0 -0.11303812182E+04  0.11821519833E+03 -0.62193564613E+03  0.12955849951E+04  0.25500000920E-02 0. -1.
       -2    1    3    3    0  502  0.11303812182E+04 -0.11821519833E+03 -0.87443060515E+03  0.14340032827E+04  0.25500000920E-02 0.  1.
</event>
<event>
 5   0  0.1270613E-04  0.2299742E+04  0.7818609E-02  0.8478023E-01
        2   -1    0    0  501    0  0.00000000000E+00  0.00000000000E+00  0.12999225870E+04  0.12999225870E+04  0.25500000920E-02 0.  1.
       -2   -1    0    0    0  501  0.00000000000E+00  0.00000000000E+00 -0.10171396825E+04  0.10171396825E+04  0.25500000920E-02 0. -1.
    10030    2    1    2    0    0  0.00000000000E+00  0.00000000000E+00  0.28278290456E+03  0.23170622695E+04  0.22997415920E+04 0.  0.
        2    1    3    3  502    0 -0.32012972053E+03 -0.71904698913E+01  0.12540950682E+04  0.12943296261E+04  0.25500000920E-02 0.  1.
       -2    1    3    3    0  502  0.32012972053E+03  0.71904698913E+01 -0.97131216363E+03  0.10227326435E+04  0.25500000920E-02 0. -1.
</event>
<event>
 5   0  0.1270613E-04  0.2283452E+04  0.7818609E-02  0.8484475E-01
        2   -1    0    0  501    0  0.00000000000E+00  0.00000000000E+00  0.19429280907E+04  0.19429280907E+04  0.25500000920E-02 0. -1.
       -2   -1    0    0    0  501  0.00000000000E+00  0.00000000000E+00 -0.67091416869E+03  0.67091416869E+03  0.25500000920E-02 0.  1.
    10030    2    1    2    0    0  0.00000000000E+00  0.00000000000E+00  0.12720139220E+04  0.26138422594E+04  0.22834517598E+04 0.  0.
        2    1    3    3  502    0 -0.69651822111E+03 -0.62563312481E+03 -0.11197840924E+03  0.94291760157E+03  0.25500000920E-02 0.  1.
       -2    1    3    3    0  502  0.69651822111E+03  0.62563312481E+03  0.13839923313E+04  0.16709246579E+04  0.25500000920E-02 0. -1.
</event>
<event>
 5   0  0.1257524E-04  0.2417980E+04  0.7818609E-02  0.8432803E-01
        2   -1    0    0  501    0  0.00000000000E+00  0.00000000000E+00  0.15545188719E+04  0.15545188719E+04  0.25500000920E-02 0. -1.
       -2   -1    0    0    0  501  0.00000000000E+00  0.00000000000E+00 -0.94026288164E+03  0.94026288165E+03  0.25500000920E-02 0.  1.
    10030    2    1    2    0    0  0.00000000000E+00  0.00000000000E+00  0.61425599029E+03  0.24947817536E+04  0.24179796476E+04 0.  0.
        3    1    3    3  502    0  0.60935540817E+03  0.66268464254E+03  0.11397238758E+04  0.14523895731E+04  0.10100000352E+00 0. -1.
       -3    1    3    3    0  502 -0.60935540817E+03 -0.66268464254E+03 -0.52546788550E+03  0.10423921804E+04  0.10100000352E+00 0.  1.
</event>
<event>
 5   0  0.1281432E-04  0.2263169E+04  0.7818609E-02  0.8492586E-01
       -2   -1    0    0    0  501  0.00000000000E+00  0.00000000000E+00  0.12546148919E+04  0.12546148919E+04  0.25500000920E-02 0. -1.
        2   -1    0    0  501    0  0.00000000000E+00  0.00000000000E+00 -0.10206186010E+04  0.10206186010E+04  0.25500000920E-02 0.  1.
    10030    2    1    2    0    0  0.00000000000E+00  0.00000000000E+00  0.23399629095E+03  0.22752334929E+04  0.22631688366E+04 0.  0.
        4    1    3    3  502    0  0.12315190302E+03  0.17946364664E+03  0.12333718324E+04  0.12524301504E+04  0.12699999809E+01 0. -1.
       -4    1    3    3    0  502 -0.12315190302E+03 -0.17946364664E+03 -0.99937554147E+03  0.10228033425E+04  0.12699999809E+01 0.  1.
</event>
<event>
 5   0  0.1237296E-04  0.2281146E+04  0.7818609E-02  0.8485392E-01
        2   -1    0    0  501    0  0.00000000000E+00  0.00000000000E+00  0.12340640951E+04  0.12340640951E+04  0.25500000920E-02 0. -1.
       -2   -1    0    0    0  501  0.00000000000E+00  0.00000000000E+00 -0.10541643849E+04  0.10541643850E+04  0.25500000920E-02 0.  1.
    10030    2    1    2    0    0  0.00000000000E+00  0.00000000000E+00  0.17989971013E+03  0.22882284800E+04  0.22811456927E+04 0.  0.
        1    1    3    3  502    0 -0.31002877031E+03 -0.94342846837E+03 -0.47280122052E+03  0.10998709504E+04  0.50400001928E-02 0.  1.
       -1    1    3    3    0  502  0.31002877031E+03  0.94342846837E+03  0.65270093065E+03  0.11883575296E+04  0.50400001928E-02 0. -1.
</event>
<event>
 5   0  0.5642466E-05  0.2314623E+04  0.7818609E-02  0.8472178E-01
        1   -1    0    0  501    0  0.00000000000E+00  0.00000000000E+00  0.12589297644E+04  0.12589297644E+04  0.50400001928E-02 0.  1.
       -1   -1    0    0    0  501  0.00000000000E+00  0.00000000000E+00 -0.10638960947E+04  0.10638960947E+04  0.50400001928E-02 0. -1.
    10030    2    1    2    0    0  0.00000000000E+00  0.00000000000E+00  0.19503366975E+03  0.23228258591E+04  0.23146234768E+04 0.  0.
        1    1    3    3  502    0  0.28817076291E+03  0.27186487508E+03 -0.99372682633E+03  0.10697877847E+04  0.50400001928E-02 0. -1.
       -1    1    3    3    0  502 -0.28817076291E+03 -0.27186487508E+03  0.11887604961E+04  0.12530380744E+04  0.50400001928E-02 0.  1.
</event>
<event>
 5   0  0.5663790E-05  0.2215263E+04  0.7818609E-02  0.8512102E-01
        1   -1    0    0  501    0  0.00000000000E+00  0.00000000000E+00  0.88646148992E+03  0.88646148993E+03  0.50400001928E-02 0.  1.
       -1   -1    0    0    0  501  0.00000000000E+00  0.00000000000E+00 -0.13839825765E+04  0.13839825765E+04  0.50400001928E-02 0. -1.
    10030    2    1    2    0    0  0.00000000000E+00  0.00000000000E+00 -0.49752108656E+03  0.22704440664E+04  0.22152627445E+04 0.  0.
        3    1    3    3  502    0 -0.53325647535E+02  0.93802809847E+03 -0.84997893762E+03  0.12669666700E+04  0.10100000352E+00 0. -1.
       -3    1    3    3    0  502  0.53325647535E+02 -0.93802809847E+03  0.35245785106E+03  0.10034773964E+04  0.10100000352E+00 0.  1.
</event>
<event>
 5   0  0.5642466E-05  0.2416159E+04  0.7818609E-02  0.8433478E-01
        1   -1    0    0  501    0  0.00000000000E+00  0.00000000000E+00  0.10901761909E+04  0.10901761910E+04  0.50400001928E-02 0. -1.
       -1   -1    0    0    0  501  0.00000000000E+00  0.00000000000E+00 -0.13387346585E+04  0.13387346585E+04  0.50400001928E-02 0.  1.
    10030    2    1    2    0    0  0.00000000000E+00  0.00000000000E+00 -0.24855846751E+03  0.24289108494E+04  0.24161594738E+04 0.  0.
        1    1    3    3  502    0  0.64988606548E+03  0.96169798432E+03 -0.46107232454E+03  0.12489205738E+04  0.50400001928E-02 0. -1.
       -1    1    3    3    0  502 -0.64988606548E+03 -0.96169798432E+03  0.21251385703E+03  0.11799902756E+04  0.50400001928E-02 0.  1.
</event>
<event>
 5   0  0.1281432E-04  0.2241158E+04  0.7818609E-02  0.8501490E-01
       -2   -1    0    0    0  501  0.00000000000E+00  0.00000000000E+00  0.10569978371E+04  0.10569978371E+04  0.25500000920E-02 0.  1.
        2   -1    0    0  501    0  0.00000000000E+00  0.00000000000E+00 -0.11879851942E+04  0.11879851942E+04  0.25500000920E-02 0. -1.
    10030    2    1    2    0    0  0.00000000000E+00  0.00000000000E+00 -0.13098735711E+03  0.22449830313E+04  0.22411584333E+04 0.  0.
        4    1    3    3  502    0 -0.82813260872E+03  0.49079487183E+03 -0.64006903594E+03  0.11560160931E+04  0.12699999809E+01 0. -1.
       -4    1    3    3    0  502  0.82813260872E+03 -0.49079487183E+03  0.50908167883E+03  0.10889669382E+04  0.12699999809E+01 0.  1.
</event>
<event>
 5   0  0.1270613E-04  0.2192399E+04  0.7818609E-02  0.8521598E-01
       -2   -1    0    0    0  501  0.00000000000E+00  0.00000000000E+00  0.90634970078E+03  0.90634970078E+03  0.25500000920E-02 0.  1.
        2   -1    0    0  501    0  0.00000000000E+00  0.00000000000E+00 -0.13258170235E+04  0.13258170235E+04  0.25500000920E-02 0. -1.
    10030    2    1    2    0    0  0.00000000000E+00  0.00000000000E+00 -0.41946732270E+03  0.22321667243E+04  0.21923994732E+04 0.  0.
        2    1    3    3  502    0 -0.11205811582E+03 -0.12347728549E+03 -0.13128295857E+04  0.13233764326E+04  0.25500000920E-02 0. -1.
       -2    1    3    3    0  502  0.11205811582E+03  0.12347728549E+03  0.89336226296E+03  0.90879029167E+03  0.25500000920E-02 0.  1.
</event>
<event>
 5   0  0.1270613E-04  0.2216524E+04  0.7818609E-02  0.8511582E-01
       -2   -1    0    0    0  501  0.00000000000E+00  0.00000000000E+00  0.15469870533E+04  0.15469870533E+04  0.25500000920E-02 0. -1.
        2   -1    0    0  501    0  0.00000000000E+00  0.00000000000E+00 -0.79395944094E+03  0.79395944094E+03  0.25500000920E-02 0.  1.
    10030    2    1    2    0    0  0.00000000000E+00  0.00000000000E+00  0.75302761239E+03  0.23409464943E+04  0.22165242846E+04 0.  0.
        2    1    3    3  502    0 -0.10779684734E+04 -0.25703571466E+03  0.38993908300E+03  0.11747918440E+04  0.25500000920E-02 0. -1.
       -2    1    3    3    0  502  0.10779684734E+04  0.25703571466E+03  0.36308852939E+03  0.11661546503E+04  0.25500000920E-02 0.  1.
</event>
<event>
 5   0  0.1237296E-04  0.2389138E+04  0.7818609E-02  0.8443581E-01
        2   -1    0    0  501    0  0.00000000000E+00  0.00000000000E+00  0.98672175869E+03  0.98672175869E+03  0.25500000920E-02 0.  1.
       -2   -1    0    0    0  501  0.00000000000E+00  0.00000000000E+00 -0.14461983600E+04  0.14461983600E+04  0.25500000920E-02 0. -1.
    10030    2    1    2    0    0  0.00000000000E+00  0.00000000000E+00 -0.45947660130E+03  0.24329201187E+04  0.23891382456E+04 0.  0.
        1    1    3    3  502    0 -0.27510111548E+03 -0.31561115995E+03 -0.13690366072E+04  0.14316257402E+04  0.50400001928E-02 0. -1.
       -1    1    3    3    0  502  0.27510111548E+03  0.31561115995E+03  0.90956000592E+03  0.10012943785E+04  0.50400001928E-02 0.  1.
</event>
<event>
 5   0  0.1234988E-04  0.2374505E+04  0.7818609E-02  0.8449111E-01
        2   -1    0    0  501    0  0.00000000000E+00  0.00000000000E+00  0.18785026737E+04  0.18785026737E+04  0.25500000920E-02 0.  1.
       -2   -1    0    0    0  501  0.00000000000E+00  0.00000000000E+00 -0.75036799085E+03  0.75036799085E+03  0.25500000920E-02 0. -1.
    10030    2    1    2    0    0  0.00000000000E+00  0.00000000000E+00  0.11281346828E+04  0.26288706645E+04  0.23745048133E+04 0.  0.
        5    1    3    3  502    0  0.15670742799E+03 -0.15850454866E+03  0.18551204515E+04  0.18684685947E+04  0.46999998093E+01 0.  1.
       -5    1    3    3    0  502 -0.15670742799E+03  0.15850454866E+03 -0.72698576866E+03  0.76040206981E+03  0.46999998093E+01 0. -1.
</event>
<event>
 5   0  0.5843670E-05  0.1199549E+04  0.7818609E-02  0.9113251E-01
       -1   -1    0    0    0  501  0.00000000000E+00  0.00000000000E+00  0.56663971067E+03  0.56663971069E+03  0.50400001928E-02 0.  1.
        1   -1    0    0  501    0  0.00000000000E+00  0.00000000000E+00 -0.63484723168E+03  0.63484723170E+03  0.50400001928E-02 0. -1.
    10030    2    1    2    0    0  0.00000000000E+00  0.00000000000E+00 -0.68207521011E+02  0.12014869424E+04  0.11995493349E+04 0.  0.
        2    1    3    3  502    0  0.29038066334E+03  0.69853079033E+02  0.48686066827E+03  0.57116870766E+03  0.25500000920E-02 0.  1.
       -2    1    3    3    0  502 -0.29038066334E+03 -0.69853079033E+02 -0.55506818928E+03  0.63031823474E+03  0.25500000920E-02 0. -1.
</event>
<event>
 5   0  0.5663790E-05  0.2373506E+04  0.7818609E-02  0.8449490E-01
        1   -1    0    0  501    0  0.00000000000E+00  0.00000000000E+00  0.18107039668E+04  0.18107039668E+04  0.50400001928E-02 0.  1.
       -1   -1    0    0    0  501  0.00000000000E+00  0.00000000000E+00 -0.77780923785E+03  0.77780923786E+03  0.50400001928E-02 0. -1.
    10030    2    1    2    0    0  0.00000000000E+00  0.00000000000E+00  0.10328947290E+04  0.25885132047E+04  0.23735056540E+04 0.  0.
        3    1    3    3  502    0 -0.40017045310E+03  0.63075057491E+03  0.15221547361E+04  0.16955641333E+04  0.10100000352E+00 0.  1.
       -3    1    3    3    0  502  0.40017045310E+03 -0.63075057491E+03 -0.48926000715E+03  0.89294907138E+03  0.10100000352E+00 0. -1.
</event>
<event>
 5   0  0.5642466E-05  0.2426838E+04  0.7818609E-02  0.8429524E-01
        1   -1    0    0  501    0  0.00000000000E+00  0.00000000000E+00  0.11590114128E+04  0.11590114128E+04  0.50400001928E-02 0. -1.
       -1   -1    0    0    0  501  0.00000000000E+00  0.00000000000E+00 -0.12703805714E+04  0.12703805714E+04  0.50400001928E-02 0.  1.
    10030    2    1    2    0    0  0.00000000000E+00  0.00000000000E+00 -0.11136915855E+03  0.24293919842E+04  0.24268379269E+04 0.  0.
        1    1    3    3  502    0 -0.82403448071E+02 -0.10863176514E+04  0.47920838322E+03  0.11901752151E+04  0.50400001928E-02 0. -1.
       -1    1    3    3    0  502  0.82403448071E+02  0.10863176514E+04 -0.59057754176E+03  0.12392167691E+04  0.50400001928E-02 0.  1.
</event>
<event>
 5   0  0.5843670E-05  0.2292743E+04  0.7818609E-02  0.8480788E-01
       -1   -1    0    0    0  501  0.00000000000E+00  0.00000000000E+00  0.77433434453E+03  0.77433434455E+03  0.50400001928E-02 0. -1.
        1   -1    0    0  501    0  0.00000000000E+00  0.00000000000E+00 -0.16971572595E+04  0.16971572595E+04  0.50400001928E-02 0.  1.
    10030    2    1    2    0    0  0.00000000000E+00  0.00000000000E+00 -0.92282291497E+03  0.24714916041E+04  0.22927425971E+04 0.  0.
        2    1    3    3  502    0 -0.32097451335E+03 -0.19519524976E+03 -0.16289211552E+04  0.16716787831E+04  0.25500000920E-02 0.  1.
       -2    1    3    3    0  502  0.32097451335E+03  0.19519524976E+03  0.70609824026E+03  0.79981282101E+03  0.25500000920E-02 0. -1.
</event>
<event>
 5   0  0.1257524E-04  0.2305664E+04  0.7818609E-02  0.8475691E-01
        2   -1    0    0  501    0  0.00000000000E+00  0.00000000000E+00  0.26389857042E+04  0.26389857042E+04  0.25500000920E-02 0. -1.
       -2   -1    0    0    0  501  0.00000000000E+00  0.00000000000E+00 -0.50361074426E+03  0.50361074427E+03  0.25500000920E-02 0.  1.
    10030    2    1    2    0    0  0.00000000000E+00  0.00000000000E+00  0.21353749600E+04  0.31425964485E+04  0.23056639431E+04 0.  0.
        3    1    3    3  502    0 -0.61725969704E+03  0.24085883737E+03  0.23535287907E+04  0.24450194870E+04  0.10100000352E+00 0. -1.
       -3    1    3    3    0  502  0.61725969704E+03 -0.24085883737E+03 -0.21815383071E+03  0.69757696148E+03  0.10100000352E+00 0.  1.
</event>
<event>
 5   0  0.5843670E-05  0.2248738E+04  0.7818609E-02  0.8498412E-01
       -1   -1    0    0    0  501  0.00000000000E+00  0.00000000000E+00  0.26551436335E+04  0.26551436335E+04  0.50400001928E-02 0. -1.
        1   -1    0    0  501    0  0.00000000000E+00  0.00000000000E+00 -0.47613439950E+03  0.47613439953E+03  0.50400001928E-02 0.  1.
    10030    2    1    2    0    0  0.00000000000E+00  0.00000000000E+00  0.21790092340E+04  0.31312780330E+04  0.22487376188E+04 0.  0.
        2    1    3    3  502    0  0.81313164760E+03 -0.78520443348E+02  0.13738462047E+02  0.81702954762E+03  0.25500000920E-02 0.  1.
       -2    1    3    3    0  502 -0.81313164760E+03  0.78520443348E+02  0.21652707719E+04  0.23142484854E+04  0.25500000920E-02 0. -1.
</event>
<event>
 5   0  0.1234988E-04  0.2333319E+04  0.7818609E-02  0.8464899E-01
        2   -1    0    0  501    0  0.00000000000E+00  0.00000000000E+00  0.21706656073E+04  0.21706656073E+04  0.25500000920E-02 0.  1.
       -2   -1    0    0    0  501  0.00000000000E+00  0.00000000000E+00 -0.62704000517E+03  0.62704000517E+03  0.25500000920E-02 0. -1.
    10030    2    1    2    0    0  0.00000000000E+00  0.00000000000E+00  0.15436256021E+04  0.27977056124E+04  0.23333188154E+04 0.  0.
        5    1    3    3  502    0  0.78524876221E+03 -0.35899828948E+03  0.17125515114E+04  0.19179025417E+04  0.46999998093E+01 0.  1.
       -5    1    3    3    0  502 -0.78524876221E+03  0.35899828948E+03 -0.16892590929E+03  0.87980307071E+03  0.46999998093E+01 0. -1.
</event>
<event>
 5   0  0.1237296E-04  0.2290480E+04  0.7818609E-02  0.8481684E-01
        2   -1    0    0  501    0  0.00000000000E+00  0.00000000000E+00  0.10446434579E+04  0.10446434579E+04  0.25500000920E-02 0.  1.
       -2   -1    0    0    0  501  0.00000000000E+00  0.00000000000E+00 -0.12555238811E+04  0.12555238811E+04  0.25500000920E-02 0. -1.
    10030    2    1    2    0    0  0.00000000000E+00  0.00000000000E+00 -0.21088042328E+03  0.23001673390E+04  0.22904801319E+04 0.  0.
        1    1    3    3  502    0  0.89782031980E+01  0.68387635996E+03 -0.10279150923E+04  0.12346566004E+04  0.50400001928E-02 0. -1.
       -1    1    3    3    0  502 -0.89782031980E+01 -0.68387635996E+03  0.81703466900E+03  0.10655107387E+04  0.50400001928E-02 0.  1.
</event>
<event>
 5   0  0.5924654E-05  0.2311614E+04  0.7818609E-02  0.8473356E-01
       -1   -1    0    0    0  501  0.00000000000E+00  0.00000000000E+00  0.85209185458E+03  0.85209185460E+03  0.50400001928E-02 0. -1.
        1   -1    0    0  501    0  0.00000000000E+00  0.00000000000E+00 -0.15677762539E+04  0.15677762539E+04  0.50400001928E-02 0.  1.
    10030    2    1    2    0    0  0.00000000000E+00  0.00000000000E+00 -0.71568439932E+03  0.24198681085E+04  0.23116136146E+04 0.  0.
        5    1    3    3  502    0 -0.80819836314E+03 -0.81952328624E+03 -0.46795503146E+03  0.12425003068E+04  0.46999998093E+01 0.  1.
       -5    1    3    3    0  502  0.80819836314E+03  0.81952328624E+03 -0.24772936787E+03  0.11773678017E+04  0.46999998093E+01 0. -1.
</event>
<event>
 5   0  0.5663790E-05  0.2261896E+04  0.7818609E-02  0.8493098E-01
       -1   -1    0    0    0  501  0.00000000000E+00  0.00000000000E+00  0.76072184263E+03  0.76072184265E+03  0.50400001928E-02 0. -1.
        1   -1    0    0  501    0  0.00000000000E+00  0.00000000000E+00 -0.16813543741E+04  0.16813543742E+04  0.50400001928E-02 0.  1.
    10030    2    1    2    0    0  0.00000000000E+00  0.00000000000E+00 -0.92063253151E+03  0.24420762168E+04  0.22618956631E+04 0.  0.
        3    1    3    3  502    0 -0.94949739681E+03  0.61376923116E+03 -0.43006631068E+03  0.12096342495E+04  0.10100000352E+00 0.  1.
       -3    1    3    3    0  502  0.94949739681E+03 -0.61376923116E+03 -0.49056622083E+03  0.12324419673E+04  0.10100000352E+00 0. -1.
</event>
<event>
 5   0  0.5632156E-05  0.2307873E+04  0.7818609E-02  0.8474823E-01
       -1   -1    0    0    0  501  0.00000000000E+00  0.00000000000E+00  0.59617276895E+03  0.59617276897E+03  0.50400001928E-02 0. -1.
        1   -1    0    0  501    0  0.00000000000E+00  0.00000000000E+00 -0.22335291529E+04  0.22335291529E+04  0.50400001928E-02 0.  1.
    10030    2    1    2    0    0  0.00000000000E+00  0.00000000000E+00 -0.16373563840E+04  0.28297019219E+04  0.23078728385E+04 0.  0.
        4    1    3    3  502    0  0.53868172915E+03 -0.35590383397E+03  0.35398528835E+03  0.73631022105E+03  0.12699999809E+01 0. -1.
       -4    1    3    3    0  502 -0.53868172915E+03  0.35590383397E+03 -0.19913416723E+04  0.20933917008E+04  0.12699999809E+01 0.  1.
</event>
<event>
 5   0  0.5924654E-05  0.2223913E+04  0.7818609E-02  0.8508540E-01
        1   -1    0    0  501    0  0.00000000000E+00  0.00000000000E+00  0.22638023779E+04  0.22638023779E+04  0.50400001928E-02 0. -1.
       -1   -1    0    0    0  501  0.00000000000E+00  0.00000000000E+00 -0.54618179935E+03  0.54618179937E+03  0.50400001928E-02 0.  1.
    10030    2    1    2    0    0  0.00000000000E+00  0.00000000000E+00  0.17176205786E+04  0.28099841773E+04  0.22239133582E+04 0.  0.
        5    1    3    3  502    0 -0.79246742427E+03 -0.84856299601E+02  0.18385322640E+04  0.20038533345E+04  0.46999998093E+01 0.  1.
       -5    1    3    3    0  502  0.79246742427E+03  0.84856299601E+02 -0.12091168545E+03  0.80613084285E+03  0.46999998093E+01 0. -1.
</event>
<event>
 5   0  0.1270613E-04  0.1952529E+04  0.7818609E-02  0.8629142E-01
        2   -1    0    0  501    0  0.00000000000E+00  0.00000000000E+00  0.16052461196E+04  0.16052461196E+04  0.25500000920E-02 0.  1.
       -2   -1    0    0    0  501  0.00000000000E+00  0.00000000000E+00 -0.59373608793E+03  0.59373608793E+03  0.25500000920E-02 0. -1.
    10030    2    1    2    0    0  0.00000000000E+00  0.00000000000E+00  0.10115100316E+04  0.21989822075E+04  0.19525291815E+04 0.  0.
        2    1    3    3  502    0  0.32534840613E+03  0.28475679484E+02 -0.53038806669E+03  0.62287555016E+03  0.25500000920E-02 0. -1.
       -2    1    3    3    0  502 -0.32534840613E+03 -0.28475679484E+02  0.15418980983E+04  0.15761066573E+04  0.25500000920E-02 0.  1.
</event>
<event>
 5   0  0.5843670E-05  0.2312159E+04  0.7818609E-02  0.8473143E-01
        1   -1    0    0  501    0  0.00000000000E+00  0.00000000000E+00  0.13957978099E+04  0.13957978099E+04  0.50400001928E-02 0.  1.
       -1   -1    0    0    0  501  0.00000000000E+00  0.00000000000E+00 -0.95753076783E+03  0.95753076785E+03  0.50400001928E-02 0. -1.
    10030    2    1    2    0    0  0.00000000000E+00  0.00000000000E+00  0.43826704203E+03  0.23533285777E+04  0.23121586007E+04 0.  0.
        2    1    3    3  502    0  0.28182487468E+03  0.36361599384E+02 -0.92143224511E+03  0.96425349791E+03  0.25500000920E-02 0. -1.
       -2    1    3    3    0  502 -0.28182487468E+03 -0.36361599384E+02  0.13596992871E+04  0.13890750798E+04  0.25500000920E-02 0.  1.
</event>
<event>
 5   0  0.1234988E-04  0.2098501E+04  0.7818609E-02  0.8561904E-01
       -2   -1    0    0    0  501  0.00000000000E+00  0.00000000000E+00  0.92493840574E+03  0.92493840575E+03  0.25500000920E-02 0. -1.
        2   -1    0    0  501    0  0.00000000000E+00  0.00000000000E+00 -0.11902700473E+04  0.11902700473E+04  0.25500000920E-02 0.  1.
    10030    2    1    2    0    0  0.00000000000E+00  0.00000000000E+00 -0.26533164153E+03  0.21152084530E+04  0.20985008744E+04 0.  0.
        5    1    3    3  502    0 -0.32356464095E+03 -0.41970426367E+03  0.78011493299E+03  0.94310505486E+03  0.46999998093E+01 0. -1.
       -5    1    3    3    0  502  0.32356464095E+03  0.41970426367E+03 -0.10454465745E+04  0.11721033982E+04  0.46999998093E+01 0.  1.
</event>
<event>
 5   0  0.5642466E-05  0.1486361E+04  0.7818609E-02  0.8893574E-01
        1   -1    0    0  501    0  0.00000000000E+00  0.00000000000E+00  0.46439967949E+03  0.46439967952E+03  0.50400001928E-02 0.  1.
       -1   -1    0    0    0  501  0.00000000000E+00  0.00000000000E+00 -0.11893138893E+04  0.11893138893E+04  0.50400001928E-02 0. -1.
    10030    2    1    2    0    0  0.00000000000E+00  0.00000000000E+00 -0.72491420984E+03  0.16537135689E+04  0.14863606414E+04 0.  0.
        1    1    3    3  502    0  0.15983979590E+03 -0.51734078986E+03  0.20390241541E+03  0.57859005197E+03  0.50400001928E-02 0.  1.
       -1    1    3    3    0  502 -0.15983979590E+03  0.51734078986E+03 -0.92881662526E+03  0.10751235169E+04  0.50400001928E-02 0. -1.
</event>
<event>
 5   0  0.1257524E-04  0.2272501E+04  0.7818609E-02  0.8488843E-01
       -2   -1    0    0    0  501  0.00000000000E+00  0.00000000000E+00  0.86690269503E+03  0.86690269504E+03  0.25500000920E-02 0. -1.
        2   -1    0    0  501    0  0.00000000000E+00  0.00000000000E+00 -0.14892851311E+04  0.14892851311E+04  0.25500000920E-02 0.  1.
    10030    2    1    2    0    0  0.00000000000E+00  0.00000000000E+00 -0.62238243606E+03  0.23561878261E+04  0.22725010837E+04 0.  0.
        3    1    3    3  502    0  0.12055269045E+03  0.66169099022E+02  0.85824260268E+03  0.86919024160E+03  0.10100000352E+00 0. -1.
       -3    1    3    3    0  502 -0.12055269045E+03 -0.66169099022E+02 -0.14806250387E+04  0.14869975845E+04  0.10100000352E+00 0.  1.
</event>
<event>
 5   0  0.1234988E-04  0.2244374E+04  0.7818609E-02  0.8500182E-01
       -2   -1    0    0    0  501  0.00000000000E+00  0.00000000000E+00  0.77911979285E+03  0.77911979285E+03  0.25500000920E-02 0.  1.
        2   -1    0    0  501    0  0.00000000000E+00  0.00000000000E+00 -0.16163160833E+04  0.16163160833E+04  0.25500000920E-02 0. -1.
    10030    2    1    2    0    0  0.00000000000E+00  0.00000000000E+00 -0.83719629047E+03  0.23954358762E+04  0.22443741685E+04 0.  0.
        5    1    3    3  502    0  0.57116707452E+03  0.15588187608E+03 -0.14360448870E+04  0.15533119435E+04  0.46999998093E+01 0. -1.
       -5    1    3    3    0  502 -0.57116707452E+03 -0.15588187608E+03  0.59884859658E+03  0.84212393264E+03  0.46999998093E+01 0.  1.
</event>
<event>
 5   0  0.1234988E-04  0.2312642E+04  0.7818609E-02  0.8472953E-01
       -2   -1    0    0    0  501  0.00000000000E+00  0.00000000000E+00  0.93602980882E+03  0.93602980883E+03  0.25500000920E-02 0.  1.
        2   -1    0    0  501    0  0.00000000000E+00  0.00000000000E+00 -0.14284565789E+04  0.14284565789E+04  0.25500000920E-02 0. -1.
    10030    2    1    2    0    0  0.00000000000E+00  0.00000000000E+00 -0.49242677005E+03  0.23644863877E+04  0.23126417262E+04 0.  0.
        5    1    3    3  502    0 -0.82300585726E+03 -0.51485114709E+03  0.39607791657E+03  0.10484799239E+04  0.46999998093E+01 0.  1.
       -5    1    3    3    0  502  0.82300585726E+03  0.51485114709E+03 -0.88850468661E+03  0.13160064638E+04  0.46999998093E+01 0. -1.
</event>
<event>
 5   0  0.1257524E-04  0.2253820E+04  0.7818609E-02  0.8496355E-01
       -2   -1    0    0    0  501  0.00000000000E+00  0.00000000000E+00  0.77680038620E+03  0.77680038620E+03  0.25500000920E-02 0.  1.
        2   -1    0    0  501    0  0.00000000000E+00  0.00000000000E+00 -0.16348170418E+04  0.16348170418E+04  0.25500000920E-02 0. -1.
    10030    2    1    2    0    0  0.00000000000E+00  0.00000000000E+00 -0.85801665556E+03  0.24116174280E+04  0.22538203206E+04 0.  0.
        3    1    3    3  502    0  0.29159550587E+03  0.69391911845E+03 -0.13264010253E+04  0.15250873326E+04  0.10100000352E+00 0. -1.
       -3    1    3    3    0  502 -0.29159550587E+03 -0.69391911845E+03  0.46838436972E+03  0.88653009537E+03  0.10100000352E+00 0.  1.
</event>
<event>
 5   0  0.5642466E-05  0.2317227E+04  0.7818609E-02  0.8471160E-01
        1   -1    0    0  501    0  0.00000000000E+00  0.00000000000E+00  0.19634914193E+04  0.19634914193E+04  0.50400001928E-02 0.  1.
       -1   -1    0    0    0  501  0.00000000000E+00  0.00000000000E+00 -0.68367230625E+03  0.68367230627E+03  0.50400001928E-02 0. -1.
    10030    2    1    2    0    0  0.00000000000E+00  0.00000000000E+00  0.12798191130E+04  0.26471637255E+04  0.23172265379E+04 0.  0.
        1    1    3    3  502    0  0.20570495565E+03 -0.48047347747E+03  0.18211679712E+04  0.18946825778E+04  0.50400001928E-02 0.  1.
       -1    1    3    3    0  502 -0.20570495565E+03  0.48047347747E+03 -0.54134885822E+03  0.75248114770E+03  0.50400001928E-02 0. -1.
</event>
<event>
 5   0  0.5843670E-05  0.2233664E+04  0.7818609E-02  0.8504546E-01
        1   -1    0    0  501    0  0.00000000000E+00  0.00000000000E+00  0.18889631480E+04  0.18889631480E+04  0.50400001928E-02 0.  1.
       -1   -1    0    0    0  501  0.00000000000E+00  0.00000000000E+00 -0.66031634897E+03  0.66031634899E+03  0.50400001928E-02 0. -1.
    10030    2    1    2    0    0  0.00000000000E+00  0.00000000000E+00  0.12286467990E+04  0.25492794970E+04  0.22336635819E+04 0.  0.
        2    1    3    3  502    0  0.18840652182E+03 -0.88414092245E+03  0.13628202811E+04  0.16353841466E+04  0.25500000920E-02 0.  1.
       -2    1    3    3    0  502 -0.18840652182E+03  0.88414092245E+03 -0.13417348210E+03  0.91389535042E+03  0.25500000920E-02 0. -1.
</event>
<event>
 5   0  0.5924654E-05  0.2287224E+04  0.7818609E-02  0.8482976E-01
        1   -1    0    0  501    0  0.00000000000E+00  0.00000000000E+00  0.99445947370E+03  0.99445947371E+03  0.50400001928E-02 0. -1.
       -1   -1    0    0    0  501  0.00000000000E+00  0.00000000000E+00 -0.13151348810E+04  0.13151348810E+04  0.50400001928E-02 0.  1.
    10030    2    1    2    0    0  0.00000000000E+00  0.00000000000E+00 -0.32067540728E+03  0.23095943547E+04  0.22872239432E+04 0.  0.
        5    1    3    3  502    0  0.36344976791E+03 -0.28957961569E+03 -0.12154855469E+04  0.13012990787E+04  0.46999998093E+01 0.  1.
       -5    1    3    3    0  502 -0.36344976791E+03  0.28957961569E+03  0.89481013960E+03  0.10082952760E+04  0.46999998093E+01 0. -1.
</event>
<event>
 5   0  0.1270613E-04  0.2304132E+04  0.7818609E-02  0.8476294E-01
       -2   -1    0    0    0  501  0.00000000000E+00  0.00000000000E+00  0.90437191687E+03  0.90437191687E+03  0.25500000920E-02 0.  1.
        2   -1    0    0  501    0  0.00000000000E+00  0.00000000000E+00 -0.14675995947E+04  0.14675995947E+04  0.25500000920E-02 0. -1.
    10030    2    1    2    0    0  0.00000000000E+00  0.00000000000E+00 -0.56322767782E+03  0.23719715116E+04  0.23041318180E+04 0.  0.
        2    1    3    3  502    0 -0.27448122877E+03  0.88377006690E+03 -0.98801432601E+03  0.13537214575E+04  0.25500000920E-02 0. -1.
       -2    1    3    3    0  502  0.27448122877E+03 -0.88377006690E+03  0.42478664819E+03  0.10182500541E+04  0.25500000920E-02 0.  1.
</event>
<event>
 5   0  0.5663790E-05  0.1489404E+04  0.7818609E-02  0.8891530E-01
       -1   -1    0    0    0  501  0.00000000000E+00  0.00000000000E+00  0.51604294941E+03  0.51604294943E+03  0.50400001928E-02 0.  1.
        1   -1    0    0  501    0  0.00000000000E+00  0.00000000000E+00 -0.10746804159E+04  0.10746804159E+04  0.50400001928E-02 0. -1.
    10030    2    1    2    0    0  0.00000000000E+00  0.00000000000E+00 -0.55863746646E+03  0.15907233653E+04  0.14894042453E+04 0.  0.
        3    1    3    3  502    0  0.72138474505E+03 -0.17253092519E+03 -0.35031134454E+03  0.82029319079E+03  0.10100000352E+00 0.  1.
       -3    1    3    3    0  502 -0.72138474505E+03  0.17253092519E+03 -0.20832612191E+03  0.77043017452E+03  0.10100000352E+00 0. -1.
</event>
<event>
 5   0  0.5632156E-05  0.2324205E+04  0.7818609E-02  0.8468438E-01
        1   -1    0    0  501    0  0.00000000000E+00  0.00000000000E+00  0.16663696832E+04  0.16663696832E+04  0.50400001928E-02 0. -1.
       -1   -1    0    0    0  501  0.00000000000E+00  0.00000000000E+00 -0.81043369832E+03  0.81043369833E+03  0.50400001928E-02 0.  1.
    10030    2    1    2    0    0  0.00000000000E+00  0.00000000000E+00  0.85593598486E+03  0.24768033815E+04  0.23242049351E+04 0.  0.
        4    1    3    3  502    0 -0.17554130812E+03  0.61119476917E+03 -0.60857466622E+03  0.88019232784E+03  0.12699999809E+01 0.  1.
       -4    1    3    3    0  502  0.17554130812E+03 -0.61119476917E+03  0.14645106511E+04  0.15966110537E+04  0.12699999809E+01 0. -1.
</event>
<event>
 5   0  0.1281432E-04  0.1894517E+04  0.7818609E-02  0.8657590E-01
       -2   -1    0    0    0  501  0.00000000000E+00  0.00000000000E+00  0.79541997630E+03  0.79541997630E+03  0.25500000920E-02 0.  1.
        2   -1    0    0  501    0  0.00000000000E+00  0.00000000000E+00 -0.11280818200E+04  0.11280818200E+04  0.25500000920E-02 0. -1.
    10030    2    1    2    0    0  0.00000000000E+00  0.00000000000E+00 -0.33266184373E+03  0.19235017963E+04  0.18945171570E+04 0.  0.
        4    1    3    3  502    0 -0.41435672948E+02 -0.94532771519E+03 -0.12166009179E+03  0.95402525906E+03  0.12699999809E+01 0. -1.
       -4    1    3    3    0  502  0.41435672948E+02  0.94532771519E+03 -0.21100175194E+03  0.96947653727E+03  0.12699999809E+01 0.  1.
</event>
<event>
 5   0  0.5632156E-05  0.1923496E+04  0.7818609E-02  0.8643248E-01
        1   -1    0    0  501    0  0.00000000000E+00  0.00000000000E+00  0.12064622672E+04  0.12064622673E+04  0.50400001928E-02 0.  1.
       -1   -1    0    0    0  501  0.00000000000E+00  0.00000000000E+00 -0.76667078606E+03  0.76667078608E+03  0.50400001928E-02 0. -1.
    10030    2    1    2    0    0  0.00000000000E+00  0.00000000000E+00  0.43979148118E+03  0.19731330533E+04  0.19234961656E+04 0.  0.
        4    1    3    3  502    0 -0.80977287494E+03 -0.83559131060E+02 -0.30541639455E+03  0.86947974349E+03  0.12699999809E+01 0. -1.
       -4    1    3    3    0  502  0.80977287494E+03  0.83559131060E+02  0.74520787573E+03  0.11036533098E+04  0.12699999809E+01 0.  1.
</event>
<event>
 5   0  0.5632156E-05  0.1917342E+04  0.7818609E-02  0.8646272E-01
       -1   -1    0    0    0  501  0.00000000000E+00  0.00000000000E+00  0.11198910053E+04  0.11198910053E+04  0.50400001928E-02 0.  1.
        1   -1    0    0  501    0  0.00000000000E+00  0.00000000000E+00 -0.82066001051E+03  0.82066001053E+03  0.50400001928E-02 0. -1.
    10030    2    1    2    0    0  0.00000000000E+00  0.00000000000E+00  0.29923099480E+03  0.19405510158E+04  0.19173416641E+04 0.  0.
        4    1    3    3  502    0 -0.72794806424E+02  0.92703023246E+03 -0.86367829238E+02  0.93388711874E+03  0.12699999809E+01 0.  1.
       -4    1    3    3    0  502  0.72794806424E+02 -0.92703023246E+03  0.38559882404E+03  0.10066638971E+04  0.12699999809E+01 0. -1.
</event>
<event>
 5   0  0.5642466E-05  0.2278922E+04  0.7818609E-02  0.8486278E-01
       -1   -1    0    0    0  501  0.00000000000E+00  0.00000000000E+00  0.83792017470E+03  0.83792017471E+03  0.50400001928E-02 0. -1.
        1   -1    0    0  501    0  0.00000000000E+00  0.00000000000E+00 -0.15495169287E+04  0.15495169287E+04  0.50400001928E-02 0.  1.
    10030    2    1    2    0    0  0.00000000000E+00  0.00000000000E+00 -0.71159675399E+03  0.23874371034E+04  0.22789221098E+04 0.  0.
        1    1    3    3  502    0  0.44997033372E+03 -0.46500325922E+02  0.73981844957E+03  0.86716026194E+03  0.50400001928E-02 0. -1.
       -1    1    3    3    0  502 -0.44997033372E+03  0.46500325922E+02 -0.14514152036E+04  0.15202768415E+04  0.50400001928E-02 0.  1.
</event>
<event>
 5   0  0.1237296E-04  0.1984958E+04  0.7818609E-02  0.8613686E-01
       -2   -1    0    0    0  501  0.00000000000E+00  0.00000000000E+00  0.95558744686E+03  0.95558744686E+03  0.25500000920E-02 0.  1.
        2   -1    0    0  501    0  0.00000000000E+00  0.00000000000E+00 -0.10307947853E+04  0.10307947853E+04  0.25500000920E-02 0. -1.
    10030    2    1    2    0    0  0.00000000000E+00  0.00000000000E+00 -0.75207338443E+02  0.19863822322E+04  0.19849579916E+04 0.  0.
        1    1    3    3  502    0  0.75682624673E+03 -0.14016328856E+03 -0.66461755545E+03  0.10169307795E+04  0.50400001928E-02 0. -1.
       -1    1    3    3    0  502 -0.75682624673E+03  0.14016328856E+03  0.58941021701E+03  0.96945145270E+03  0.50400001928E-02 0.  1.
</event>
<event>
 5   0  0.5663790E-05  0.2308481E+04  0.7818609E-02  0.8474585E-01
        1   -1    0    0  501    0  0.00000000000E+00  0.00000000000E+00  0.16583563219E+04  0.16583563220E+04  0.50400001928E-02 0.  1.
       -1   -1    0    0    0  501  0.00000000000E+00  0.00000000000E+00 -0.80336843171E+03  0.80336843173E+03  0.50400001928E-02 0. -1.
    10030    2    1    2    0    0  0.00000000000E+00  0.00000000000E+00  0.85498789023E+03  0.24617247537E+04  0.23084809877E+04 0.  0.
        3    1    3    3  502    0  0.42588198428E+03 -0.10115437442E+04  0.80852989083E+03  0.13632009410E+04  0.10100000352E+00 0.  1.
       -3    1    3    3    0  502 -0.42588198428E+03  0.10115437442E+04  0.46457999400E+02  0.10985238127E+04  0.10100000352E+00 0. -1.
</event>
<event>
 5   0  0.1270613E-04  0.2350486E+04  0.7818609E-02  0.8458277E-01
        2   -1    0    0  501    0  0.00000000000E+00  0.00000000000E+00  0.12535524594E+04  0.12535524594E+04  0.25500000920E-02 0.  1.
       -2   -1    0    0    0  501  0.00000000000E+00  0.00000000000E+00 -0.11018254401E+04  0.11018254401E+04  0.25500000920E-02 0. -1.
    10030    2    1    2    0    0  0.00000000000E+00  0.00000000000E+00  0.15172701937E+03  0.23553778995E+04  0.23504858989E+04 0.  0.
        2    1    3    3  502    0  0.90055349157E+03  0.57123781257E+03  0.57074026850E+03  0.12095675607E+04  0.25500000920E-02 0.  1.
       -2    1    3    3    0  502 -0.90055349157E+03 -0.57123781257E+03 -0.41901324914E+03  0.11458103389E+04  0.25500000920E-02 0. -1.
</event>
<event>
 5   0  0.1257524E-04  0.2182584E+04  0.7818609E-02  0.8525712E-01
       -2   -1    0    0    0  501  0.00000000000E+00  0.00000000000E+00  0.12154216497E+04  0.12154216497E+04  0.25500000920E-02 0.  1.
        2   -1    0    0  501    0  0.00000000000E+00  0.00000000000E+00 -0.97983918177E+03  0.97983918177E+03  0.25500000920E-02 0. -1.
    10030    2    1    2    0    0  0.00000000000E+00  0.00000000000E+00  0.23558246795E+03  0.21952608315E+04  0.21825835652E+04 0.  0.
        3    1    3    3  502    0 -0.27711874567E+03  0.40635615469E+03  0.10976146404E+04  0.12027792951E+04  0.10100000352E+00 0.  1.
       -3    1    3    3    0  502  0.27711874567E+03 -0.40635615469E+03 -0.86203217243E+03  0.99248153643E+03  0.10100000352E+00 0. -1.
</event>
<event>
 5   0  0.4489500E-05  0.2336128E+04  0.7818609E-02  0.8463811E-01
        3   -1    0    0  501    0  0.00000000000E+00  0.00000000000E+00  0.94695654717E+03  0.94695655256E+03  0.10100000352E+00 0. -1.
       -3   -1    0    0    0  501  0.00000000000E+00  0.00000000000E+00 -0.14407980857E+04  0.14407980893E+04  0.10100000352E+00 0.  1.
    10030    2    1    2    0    0  0.00000000000E+00  0.00000000000E+00 -0.49384153855E+03  0.23877546418E+04  0.23361277286E+04 0.  0.
        1    1    3    3  502    0 -0.99652076200E+03  0.58006519178E+03 -0.56130283986E+02  0.11544175434E+04  0.50400001928E-02 0. -1.
       -1    1    3    3    0  502  0.99652076200E+03 -0.58006519178E+03 -0.43771125457E+03  0.12333370984E+04  0.50400001928E-02 0.  1.
</event>
<event>
 5   0  0.5924654E-05  0.2285890E+04  0.7818609E-02  0.8483505E-01
       -1   -1    0    0    0  501  0.00000000000E+00  0.00000000000E+00  0.12484326767E+04  0.12484326767E+04  0.50400001928E-02 0.  1.
        1   -1    0    0  501    0  0.00000000000E+00  0.00000000000E+00 -0.10463705968E+04  0.10463705968E+04  0.50400001928E-02 0. -1.
    10030    2    1    2    0    0  0.00000000000E+00  0.00000000000E+00  0.20206207990E+03  0.22948032734E+04  0.22858899754E+04 0.  0.
        5    1    3    3  502    0 -0.94103655274E+03  0.17347032666E+03 -0.52643363505E+03  0.10921521002E+04  0.46999998093E+01 0. -1.
       -5    1    3    3    0  502  0.94103655274E+03 -0.17347032666E+03  0.72849571494E+03  0.12026511732E+04  0.46999998093E+01 0.  1.
</event>
<event>
 5   0  0.1281432E-04  0.2164770E+04  0.7818609E-02  0.8533236E-01
       -2   -1    0    0    0  501  0.00000000000E+00  0.00000000000E+00  0.92539599724E+03  0.92539599724E+03  0.25500000920E-02 0.  1.
        2   -1    0    0  501    0  0.00000000000E+00  0.00000000000E+00 -0.12660063400E+04  0.12660063400E+04  0.25500000920E-02 0. -1.
    10030    2    1    2    0    0  0.00000000000E+00  0.00000000000E+00 -0.34061034280E+03  0.21914023373E+04  0.21647699181E+04 0.  0.
        4    1    3    3  502    0 -0.65753924457E+03  0.47616769532E+02 -0.10393128305E+04  0.12307712978E+04  0.12699999809E+01 0. -1.
       -4    1    3    3    0  502  0.65753924457E+03 -0.47616769532E+02  0.69870248768E+03  0.96063103952E+03  0.12699999809E+01 0.  1.
</event>
<event>
 5   0  0.1281432E-04  0.2318520E+04  0.7818609E-02  0.8470655E-01
       -2   -1    0    0    0  501  0.00000000000E+00  0.00000000000E+00  0.73194257273E+03  0.73194257273E+03  0.25500000920E-02 0.  1.
        2   -1    0    0  501    0  0.00000000000E+00  0.00000000000E+00 -0.18360507835E+04  0.18360507835E+04  0.25500000920E-02 0. -1.
    10030    2    1    2    0    0  0.00000000000E+00  0.00000000000E+00 -0.11041082108E+04  0.25679933562E+04  0.23185199884E+04 0.  0.
        4    1    3    3  502    0 -0.86422774209E+03  0.68133892443E+03 -0.14847125455E+03  0.11104763151E+04  0.12699999809E+01 0.  1.
       -4    1    3    3    0  502  0.86422774209E+03 -0.68133892443E+03 -0.95563695622E+03  0.14575170411E+04  0.12699999809E+01 0. -1.
</event>
<event>
 5   0  0.1270613E-04  0.2327441E+04  0.7818609E-02  0.8467180E-01
       -2   -1    0    0    0  501  0.00000000000E+00  0.00000000000E+00  0.87796475482E+03  0.87796475482E+03  0.25500000920E-02 0.  1.
        2   -1    0    0  501    0  0.00000000000E+00  0.00000000000E+00 -0.15424822644E+04  0.15424822644E+04  0.25500000920E-02 0. -1.
    10030    2    1    2    0    0  0.00000000000E+00  0.00000000000E+00 -0.66451750955E+03  0.24204470192E+04  0.23274407086E+04 0.  0.
        2    1    3    3  502    0 -0.26450021506E+03  0.11327793346E+04 -0.29783498077E+03  0.12007726931E+04  0.25500000920E-02 0. -1.
       -2    1    3    3    0  502  0.26450021506E+03 -0.11327793346E+04 -0.36668252878E+03  0.12196743261E+04  0.25500000920E-02 0.  1.
</event>
<event>
 5   0  0.5663790E-05  0.1780198E+04  0.7818609E-02  0.8716901E-01
        1   -1    0    0  501    0  0.00000000000E+00  0.00000000000E+00  0.12242963191E+04  0.12242963191E+04  0.50400001928E-02 0.  1.
       -1   -1    0    0    0  501  0.00000000000E+00  0.00000000000E+00 -0.64712767654E+03  0.64712767656E+03  0.50400001928E-02 0. -1.
    10030    2    1    2    0    0  0.00000000000E+00  0.00000000000E+00  0.57716864258E+03  0.18714239957E+04  0.17801977782E+04 0.  0.
        3    1    3    3  502    0  0.39459057400E+03 -0.42328698177E+03 -0.42238878620E+03  0.71643973015E+03  0.10100000352E+00 0. -1.
       -3    1    3    3    0  502 -0.39459057400E+03  0.42328698177E+03  0.99955742878E+03  0.11549842655E+04  0.10100000352E+00 0.  1.
</event>
<event>
 5   0  0.1257524E-04  0.2246254E+04  0.7818609E-02  0.8499419E-01
        2   -1    0    0  501    0  0.00000000000E+00  0.00000000000E+00  0.10459007650E+04  0.10459007650E+04  0.25500000920E-02 0. -1.
       -2   -1    0    0    0  501  0.00000000000E+00  0.00000000000E+00 -0.12060551317E+04  0.12060551317E+04  0.25500000920E-02 0.  1.
    10030    2    1    2    0    0  0.00000000000E+00  0.00000000000E+00 -0.16015436671E+03  0.22519558967E+04  0.22462537567E+04 0.  0.
        3    1    3    3  502    0 -0.20244565670E+03 -0.88583853717E+02 -0.11840458216E+04  0.12044898758E+04  0.10100000352E+00 0.  1.
       -3    1    3    3    0  502  0.20244565670E+03  0.88583853717E+02  0.10238914549E+04  0.10474660208E+04  0.10100000352E+00 0. -1.
</event>
<event>
 5   0  0.5924654E-05  0.2444527E+04  0.7818609E-02  0.8423019E-01
        1   -1    0    0  501    0  0.00000000000E+00  0.00000000000E+00  0.18855277635E+04  0.18855277635E+04  0.50400001928E-02 0. -1.
       -1   -1    0    0    0  501  0.00000000000E+00  0.00000000000E+00 -0.79231326834E+03  0.79231326835E+03  0.50400001928E-02 0.  1.
    10030    2    1    2    0    0  0.00000000000E+00  0.00000000000E+00  0.10932144951E+04  0.26778410318E+04  0.24445274921E+04 0.  0.
        5    1    3    3  502    0  0.34441675500E+03 -0.10448453047E+04  0.11299572019E+04  0.15770700619E+04  0.46999998093E+01 0. -1.
       -5    1    3    3    0  502 -0.34441675500E+03  0.10448453047E+04 -0.36742706740E+02  0.11007709700E+04  0.46999998093E+01 0.  1.
</event>
<event>
 5   0  0.5663790E-05  0.2336995E+04  0.7818609E-02  0.8463476E-01
       -1   -1    0    0    0  501  0.00000000000E+00  0.00000000000E+00  0.14032258222E+04  0.14032258223E+04  0.50400001928E-02 0. -1.
        1   -1    0    0  501    0  0.00000000000E+00  0.00000000000E+00 -0.97303372300E+03  0.97303372302E+03  0.50400001928E-02 0.  1.
    10030    2    1    2    0    0  0.00000000000E+00  0.00000000000E+00  0.43019209924E+03  0.23762595453E+04  0.23369946907E+04 0.  0.
        3    1    3    3  502    0 -0.11350135036E+04  0.22799494777E+03  0.37634385059E+03  0.12173216722E+04  0.10100000352E+00 0. -1.
       -3    1    3    3    0  502  0.11350135036E+04 -0.22799494777E+03  0.53848248647E+02  0.11589378731E+04  0.10100000352E+00 0.  1.
</event>
<event>
 5   0  0.4489500E-05  0.1428806E+04  0.7818609E-02  0.8933227E-01
        3   -1    0    0  501    0  0.00000000000E+00  0.00000000000E+00  0.62974234195E+03  0.62974235005E+03  0.10100000352E+00 0. -1.
       -3   -1    0    0    0  501  0.00000000000E+00  0.00000000000E+00 -0.81044514528E+03  0.81044515157E+03  0.10100000352E+00 0.  1.
    10030    2    1    2    0    0  0.00000000000E+00  0.00000000000E+00 -0.18070280333E+03  0.14401875016E+04  0.14288059829E+04 0.  0.
        2    1    3    3  502    0 -0.68048696441E+03  0.75666893148E+02 -0.29589647126E+03  0.74588384428E+03  0.25500000920E-02 0.  1.
       -2    1    3    3    0  502  0.68048696441E+03 -0.75666893148E+02  0.11519366793E+03  0.69430365734E+03  0.25500000920E-02 0. -1.
</event>
<event>
 5   0  0.1281432E-04  0.2229713E+04  0.7818609E-02  0.8506162E-01
       -2   -1    0    0    0  501  0.00000000000E+00  0.00000000000E+00  0.21913236609E+04  0.21913236609E+04  0.25500000920E-02 0.  1.
        2   -1    0    0  501    0  0.00000000000E+00  0.00000000000E+00 -0.56719385553E+03  0.56719385554E+03  0.25500000920E-02 0. -1.
    10030    2    1    2    0    0  0.00000000000E+00  0.00000000000E+00  0.16241298053E+04  0.27585175164E+04  0.22297132694E+04 0.  0.
        4    1    3    3  502    0 -0.49205483751E+03  0.40264978812E+03 -0.32090769124E+03  0.71219953257E+03  0.12699999809E+01 0. -1.
       -4    1    3    3    0  502  0.49205483751E+03 -0.40264978812E+03  0.19450374966E+04  0.20463179838E+04  0.12699999809E+01 0.  1.
</event>
<event>
 5   0  0.5632156E-05  0.1298183E+04  0.7818609E-02  0.9031007E-01
        1   -1    0    0  501    0  0.00000000000E+00  0.00000000000E+00  0.90582804410E+03  0.90582804412E+03  0.50400001928E-02 0. -1.
       -1   -1    0    0    0  501  0.00000000000E+00  0.00000000000E+00 -0.46512105023E+03  0.46512105026E+03  0.50400001928E-02 0.  1.
    10030    2    1    2    0    0  0.00000000000E+00  0.00000000000E+00  0.44070699387E+03  0.13709490944E+04  0.12981828704E+04 0.  0.
        4    1    3    3  502    0 -0.37881635186E+03 -0.49410660606E+03  0.41414676555E+03  0.74777157134E+03  0.12699999809E+01 0. -1.
       -4    1    3    3    0  502  0.37881635186E+03  0.49410660606E+03  0.26560228322E+02  0.62317752304E+03  0.12699999809E+01 0.  1.
</event>
<event>
 5   0  0.5663790E-05  0.2321974E+04  0.7818609E-02  0.8469307E-01
       -1   -1    0    0    0  501  0.00000000000E+00  0.00000000000E+00  0.84240595651E+03  0.84240595652E+03  0.50400001928E-02 0.  1.
        1   -1    0    0  501    0  0.00000000000E+00  0.00000000000E+00 -0.16000495420E+04  0.16000495420E+04  0.50400001928E-02 0. -1.
    10030    2    1    2    0    0  0.00000000000E+00  0.00000000000E+00 -0.75764358547E+03  0.24424554985E+04  0.23219743882E+04 0.  0.
        3    1    3    3  502    0  0.53175940288E+03 -0.76962711247E+03 -0.11021022460E+04  0.14455875364E+04  0.10100000352E+00 0. -1.
       -3    1    3    3    0  502 -0.53175940288E+03  0.76962711247E+03  0.34445866048E+03  0.99686796206E+03  0.10100000352E+00 0.  1.
</event>
<event>
 5   0  0.1270613E-04  0.2271938E+04  0.7818609E-02  0.8489068E-01
        2   -1    0    0  501    0  0.00000000000E+00  0.00000000000E+00  0.92807651179E+03  0.92807651179E+03  0.25500000920E-02 0.  1.
       -2   -1    0    0    0  501  0.00000000000E+00  0.00000000000E+00 -0.13904301852E+04  0.13904301852E+04  0.25500000920E-02 0. -1.
    10030    2    1    2    0    0  0.00000000000E+00  0.00000000000E+00 -0.46235367342E+03  0.23185066970E+04  0.22719380240E+04 0.  0.
        2    1    3    3  502    0  0.84272106679E+03 -0.51563627569E+03 -0.80335289366E+03  0.12733559742E+04  0.25500000920E-02 0. -1.
       -2    1    3    3    0  502 -0.84272106679E+03  0.51563627569E+03  0.34099922023E+03  0.10451507228E+04  0.25500000920E-02 0.  1.
</event>
<event>
 5   0  0.5663790E-05  0.2184273E+04  0.7818609E-02  0.8525003E-01
        1   -1    0    0  501    0  0.00000000000E+00  0.00000000000E+00  0.10763340674E+04  0.10763340674E+04  0.50400001928E-02 0.  1.
       -1   -1    0    0    0  501  0.00000000000E+00  0.00000000000E+00 -0.11081704588E+04  0.11081704588E+04  0.50400001928E-02 0. -1.
    10030    2    1    2    0    0  0.00000000000E+00  0.00000000000E+00 -0.31836391409E+02  0.21845045262E+04  0.21842725264E+04 0.  0.
        3    1    3    3  502    0  0.37603580985E+03 -0.10130048906E+04  0.14278000118E+03  0.10899394376E+04  0.10100000352E+00 0. -1.
       -3    1    3    3    0  502 -0.37603580985E+03  0.10130048906E+04 -0.17461639259E+03  0.10945650887E+04  0.10100000352E+00 0.  1.
</event>
<event>
 5   0  0.1281432E-04  0.1312496E+04  0.7818609E-02  0.9019714E-01
        2   -1    0    0  501    0  0.00000000000E+00  0.00000000000E+00  0.87355665750E+03  0.87355665750E+03  0.25500000920E-02 0.  1.
       -2   -1    0    0    0  501  0.00000000000E+00  0.00000000000E+00 -0.49299772526E+03  0.49299772527E+03  0.25500000920E-02 0. -1.
    10030    2    1    2    0    0  0.00000000000E+00  0.00000000000E+00  0.38055893224E+03  0.13665543828E+04  0.13124960115E+04 0.  0.
        4    1    3    3  502    0 -0.19525223608E+03 -0.33381653214E+03 -0.36174916737E+03  0.52954790701E+03  0.12699999809E+01 0. -1.
       -4    1    3    3    0  502  0.19525223608E+03  0.33381653214E+03  0.74230809961E+03  0.83700647576E+03  0.12699999809E+01 0.  1.
</event>
<event>
 5   0  0.1237296E-04  0.2190556E+04  0.7818609E-02  0.8522369E-01
        2   -1    0    0  501    0  0.00000000000E+00  0.00000000000E+00  0.15289606057E+04  0.15289606057E+04  0.25500000920E-02 0. -1.
       -2   -1    0    0    0  501  0.00000000000E+00  0.00000000000E+00 -0.78460780952E+03  0.78460780952E+03  0.25500000920E-02 0.  1.
    10030    2    1    2    0    0  0.00000000000E+00  0.00000000000E+00  0.74435279614E+03  0.23135684152E+04  0.21905564879E+04 0.  0.
        1    1    3    3  502    0  0.82075087767E+03 -0.18921609351E+03  0.11116359269E+04  0.13946932162E+04  0.50400001928E-02 0. -1.
       -1    1    3    3    0  502 -0.82075087767E+03  0.18921609351E+03 -0.36728313073E+03  0.91887519903E+03  0.50400001928E-02 0.  1.
</event>
<event>
 5   0  0.1237296E-04  0.2408144E+04  0.7818609E-02  0.8436461E-01
       -2   -1    0    0    0  501  0.00000000000E+00  0.00000000000E+00  0.11703286814E+04  0.11703286814E+04  0.25500000920E-02 0. -1.
        2   -1    0    0  501    0  0.00000000000E+00  0.00000000000E+00 -0.12387877705E+04  0.12387877705E+04  0.25500000920E-02 0.  1.
    10030    2    1    2    0    0  0.00000000000E+00  0.00000000000E+00 -0.68459089108E+02  0.24091164519E+04  0.24081435655E+04 0.  0.
        1    1    3    3  502    0  0.74991180752E+03 -0.61376978277E+03 -0.74915648234E+03  0.12248740753E+04  0.50400001928E-02 0.  1.
       -1    1    3    3    0  502 -0.74991180752E+03  0.61376978277E+03  0.68069739324E+03  0.11842423766E+04  0.50400001928E-02 0. -1.
</event>
<event>
 5   0  0.1257524E-04  0.2277276E+04  0.7818609E-02  0.8486935E-01
        2   -1    0    0  501    0  0.00000000000E+00  0.00000000000E+00  0.87298848702E+03  0.87298848703E+03  0.25500000920E-02 0.  1.
       -2   -1    0    0    0  501  0.00000000000E+00  0.00000000000E+00 -0.14851241279E+04  0.14851241279E+04  0.25500000920E-02 0. -1.
    10030    2    1    2    0    0  0.00000000000E+00  0.00000000000E+00 -0.61213564087E+03  0.23581126149E+04  0.22772757984E+04 0.  0.
        3    1    3    3  502    0 -0.66613712270E+03  0.11361208830E+03  0.64289619362E+03  0.93271748071E+03  0.10100000352E+00 0.  1.
       -3    1    3    3    0  502  0.66613712270E+03 -0.11361208830E+03 -0.12550318345E+04  0.14253951342E+04  0.10100000352E+00 0. -1.
</event>
<event>
 5   0  0.1234988E-04  0.2301386E+04  0.7818609E-02  0.8477375E-01
       -2   -1    0    0    0  501  0.00000000000E+00  0.00000000000E+00  0.12507066203E+04  0.12507066203E+04  0.25500000920E-02 0. -1.
        2   -1    0    0  501    0  0.00000000000E+00  0.00000000000E+00 -0.10586769681E+04  0.10586769681E+04  0.25500000920E-02 0.  1.
    10030    2    1    2    0    0  0.00000000000E+00  0.00000000000E+00  0.19202965223E+03  0.23093835883E+04  0.23013859239E+04 0.  0.
        5    1    3    3  502    0 -0.91847183975E+03 -0.65273168906E+03  0.33011296391E+03  0.11741575010E+04  0.46999998093E+01 0.  1.
       -5    1    3    3    0  502  0.91847183975E+03  0.65273168906E+03 -0.13808331168E+03  0.11352260873E+04  0.46999998093E+01 0. -1.
</event>
<event>
 5   0  0.5663790E-05  0.2335338E+04  0.7818609E-02  0.8464117E-01
       -1   -1    0    0    0  501  0.00000000000E+00  0.00000000000E+00  0.17201604303E+04  0.17201604303E+04  0.50400001928E-02 0. -1.
        1   -1    0    0  501    0  0.00000000000E+00  0.00000000000E+00 -0.79263007933E+03  0.79263007935E+03  0.50400001928E-02 0.  1.
    10030    2    1    2    0    0  0.00000000000E+00  0.00000000000E+00  0.92753035094E+03  0.25127905096E+04  0.23353380041E+04 0.  0.
        3    1    3    3  502    0  0.42637383609E+03 -0.29924580419E+03  0.15882131540E+04  0.16714555729E+04  0.10100000352E+00 0. -1.
       -3    1    3    3    0  502 -0.42637383609E+03  0.29924580419E+03 -0.66068280302E+03  0.84133493677E+03  0.10100000352E+00 0.  1.
</event>
<event>
 5   0  0.5632156E-05  0.2297081E+04  0.7818609E-02  0.8479073E-01
        1   -1    0    0  501    0  0.00000000000E+00  0.00000000000E+00  0.96785601955E+03  0.96785601957E+03  0.50400001928E-02 0. -1.
       -1   -1    0    0    0  501  0.00000000000E+00  0.00000000000E+00 -0.13629561458E+04  0.13629561459E+04  0.50400001928E-02 0.  1.
    10030    2    1    2    0    0  0.00000000000E+00  0.00000000000E+00 -0.39510012629E+03  0.23308121654E+04  0.22970810261E+04 0.  0.
        4    1    3    3  502    0 -0.84948066633E+03  0.39593224576E+02 -0.98086973489E+03  0.12981879970E+04  0.12699999809E+01 0.  1.
       -4    1    3    3    0  502  0.84948066633E+03 -0.39593224576E+02  0.58576960860E+03  0.10326241684E+04  0.12699999809E+01 0. -1.
</event>
<event>
 5   0  0.1281432E-04  0.1886068E+04  0.7818609E-02  0.8661822E-01
        2   -1    0    0  501    0  0.00000000000E+00  0.00000000000E+00  0.77300604669E+03  0.77300604669E+03  0.25500000920E-02 0. -1.
       -2   -1    0    0    0  501  0.00000000000E+00  0.00000000000E+00 -0.11504609308E+04  0.11504609308E+04  0.25500000920E-02 0.  1.
    10030    2    1    2    0    0  0.00000000000E+00  0.00000000000E+00 -0.37745488413E+03  0.19234669775E+04  0.18860681388E+04 0.  0.
        4    1    3    3  502    0 -0.16084306513E+03 -0.67065160398E+03  0.46719591716E+03  0.83301722877E+03  0.12699999809E+01 0. -1.
       -4    1    3    3    0  502  0.16084306513E+03  0.67065160398E+03 -0.84465080129E+03  0.10904497487E+04  0.12699999809E+01 0.  1.
</event>
<event>
 5   0  0.5663790E-05  0.2000862E+04  0.7818609E-02  0.8606218E-01
        1   -1    0    0  501    0  0.00000000000E+00  0.00000000000E+00  0.26957530626E+04  0.26957530626E+04  0.50400001928E-02 0. -1.
       -1   -1    0    0    0  501  0.00000000000E+00  0.00000000000E+00 -0.37127375468E+03  0.37127375471E+03  0.50400001928E-02 0.  1.
    10030    2    1    2    0    0  0.00000000000E+00  0.00000000000E+00  0.23244793079E+04  0.30670268173E+04  0.20008621755E+04 0.  0.
        3    1    3    3  502    0  0.68635139926E+03 -0.55157763084E+03  0.18902175290E+04  0.20852430178E+04  0.10100000352E+00 0. -1.
       -3    1    3    3    0  502 -0.68635139926E+03  0.55157763084E+03  0.43426177886E+03  0.98178379946E+03  0.10100000352E+00 0.  1.
</event>
<event>
 5   0  0.5843670E-05  0.2307019E+04  0.7818609E-02  0.8475159E-01
       -1   -1    0    0    0  501  0.00000000000E+00  0.00000000000E+00  0.66699364458E+03  0.66699364460E+03  0.50400001928E-02 0. -1.
        1   -1    0    0  501    0  0.00000000000E+00  0.00000000000E+00 -0.19948976408E+04  0.19948976408E+04  0.50400001928E-02 0.  1.
    10030    2    1    2    0    0  0.00000000000E+00  0.00000000000E+00 -0.13279039962E+04  0.26618912854E+04  0.23070188972E+04 0.  0.
        2    1    3    3  502    0 -0.37306732889E+03 -0.86721049779E+03  0.10084268103E+03  0.94942220623E+03  0.25500000920E-02 0. -1.
       -2    1    3    3    0  502  0.37306732889E+03  0.86721049779E+03 -0.14287466772E+04  0.17124690791E+04  0.25500000920E-02 0.  1.
</event>
<event>
 5   0  0.5663790E-05  0.1218796E+04  0.7818609E-02  0.9096562E-01
        1   -1    0    0  501    0  0.00000000000E+00  0.00000000000E+00  0.52758958314E+03  0.52758958316E+03  0.50400001928E-02 0. -1.
       -1   -1    0    0    0  501  0.00000000000E+00  0.00000000000E+00 -0.70389181757E+03  0.70389181759E+03  0.50400001928E-02 0.  1.
    10030    2    1    2    0    0  0.00000000000E+00  0.00000000000E+00 -0.17630223443E+03  0.12314814007E+04  0.12187961120E+04 0.  0.
        3    1    3    3  502    0  0.30723548346E+03  0.10732502684E+03 -0.60873554077E+03  0.69026898560E+03  0.10100000352E+00 0.  1.
       -3    1    3    3    0  502 -0.30723548346E+03 -0.10732502684E+03  0.43243330634E+03  0.54121241515E+03  0.10100000352E+00 0. -1.
</event>
<event>
 5   0  0.5663790E-05  0.2323521E+04  0.7818609E-02  0.8468704E-01
       -1   -1    0    0    0  501  0.00000000000E+00  0.00000000000E+00  0.10965727333E+04  0.10965727333E+04  0.50400001928E-02 0.  1.
        1   -1    0    0  501    0  0.00000000000E+00  0.00000000000E+00 -0.12308237918E+04  0.12308237918E+04  0.50400001928E-02 0. -1.
    10030    2    1    2    0    0  0.00000000000E+00  0.00000000000E+00 -0.13425105853E+03  0.23273965251E+04  0.23235213015E+04 0.  0.
        3    1    3    3  502    0 -0.10323129666E+04  0.40755804776E+03  0.27683351497E+03  0.11438576960E+04  0.10100000352E+00 0.  1.
       -3    1    3    3    0  502  0.10323129666E+04 -0.40755804776E+03 -0.41108457349E+03  0.11835388292E+04  0.10100000352E+00 0. -1.
</event>
<event>
 5   0  0.5924654E-05  0.2208710E+04  0.7818609E-02  0.8514812E-01
        1   -1    0    0  501    0  0.00000000000E+00  0.00000000000E+00  0.15017458340E+04  0.15017458340E+04  0.50400001928E-02 0. -1.
       -1   -1    0    0    0  501  0.00000000000E+00  0.00000000000E+00 -0.81212123518E+03  0.81212123520E+03  0.50400001928E-02 0.  1.
    10030    2    1    2    0    0  0.00000000000E+00  0.00000000000E+00  0.68962459879E+03  0.23138670692E+04  0.22087097425E+04 0.  0.
        5    1    3    3  502    0  0.69693075249E+03 -0.21720680033E+02  0.12419688580E+04  0.14243219425E+04  0.46999998093E+01 0. -1.
       -5    1    3    3    0  502 -0.69693075249E+03  0.21720680033E+02 -0.55234425920E+03  0.88954512667E+03  0.46999998093E+01 0.  1.
</event>
<event>
 5   0  0.5843670E-05  0.1304123E+04  0.7818609E-02  0.9026302E-01
       -1   -1    0    0    0  501  0.00000000000E+00  0.00000000000E+00  0.20114117500E+04  0.20114117500E+04  0.50400001928E-02 0.  1.
        1   -1    0    0  501    0  0.00000000000E+00  0.00000000000E+00 -0.21138596472E+03  0.21138596478E+03  0.50400001928E-02 0. -1.
    10030    2    1    2    0    0  0.00000000000E+00  0.00000000000E+00  0.18000257852E+04  0.22227977147E+04  0.13041230207E+04 0.  0.
        2    1    3    3  502    0 -0.56087972279E+03 -0.29060672014E+03  0.11756153248E+04  0.13345822272E+04  0.25500000920E-02 0.  1.
       -2    1    3    3    0  502  0.56087972279E+03  0.29060672014E+03  0.62441046047E+03  0.88821548758E+03  0.25500000920E-02 0. -1.
</event>
<event>
 5   0  0.4489500E-05  0.2254545E+04  0.7818609E-02  0.8496062E-01
        3   -1    0    0  501    0  0.00000000000E+00  0.00000000000E+00  0.16220546954E+04  0.16220546986E+04  0.10100000352E+00 0. -1.
       -3   -1    0    0    0  501  0.00000000000E+00  0.00000000000E+00 -0.78341591776E+03  0.78341592427E+03  0.10100000352E+00 0.  1.
    10030    2    1    2    0    0  0.00000000000E+00  0.00000000000E+00  0.83863877765E+03  0.24054706228E+04  0.22545451687E+04 0.  0.
        3    1    3    3  502    0 -0.67878011708E+02  0.19112789255E+02  0.16196990932E+04  0.16212334458E+04  0.10100000352E+00 0. -1.
       -3    1    3    3    0  502  0.67878011708E+02 -0.19112789255E+02 -0.78106031550E+03  0.78423717704E+03  0.10100000352E+00 0.  1.
</event>
<event>
 5   0  0.4489500E-05  0.1249343E+04  0.7818609E-02  0.9070730E-01
        4   -1    0    0  501    0  0.00000000000E+00  0.00000000000E+00  0.38943558632E+03  0.38943765713E+03  0.12699999809E+01 0.  1.
       -4   -1    0    0    0  501  0.00000000000E+00  0.00000000000E+00 -0.10019953097E+04  0.10019961145E+04  0.12699999809E+01 0. -1.
    10030    2    1    2    0    0  0.00000000000E+00  0.00000000000E+00 -0.61255972338E+03  0.13914337717E+04  0.12493432380E+04 0.  0.
        5    1    3    3  502    0 -0.16044370272E+02 -0.60170126865E+03 -0.12028090836E+03  0.61383338572E+03  0.46999998093E+01 0.  1.
       -5    1    3    3    0  502  0.16044370272E+02  0.60170126865E+03 -0.49227881502E+03  0.77760038595E+03  0.46999998093E+01 0. -1.
</event>
<event>
 5   0  0.1234988E-04  0.2336427E+04  0.7818609E-02  0.8463695E-01
       -2   -1    0    0    0  501  0.00000000000E+00  0.00000000000E+00  0.99501231842E+03  0.99501231842E+03  0.25500000920E-02 0. -1.
        2   -1    0    0  501    0  0.00000000000E+00  0.00000000000E+00 -0.13715637194E+04  0.13715637194E+04  0.25500000920E-02 0.  1.
    10030    2    1    2    0    0  0.00000000000E+00  0.00000000000E+00 -0.37655140094E+03  0.23665760378E+04  0.23364270126E+04 0.  0.
        5    1    3    3  502    0 -0.10239969028E+04 -0.52795146287E+03  0.76061450998E+01  0.11521208042E+04  0.46999998093E+01 0. -1.
       -5    1    3    3    0  502  0.10239969028E+04  0.52795146287E+03 -0.38415754604E+03  0.12144552335E+04  0.46999998093E+01 0.  1.
</event>
<event>
 5   0  0.5642466E-05  0.2261161E+04  0.7818609E-02  0.8493394E-01
        1   -1    0    0  501    0  0.00000000000E+00  0.00000000000E+00  0.13244990884E+04  0.13244990884E+04  0.50400001928E-02 0. -1.
       -1   -1    0    0    0  501  0.00000000000E+00  0.00000000000E+00 -0.96505330972E+03  0.96505330973E+03  0.50400001928E-02 0.  1.
    10030    2    1    2    0    0  0.00000000000E+00  0.00000000000E+00  0.35944577867E+03  0.22895523981E+04  0.22611609664E+04 0.  0.
        1    1    3    3  502    0  0.55209484046E+03 -0.28873121386E+03  0.11349867187E+04  0.12947468009E+04  0.50400001928E-02 0. -1.
       -1    1    3    3    0  502 -0.55209484046E+03  0.28873121386E+03 -0.77554094001E+03  0.99480559728E+03  0.50400001928E-02 0.  1.
</event>
<event>
 5   0  0.1234988E-04  0.2210772E+04  0.7818609E-02  0.8513958E-01
        2   -1    0    0  501    0  0.00000000000E+00  0.00000000000E+00  0.13059378432E+04  0.13059378432E+04  0.25500000920E-02 0.  1.
       -2   -1    0    0    0  501  0.00000000000E+00  0.00000000000E+00 -0.93563306702E+03  0.93563306702E+03  0.25500000920E-02 0. -1.
    10030    2    1    2    0    0  0.00000000000E+00  0.00000000000E+00  0.37030477620E+03  0.22415709102E+04  0.22107723805E+04 0.  0.
        5    1    3    3  502    0 -0.77977499640E+03 -0.22903974683E+03 -0.57451704733E+03  0.99528899236E+03  0.46999998093E+01 0. -1.
       -5    1    3    3    0  502  0.77977499640E+03  0.22903974683E+03  0.94482182353E+03  0.12462819179E+04  0.46999998093E+01 0.  1.
</event>
<event>
 5   0  0.5663790E-05  0.2199740E+04  0.7818609E-02  0.8518536E-01
       -1   -1    0    0    0  501  0.00000000000E+00  0.00000000000E+00  0.85358817450E+03  0.85358817452E+03  0.50400001928E-02 0. -1.
        1   -1    0    0  501    0  0.00000000000E+00  0.00000000000E+00 -0.14172109095E+04  0.14172109095E+04  0.50400001928E-02 0.  1.
    10030    2    1    2    0    0  0.00000000000E+00  0.00000000000E+00 -0.56362273498E+03  0.22707990840E+04  0.21997404148E+04 0.  0.
        3    1    3    3  502    0  0.82725307158E+03  0.70324973903E+03 -0.10062341234E+03  0.10904278615E+04  0.10100000352E+00 0. -1.
       -3    1    3    3    0  502 -0.82725307158E+03 -0.70324973903E+03 -0.46299932264E+03  0.11803712225E+04  0.10100000352E+00 0.  1.
</event>
<event>
 5   0  0.1281432E-04  0.2244195E+04  0.7818609E-02  0.8500255E-01
        2   -1    0    0  501    0  0.00000000000E+00  0.00000000000E+00  0.22738824243E+04  0.22738824243E+04  0.25500000920E-02 0. -1.
       -2   -1    0    0    0  501  0.00000000000E+00  0.00000000000E+00 -0.55372356264E+03  0.55372356265E+03  0.25500000920E-02 0.  1.
    10030    2    1    2    0    0  0.00000000000E+00  0.00000000000E+00  0.17201588617E+04  0.28276059870E+04  0.22441945344E+04 0.  0.
        4    1    3    3  502    0 -0.17595980717E+03  0.82537069917E+03  0.17918589401E+04  0.19806460358E+04  0.12699999809E+01 0. -1.
       -4    1    3    3    0  502  0.17595980717E+03 -0.82537069917E+03 -0.71700078447E+02  0.84695995120E+03  0.12699999809E+01 0.  1.
</event>
<event>
 5   0  0.5632156E-05  0.2308843E+04  0.7818609E-02  0.8474443E-01
        1   -1    0    0  501    0  0.00000000000E+00  0.00000000000E+00  0.19454648806E+04  0.19454648806E+04  0.50400001928E-02 0.  1.
       -1   -1    0    0    0  501  0.00000000000E+00  0.00000000000E+00 -0.68502320153E+03  0.68502320154E+03  0.50400001928E-02 0. -1.
    10030    2    1    2    0    0  0.00000000000E+00  0.00000000000E+00  0.12604416791E+04  0.26304880821E+04  0.23088426373E+04 0.  0.
        4    1    3    3  502    0 -0.65082402729E+03  0.73316951319E+03 -0.64270316511E+02  0.98246716793E+03  0.12699999809E+01 0. -1.
       -4    1    3    3    0  502  0.65082402729E+03 -0.73316951319E+03  0.13247119956E+04  0.16480209142E+04  0.12699999809E+01 0.  1.
</event>
<event>
 5   0  0.1281432E-04  0.2295387E+04  0.7818609E-02  0.8479742E-01
       -2   -1    0    0    0  501  0.00000000000E+00  0.00000000000E+00  0.65173706447E+03  0.65173706447E+03  0.25500000920E-02 0.  1.
        2   -1    0    0  501    0  0.00000000000E+00  0.00000000000E+00 -0.20210602193E+04  0.20210602193E+04  0.25500000920E-02 0. -1.
    10030    2    1    2    0    0  0.00000000000E+00  0.00000000000E+00 -0.13693231549E+04  0.26727972838E+04  0.22953865509E+04 0.  0.
        4    1    3    3  502    0  0.27059511064E+02  0.56252023376E+01 -0.20206718479E+04  0.20208612495E+04  0.12699999809E+01 0. -1.
       -4    1    3    3    0  502 -0.27059511064E+02 -0.56252023376E+01  0.65134869301E+03  0.65193603431E+03  0.12699999809E+01 0.  1.
</event>
<event>
 5   0  0.1270613E-04  0.2274057E+04  0.7818609E-02  0.8488221E-01
        2   -1    0    0  501    0  0.00000000000E+00  0.00000000000E+00  0.16593781437E+04  0.16593781437E+04  0.25500000920E-02 0.  1.
       -2   -1    0    0    0  501  0.00000000000E+00  0.00000000000E+00 -0.77910715317E+03  0.77910715318E+03  0.25500000920E-02 0. -1.
    10030    2    1    2    0    0  0.00000000000E+00  0.00000000000E+00  0.88027099056E+03  0.24384852969E+04  0.22740566234E+04 0.  0.
        2    1    3    3  502    0  0.89260187984E+03 -0.57765225568E+03  0.87228044771E+03  0.13752430417E+04  0.25500000920E-02 0.  1.
       -2    1    3    3    0  502 -0.89260187984E+03  0.57765225568E+03  0.79905428438E+01  0.10632422552E+04  0.25500000920E-02 0. -1.
</event>
<event>
 5   0  0.5642466E-05  0.2241125E+04  0.7818609E-02  0.8501503E-01
        1   -1    0    0  501    0  0.00000000000E+00  0.00000000000E+00  0.10634208774E+04  0.10634208774E+04  0.50400001928E-02 0. -1.
       -1   -1    0    0    0  501  0.00000000000E+00  0.00000000000E+00 -0.11807745962E+04  0.11807745962E+04  0.50400001928E-02 0.  1.
    10030    2    1    2    0    0  0.00000000000E+00  0.00000000000E+00 -0.11735371874E+03  0.22441954736E+04  0.22411250363E+04 0.  0.
        1    1    3    3  502    0  0.51085360752E+03 -0.68122330595E+03 -0.78811411283E+03  0.11602415506E+04  0.50400001928E-02 0.  1.
       -1    1    3    3    0  502 -0.51085360752E+03  0.68122330595E+03  0.67076039409E+03  0.10839539230E+04  0.50400001928E-02 0. -1.
</event>
<event>
 5   0  0.4489500E-05  0.2186343E+04  0.7818609E-02  0.8524134E-01
        3   -1    0    0  501    0  0.00000000000E+00  0.00000000000E+00  0.10540832279E+04  0.10540832328E+04  0.10100000352E+00 0. -1.
       -3   -1    0    0    0  501  0.00000000000E+00  0.00000000000E+00 -0.11337097683E+04  0.11337097728E+04  0.10100000352E+00 0.  1.
    10030    2    1    2    0    0  0.00000000000E+00  0.00000000000E+00 -0.79626540415E+02  0.21877930056E+04  0.21863434884E+04 0.  0.
        2    1    3    3  502    0  0.10524184036E+03  0.20859910378E+03  0.10288062690E+04  0.10550032086E+04  0.25500000920E-02 0. -1.
       -2    1    3    3    0  502 -0.10524184036E+03 -0.20859910378E+03 -0.11084328094E+04  0.11327897970E+04  0.25500000920E-02 0.  1.
</event>
<event>
 5   0  0.5642466E-05  0.2323237E+04  0.7818609E-02  0.8468815E-01
       -1   -1    0    0    0  501  0.00000000000E+00  0.00000000000E+00  0.50724374048E+03  0.50724374051E+03  0.50400001928E-02 0.  1.
        1   -1    0    0  501    0  0.00000000000E+00  0.00000000000E+00 -0.26601766843E+04  0.26601766843E+04  0.50400001928E-02 0. -1.
    10030    2    1    2    0    0  0.00000000000E+00  0.00000000000E+00 -0.21529329438E+04  0.31674204248E+04  0.23232373721E+04 0.  0.
        1    1    3    3  502    0  0.20065605801E+03  0.39397743010E+03  0.38804193050E+03  0.58826661378E+03  0.50400001928E-02 0.  1.
       -1    1    3    3    0  502 -0.20065605801E+03 -0.39397743010E+03 -0.25409748743E+04  0.25791538110E+04  0.50400001928E-02 0. -1.
</event>
<event>
 5   0  0.1234988E-04  0.1539634E+04  0.7818609E-02  0.8858516E-01
       -2   -1    0    0    0  501  0.00000000000E+00  0.00000000000E+00  0.32432476916E+03  0.32432476917E+03  0.25500000920E-02 0. -1.
        2   -1    0    0  501    0  0.00000000000E+00  0.00000000000E+00 -0.18272380903E+04  0.18272380903E+04  0.25500000920E-02 0.  1.
    10030    2    1    2    0    0  0.00000000000E+00  0.00000000000E+00 -0.15029133212E+04  0.21515628595E+04  0.15396344655E+04 0.  0.
        5    1    3    3  502    0 -0.26158692854E+03  0.94202630815E+02 -0.17546028334E+04  0.17765007881E+04  0.46999998093E+01 0.  1.
       -5    1    3    3    0  502  0.26158692854E+03 -0.94202630815E+02  0.25168951229E+03  0.37506207144E+03  0.46999998093E+01 0. -1.
</event>
<event>
 5   0  0.1257524E-04  0.2260054E+04  0.7818609E-02  0.8493840E-01
        2   -1    0    0  501    0  0.00000000000E+00  0.00000000000E+00  0.16430983828E+04  0.16430983828E+04  0.25500000920E-02 0.  1.
       -2   -1    0    0    0  501  0.00000000000E+00  0.00000000000E+00 -0.77716618335E+03  0.77716618336E+03  0.25500000920E-02 0. -1.
    10030    2    1    2    0    0  0.00000000000E+00  0.00000000000E+00  0.86593219941E+03  0.24202645661E+04  0.22600535383E+04 0.  0.
        3    1    3    3  502    0  0.83994068224E+03 -0.45722314792E+03  0.10776435555E+04  0.14407876316E+04  0.10100000352E+00 0. -1.
       -3    1    3    3    0  502 -0.83994068224E+03  0.45722314792E+03 -0.21171135605E+03  0.97947693447E+03  0.10100000352E+00 0.  1.
</event>
<event>
 5   0  0.1257524E-04  0.2351120E+04  0.7818609E-02  0.8458034E-01
       -2   -1    0    0    0  501  0.00000000000E+00  0.00000000000E+00  0.12361355672E+04  0.12361355672E+04  0.25500000920E-02 0.  1.
        2   -1    0    0  501    0  0.00000000000E+00  0.00000000000E+00 -0.11179524340E+04  0.11179524341E+04  0.25500000920E-02 0. -1.
    10030    2    1    2    0    0  0.00000000000E+00  0.00000000000E+00  0.11818313312E+03  0.23540880012E+04  0.23511195343E+04 0.  0.
        3    1    3    3  502    0 -0.61265379998E+03 -0.23688002278E+03  0.10352501416E+04  0.12260504433E+04  0.10100000352E+00 0.  1.
       -3    1    3    3    0  502  0.61265379998E+03  0.23688002278E+03 -0.91706700844E+03  0.11280375579E+04  0.10100000352E+00 0. -1.
</event>
<event>
 5   0  0.5843670E-05  0.2273947E+04  0.7818609E-02  0.8488265E-01
       -1   -1    0    0    0  501  0.00000000000E+00  0.00000000000E+00  0.12553378354E+04  0.12553378354E+04  0.50400001928E-02 0. -1.
        1   -1    0    0  501    0  0.00000000000E+00  0.00000000000E+00 -0.10297692905E+04  0.10297692905E+04  0.50400001928E-02 0.  1.
    10030    2    1    2    0    0  0.00000000000E+00  0.00000000000E+00  0.22556854489E+03  0.22851071260E+04  0.22739466592E+04 0.  0.
        2    1    3    3  502    0 -0.98341991184E+03 -0.11182690482E+03 -0.44950495231E+03  0.10870486106E+04  0.25500000920E-02 0.  1.
       -2    1    3    3    0  502  0.98341991184E+03  0.11182690482E+03  0.67507349720E+03  0.11980585154E+04  0.25500000920E-02 0. -1.
</event>
<event>
 5   0  0.1281432E-04  0.2314301E+04  0.7818609E-02  0.8472304E-01
        2   -1    0    0  501    0  0.00000000000E+00  0.00000000000E+00  0.12691205864E+04  0.12691205864E+04  0.25500000920E-02 0. -1.
       -2   -1    0    0    0  501  0.00000000000E+00  0.00000000000E+00 -0.10550593012E+04  0.10550593012E+04  0.25500000920E-02 0.  1.
    10030    2    1    2    0    0  0.00000000000E+00  0.00000000000E+00  0.21406128521E+03  0.23241798876E+04  0.23143011723E+04 0.  0.
        4    1    3    3  502    0 -0.80815423854E+02  0.78513992346E+03 -0.74276098949E+03  0.10838225558E+04  0.12699999809E+01 0.  1.
       -4    1    3    3    0  502  0.80815423854E+02 -0.78513992346E+03  0.95682227470E+03  0.12403573317E+04  0.12699999809E+01 0. -1.
</event>
<event>
 5   0  0.5642466E-05  0.2195500E+04  0.7818609E-02  0.8520304E-01
       -1   -1    0    0    0  501  0.00000000000E+00  0.00000000000E+00  0.92540945115E+03  0.92540945116E+03  0.50400001928E-02 0. -1.
        1   -1    0    0  501    0  0.00000000000E+00  0.00000000000E+00 -0.13021856160E+04  0.13021856160E+04  0.50400001928E-02 0.  1.
    10030    2    1    2    0    0  0.00000000000E+00  0.00000000000E+00 -0.37677616487E+03  0.22275950672E+04  0.21954998303E+04 0.  0.
        1    1    3    3  502    0 -0.55463881719E+03 -0.75771570203E+02 -0.11464853996E+04  0.12758504300E+04  0.50400001928E-02 0.  1.
       -1    1    3    3    0  502  0.55463881719E+03  0.75771570203E+02  0.76970923468E+03  0.95174463716E+03  0.50400001928E-02 0. -1.
</event>
<event>
 5   0  0.1257524E-04  0.1896271E+04  0.7818609E-02  0.8656715E-01
       -2   -1    0    0    0  501  0.00000000000E+00  0.00000000000E+00  0.59457335660E+03  0.59457335660E+03  0.25500000920E-02 0.  1.
        2   -1    0    0  501    0  0.00000000000E+00  0.00000000000E+00 -0.15119423597E+04  0.15119423597E+04  0.25500000920E-02 0. -1.
    10030    2    1    2    0    0  0.00000000000E+00  0.00000000000E+00 -0.91736900308E+03  0.21065157163E+04  0.18962707020E+04 0.  0.
        3    1    3    3  502    0 -0.80809582301E+02 -0.13633175059E+03 -0.14971243555E+04  0.15054892496E+04  0.10100000352E+00 0. -1.
       -3    1    3    3    0  502  0.80809582301E+02  0.13633175059E+03  0.57975535238E+03  0.60102646666E+03  0.10100000352E+00 0.  1.
</event>
<event>
 5   0  0.5642466E-05  0.2007683E+04  0.7818609E-02  0.8603037E-01
       -1   -1    0    0    0  501  0.00000000000E+00  0.00000000000E+00  0.66204897880E+03  0.66204897881E+03  0.50400001928E-02 0. -1.
        1   -1    0    0  501    0  0.00000000000E+00  0.00000000000E+00 -0.15220895311E+04  0.15220895311E+04  0.50400001928E-02 0.  1.
    10030    2    1    2    0    0  0.00000000000E+00  0.00000000000E+00 -0.86004055228E+03  0.21841385099E+04  0.20076830624E+04 0.  0.
        1    1    3    3  502    0  0.38811435162E+03  0.13874556949E+03  0.56574967963E+03  0.69996841573E+03  0.50400001928E-02 0. -1.
       -1    1    3    3    0  502 -0.38811435162E+03 -0.13874556949E+03 -0.14257902319E+04  0.14841700942E+04  0.50400001928E-02 0.  1.
</event>
<event>
 5   0  0.1234988E-04  0.2312951E+04  0.7818609E-02  0.8472832E-01
       -2   -1    0    0    0  501  0.00000000000E+00  0.00000000000E+00  0.10498335510E+04  0.10498335510E+04  0.25500000920E-02 0. -1.
        2   -1    0    0  501    0  0.00000000000E+00  0.00000000000E+00 -0.12739499306E+04  0.12739499306E+04  0.25500000920E-02 0.  1.
    10030    2    1    2    0    0  0.00000000000E+00  0.00000000000E+00 -0.22411637951E+03  0.23237834816E+04  0.23129508248E+04 0.  0.
        5    1    3    3  502    0  0.11263245593E+04 -0.87447742830E+02  0.13640385093E+03  0.11379289175E+04  0.46999998093E+01 0.  1.
       -5    1    3    3    0  502 -0.11263245593E+04  0.87447742830E+02 -0.36052023044E+03  0.11858545641E+04  0.46999998093E+01 0. -1.
</event>
<event>
 5   0  0.4489500E-05  0.2297438E+04  0.7818609E-02  0.8478932E-01
        3   -1    0    0  501    0  0.00000000000E+00  0.00000000000E+00  0.16671013694E+04  0.16671013725E+04  0.10100000352E+00 0.  1.
       -3   -1    0    0    0  501  0.00000000000E+00  0.00000000000E+00 -0.79152699401E+03  0.79152700045E+03  0.10100000352E+00 0. -1.
    10030    2    1    2    0    0  0.00000000000E+00  0.00000000000E+00  0.87557437541E+03  0.24586283729E+04  0.22974383538E+04 0.  0.
        4    1    3    3  502    0 -0.65642317717E+03 -0.90432694573E+03  0.15292429934E+03  0.11278679296E+04  0.12699999809E+01 0.  1.
       -4    1    3    3    0  502  0.65642317717E+03  0.90432694573E+03  0.72265007607E+03  0.13307604434E+04  0.12699999809E+01 0. -1.
</event>
<event>
 5   0  0.5632156E-05  0.2322196E+04  0.7818609E-02  0.8469221E-01
       -1   -1    0    0    0  501  0.00000000000E+00  0.00000000000E+00  0.47201161787E+03  0.47201161790E+03  0.50400001928E-02 0.  1.
        1   -1    0    0  501    0  0.00000000000E+00  0.00000000000E+00 -0.28561760861E+04  0.28561760861E+04  0.50400001928E-02 0. -1.
    10030    2    1    2    0    0  0.00000000000E+00  0.00000000000E+00 -0.23841644682E+04  0.33281877040E+04  0.23221957673E+04 0.  0.
        4    1    3    3  502    0 -0.96016072732E+03  0.63234884416E+03 -0.95933273991E+03  0.14973625485E+04  0.12699999809E+01 0. -1.
       -4    1    3    3    0  502  0.96016072732E+03 -0.63234884416E+03 -0.14248317283E+04  0.18308251555E+04  0.12699999809E+01 0.  1.
</event>
<event>
 5   0  0.1270613E-04  0.2083372E+04  0.7818609E-02  0.8568604E-01
        2   -1    0    0  501    0  0.00000000000E+00  0.00000000000E+00  0.10913362112E+04  0.10913362112E+04  0.25500000920E-02 0. -1.
       -2   -1    0    0    0  501  0.00000000000E+00  0.00000000000E+00 -0.99429439603E+03  0.99429439603E+03  0.25500000920E-02 0.  1.
    10030    2    1    2    0    0  0.00000000000E+00  0.00000000000E+00  0.97041815147E+02  0.20856306072E+04  0.20833717661E+04 0.  0.
        2    1    3    3  502    0  0.66953507486E+03 -0.37336466713E+03  0.75457354424E+03  0.10756670604E+04  0.25500000920E-02 0. -1.
       -2    1    3    3    0  502 -0.66953507486E+03  0.37336466713E+03 -0.65753172909E+03  0.10099635468E+04  0.25500000920E-02 0.  1.
</event>
<event>
 5   0  0.1257524E-04  0.2302728E+04  0.7818609E-02  0.8476846E-01
       -2   -1    0    0    0  501  0.00000000000E+00  0.00000000000E+00  0.56316244548E+03  0.56316244548E+03  0.25500000920E-02 0. -1.
        2   -1    0    0  501    0  0.00000000000E+00  0.00000000000E+00 -0.23539188139E+04  0.23539188139E+04  0.25500000920E-02 0.  1.
    10030    2    1    2    0    0  0.00000000000E+00  0.00000000000E+00 -0.17907563685E+04  0.29170812594E+04  0.23027276658E+04 0.  0.
        3    1    3    3  502    0  0.10968426394E+04  0.33807884515E+03 -0.78012371954E+03  0.13877874870E+04  0.10100000352E+00 0. -1.
       -3    1    3    3    0  502 -0.10968426394E+04 -0.33807884515E+03 -0.10106326489E+04  0.15292937724E+04  0.10100000352E+00 0.  1.
</event>
<event>
 5   0  0.5663790E-05  0.2103400E+04  0.7818609E-02  0.8559747E-01
       -1   -1    0    0    0  501  0.00000000000E+00  0.00000000000E+00  0.13217648219E+04  0.13217648219E+04  0.50400001928E-02 0.  1.
        1   -1    0    0  501    0  0.00000000000E+00  0.00000000000E+00 -0.83681501699E+03  0.83681501701E+03  0.50400001928E-02 0. -1.
    10030    2    1    2    0    0  0.00000000000E+00  0.00000000000E+00  0.48494980493E+03  0.21585798389E+04  0.21033997737E+04 0.  0.
        3    1    3    3  502    0  0.89640396582E+02  0.92113040496E+03 -0.27018614121E+03  0.96411471555E+03  0.10100000352E+00 0. -1.
       -3    1    3    3    0  502 -0.89640396582E+02 -0.92113040496E+03  0.75513594614E+03  0.11944651234E+04  0.10100000352E+00 0.  1.
</event>
<event>
 5   0  0.1234988E-04  0.1878945E+04  0.7818609E-02  0.8665408E-01
       -2   -1    0    0    0  501  0.00000000000E+00  0.00000000000E+00  0.55176164683E+03  0.55176164684E+03  0.25500000920E-02 0. -1.
        2   -1    0    0  501    0  0.00000000000E+00  0.00000000000E+00 -0.15996195744E+04  0.15996195744E+04  0.25500000920E-02 0.  1.
    10030    2    1    2    0    0  0.00000000000E+00  0.00000000000E+00 -0.10478579276E+04  0.21513812212E+04  0.18789451622E+04 0.  0.
        5    1    3    3  502    0 -0.48113421984E+03  0.50655828631E+03  0.19522873338E+03  0.72541559348E+03  0.46999998093E+01 0.  1.
       -5    1    3    3    0  502  0.48113421984E+03 -0.50655828631E+03 -0.12430866610E+04  0.14259656278E+04  0.46999998093E+01 0. -1.
</event>
<event>
 5   0  0.1281432E-04  0.2330240E+04  0.7818609E-02  0.8466092E-01
       -2   -1    0    0    0  501  0.00000000000E+00  0.00000000000E+00  0.89894842464E+03  0.89894842465E+03  0.25500000920E-02 0.  1.
        2   -1    0    0  501    0  0.00000000000E+00  0.00000000000E+00 -0.15101033557E+04  0.15101033557E+04  0.25500000920E-02 0. -1.
    10030    2    1    2    0    0  0.00000000000E+00  0.00000000000E+00 -0.61115493105E+03  0.24090517803E+04  0.23302403590E+04 0.  0.
        4    1    3    3  502    0 -0.99615787904E+03 -0.24900102088E+03  0.26365481896E+03  0.10601167411E+04  0.12699999809E+01 0.  1.
       -4    1    3    3    0  502  0.99615787904E+03  0.24900102088E+03 -0.87480975001E+03  0.13489350392E+04  0.12699999809E+01 0. -1.
</event>
<event>
 5   0  0.1270613E-04  0.2313833E+04  0.7818609E-02  0.8472487E-01
        2   -1    0    0  501    0  0.00000000000E+00  0.00000000000E+00  0.20986282755E+04  0.20986282755E+04  0.25500000920E-02 0. -1.
       -2   -1    0    0    0  501  0.00000000000E+00  0.00000000000E+00 -0.63777674230E+03  0.63777674231E+03  0.25500000920E-02 0.  1.
    10030    2    1    2    0    0  0.00000000000E+00  0.00000000000E+00  0.14608515332E+04  0.27364050178E+04  0.23138334468E+04 0.  0.
        2    1    3    3  502    0  0.36066990752E+03  0.68125876578E+03 -0.28983368736E+03  0.82352890325E+03  0.25500000920E-02 0.  1.
       -2    1    3    3    0  502 -0.36066990752E+03 -0.68125876578E+03  0.17506852205E+04  0.19128761145E+04  0.25500000920E-02 0. -1.
</event>
<event>
 5   0  0.5843670E-05  0.2656773E+04  0.7818609E-02  0.8349168E-01
       -1   -1    0    0    0  501  0.00000000000E+00  0.00000000000E+00  0.13287316928E+04  0.13287316928E+04  0.50400001928E-02 0.  1.
        1   -1    0    0  501    0  0.00000000000E+00  0.00000000000E+00 -0.13280413184E+04  0.13280413184E+04  0.50400001928E-02 0. -1.
    10030    2    1    2    0    0  0.00000000000E+00  0.00000000000E+00  0.69037434659E+00  0.26567730112E+04  0.26567729215E+04 0.  0.
        2    1    3    3  502    0  0.17936849680E+03 -0.39166154120E+03 -0.12562529487E+04  0.13280599729E+04  0.25500000920E-02 0. -1.
       -2    1    3    3    0  502 -0.17936849680E+03  0.39166154120E+03  0.12569433231E+04  0.13287130382E+04  0.25500000920E-02 0.  1.
</event>
<event>
 5   0  0.1270613E-04  0.2408548E+04  0.7818609E-02  0.8436310E-01
        2   -1    0    0  501    0  0.00000000000E+00  0.00000000000E+00  0.16625380125E+04  0.16625380125E+04  0.25500000920E-02 0. -1.
       -2   -1    0    0    0  501  0.00000000000E+00  0.00000000000E+00 -0.87232621982E+03  0.87232621982E+03  0.25500000920E-02 0.  1.
    10030    2    1    2    0    0  0.00000000000E+00  0.00000000000E+00  0.79021179271E+03  0.25348642323E+04  0.24085476950E+04 0.  0.
        2    1    3    3  502    0  0.80940409001E+02 -0.51487669107E+03  0.15376881846E+04  0.16236176613E+04  0.25500000920E-02 0. -1.
       -2    1    3    3    0  502 -0.80940409001E+02  0.51487669107E+03 -0.74747639192E+03  0.91124657108E+03  0.25500000920E-02 0.  1.
</event>
<event>
 5   0  0.1234988E-04  0.1578616E+04  0.7818609E-02  0.8833794E-01
        2   -1    0    0  501    0  0.00000000000E+00  0.00000000000E+00  0.12450136156E+04  0.12450136156E+04  0.25500000920E-02 0.  1.
       -2   -1    0    0    0  501  0.00000000000E+00  0.00000000000E+00 -0.50040208741E+03  0.50040208742E+03  0.25500000920E-02 0. -1.
    10030    2    1    2    0    0  0.00000000000E+00  0.00000000000E+00  0.74461152821E+03  0.17454157030E+04  0.15786163715E+04 0.  0.
        5    1    3    3  502    0 -0.21849940170E+03  0.38404560273E+03 -0.35082769638E+03  0.56421199568E+03  0.46999998093E+01 0. -1.
       -5    1    3    3    0  502  0.21849940170E+03 -0.38404560273E+03  0.10954392246E+04  0.11812037074E+04  0.46999998093E+01 0.  1.
</event>
<event>
 5   0  0.1281432E-04  0.2298638E+04  0.7818609E-02  0.8478458E-01
       -2   -1    0    0    0  501  0.00000000000E+00  0.00000000000E+00  0.10620647328E+04  0.10620647329E+04  0.25500000920E-02 0. -1.
        2   -1    0    0  501    0  0.00000000000E+00  0.00000000000E+00 -0.12437412499E+04  0.12437412499E+04  0.25500000920E-02 0.  1.
    10030    2    1    2    0    0  0.00000000000E+00  0.00000000000E+00 -0.18167651708E+03  0.23058059828E+04  0.22986376124E+04 0.  0.
        4    1    3    3  502    0  0.49670249849E+03  0.52445657498E+03  0.80590933162E+03  0.10822474462E+04  0.12699999809E+01 0. -1.
       -4    1    3    3    0  502 -0.49670249849E+03 -0.52445657498E+03 -0.98758584870E+03  0.12235585366E+04  0.12699999809E+01 0.  1.
</event>
<event>
 5   0  0.1270613E-04  0.2321094E+04  0.7818609E-02  0.8469650E-01
       -2   -1    0    0    0  501  0.00000000000E+00  0.00000000000E+00  0.35132766537E+04  0.35132766537E+04  0.25500000920E-02 0. -1.
        2   -1    0    0  501    0  0.00000000000E+00  0.00000000000E+00 -0.38336565275E+03  0.38336565276E+03  0.25500000920E-02 0.  1.
    10030    2    1    2    0    0  0.00000000000E+00  0.00000000000E+00  0.31299110009E+04  0.38966423064E+04  0.23210942227E+04 0.  0.
        2    1    3    3  502    0  0.42478473143E+02  0.96328245625E+02 -0.37533260807E+03  0.38981805791E+03  0.25500000920E-02 0.  1.
       -2    1    3    3    0  502 -0.42478473143E+02 -0.96328245625E+02  0.35052436090E+04  0.35068242485E+04  0.25500000920E-02 0. -1.
</event>
<event>
 5   0  0.1234988E-04  0.2226687E+04  0.7818609E-02  0.8507402E-01
        2   -1    0    0  501    0  0.00000000000E+00  0.00000000000E+00  0.11337969409E+04  0.11337969409E+04  0.25500000920E-02 0. -1.
       -2   -1    0    0    0  501  0.00000000000E+00  0.00000000000E+00 -0.10932591048E+04  0.10932591048E+04  0.25500000920E-02 0.  1.
    10030    2    1    2    0    0  0.00000000000E+00  0.00000000000E+00  0.40537836181E+02  0.22270560457E+04  0.22266870715E+04 0.  0.
        5    1    3    3  502    0  0.97223208705E+03 -0.49274379828E+03 -0.20666084920E+03  0.11093973492E+04  0.46999998093E+01 0.  1.
       -5    1    3    3    0  502 -0.97223208705E+03  0.49274379828E+03  0.24719868538E+03  0.11176586965E+04  0.46999998093E+01 0. -1.
</event>
<event>
 5   0  0.5642466E-05  0.1954707E+04  0.7818609E-02  0.8628095E-01
       -1   -1    0    0    0  501  0.00000000000E+00  0.00000000000E+00  0.81008218263E+03  0.81008218264E+03  0.50400001928E-02 0. -1.
        1   -1    0    0  501    0  0.00000000000E+00  0.00000000000E+00 -0.11791636600E+04  0.11791636600E+04  0.50400001928E-02 0.  1.
    10030    2    1    2    0    0  0.00000000000E+00  0.00000000000E+00 -0.36908147736E+03  0.19892458426E+04  0.19547065983E+04 0.  0.
        1    1    3    3  502    0  0.38652151087E+03  0.52617440305E+03 -0.92468903491E+03  0.11319488469E+04  0.50400001928E-02 0. -1.
       -1    1    3    3    0  502 -0.38652151087E+03 -0.52617440305E+03  0.55560755755E+03  0.85729699569E+03  0.50400001928E-02 0.  1.
</event>
<event>
 5   0  0.1257524E-04  0.2221627E+04  0.7818609E-02  0.8509480E-01
       -2   -1    0    0    0  501  0.00000000000E+00  0.00000000000E+00  0.93310091574E+03  0.93310091575E+03  0.25500000920E-02 0.  1.
        2   -1    0    0  501    0  0.00000000000E+00  0.00000000000E+00 -0.13223722095E+04  0.13223722095E+04  0.25500000920E-02 0. -1.
    10030    2    1    2    0    0  0.00000000000E+00  0.00000000000E+00 -0.38927129372E+03  0.22554731252E+04  0.22216270791E+04 0.  0.
        3    1    3    3  502    0 -0.45283240431E+03 -0.23682401048E+03  0.80667819890E+03  0.95492016688E+03  0.10100000352E+00 0.  1.
       -3    1    3    3    0  502  0.45283240431E+03  0.23682401048E+03 -0.11959494926E+04  0.13005529583E+04  0.10100000352E+00 0. -1.
</event>
<event>
 5   0  0.5642466E-05  0.1853236E+04  0.7818609E-02  0.8678491E-01
        1   -1    0    0  501    0  0.00000000000E+00  0.00000000000E+00  0.10455428486E+04  0.10455428486E+04  0.50400001928E-02 0. -1.
       -1   -1    0    0    0  501  0.00000000000E+00  0.00000000000E+00 -0.82121986938E+03  0.82121986940E+03  0.50400001928E-02 0.  1.
    10030    2    1    2    0    0  0.00000000000E+00  0.00000000000E+00  0.22432297918E+03  0.18667627180E+04  0.18532356154E+04 0.  0.
        1    1    3    3  502    0  0.34789732835E+03  0.17491429027E+03 -0.73480463061E+03  0.83160411568E+03  0.50400001928E-02 0.  1.
       -1    1    3    3    0  502 -0.34789732835E+03 -0.17491429027E+03  0.95912760979E+03  0.10351586023E+04  0.50400001928E-02 0. -1.
</event>
<event>
 5   0  0.1270613E-04  0.2332320E+04  0.7818609E-02  0.8465286E-01
        2   -1    0    0  501    0  0.00000000000E+00  0.00000000000E+00  0.20219913564E+04  0.20219913564E+04  0.25500000920E-02 0.  1.
       -2   -1    0    0    0  501  0.00000000000E+00  0.00000000000E+00 -0.67256911500E+03  0.67256911501E+03  0.25500000920E-02 0. -1.
    10030    2    1    2    0    0  0.00000000000E+00  0.00000000000E+00  0.13494222414E+04  0.26945604714E+04  0.23323198213E+04 0.  0.
        2    1    3    3  502    0 -0.28497293841E+02 -0.77140574345E+03 -0.33514784868E+03  0.84154797680E+03  0.25500000920E-02 0. -1.
       -2    1    3    3    0  502  0.28497293841E+02  0.77140574345E+03  0.16845700901E+04  0.18530124946E+04  0.25500000920E-02 0.  1.
</event>
<event>
 5   0  0.1234988E-04  0.1774570E+04  0.7818609E-02  0.8719941E-01
       -2   -1    0    0    0  501  0.00000000000E+00  0.00000000000E+00  0.53100568884E+03  0.53100568885E+03  0.25500000920E-02 0. -1.
        2   -1    0    0  501    0  0.00000000000E+00  0.00000000000E+00 -0.14826111073E+04  0.14826111073E+04  0.25500000920E-02 0.  1.
    10030    2    1    2    0    0  0.00000000000E+00  0.00000000000E+00 -0.95160541844E+03  0.20136167961E+04  0.17745702943E+04 0.  0.
        5    1    3    3  502    0  0.20038800066E+03  0.31824983993E+03 -0.13876823596E+04  0.14377491898E+04  0.46999998093E+01 0.  1.
       -5    1    3    3    0  502 -0.20038800066E+03 -0.31824983993E+03  0.43607694120E+03  0.57586760637E+03  0.46999998093E+01 0. -1.
</event>
<event>
 5   0  0.5642466E-05  0.2152753E+04  0.7818609E-02  0.8538355E-01
       -1   -1    0    0    0  501  0.00000000000E+00  0.00000000000E+00  0.82959336901E+03  0.82959336903E+03  0.50400001928E-02 0. -1.
        1   -1    0    0  501    0  0.00000000000E+00  0.00000000000E+00 -0.13965708088E+04  0.13965708088E+04  0.50400001928E-02 0.  1.
    10030    2    1    2    0    0  0.00000000000E+00  0.00000000000E+00 -0.56697743977E+03  0.22261641778E+04  0.21527525472E+04 0.  0.
        1    1    3    3  502    0 -0.67882779038E+02  0.26680999955E+03 -0.13595456368E+04  0.13871409395E+04  0.50400001928E-02 0.  1.
       -1    1    3    3    0  502  0.67882779038E+02 -0.26680999955E+03  0.79256819699E+03  0.83902323833E+03  0.50400001928E-02 0. -1.
</event>
<event>
 5   0  0.5632156E-05  0.2285756E+04  0.7818609E-02  0.8483558E-01
       -1   -1    0    0    0  501  0.00000000000E+00  0.00000000000E+00  0.55544980705E+03  0.55544980707E+03  0.50400001928E-02 0.  1.
        1   -1    0    0  501    0  0.00000000000E+00  0.00000000000E+00 -0.23515545348E+04  0.23515545348E+04  0.50400001928E-02 0. -1.
    10030    2    1    2    0    0  0.00000000000E+00  0.00000000000E+00 -0.17961047277E+04  0.29070043418E+04  0.22857563410E+04 0.  0.
        4    1    3    3  502    0  0.89016271376E+02 -0.89362438417E+03  0.95227339085E+00  0.89804841533E+03  0.12699999809E+01 0.  1.
       -4    1    3    3    0  502 -0.89016271376E+02  0.89362438417E+03 -0.17970570011E+04  0.20089559265E+04  0.12699999809E+01 0. -1.
</event>
<event>
 5   0  0.5663790E-05  0.2444430E+04  0.7818609E-02  0.8423055E-01
       -1   -1    0    0    0  501  0.00000000000E+00  0.00000000000E+00  0.13791926260E+04  0.13791926260E+04  0.50400001928E-02 0. -1.
        1   -1    0    0  501    0  0.00000000000E+00  0.00000000000E+00 -0.10831040409E+04  0.10831040409E+04  0.50400001928E-02 0.  1.
    10030    2    1    2    0    0  0.00000000000E+00  0.00000000000E+00  0.29608858503E+03  0.24622966669E+04  0.24444296729E+04 0.  0.
        3    1    3    3  502    0 -0.27846748980E+03 -0.11451281997E+04 -0.17827783186E+03  0.11919084411E+04  0.10100000352E+00 0.  1.
       -3    1    3    3    0  502  0.27846748980E+03  0.11451281997E+04  0.47436641689E+03  0.12703882258E+04  0.10100000352E+00 0. -1.
</event>
<event>
 5   0  0.4489500E-05  0.2122949E+04  0.7818609E-02  0.8551201E-01
        3   -1    0    0  501    0  0.00000000000E+00  0.00000000000E+00  0.14373003447E+04  0.14373003483E+04  0.10100000352E+00 0. -1.
       -3   -1    0    0    0  501  0.00000000000E+00  0.00000000000E+00 -0.78391951739E+03  0.78391952390E+03  0.10100000352E+00 0.  1.
    10030    2    1    2    0    0  0.00000000000E+00  0.00000000000E+00  0.65338082734E+03  0.22212198722E+04  0.21229487076E+04 0.  0.
        4    1    3    3  502    0  0.92978769428E+03 -0.50260301003E+03  0.22411531173E+03  0.10804370541E+04  0.12699999809E+01 0.  1.
       -4    1    3    3    0  502 -0.92978769428E+03  0.50260301003E+03  0.42926551561E+03  0.11407828180E+04  0.12699999809E+01 0. -1.
</event>
<event>
 5   0  0.5924654E-05  0.2309149E+04  0.7818609E-02  0.8474323E-01
        1   -1    0    0  501    0  0.00000000000E+00  0.00000000000E+00  0.18105828895E+04  0.18105828895E+04  0.50400001928E-02 0.  1.
       -1   -1    0    0    0  501  0.00000000000E+00  0.00000000000E+00 -0.73625013524E+03  0.73625013525E+03  0.50400001928E-02 0. -1.
    10030    2    1    2    0    0  0.00000000000E+00  0.00000000000E+00  0.10743327542E+04  0.25468330247E+04  0.23091486719E+04 0.  0.
        5    1    3    3  502    0  0.90800437045E+03  0.37148945458E+03 -0.13421323841E+03  0.99020787463E+03  0.46999998093E+01 0. -1.
       -5    1    3    3    0  502 -0.90800437045E+03 -0.37148945458E+03  0.12085459927E+04  0.15566251501E+04  0.46999998093E+01 0.  1.
</event>
<event>
 5   0  0.5663790E-05  0.1249098E+04  0.7818609E-02  0.9070934E-01
       -1   -1    0    0    0  501  0.00000000000E+00  0.00000000000E+00  0.34926685445E+03  0.34926685448E+03  0.50400001928E-02 0. -1.
        1   -1    0    0  501    0  0.00000000000E+00  0.00000000000E+00 -0.11168014070E+04  0.11168014070E+04  0.50400001928E-02 0.  1.
    10030    2    1    2    0    0  0.00000000000E+00  0.00000000000E+00 -0.76753455254E+03  0.14660682615E+04  0.12490984181E+04 0.  0.
        3    1    3    3  502    0  0.12540764378E+02  0.61707904124E+03 -0.49584123615E+03  0.79170850417E+03  0.10100000352E+00 0.  1.
       -3    1    3    3    0  502 -0.12540764378E+02 -0.61707904124E+03 -0.27169331638E+03  0.67435975731E+03  0.10100000352E+00 0. -1.
</event>
<event>
 5   0  0.1234988E-04  0.2365729E+04  0.7818609E-02  0.8452447E-01
        2   -1    0    0  501    0  0.00000000000E+00  0.00000000000E+00  0.13151369934E+04  0.13151369934E+04  0.25500000920E-02 0. -1.
       -2   -1    0    0    0  501  0.00000000000E+00  0.00000000000E+00 -0.10638958012E+04  0.10638958012E+04  0.25500000920E-02 0.  1.
    10030    2    1    2    0    0  0.00000000000E+00  0.00000000000E+00  0.25124119220E+03  0.23790327945E+04  0.23657292535E+04 0.  0.
        5    1    3    3  502    0 -0.67532033255E+03 -0.53268287132E+03  0.94218314173E+03  0.12757506635E+04  0.46999998093E+01 0. -1.
       -5    1    3    3    0  502  0.67532033255E+03  0.53268287132E+03 -0.69094194953E+03  0.11032821310E+04  0.46999998093E+01 0.  1.
</event>
<event>
 5   0  0.5924654E-05  0.2189776E+04  0.7818609E-02  0.8522696E-01
        1   -1    0    0  501    0  0.00000000000E+00  0.00000000000E+00  0.18191158648E+04  0.18191158648E+04  0.50400001928E-02 0. -1.
       -1   -1    0    0    0  501  0.00000000000E+00  0.00000000000E+00 -0.65899021044E+03  0.65899021046E+03  0.50400001928E-02 0.  1.
    10030    2    1    2    0    0  0.00000000000E+00  0.00000000000E+00  0.11601256544E+04  0.24781060753E+04  0.21897758302E+04 0.  0.
        5    1    3    3  502    0 -0.11655376884E+03 -0.75050068489E+03 -0.31239557805E+03  0.82124852891E+03  0.46999998093E+01 0.  1.
       -5    1    3    3    0  502  0.11655376884E+03  0.75050068489E+03  0.14725212324E+04  0.16568575464E+04  0.46999998093E+01 0. -1.
</event>
<event>
 5   0  0.1234988E-04  0.2295102E+04  0.7818609E-02  0.8479855E-01
       -2   -1    0    0    0  501  0.00000000000E+00  0.00000000000E+00  0.65318305810E+03  0.65318305811E+03  0.25500000920E-02 0. -1.
        2   -1    0    0  501    0  0.00000000000E+00  0.00000000000E+00 -0.20160856255E+04  0.20160856255E+04  0.25500000920E-02 0.  1.
    10030    2    1    2    0    0  0.00000000000E+00  0.00000000000E+00 -0.13629025674E+04  0.26692686836E+04  0.22951017183E+04 0.  0.
        5    1    3    3  502    0  0.18158290462E+03 -0.43086919085E+01 -0.19992503086E+04  0.20074896769E+04  0.46999998093E+01 0.  1.
       -5    1    3    3    0  502 -0.18158290462E+03  0.43086919085E+01  0.63634774121E+03  0.66177900679E+03  0.46999998093E+01 0. -1.
</event>
<event>
 5   0  0.5632156E-05  0.2031773E+04  0.7818609E-02  0.8591908E-01
        1   -1    0    0  501    0  0.00000000000E+00  0.00000000000E+00  0.16285232733E+04  0.16285232733E+04  0.50400001928E-02 0.  1.
       -1   -1    0    0    0  501  0.00000000000E+00  0.00000000000E+00 -0.63371859742E+03  0.63371859744E+03  0.50400001928E-02 0. -1.
    10030    2    1    2    0    0  0.00000000000E+00  0.00000000000E+00  0.99480467589E+03  0.22622418708E+04  0.20317731022E+04 0.  0.
        4    1    3    3  502    0  0.11198422193E+02  0.75536531650E+03  0.12536530112E+04  0.14636767578E+04  0.12699999809E+01 0.  1.
       -4    1    3    3    0  502 -0.11198422193E+02 -0.75536531650E+03 -0.25884833530E+03  0.79856511294E+03  0.12699999809E+01 0. -1.
</event>
<event>
 5   0  0.5924654E-05  0.1311389E+04  0.7818609E-02  0.9020582E-01
       -1   -1    0    0    0  501  0.00000000000E+00  0.00000000000E+00  0.39163389809E+03  0.39163389812E+03  0.50400001928E-02 0. -1.
        1   -1    0    0  501    0  0.00000000000E+00  0.00000000000E+00 -0.10977983309E+04  0.10977983310E+04  0.50400001928E-02 0.  1.
    10030    2    1    2    0    0  0.00000000000E+00  0.00000000000E+00 -0.70616443285E+03  0.14894322291E+04  0.13113886376E+04 0.  0.
        5    1    3    3  502    0 -0.52720577780E+03  0.57319120501E+02  0.84861046871E+02  0.53707997634E+03  0.46999998093E+01 0. -1.
       -5    1    3    3    0  502  0.52720577780E+03 -0.57319120501E+02 -0.79102547972E+03  0.95235225273E+03  0.46999998093E+01 0.  1.
</event>
<event>
 5   0  0.1257524E-04  0.2288399E+04  0.7818609E-02  0.8482509E-01
       -2   -1    0    0    0  501  0.00000000000E+00  0.00000000000E+00  0.70267563151E+03  0.70267563151E+03  0.25500000920E-02 0.  1.
        2   -1    0    0  501    0  0.00000000000E+00  0.00000000000E+00 -0.18631539677E+04  0.18631539677E+04  0.25500000920E-02 0. -1.
    10030    2    1    2    0    0  0.00000000000E+00  0.00000000000E+00 -0.11604783362E+04  0.25658295992E+04  0.22883993453E+04 0.  0.
        3    1    3    3  502    0 -0.16176793489E+03 -0.11326313476E+04 -0.56560948661E+03  0.12762980592E+04  0.10100000352E+00 0.  1.
       -3    1    3    3    0  502  0.16176793489E+03  0.11326313476E+04 -0.59486884955E+03  0.12895315400E+04  0.10100000352E+00 0. -1.
</event>
<event>
 5   0  0.1234988E-04  0.1966835E+04  0.7818609E-02  0.8622285E-01
        2   -1    0    0  501    0  0.00000000000E+00  0.00000000000E+00  0.91576275334E+03  0.91576275335E+03  0.25500000920E-02 0. -1.
       -2   -1    0    0    0  501  0.00000000000E+00  0.00000000000E+00 -0.10560703547E+04  0.10560703547E+04  0.25500000920E-02 0.  1.
    10030    2    1    2    0    0  0.00000000000E+00  0.00000000000E+00 -0.14030760132E+03  0.19718331080E+04  0.19668349150E+04 0.  0.
        5    1    3    3  502    0 -0.10040965902E+03 -0.57673482808E+03 -0.86234070064E+03  0.10422853427E+04  0.46999998093E+01 0.  1.
       -5    1    3    3    0  502  0.10040965902E+03  0.57673482808E+03  0.72203309932E+03  0.92954776535E+03  0.46999998093E+01 0. -1.
</event>
<event>
 5   0  0.4489500E-05  0.2272206E+04  0.7818609E-02  0.8488961E-01
       -3   -1    0    0    0  501  0.00000000000E+00  0.00000000000E+00  0.14411920629E+04  0.14411920664E+04  0.10100000352E+00 0. -1.
        3   -1    0    0  501    0  0.00000000000E+00  0.00000000000E+00 -0.89559909623E+03  0.89559910192E+03  0.10100000352E+00 0.  1.
    10030    2    1    2    0    0  0.00000000000E+00  0.00000000000E+00  0.54559296664E+03  0.23367911683E+04  0.22722062581E+04 0.  0.
        2    1    3    3  502    0 -0.12994656514E+03  0.26040501604E+03 -0.85661402816E+03  0.90470131834E+03  0.25500000920E-02 0.  1.
       -2    1    3    3    0  502  0.12994656514E+03 -0.26040501604E+03  0.14022069948E+04  0.14320898500E+04  0.25500000920E-02 0. -1.
</event>
<event>
 5   0  0.1281432E-04  0.2335913E+04  0.7818609E-02  0.8463894E-01
       -2   -1    0    0    0  501  0.00000000000E+00  0.00000000000E+00  0.61495686250E+03  0.61495686251E+03  0.25500000920E-02 0.  1.
        2   -1    0    0  501    0  0.00000000000E+00  0.00000000000E+00 -0.22182412112E+04  0.22182412112E+04  0.25500000920E-02 0. -1.
    10030    2    1    2    0    0  0.00000000000E+00  0.00000000000E+00 -0.16032843487E+04  0.28331980737E+04  0.23359132308E+04 0.  0.
        4    1    3    3  502    0  0.49419890022E+03 -0.87043933987E+03 -0.15316184565E+04  0.18296868329E+04  0.12699999809E+01 0. -1.
       -4    1    3    3    0  502 -0.49419890022E+03  0.87043933987E+03 -0.71665892200E+02  0.10035112408E+04  0.12699999809E+01 0.  1.
</event>
<event>
 5   0  0.5642466E-05  0.1965883E+04  0.7818609E-02  0.8622740E-01
        1   -1    0    0  501    0  0.00000000000E+00  0.00000000000E+00  0.12920999211E+04  0.12920999211E+04  0.50400001928E-02 0.  1.
       -1   -1    0    0    0  501  0.00000000000E+00  0.00000000000E+00 -0.74775494294E+03  0.74775494296E+03  0.50400001928E-02 0. -1.
    10030    2    1    2    0    0  0.00000000000E+00  0.00000000000E+00  0.54434497815E+03  0.20398548641E+04  0.19658831123E+04 0.  0.
        1    1    3    3  502    0  0.12101267047E+03 -0.97163130598E+03  0.36180960382E+03  0.10438475227E+04  0.50400001928E-02 0. -1.
       -1    1    3    3    0  502 -0.12101267047E+03  0.97163130598E+03  0.18253537433E+03  0.99600734138E+03  0.50400001928E-02 0.  1.
</event>
<event>
 5   0  0.5843670E-05  0.2255071E+04  0.7818609E-02  0.8495850E-01
        1   -1    0    0  501    0  0.00000000000E+00  0.00000000000E+00  0.16295069553E+04  0.16295069553E+04  0.50400001928E-02 0.  1.
       -1   -1    0    0    0  501  0.00000000000E+00  0.00000000000E+00 -0.78019665827E+03  0.78019665828E+03  0.50400001928E-02 0. -1.
    10030    2    1    2    0    0  0.00000000000E+00  0.00000000000E+00  0.84931029703E+03  0.24097036136E+04  0.22550706252E+04 0.  0.
        2    1    3    3  502    0 -0.74460702057E+01 -0.47156876699E+03  0.15190428761E+04  0.15905734203E+04  0.25500000920E-02 0.  1.
       -2    1    3    3    0  502  0.74460702057E+01  0.47156876699E+03 -0.66973257911E+03  0.81913019324E+03  0.25500000920E-02 0. -1.
</event>
<event>
 5   0  0.5632156E-05  0.1560498E+04  0.7818609E-02  0.8845190E-01
        1   -1    0    0  501    0  0.00000000000E+00  0.00000000000E+00  0.13975074995E+04  0.13975074996E+04  0.50400001928E-02 0. -1.
       -1   -1    0    0    0  501  0.00000000000E+00  0.00000000000E+00 -0.43562436561E+03  0.43562436564E+03  0.50400001928E-02 0.  1.
    10030    2    1    2    0    0  0.00000000000E+00  0.00000000000E+00  0.96188313394E+03  0.18331318652E+04  0.15604977641E+04 0.  0.
        4    1    3    3  502    0  0.21247403125E+03  0.69227860496E+03  0.13968521534E+03  0.73750149364E+03  0.12699999809E+01 0.  1.
       -4    1    3    3    0  502 -0.21247403125E+03 -0.69227860496E+03  0.82219791860E+03  0.10956303716E+04  0.12699999809E+01 0. -1.
</event>
<event>
 5   0  0.5632156E-05  0.2424425E+04  0.7818609E-02  0.8430415E-01
        1   -1    0    0  501    0  0.00000000000E+00  0.00000000000E+00  0.17385718521E+04  0.17385718521E+04  0.50400001928E-02 0.  1.
       -1   -1    0    0    0  501  0.00000000000E+00  0.00000000000E+00 -0.84521075196E+03  0.84521075198E+03  0.50400001928E-02 0. -1.
    10030    2    1    2    0    0  0.00000000000E+00  0.00000000000E+00  0.89336110013E+03  0.25837826041E+04  0.24244253938E+04 0.  0.
        4    1    3    3  502    0 -0.44896928227E+03 -0.10523392982E+04  0.19767467389E+02  0.11442830859E+04  0.12699999809E+01 0. -1.
       -4    1    3    3    0  502  0.44896928227E+03  0.10523392982E+04  0.87359363274E+03  0.14394995182E+04  0.12699999809E+01 0.  1.
</event>
<event>
 5   0  0.5642466E-05  0.2284040E+04  0.7818609E-02  0.8484241E-01
        1   -1    0    0  501    0  0.00000000000E+00  0.00000000000E+00  0.12704027226E+04  0.12704027226E+04  0.50400001928E-02 0. -1.
       -1   -1    0    0    0  501  0.00000000000E+00  0.00000000000E+00 -0.10266109712E+04  0.10266109712E+04  0.50400001928E-02 0.  1.
    10030    2    1    2    0    0  0.00000000000E+00  0.00000000000E+00  0.24379175138E+03  0.22970136939E+04  0.22840397308E+04 0.  0.
        1    1    3    3  502    0 -0.10164110057E+04 -0.25541473452E+03 -0.33442300420E+03  0.11000757996E+04  0.50400001928E-02 0.  1.
       -1    1    3    3    0  502  0.10164110057E+04  0.25541473452E+03  0.57821475558E+03  0.11969378943E+04  0.50400001928E-02 0. -1.
</event>
<event>
 5   0  0.5924654E-05  0.2342504E+04  0.7818609E-02  0.8461349E-01
       -1   -1    0    0    0  501  0.00000000000E+00  0.00000000000E+00  0.85801752124E+03  0.85801752126E+03  0.50400001928E-02 0.  1.
        1   -1    0    0  501    0  0.00000000000E+00  0.00000000000E+00 -0.15988379039E+04  0.15988379039E+04  0.50400001928E-02 0. -1.
    10030    2    1    2    0    0  0.00000000000E+00  0.00000000000E+00 -0.74082038262E+03  0.24568554251E+04  0.23425037333E+04 0.  0.
        5    1    3    3  502    0  0.40619017993E+03 -0.46720850167E+03  0.67237593957E+03  0.91399438752E+03  0.46999998093E+01 0.  1.
       -5    1    3    3    0  502 -0.40619017993E+03  0.46720850167E+03 -0.14131963222E+04  0.15428610376E+04  0.46999998093E+01 0. -1.
</event>
<event>
 5   0  0.1281432E-04  0.2298162E+04  0.7818609E-02  0.8478646E-01
       -2   -1    0    0    0  501  0.00000000000E+00  0.00000000000E+00  0.70408277751E+03  0.70408277751E+03  0.25500000920E-02 0.  1.
        2   -1    0    0  501    0  0.00000000000E+00  0.00000000000E+00 -0.18753288053E+04  0.18753288053E+04  0.25500000920E-02 0. -1.
    10030    2    1    2    0    0  0.00000000000E+00  0.00000000000E+00 -0.11712460278E+04  0.25794115828E+04  0.22981616253E+04 0.  0.
        4    1    3    3  502    0 -0.11407260657E+04  0.13684750336E+03 -0.60812401281E+03  0.12999229300E+04  0.12699999809E+01 0.  1.
       -4    1    3    3    0  502  0.11407260657E+04 -0.13684750336E+03 -0.56312201495E+03  0.12794886528E+04  0.12699999809E+01 0. -1.
</event>
<event>
 5   0  0.5924654E-05  0.2096190E+04  0.7818609E-02  0.8562924E-01
        1   -1    0    0  501    0  0.00000000000E+00  0.00000000000E+00  0.23903677499E+04  0.23903677499E+04  0.50400001928E-02 0.  1.
       -1   -1    0    0    0  501  0.00000000000E+00  0.00000000000E+00 -0.45955396160E+03  0.45955396163E+03  0.50400001928E-02 0. -1.
    10030    2    1    2    0    0  0.00000000000E+00  0.00000000000E+00  0.19308137883E+04  0.28499217115E+04  0.20961898475E+04 0.  0.
        5    1    3    3  502    0 -0.59259232529E+03  0.85210163946E+03  0.76727278811E+03  0.12907255670E+04  0.46999998093E+01 0. -1.
       -5    1    3    3    0  502  0.59259232529E+03 -0.85210163946E+03  0.11635410002E+04  0.15591961445E+04  0.46999998093E+01 0.  1.
</event>
<event>
 5   0  0.1281432E-04  0.2276590E+04  0.7818609E-02  0.8487209E-01
        2   -1    0    0  501    0  0.00000000000E+00  0.00000000000E+00  0.28008887328E+04  0.28008887328E+04  0.25500000920E-02 0. -1.
       -2   -1    0    0    0  501  0.00000000000E+00  0.00000000000E+00 -0.46260879560E+03  0.46260879561E+03  0.25500000920E-02 0.  1.
    10030    2    1    2    0    0  0.00000000000E+00  0.00000000000E+00  0.23382799372E+04  0.32634975284E+04  0.22765902252E+04 0.  0.
        4    1    3    3  502    0  0.12446395234E+03  0.78615892780E+03  0.26380101753E+01  0.79595584500E+03  0.12699999809E+01 0.  1.
       -4    1    3    3    0  502 -0.12446395234E+03 -0.78615892780E+03  0.23356419270E+04  0.24675416834E+04  0.12699999809E+01 0. -1.
</event>
<event>
 5   0  0.5642466E-05  0.1208952E+04  0.7818609E-02  0.9105057E-01
        1   -1    0    0  501    0  0.00000000000E+00  0.00000000000E+00  0.12657419845E+04  0.12657419845E+04  0.50400001928E-02 0. -1.
       -1   -1    0    0    0  501  0.00000000000E+00  0.00000000000E+00 -0.28867748575E+03  0.28867748580E+03  0.50400001928E-02 0.  1.
    10030    2    1    2    0    0  0.00000000000E+00  0.00000000000E+00  0.97706449871E+03  0.15544194703E+04  0.12089519655E+04 0.  0.
        1    1    3    3  502    0  0.49342509708E+03  0.63077905114E+02  0.93009987834E+03  0.10547667668E+04  0.50400001928E-02 0. -1.
       -1    1    3    3    0  502 -0.49342509708E+03 -0.63077905114E+02  0.46964620371E+02  0.49965270351E+03  0.50400001928E-02 0.  1.
</event>
<event>
 5   0  0.1237296E-04  0.1208343E+04  0.7818609E-02  0.9105585E-01
        2   -1    0    0  501    0  0.00000000000E+00  0.00000000000E+00  0.10526977593E+04  0.10526977593E+04  0.25500000920E-02 0. -1.
       -2   -1    0    0    0  501  0.00000000000E+00  0.00000000000E+00 -0.34675006551E+03  0.34675006552E+03  0.25500000920E-02 0.  1.
    10030    2    1    2    0    0  0.00000000000E+00  0.00000000000E+00  0.70594769381E+03  0.13994478248E+04  0.12083426948E+04 0.  0.
        1    1    3    3  502    0  0.84638606392E+02 -0.46204271099E+03 -0.87088162466E+02  0.47773581459E+03  0.50400001928E-02 0.  1.
       -1    1    3    3    0  502 -0.84638606392E+02  0.46204271099E+03  0.79303585627E+03  0.92171201025E+03  0.50400001928E-02 0. -1.
</event>
<event>
 5   0  0.5663790E-05  0.2303868E+04  0.7818609E-02  0.8476397E-01
        1   -1    0    0  501    0  0.00000000000E+00  0.00000000000E+00  0.16419666015E+04  0.16419666015E+04  0.50400001928E-02 0. -1.
       -1   -1    0    0    0  501  0.00000000000E+00  0.00000000000E+00 -0.80814819881E+03  0.80814819883E+03  0.50400001928E-02 0.  1.
    10030    2    1    2    0    0  0.00000000000E+00  0.00000000000E+00  0.83381840264E+03  0.24501148003E+04  0.23038683569E+04 0.  0.
        3    1    3    3  502    0 -0.71927435624E+03  0.70045745696E+03  0.10175215058E+04  0.14294566357E+04  0.10100000352E+00 0. -1.
       -3    1    3    3    0  502  0.71927435624E+03 -0.70045745696E+03 -0.18370310313E+03  0.10206581645E+04  0.10100000352E+00 0.  1.
</event>
<event>
 5   0  0.1270613E-04  0.2106644E+04  0.7818609E-02  0.8558322E-01
       -2   -1    0    0    0  501  0.00000000000E+00  0.00000000000E+00  0.56214100898E+03  0.56214100899E+03  0.25500000920E-02 0. -1.
        2   -1    0    0  501    0  0.00000000000E+00  0.00000000000E+00 -0.19736813708E+04  0.19736813708E+04  0.25500000920E-02 0.  1.
    10030    2    1    2    0    0  0.00000000000E+00  0.00000000000E+00 -0.14115403619E+04  0.25358223798E+04  0.21066440015E+04 0.  0.
        2    1    3    3  502    0  0.73290775378E+03 -0.33732713857E+02 -0.16155160515E+04  0.17743122003E+04  0.25500000920E-02 0.  1.
       -2    1    3    3    0  502 -0.73290775378E+03  0.33732713857E+02  0.20397568964E+03  0.76151017951E+03  0.25500000920E-02 0. -1.
</event>
<event>
 5   0  0.5642466E-05  0.2325225E+04  0.7818609E-02  0.8468041E-01
       -1   -1    0    0    0  501  0.00000000000E+00  0.00000000000E+00  0.11329181617E+04  0.11329181617E+04  0.50400001928E-02 0. -1.
        1   -1    0    0  501    0  0.00000000000E+00  0.00000000000E+00 -0.11930856070E+04  0.11930856070E+04  0.50400001928E-02 0.  1.
    10030    2    1    2    0    0  0.00000000000E+00  0.00000000000E+00 -0.60167445322E+02  0.23260037687E+04  0.23252254537E+04 0.  0.
        1    1    3    3  502    0  0.17105888150E+03 -0.29319187019E+03  0.10822442956E+04  0.11342289580E+04  0.50400001928E-02 0. -1.
       -1    1    3    3    0  502 -0.17105888150E+03  0.29319187019E+03 -0.11424117409E+04  0.11917748107E+04  0.50400001928E-02 0.  1.
</event>
<event>
 5   0  0.5663790E-05  0.2214775E+04  0.7818609E-02  0.8512303E-01
       -1   -1    0    0    0  501  0.00000000000E+00  0.00000000000E+00  0.96448695789E+03  0.96448695790E+03  0.50400001928E-02 0. -1.
        1   -1    0    0  501    0  0.00000000000E+00  0.00000000000E+00 -0.12714609600E+04  0.12714609600E+04  0.50400001928E-02 0.  1.
    10030    2    1    2    0    0  0.00000000000E+00  0.00000000000E+00 -0.30697400213E+03  0.22359479179E+04  0.22147753958E+04 0.  0.
        3    1    3    3  502    0  0.81719304438E+02  0.65215626548E+03 -0.10532542826E+04  0.12415032958E+04  0.10100000352E+00 0.  1.
       -3    1    3    3    0  502 -0.81719304438E+02 -0.65215626548E+03  0.74628028049E+03  0.99444462217E+03  0.10100000352E+00 0. -1.
</event>
<event>
 5   0  0.5642466E-05  0.2332113E+04  0.7818609E-02  0.8465366E-01
        1   -1    0    0  501    0  0.00000000000E+00  0.00000000000E+00  0.26793558878E+04  0.26793558878E+04  0.50400001928E-02 0. -1.
       -1   -1    0    0    0  501  0.00000000000E+00  0.00000000000E+00 -0.50746798177E+03  0.50746798179E+03  0.50400001928E-02 0.  1.
    10030    2    1    2    0    0  0.00000000000E+00  0.00000000000E+00  0.21718879060E+04  0.31868238696E+04  0.23321126258E+04 0.  0.
        1    1    3    3  502    0  0.10122785429E+04 -0.32095110062E+03  0.42779479752E+03  0.11448693577E+04  0.50400001928E-02 0.  1.
       -1    1    3    3    0  502 -0.10122785429E+04  0.32095110062E+03  0.17440931085E+04  0.20419545119E+04  0.50400001928E-02 0. -1.
</event>
<event>
 5   0  0.1234988E-04  0.2308497E+04  0.7818609E-02  0.8474578E-01
       -2   -1    0    0    0  501  0.00000000000E+00  0.00000000000E+00  0.78101152622E+03  0.78101152623E+03  0.25500000920E-02 0. -1.
        2   -1    0    0  501    0  0.00000000000E+00  0.00000000000E+00 -0.17058511088E+04  0.17058511088E+04  0.25500000920E-02 0.  1.
    10030    2    1    2    0    0  0.00000000000E+00  0.00000000000E+00 -0.92483958256E+03  0.24868626350E+04  0.23084968079E+04 0.  0.
        5    1    3    3  502    0 -0.98847570708E+03  0.58273681133E+03 -0.32786567988E+03  0.11933919762E+04  0.46999998093E+01 0.  1.
       -5    1    3    3    0  502  0.98847570708E+03 -0.58273681133E+03 -0.59697390268E+03  0.12934706588E+04  0.46999998093E+01 0. -1.
</event>
<event>
 5   0  0.1257524E-04  0.2290449E+04  0.7818609E-02  0.8481697E-01
       -2   -1    0    0    0  501  0.00000000000E+00  0.00000000000E+00  0.94219883245E+03  0.94219883245E+03  0.25500000920E-02 0.  1.
        2   -1    0    0  501    0  0.00000000000E+00  0.00000000000E+00 -0.13919977815E+04  0.13919977815E+04  0.25500000920E-02 0. -1.
    10030    2    1    2    0    0  0.00000000000E+00  0.00000000000E+00 -0.44979894906E+03  0.23341966140E+04  0.22904485888E+04 0.  0.
        3    1    3    3  502    0 -0.73120873511E+03  0.60328229331E+03 -0.87976388574E+03  0.12932904718E+04  0.10100000352E+00 0. -1.
       -3    1    3    3    0  502  0.73120873511E+03 -0.60328229331E+03  0.42996493668E+03  0.10409061421E+04  0.10100000352E+00 0.  1.
</event>
<event>
 5   0  0.1237296E-04  0.1495231E+04  0.7818609E-02  0.8887630E-01
       -2   -1    0    0    0  501  0.00000000000E+00  0.00000000000E+00  0.63214821026E+03  0.63214821027E+03  0.25500000920E-02 0.  1.
        2   -1    0    0  501    0  0.00000000000E+00  0.00000000000E+00 -0.88417407020E+03  0.88417407020E+03  0.25500000920E-02 0. -1.
    10030    2    1    2    0    0  0.00000000000E+00  0.00000000000E+00 -0.25202585994E+03  0.15163222805E+04  0.14952311608E+04 0.  0.
        1    1    3    3  502    0 -0.57016171516E+03  0.45493732565E+03  0.40240718169E+02  0.73052834793E+03  0.50400001928E-02 0.  1.
       -1    1    3    3    0  502  0.57016171516E+03 -0.45493732565E+03 -0.29226657810E+03  0.78579393254E+03  0.50400001928E-02 0. -1.
</event>
<event>
 5   0  0.5843670E-05  0.2302501E+04  0.7818609E-02  0.8476936E-01
        1   -1    0    0  501    0  0.00000000000E+00  0.00000000000E+00  0.97567148694E+03  0.97567148695E+03  0.50400001928E-02 0.  1.
       -1   -1    0    0    0  501  0.00000000000E+00  0.00000000000E+00 -0.13584263315E+04  0.13584263315E+04  0.50400001928E-02 0. -1.
    10030    2    1    2    0    0  0.00000000000E+00  0.00000000000E+00 -0.38275484458E+03  0.23340978185E+04  0.23025011086E+04 0.  0.
        2    1    3    3  502    0 -0.10469040494E+04 -0.47258035425E+03 -0.27014543569E+03  0.11799656081E+04  0.25500000920E-02 0. -1.
       -2    1    3    3    0  502  0.10469040494E+04  0.47258035425E+03 -0.11260940889E+03  0.11541322103E+04  0.25500000920E-02 0.  1.
</event>
<event>
 5   0  0.5642466E-05  0.2235755E+04  0.7818609E-02  0.8503692E-01
        1   -1    0    0  501    0  0.00000000000E+00  0.00000000000E+00  0.19191344577E+04  0.19191344578E+04  0.50400001928E-02 0.  1.
       -1   -1    0    0    0  501  0.00000000000E+00  0.00000000000E+00 -0.65115310911E+03  0.65115310913E+03  0.50400001928E-02 0. -1.
    10030    2    1    2    0    0  0.00000000000E+00  0.00000000000E+00  0.12679813486E+04  0.25702875669E+04  0.22357552361E+04 0.  0.
        1    1    3    3  502    0 -0.54557182908E+02  0.80392889009E+03  0.15247651292E+04  0.17245830934E+04  0.50400001928E-02 0.  1.
       -1    1    3    3    0  502  0.54557182908E+02 -0.80392889009E+03 -0.25678378060E+03  0.84570447352E+03  0.50400001928E-02 0. -1.
</event>
<event>
 5   0  0.1234988E-04  0.1945133E+04  0.7818609E-02  0.8632711E-01
       -2   -1    0    0    0  501  0.00000000000E+00  0.00000000000E+00  0.10885160773E+04  0.10885160773E+04  0.25500000920E-02 0.  1.
        2   -1    0    0  501    0  0.00000000000E+00  0.00000000000E+00 -0.86896823940E+03  0.86896823941E+03  0.25500000920E-02 0. -1.
    10030    2    1    2    0    0  0.00000000000E+00  0.00000000000E+00  0.21954783788E+03  0.19574843167E+04  0.19451333109E+04 0.  0.
        5    1    3    3  502    0  0.33502570037E+03 -0.90126596535E+03 -0.37240129361E+02  0.96225333329E+03  0.46999998093E+01 0. -1.
       -5    1    3    3    0  502 -0.33502570037E+03  0.90126596535E+03  0.25678796724E+03  0.99523098340E+03  0.46999998093E+01 0.  1.
</event>
<event>
 5   0  0.5663790E-05  0.2299578E+04  0.7818609E-02  0.8478088E-01
        1   -1    0    0  501    0  0.00000000000E+00  0.00000000000E+00  0.90332418204E+03  0.90332418206E+03  0.50400001928E-02 0.  1.
       -1   -1    0    0    0  501  0.00000000000E+00  0.00000000000E+00 -0.14634994565E+04  0.14634994565E+04  0.50400001928E-02 0. -1.
    10030    2    1    2    0    0  0.00000000000E+00  0.00000000000E+00 -0.56017527443E+03  0.23668236385E+04  0.22995777434E+04 0.  0.
        3    1    3    3  502    0 -0.70496106323E+03 -0.19488523466E+03  0.63302183674E+03  0.96729882216E+03  0.10100000352E+00 0.  1.
       -3    1    3    3    0  502  0.70496106323E+03  0.19488523466E+03 -0.11931971112E+04  0.13995248164E+04  0.10100000352E+00 0. -1.
</event>
<event>
 5   0  0.5632156E-05  0.2269015E+04  0.7818609E-02  0.8490239E-01
       -1   -1    0    0    0  501  0.00000000000E+00  0.00000000000E+00  0.10060618113E+04  0.10060618113E+04  0.50400001928E-02 0. -1.
        1   -1    0    0  501    0  0.00000000000E+00  0.00000000000E+00 -0.12793516384E+04  0.12793516384E+04  0.50400001928E-02 0.  1.
    10030    2    1    2    0    0  0.00000000000E+00  0.00000000000E+00 -0.27328982712E+03  0.22854134497E+04  0.22690146113E+04 0.  0.
        4    1    3    3  502    0  0.72231642994E+03 -0.83964929062E+03  0.11079960863E+03  0.11131172995E+04  0.12699999809E+01 0.  1.
       -4    1    3    3    0  502 -0.72231642994E+03  0.83964929062E+03 -0.38408943575E+03  0.11722961502E+04  0.12699999809E+01 0. -1.
</event>
<event>
 5   0  0.1257524E-04  0.2324126E+04  0.7818609E-02  0.8468469E-01
        2   -1    0    0  501    0  0.00000000000E+00  0.00000000000E+00  0.11197665564E+04  0.11197665564E+04  0.25500000920E-02 0.  1.
       -2   -1    0    0    0  501  0.00000000000E+00  0.00000000000E+00 -0.12059575083E+04  0.12059575083E+04  0.25500000920E-02 0. -1.
    10030    2    1    2    0    0  0.00000000000E+00  0.00000000000E+00 -0.86190951913E+02  0.23257240647E+04  0.23241264047E+04 0.  0.
        3    1    3    3  502    0  0.10168661121E+04 -0.55905581325E+03 -0.10503134810E+03  0.11651573656E+04  0.10100000352E+00 0. -1.
       -3    1    3    3    0  502 -0.10168661121E+04  0.55905581325E+03  0.18840396186E+02  0.11605666991E+04  0.10100000352E+00 0.  1.
</event>
<event>
 5   0  0.5924654E-05  0.2271465E+04  0.7818609E-02  0.8489258E-01
        1   -1    0    0  501    0  0.00000000000E+00  0.00000000000E+00  0.68639865548E+03  0.68639865550E+03  0.50400001928E-02 0.  1.
       -1   -1    0    0    0  501  0.00000000000E+00  0.00000000000E+00 -0.18792112116E+04  0.18792112116E+04  0.50400001928E-02 0. -1.
    10030    2    1    2    0    0  0.00000000000E+00  0.00000000000E+00 -0.11928125561E+04  0.25656098671E+04  0.22714647688E+04 0.  0.
        5    1    3    3  502    0  0.20702762263E+03  0.88065927038E+03  0.17912626066E+03  0.92224155963E+03  0.46999998093E+01 0.  1.
       -5    1    3    3    0  502 -0.20702762263E+03 -0.88065927038E+03 -0.13719388167E+04  0.16433683074E+04  0.46999998093E+01 0. -1.
</event>
<event>
 5   0  0.1234988E-04  0.2164478E+04  0.7818609E-02  0.8533360E-01
       -2   -1    0    0    0  501  0.00000000000E+00  0.00000000000E+00  0.59144924017E+03  0.59144924018E+03  0.25500000920E-02 0.  1.
        2   -1    0    0  501    0  0.00000000000E+00  0.00000000000E+00 -0.19802912770E+04  0.19802912770E+04  0.25500000920E-02 0. -1.
    10030    2    1    2    0    0  0.00000000000E+00  0.00000000000E+00 -0.13888420369E+04  0.25717405172E+04  0.21644784786E+04 0.  0.
        5    1    3    3  502    0  0.78072661562E+03  0.36038048078E+03 -0.14751872081E+04  0.17075150155E+04  0.46999998093E+01 0. -1.
       -5    1    3    3    0  502 -0.78072661562E+03 -0.36038048078E+03  0.86345171199E+02  0.86422550173E+03  0.46999998093E+01 0.  1.
</event>
<event>
 5   0  0.1281432E-04  0.2325427E+04  0.7818609E-02  0.8467962E-01
       -2   -1    0    0    0  501  0.00000000000E+00  0.00000000000E+00  0.91926669775E+03  0.91926669775E+03  0.25500000920E-02 0.  1.
        2   -1    0    0  501    0  0.00000000000E+00  0.00000000000E+00 -0.14706319884E+04  0.14706319884E+04  0.25500000920E-02 0. -1.
    10030    2    1    2    0    0  0.00000000000E+00  0.00000000000E+00 -0.55136529069E+03  0.23898986862E+04  0.23254272826E+04 0.  0.
        4    1    3    3  502    0 -0.50517051029E+03 -0.26320638886E+03 -0.13174053251E+04  0.14352815929E+04  0.12699999809E+01 0. -1.
       -4    1    3    3    0  502  0.50517051029E+03  0.26320638886E+03  0.76604003437E+03  0.95461709327E+03  0.12699999809E+01 0.  1.
</event>
<event>
 5   0  0.1237296E-04  0.2294432E+04  0.7818609E-02  0.8480120E-01
       -2   -1    0    0    0  501  0.00000000000E+00  0.00000000000E+00  0.54082686237E+03  0.54082686237E+03  0.25500000920E-02 0.  1.
        2   -1    0    0  501    0  0.00000000000E+00  0.00000000000E+00 -0.24335049733E+04  0.24335049733E+04  0.25500000920E-02 0. -1.
    10030    2    1    2    0    0  0.00000000000E+00  0.00000000000E+00 -0.18926781110E+04  0.29743318357E+04  0.22944322690E+04 0.  0.
        1    1    3    3  502    0  0.43658357804E+03  0.10007754782E+04 -0.48995119827E+03  0.11967493285E+04  0.50400001928E-02 0. -1.
       -1    1    3    3    0  502 -0.43658357804E+03 -0.10007754782E+04 -0.14027269127E+04  0.17775825073E+04  0.50400001928E-02 0.  1.
</event>
<event>
 5   0  0.1237296E-04  0.2346227E+04  0.7818609E-02  0.8459914E-01
        2   -1    0    0  501    0  0.00000000000E+00  0.00000000000E+00  0.14825653792E+04  0.14825653792E+04  0.25500000920E-02 0. -1.
       -2   -1    0    0    0  501  0.00000000000E+00  0.00000000000E+00 -0.92825299576E+03  0.92825299576E+03  0.25500000920E-02 0.  1.
    10030    2    1    2    0    0  0.00000000000E+00  0.00000000000E+00  0.55431238344E+03  0.24108183750E+04  0.23462274013E+04 0.  0.
        1    1    3    3  502    0  0.45441708129E+03  0.81253008394E+02 -0.83100439002E+03  0.95061308186E+03  0.50400001928E-02 0.  1.
       -1    1    3    3    0  502 -0.45441708129E+03 -0.81253008394E+02  0.13853167735E+04  0.14602052931E+04  0.50400001928E-02 0. -1.
</event>
<event>
 5   0  0.5843670E-05  0.2251329E+04  0.7818609E-02  0.8497362E-01
       -1   -1    0    0    0  501  0.00000000000E+00  0.00000000000E+00  0.94812126943E+03  0.94812126945E+03  0.50400001928E-02 0.  1.
        1   -1    0    0  501    0  0.00000000000E+00  0.00000000000E+00 -0.13364543833E+04  0.13364543833E+04  0.50400001928E-02 0. -1.
    10030    2    1    2    0    0  0.00000000000E+00  0.00000000000E+00 -0.38833311386E+03  0.22845756527E+04  0.22513292309E+04 0.  0.
        2    1    3    3  502    0 -0.24988107561E+03 -0.31418021694E+03  0.87301525890E+03  0.96088782017E+03  0.25500000920E-02 0.  1.
       -2    1    3    3    0  502  0.24988107561E+03  0.31418021694E+03 -0.12613483728E+04  0.13236878326E+04  0.25500000920E-02 0. -1.
</event>
<event>
 5   0  0.1237296E-04  0.2308276E+04  0.7818609E-02  0.8474665E-01
        2   -1    0    0  501    0  0.00000000000E+00  0.00000000000E+00  0.17417469033E+04  0.17417469033E+04  0.25500000920E-02 0. -1.
       -2   -1    0    0    0  501  0.00000000000E+00  0.00000000000E+00 -0.76476899586E+03  0.76476899586E+03  0.25500000920E-02 0.  1.
    10030    2    1    2    0    0  0.00000000000E+00  0.00000000000E+00  0.97697790746E+03  0.25065158992E+04  0.23082755731E+04 0.  0.
        1    1    3    3  502    0  0.50596880920E+03  0.94115093948E+03  0.96214348248E+03  0.14378767707E+04  0.50400001928E-02 0.  1.
       -1    1    3    3    0  502 -0.50596880920E+03 -0.94115093948E+03  0.14834424971E+02  0.10686391285E+04  0.50400001928E-02 0. -1.
</event>
<event>
 5   0  0.5924654E-05  0.2545801E+04  0.7818609E-02  0.8386848E-01
       -1   -1    0    0    0  501  0.00000000000E+00  0.00000000000E+00  0.93395203486E+03  0.93395203487E+03  0.50400001928E-02 0. -1.
        1   -1    0    0  501    0  0.00000000000E+00  0.00000000000E+00 -0.17348593009E+04  0.17348593009E+04  0.50400001928E-02 0.  1.
    10030    2    1    2    0    0  0.00000000000E+00  0.00000000000E+00 -0.80090726600E+03  0.26688113357E+04  0.25458007575E+04 0.  0.
        5    1    3    3  502    0  0.11752976710E+03 -0.12152995594E+04 -0.77768394128E+03  0.14476120571E+04  0.46999998093E+01 0. -1.
       -5    1    3    3    0  502 -0.11752976710E+03  0.12152995594E+04 -0.23223324722E+02  0.12211992786E+04  0.46999998093E+01 0.  1.
</event>
<event>
 5   0  0.5663790E-05  0.1481320E+04  0.7818609E-02  0.8896971E-01
       -1   -1    0    0    0  501  0.00000000000E+00  0.00000000000E+00  0.61620355513E+03  0.61620355515E+03  0.50400001928E-02 0. -1.
        1   -1    0    0  501    0  0.00000000000E+00  0.00000000000E+00 -0.89025313261E+03  0.89025313263E+03  0.50400001928E-02 0.  1.
    10030    2    1    2    0    0  0.00000000000E+00  0.00000000000E+00 -0.27404957749E+03  0.15064566878E+04  0.14813198781E+04 0.  0.
        3    1    3    3  502    0 -0.39331002070E+03  0.51843534920E+03 -0.49673464526E+03  0.81866556156E+03  0.10100000352E+00 0.  1.
       -3    1    3    3    0  502  0.39331002070E+03 -0.51843534920E+03  0.22268506778E+03  0.68779112621E+03  0.10100000352E+00 0. -1.
</event>
<event>
 5   0  0.1281432E-04  0.2326485E+04  0.7818609E-02  0.8467551E-01
        2   -1    0    0  501    0  0.00000000000E+00  0.00000000000E+00  0.18422541361E+04  0.18422541361E+04  0.25500000920E-02 0.  1.
       -2   -1    0    0    0  501  0.00000000000E+00  0.00000000000E+00 -0.73449847204E+03  0.73449847204E+03  0.25500000920E-02 0. -1.
    10030    2    1    2    0    0  0.00000000000E+00  0.00000000000E+00  0.11077556641E+04  0.25767526081E+04  0.23264847716E+04 0.  0.
        4    1    3    3  502    0 -0.29347769974E+02 -0.13585134724E+03 -0.72526842322E+03  0.73846650484E+03  0.12699999809E+01 0. -1.
       -4    1    3    3    0  502  0.29347769974E+02  0.13585134724E+03  0.18330240873E+04  0.18382861033E+04  0.12699999809E+01 0.  1.
</event>
<event>
 5   0  0.5632156E-05  0.2299397E+04  0.7818609E-02  0.8478159E-01
        1   -1    0    0  501    0  0.00000000000E+00  0.00000000000E+00  0.88510701683E+03  0.88510701684E+03  0.50400001928E-02 0.  1.
       -1   -1    0    0    0  501  0.00000000000E+00  0.00000000000E+00 -0.14933862280E+04  0.14933862280E+04  0.50400001928E-02 0. -1.
    10030    2    1    2    0    0  0.00000000000E+00  0.00000000000E+00 -0.60827921113E+03  0.23784932448E+04  0.22993969898E+04 0.  0.
        4    1    3    3  502    0  0.35160523772E+03  0.10890385095E+04 -0.19000882363E+03  0.11600586555E+04  0.12699999809E+01 0.  1.
       -4    1    3    3    0  502 -0.35160523772E+03 -0.10890385095E+04 -0.41827038750E+03  0.12184345893E+04  0.12699999809E+01 0. -1.
</event>
<event>
 5   0  0.1257524E-04  0.1356771E+04  0.7818609E-02  0.8985718E-01
        2   -1    0    0  501    0  0.00000000000E+00  0.00000000000E+00  0.21472319221E+04  0.21472319221E+04  0.25500000920E-02 0.  1.
       -2   -1    0    0    0  501  0.00000000000E+00  0.00000000000E+00 -0.21432558680E+03  0.21432558681E+03  0.25500000920E-02 0. -1.
    10030    2    1    2    0    0  0.00000000000E+00  0.00000000000E+00  0.19329063353E+04  0.23615575089E+04  0.13567707864E+04 0.  0.
        3    1    3    3  502    0 -0.33310851773E+03  0.41729110802E+02 -0.59605104981E+02  0.34096243490E+03  0.10100000352E+00 0. -1.
       -3    1    3    3    0  502  0.33310851773E+03 -0.41729110802E+02  0.19925114402E+04  0.20205950740E+04  0.10100000352E+00 0.  1.
</event>
<event>
 5   0  0.1257524E-04  0.2329981E+04  0.7818609E-02  0.8466193E-01
       -2   -1    0    0    0  501  0.00000000000E+00  0.00000000000E+00  0.79669509852E+03  0.79669509852E+03  0.25500000920E-02 0. -1.
        2   -1    0    0  501    0  0.00000000000E+00  0.00000000000E+00 -0.17035405710E+04  0.17035405710E+04  0.25500000920E-02 0.  1.
    10030    2    1    2    0    0  0.00000000000E+00  0.00000000000E+00 -0.90684547252E+03  0.25002356696E+04  0.23299806206E+04 0.  0.
        3    1    3    3  502    0  0.72451853624E+03 -0.19224527894E+03 -0.14103937560E+04  0.15972150493E+04  0.10100000352E+00 0.  1.
       -3    1    3    3    0  502 -0.72451853624E+03  0.19224527894E+03  0.50354828346E+03  0.90302062025E+03  0.10100000352E+00 0. -1.
</event>
<event>
 5   0  0.1257524E-04  0.2283356E+04  0.7818609E-02  0.8484513E-01
       -2   -1    0    0    0  501  0.00000000000E+00  0.00000000000E+00  0.16601727539E+04  0.16601727539E+04  0.25500000920E-02 0. -1.
        2   -1    0    0  501    0  0.00000000000E+00  0.00000000000E+00 -0.78511647954E+03  0.78511647954E+03  0.25500000920E-02 0.  1.
    10030    2    1    2    0    0  0.00000000000E+00  0.00000000000E+00  0.87505627437E+03  0.24452892334E+04  0.22833562911E+04 0.  0.
        3    1    3    3  502    0 -0.98330142619E+02  0.10693165437E+03  0.16502347323E+04  0.16566163942E+04  0.10100000352E+00 0. -1.
       -3    1    3    3    0  502  0.98330142619E+02 -0.10693165437E+03 -0.77517845789E+03  0.78867283929E+03  0.10100000352E+00 0.  1.
</event>
<event>
 5   0  0.5843670E-05  0.2265025E+04  0.7818609E-02  0.8491840E-01
       -1   -1    0    0    0  501  0.00000000000E+00  0.00000000000E+00  0.17812950620E+04  0.17812950620E+04  0.50400001928E-02 0.  1.
        1   -1    0    0  501    0  0.00000000000E+00  0.00000000000E+00 -0.72002913964E+03  0.72002913966E+03  0.50400001928E-02 0. -1.
    10030    2    1    2    0    0  0.00000000000E+00  0.00000000000E+00  0.10612659223E+04  0.25013242016E+04  0.22650248131E+04 0.  0.
        2    1    3    3  502    0  0.46260681726E+03  0.10126451827E+04  0.75997401482E+03  0.13479672981E+04  0.25500000920E-02 0.  1.
       -2    1    3    3    0  502 -0.46260681726E+03 -0.10126451827E+04  0.30129190749E+03  0.11533569036E+04  0.25500000920E-02 0. -1.
</event>
<event>
 5   0  0.1234988E-04  0.1845856E+04  0.7818609E-02  0.8682287E-01
       -2   -1    0    0    0  501  0.00000000000E+00  0.00000000000E+00  0.83747305195E+03  0.83747305196E+03  0.25500000920E-02 0. -1.
        2   -1    0    0  501    0  0.00000000000E+00  0.00000000000E+00 -0.10171027316E+04  0.10171027316E+04  0.25500000920E-02 0.  1.
    10030    2    1    2    0    0  0.00000000000E+00  0.00000000000E+00 -0.17962967964E+03  0.18545757835E+04  0.18458560386E+04 0.  0.
        5    1    3    3  502    0 -0.88896922868E+03  0.24677276620E+03 -0.11464902912E+03  0.92969327068E+03  0.46999998093E+01 0.  1.
       -5    1    3    3    0  502  0.88896922868E+03 -0.24677276620E+03 -0.64980650514E+02  0.92488251287E+03  0.46999998093E+01 0. -1.
</event>
<event>
 5   0  0.1234988E-04  0.1356581E+04  0.7818609E-02  0.8985862E-01
        2   -1    0    0  501    0  0.00000000000E+00  0.00000000000E+00  0.81943820089E+03  0.81943820089E+03  0.25500000920E-02 0. -1.
       -2   -1    0    0    0  501  0.00000000000E+00  0.00000000000E+00 -0.56145503015E+03  0.56145503016E+03  0.25500000920E-02 0.  1.
    10030    2    1    2    0    0  0.00000000000E+00  0.00000000000E+00  0.25798317074E+03  0.13808932310E+04  0.13565805539E+04 0.  0.
        5    1    3    3  502    0 -0.18187816542E+03  0.37182602243E+03 -0.41796639674E+03  0.58826206475E+03  0.46999998093E+01 0.  1.
       -5    1    3    3    0  502  0.18187816542E+03 -0.37182602243E+03  0.67594956748E+03  0.79263116630E+03  0.46999998093E+01 0. -1.
</event>
<event>
 5   0  0.1281432E-04  0.2069436E+04  0.7818609E-02  0.8574828E-01
        2   -1    0    0  501    0  0.00000000000E+00  0.00000000000E+00  0.96641837556E+03  0.96641837556E+03  0.25500000920E-02 0.  1.
       -2   -1    0    0    0  501  0.00000000000E+00  0.00000000000E+00 -0.11078446021E+04  0.11078446021E+04  0.25500000920E-02 0. -1.
    10030    2    1    2    0    0  0.00000000000E+00  0.00000000000E+00 -0.14142622653E+03  0.20742629777E+04  0.20694360398E+04 0.  0.
        4    1    3    3  502    0 -0.64522311039E+03  0.72439987026E+03 -0.43151345691E+03  0.10617313740E+04  0.12699999809E+01 0. -1.
       -4    1    3    3    0  502  0.64522311039E+03 -0.72439987026E+03  0.29008723039E+03  0.10125316036E+04  0.12699999809E+01 0.  1.
</event>
<event>
 5   0  0.1281432E-04  0.2626420E+04  0.7818609E-02  0.8359282E-01
       -2   -1    0    0    0  501  0.00000000000E+00  0.00000000000E+00  0.13529607144E+04  0.13529607144E+04  0.25500000920E-02 0. -1.
        2   -1    0    0  501    0  0.00000000000E+00  0.00000000000E+00 -0.12746272257E+04  0.12746272257E+04  0.25500000920E-02 0.  1.
    10030    2    1    2    0    0  0.00000000000E+00  0.00000000000E+00  0.78333488750E+02  0.26275879401E+04  0.26264200440E+04 0.  0.
        4    1    3    3  502    0  0.32539700945E+03 -0.32511267995E+03 -0.11913954452E+04  0.12771085264E+04  0.12699999809E+01 0.  1.
       -4    1    3    3    0  502 -0.32539700945E+03  0.32511267995E+03  0.12697289339E+04  0.13504794138E+04  0.12699999809E+01 0. -1.
</event>
<event>
 5   0  0.5843670E-05  0.1288183E+04  0.7818609E-02  0.9038989E-01
        1   -1    0    0  501    0  0.00000000000E+00  0.00000000000E+00  0.13198445011E+04  0.13198445011E+04  0.50400001928E-02 0. -1.
       -1   -1    0    0    0  501  0.00000000000E+00  0.00000000000E+00 -0.31432038651E+03  0.31432038655E+03  0.50400001928E-02 0.  1.
    10030    2    1    2    0    0  0.00000000000E+00  0.00000000000E+00  0.10055241146E+04  0.16341648876E+04  0.12881832692E+04 0.  0.
        2    1    3    3  502    0 -0.10455479682E+03 -0.73694225785E+02  0.13035688453E+04  0.13098298664E+04  0.25500000920E-02 0. -1.
       -2    1    3    3    0  502  0.10455479682E+03  0.73694225785E+02 -0.29804473076E+03  0.32433502122E+03  0.25500000920E-02 0.  1.
</event>
<event>
 5   0  0.1257524E-04  0.2363202E+04  0.7818609E-02  0.8453410E-01
       -2   -1    0    0    0  501  0.00000000000E+00  0.00000000000E+00  0.11345889861E+04  0.11345889861E+04  0.25500000920E-02 0.  1.
        2   -1    0    0  501    0  0.00000000000E+00  0.00000000000E+00 -0.12305610585E+04  0.12305610585E+04  0.25500000920E-02 0. -1.
    10030    2    1    2    0    0  0.00000000000E+00  0.00000000000E+00 -0.95972072373E+02  0.23651500447E+04  0.23632020851E+04 0.  0.
        3    1    3    3  502    0  0.85479959778E+03  0.78213469106E+03  0.18407571597E+03  0.11731585173E+04  0.10100000352E+00 0. -1.
       -3    1    3    3    0  502 -0.85479959778E+03 -0.78213469106E+03 -0.28004778834E+03  0.11919915274E+04  0.10100000352E+00 0.  1.
</event>
<event>
 5   0  0.5632156E-05  0.2294179E+04  0.7818609E-02  0.8480220E-01
        1   -1    0    0  501    0  0.00000000000E+00  0.00000000000E+00  0.99652648271E+03  0.99652648273E+03  0.50400001928E-02 0.  1.
       -1   -1    0    0    0  501  0.00000000000E+00  0.00000000000E+00 -0.13204008367E+04  0.13204008367E+04  0.50400001928E-02 0. -1.
    10030    2    1    2    0    0  0.00000000000E+00  0.00000000000E+00 -0.32387435396E+03  0.23169273194E+04  0.22941790702E+04 0.  0.
        4    1    3    3  502    0  0.85630299686E+03 -0.26520862983E+03 -0.88473087737E+03  0.12595002096E+04  0.12699999809E+01 0. -1.
       -4    1    3    3    0  502 -0.85630299686E+03  0.26520862983E+03  0.56085652341E+03  0.10574271098E+04  0.12699999809E+01 0.  1.
</event>
<event>
 5   0  0.1237296E-04  0.2304588E+04  0.7818609E-02  0.8476114E-01
        2   -1    0    0  501    0  0.00000000000E+00  0.00000000000E+00  0.15819584271E+04  0.15819584271E+04  0.25500000920E-02 0. -1.
       -2   -1    0    0    0  501  0.00000000000E+00  0.00000000000E+00 -0.83932801974E+03  0.83932801975E+03  0.25500000920E-02 0.  1.
    10030    2    1    2    0    0  0.00000000000E+00  0.00000000000E+00  0.74263040732E+03  0.24212864468E+04  0.23045884960E+04 0.  0.
        1    1    3    3  502    0  0.32344819305E+03  0.50216943037E+03 -0.66396991864E+03  0.89311193211E+03  0.50400001928E-02 0.  1.
       -1    1    3    3    0  502 -0.32344819305E+03 -0.50216943037E+03  0.14066003260E+04  0.15281745147E+04  0.50400001928E-02 0. -1.
</event>
<event>
 5   0  0.1270613E-04  0.2363801E+04  0.7818609E-02  0.8453182E-01
       -2   -1    0    0    0  501  0.00000000000E+00  0.00000000000E+00  0.84531912041E+03  0.84531912041E+03  0.25500000920E-02 0.  1.
        2   -1    0    0  501    0  0.00000000000E+00  0.00000000000E+00 -0.16524989235E+04  0.16524989235E+04  0.25500000920E-02 0. -1.
    10030    2    1    2    0    0  0.00000000000E+00  0.00000000000E+00 -0.80717980311E+03  0.24978180439E+04  0.23638011223E+04 0.  0.
        2    1    3    3  502    0 -0.77055614746E+02  0.48793062814E+03 -0.15381852225E+04  0.16155579979E+04  0.25500000920E-02 0. -1.
       -2    1    3    3    0  502  0.77055614746E+02 -0.48793062814E+03  0.73100541942E+03  0.88226004606E+03  0.25500000920E-02 0.  1.
</event>
<event>
 5   0  0.5632156E-05  0.2232097E+04  0.7818609E-02  0.8505186E-01
        1   -1    0    0  501    0  0.00000000000E+00  0.00000000000E+00  0.17449845143E+04  0.17449845143E+04  0.50400001928E-02 0.  1.
       -1   -1    0    0    0  501  0.00000000000E+00  0.00000000000E+00 -0.71379702654E+03  0.71379702656E+03  0.50400001928E-02 0. -1.
    10030    2    1    2    0    0  0.00000000000E+00  0.00000000000E+00  0.10311874877E+04  0.24587815408E+04  0.22320974510E+04 0.  0.
        4    1    3    3  502    0 -0.11022218523E+04 -0.56734979017E+02  0.69810432816E+03  0.13059338174E+04  0.12699999809E+01 0.  1.
       -4    1    3    3    0  502  0.11022218523E+04  0.56734979017E+02  0.33308315957E+03  0.11528477235E+04  0.12699999809E+01 0. -1.
</event>
<event>
 5   0  0.5843670E-05  0.2564589E+04  0.7818609E-02  0.8380330E-01
        1   -1    0    0  501    0  0.00000000000E+00  0.00000000000E+00  0.14605785838E+04  0.14605785838E+04  0.50400001928E-02 0. -1.
       -1   -1    0    0    0  501  0.00000000000E+00  0.00000000000E+00 -0.11257724650E+04  0.11257724650E+04  0.50400001928E-02 0.  1.
    10030    2    1    2    0    0  0.00000000000E+00  0.00000000000E+00  0.33480611878E+03  0.25863510488E+04  0.25645889749E+04 0.  0.
        2    1    3    3  502    0 -0.59344634742E+03  0.54765956025E+02  0.13124234482E+04  0.14413997310E+04  0.25500000920E-02 0. -1.
       -2    1    3    3    0  502  0.59344634742E+03 -0.54765956025E+02 -0.97761732942E+03  0.11449513177E+04  0.25500000920E-02 0.  1.
</event>
<event>
 5   0  0.1281432E-04  0.2211551E+04  0.7818609E-02  0.8513636E-01
       -2   -1    0    0    0  501  0.00000000000E+00  0.00000000000E+00  0.81975897076E+03  0.81975897076E+03  0.25500000920E-02 0.  1.
        2   -1    0    0  501    0  0.00000000000E+00  0.00000000000E+00 -0.14915843689E+04  0.14915843689E+04  0.25500000920E-02 0. -1.
    10030    2    1    2    0    0  0.00000000000E+00  0.00000000000E+00 -0.67182539810E+03  0.23113433396E+04  0.22115511905E+04 0.  0.
        4    1    3    3  502    0  0.89523055956E+03 -0.62268663519E+03 -0.14444781089E+03  0.11000196286E+04  0.12699999809E+01 0.  1.
       -4    1    3    3    0  502 -0.89523055956E+03  0.62268663519E+03 -0.52737758721E+03  0.12113237110E+04  0.12699999809E+01 0. -1.
</event>
<event>
 5   0  0.1281432E-04  0.2266637E+04  0.7818609E-02  0.8491193E-01
       -2   -1    0    0    0  501  0.00000000000E+00  0.00000000000E+00  0.10596355493E+04  0.10596355493E+04  0.25500000920E-02 0. -1.
        2   -1    0    0  501    0  0.00000000000E+00  0.00000000000E+00 -0.12121255165E+04  0.12121255165E+04  0.25500000920E-02 0.  1.
    10030    2    1    2    0    0  0.00000000000E+00  0.00000000000E+00 -0.15248996722E+03  0.22717610658E+04  0.22666374104E+04 0.  0.
        4    1    3    3  502    0 -0.13992300971E+03  0.10655874182E+04  0.28422712990E+03  0.11116841587E+04  0.12699999809E+01 0. -1.
       -4    1    3    3    0  502  0.13992300971E+03 -0.10655874182E+04 -0.43671709712E+03  0.11600769071E+04  0.12699999809E+01 0.  1.
</event>
<event>
 5   0  0.5632156E-05  0.2263007E+04  0.7818609E-02  0.8492651E-01
        1   -1    0    0  501    0  0.00000000000E+00  0.00000000000E+00  0.15072888382E+04  0.15072888382E+04  0.50400001928E-02 0. -1.
       -1   -1    0    0    0  501  0.00000000000E+00  0.00000000000E+00 -0.84940632852E+03  0.84940632853E+03  0.50400001928E-02 0.  1.
    10030    2    1    2    0    0  0.00000000000E+00  0.00000000000E+00  0.65788250968E+03  0.23566951667E+04  0.22630074486E+04 0.  0.
        4    1    3    3  502    0 -0.56083294651E+03  0.81665462223E+02  0.13488199466E+04  0.14630515038E+04  0.12699999809E+01 0. -1.
       -4    1    3    3    0  502  0.56083294651E+03 -0.81665462223E+02 -0.69093743692E+03  0.89364366290E+03  0.12699999809E+01 0.  1.
</event>
<event>
 5   0  0.5843670E-05  0.2291169E+04  0.7818609E-02  0.8481411E-01
       -1   -1    0    0    0  501  0.00000000000E+00  0.00000000000E+00  0.42176360218E+03  0.42176360221E+03  0.50400001928E-02 0. -1.
        1   -1    0    0  501    0  0.00000000000E+00  0.00000000000E+00 -0.31116105029E+04  0.31116105029E+04  0.50400001928E-02 0.  1.
    10030    2    1    2    0    0  0.00000000000E+00  0.00000000000E+00 -0.26898469007E+04  0.35333741051E+04  0.22911691813E+04 0.  0.
        2    1    3    3  502    0  0.70056147024E+03 -0.24028253873E+03  0.29037767285E+01  0.74062845201E+03  0.25500000920E-02 0. -1.
       -2    1    3    3    0  502 -0.70056147024E+03  0.24028253873E+03 -0.26927506774E+04  0.27927456531E+04  0.25500000920E-02 0.  1.
</event>
<event>
 5   0  0.1234988E-04  0.2272744E+04  0.7818609E-02  0.8488746E-01
        2   -1    0    0  501    0  0.00000000000E+00  0.00000000000E+00  0.16243159858E+04  0.16243159858E+04  0.25500000920E-02 0. -1.
       -2   -1    0    0    0  501  0.00000000000E+00  0.00000000000E+00 -0.79500628578E+03  0.79500628579E+03  0.25500000920E-02 0.  1.
    10030    2    1    2    0    0  0.00000000000E+00  0.00000000000E+00  0.82930969999E+03  0.24193222716E+04  0.22727440848E+04 0.  0.
        5    1    3    3  502    0  0.27459974648E+03 -0.25805539710E+03  0.15558607135E+04  0.16008504798E+04  0.46999998093E+01 0. -1.
       -5    1    3    3    0  502 -0.27459974648E+03  0.25805539710E+03 -0.72655101351E+03  0.81847179180E+03  0.46999998093E+01 0.  1.
</event>
<event>
 5   0  0.1234988E-04  0.2027545E+04  0.7818609E-02  0.8593850E-01
        2   -1    0    0  501    0  0.00000000000E+00  0.00000000000E+00  0.21054130180E+04  0.21054130180E+04  0.25500000920E-02 0. -1.
       -2   -1    0    0    0  501  0.00000000000E+00  0.00000000000E+00 -0.48813923360E+03  0.48813923361E+03  0.25500000920E-02 0.  1.
    10030    2    1    2    0    0  0.00000000000E+00  0.00000000000E+00  0.16172737844E+04  0.25935522516E+04  0.20275450151E+04 0.  0.
        5    1    3    3  502    0 -0.95245835462E+03  0.30332792854E+03  0.10246892824E+04  0.14315009483E+04  0.46999998093E+01 0. -1.
       -5    1    3    3    0  502  0.95245835462E+03 -0.30332792854E+03  0.59258450202E+03  0.11620513033E+04  0.46999998093E+01 0.  1.
</event>
<event>
 5   0  0.5924654E-05  0.2432283E+04  0.7818609E-02  0.8427515E-01
       -1   -1    0    0    0  501  0.00000000000E+00  0.00000000000E+00  0.88815023476E+03  0.88815023478E+03  0.50400001928E-02 0. -1.
        1   -1    0    0  501    0  0.00000000000E+00  0.00000000000E+00 -0.16652588848E+04  0.16652588848E+04  0.50400001928E-02 0.  1.
    10030    2    1    2    0    0  0.00000000000E+00  0.00000000000E+00 -0.77710865008E+03  0.25534091196E+04  0.24322829355E+04 0.  0.
        5    1    3    3  502    0  0.71861603451E+03  0.13305231675E+03  0.63189498379E+03  0.96613937119E+03  0.46999998093E+01 0. -1.
       -5    1    3    3    0  502 -0.71861603451E+03 -0.13305231675E+03 -0.14090036339E+04  0.15872697484E+04  0.46999998093E+01 0.  1.
</event>
<event>
 5   0  0.1270613E-04  0.2284217E+04  0.7818609E-02  0.8484170E-01
       -2   -1    0    0    0  501  0.00000000000E+00  0.00000000000E+00  0.10020541031E+04  0.10020541031E+04  0.25500000920E-02 0. -1.
        2   -1    0    0  501    0  0.00000000000E+00  0.00000000000E+00 -0.13017382355E+04  0.13017382355E+04  0.25500000920E-02 0.  1.
    10030    2    1    2    0    0  0.00000000000E+00  0.00000000000E+00 -0.29968413239E+03  0.23037923386E+04  0.22842172751E+04 0.  0.
        2    1    3    3  502    0  0.21594125183E+03  0.88202682780E+03  0.54877735063E+03  0.10610176859E+04  0.25500000920E-02 0. -1.
       -2    1    3    3    0  502 -0.21594125183E+03 -0.88202682780E+03 -0.84846148302E+03  0.12427746527E+04  0.25500000920E-02 0.  1.
</event>
<event>
 5   0  0.5632156E-05  0.1762244E+04  0.7818609E-02  0.8726639E-01
       -1   -1    0    0    0  501  0.00000000000E+00  0.00000000000E+00  0.34080541263E+03  0.34080541267E+03  0.50400001928E-02 0. -1.
        1   -1    0    0  501    0  0.00000000000E+00  0.00000000000E+00 -0.22780625259E+04  0.22780625259E+04  0.50400001928E-02 0.  1.
    10030    2    1    2    0    0  0.00000000000E+00  0.00000000000E+00 -0.19372571133E+04  0.26188679386E+04  0.17622440684E+04 0.  0.
        4    1    3    3  502    0  0.16458006727E+03 -0.34312728137E+03 -0.21496340717E+04  0.21830600507E+04  0.12699999809E+01 0.  1.
       -4    1    3    3    0  502 -0.16458006727E+03  0.34312728137E+03  0.21237695844E+03  0.43580788788E+03  0.12699999809E+01 0. -1.
</event>
<event>
 5   0  0.1257524E-04  0.2307288E+04  0.7818609E-02  0.8475053E-01
        2   -1    0    0  501    0  0.00000000000E+00  0.00000000000E+00  0.17145014874E+04  0.17145014874E+04  0.25500000920E-02 0. -1.
       -2   -1    0    0    0  501  0.00000000000E+00  0.00000000000E+00 -0.77625761032E+03  0.77625761033E+03  0.25500000920E-02 0.  1.
    10030    2    1    2    0    0  0.00000000000E+00  0.00000000000E+00  0.93824387705E+03  0.24907590977E+04  0.23072883023E+04 0.  0.
        3    1    3    3  502    0  0.75182564500E+03  0.87490387577E+03  0.45400001635E+03  0.12396832730E+04  0.10100000352E+00 0. -1.
       -3    1    3    3    0  502 -0.75182564500E+03 -0.87490387577E+03  0.48424386070E+03  0.12510758247E+04  0.10100000352E+00 0.  1.
</event>
<event>
 5   0  0.1234988E-04  0.2294641E+04  0.7818609E-02  0.8480037E-01
        2   -1    0    0  501    0  0.00000000000E+00  0.00000000000E+00  0.12516742598E+04  0.12516742598E+04  0.25500000920E-02 0. -1.
       -2   -1    0    0    0  501  0.00000000000E+00  0.00000000000E+00 -0.10516670013E+04  0.10516670013E+04  0.25500000920E-02 0.  1.
    10030    2    1    2    0    0  0.00000000000E+00  0.00000000000E+00  0.20000725850E+03  0.23033412610E+04  0.22946411618E+04 0.  0.
        5    1    3    3  502    0  0.95467575868E+02 -0.37566975557E+03 -0.98394273512E+03  0.10575477385E+04  0.46999998093E+01 0.  1.
       -5    1    3    3    0  502 -0.95467575868E+02  0.37566975557E+03  0.11839499936E+04  0.12457935225E+04  0.46999998093E+01 0. -1.
</event>
<event>
 5   0  0.1270613E-04  0.2301886E+04  0.7818609E-02  0.8477178E-01
        2   -1    0    0  501    0  0.00000000000E+00  0.00000000000E+00  0.12278258260E+04  0.12278258260E+04  0.25500000920E-02 0. -1.
       -2   -1    0    0    0  501  0.00000000000E+00  0.00000000000E+00 -0.10788746173E+04  0.10788746173E+04  0.25500000920E-02 0.  1.
    10030    2    1    2    0    0  0.00000000000E+00  0.00000000000E+00  0.14895120871E+03  0.23067004433E+04  0.23018862858E+04 0.  0.
        2    1    3    3  502    0  0.18565688906E+02 -0.12090774293E+03  0.12212932501E+04  0.12274039962E+04  0.25500000920E-02 0. -1.
       -2    1    3    3    0  502 -0.18565688906E+02  0.12090774293E+03 -0.10723420414E+04  0.10792964471E+04  0.25500000920E-02 0.  1.
</event>
<event>
 5   0  0.5663790E-05  0.2266111E+04  0.7818609E-02  0.8491404E-01
       -1   -1    0    0    0  501  0.00000000000E+00  0.00000000000E+00  0.88260428557E+03  0.88260428559E+03  0.50400001928E-02 0. -1.
        1   -1    0    0  501    0  0.00000000000E+00  0.00000000000E+00 -0.14545751806E+04  0.14545751806E+04  0.50400001928E-02 0.  1.
    10030    2    1    2    0    0  0.00000000000E+00  0.00000000000E+00 -0.57197089506E+03  0.23371794662E+04  0.22661105782E+04 0.  0.
        3    1    3    3  502    0  0.10454899075E+04  0.36160270246E+03 -0.33336337703E+02  0.11067596770E+04  0.10100000352E+00 0. -1.
       -3    1    3    3    0  502 -0.10454899075E+04 -0.36160270246E+03 -0.53863455736E+03  0.12304197892E+04  0.10100000352E+00 0.  1.
</event>
<event>
 5   0  0.1270613E-04  0.2215631E+04  0.7818609E-02  0.8511950E-01
       -2   -1    0    0    0  501  0.00000000000E+00  0.00000000000E+00  0.10162264230E+04  0.10162264230E+04  0.25500000920E-02 0.  1.
        2   -1    0    0  501    0  0.00000000000E+00  0.00000000000E+00 -0.12076591515E+04  0.12076591515E+04  0.25500000920E-02 0. -1.
    10030    2    1    2    0    0  0.00000000000E+00  0.00000000000E+00 -0.19143272851E+03  0.22238855745E+04  0.22156309618E+04 0.  0.
        2    1    3    3  502    0 -0.10934402836E+04 -0.71260546809E+02  0.67879891372E+02  0.10978603731E+04  0.25500000920E-02 0. -1.
       -2    1    3    3    0  502  0.10934402836E+04  0.71260546809E+02 -0.25931261988E+03  0.11260252013E+04  0.25500000920E-02 0.  1.
</event>
<event>
 5   0  0.5924654E-05  0.2289250E+04  0.7818609E-02  0.8482172E-01
       -1   -1    0    0    0  501  0.00000000000E+00  0.00000000000E+00  0.84150353527E+03  0.84150353529E+03  0.50400001928E-02 0.  1.
        1   -1    0    0  501    0  0.00000000000E+00  0.00000000000E+00 -0.15569346164E+04  0.15569346164E+04  0.50400001928E-02 0. -1.
    10030    2    1    2    0    0  0.00000000000E+00  0.00000000000E+00 -0.71543108116E+03  0.23984381517E+04  0.22892496447E+04 0.  0.
        5    1    3    3  502    0  0.35493289739E+03  0.38216397662E+03  0.70976156020E+03  0.88080090203E+03  0.46999998093E+01 0.  1.
       -5    1    3    3    0  502 -0.35493289739E+03 -0.38216397662E+03 -0.14251926414E+04  0.15176372497E+04  0.46999998093E+01 0. -1.
</event>
<event>
 5   0  0.5632156E-05  0.2267625E+04  0.7818609E-02  0.8490796E-01
        1   -1    0    0  501    0  0.00000000000E+00  0.00000000000E+00  0.17250369574E+04  0.17250369574E+04  0.50400001928E-02 0.  1.
       -1   -1    0    0    0  501  0.00000000000E+00  0.00000000000E+00 -0.74521947537E+03  0.74521947539E+03  0.50400001928E-02 0. -1.
    10030    2    1    2    0    0  0.00000000000E+00  0.00000000000E+00  0.97981748199E+03  0.24702564328E+04  0.22676253098E+04 0.  0.
        4    1    3    3  502    0  0.99876707013E+02 -0.51539289123E+03 -0.60484178281E+03  0.80089973409E+03  0.12699999809E+01 0. -1.
       -4    1    3    3    0  502 -0.99876707013E+02  0.51539289123E+03  0.15846592648E+04  0.16693566987E+04  0.12699999809E+01 0.  1.
</event>
<event>
 5   0  0.1257524E-04  0.2388969E+04  0.7818609E-02  0.8443645E-01
       -2   -1    0    0    0  501  0.00000000000E+00  0.00000000000E+00  0.93419834996E+03  0.93419834997E+03  0.25500000920E-02 0. -1.
        2   -1    0    0  501    0  0.00000000000E+00  0.00000000000E+00 -0.15272914828E+04  0.15272914828E+04  0.25500000920E-02 0.  1.
    10030    2    1    2    0    0  0.00000000000E+00  0.00000000000E+00 -0.59309313283E+03  0.24614898328E+04  0.23889689685E+04 0.  0.
        3    1    3    3  502    0  0.65853419966E+03 -0.20347523008E+03  0.70863145155E+03  0.98854843367E+03  0.10100000352E+00 0. -1.
       -3    1    3    3    0  502 -0.65853419966E+03  0.20347523008E+03 -0.13017245844E+04  0.14729413991E+04  0.10100000352E+00 0.  1.
</event>
<event>
 5   0  0.5663790E-05  0.2300649E+04  0.7818609E-02  0.8477665E-01
       -1   -1    0    0    0  501  0.00000000000E+00  0.00000000000E+00  0.13693721289E+04  0.13693721289E+04  0.50400001928E-02 0.  1.
        1   -1    0    0  501    0  0.00000000000E+00  0.00000000000E+00 -0.96631648550E+03  0.96631648551E+03  0.50400001928E-02 0. -1.
    10030    2    1    2    0    0  0.00000000000E+00  0.00000000000E+00  0.40305564337E+03  0.23356886144E+04  0.23006493544E+04 0.  0.
        3    1    3    3  502    0  0.96538201575E+02 -0.70330948352E+03  0.11204558176E+04  0.13264181481E+04  0.10100000352E+00 0.  1.
       -3    1    3    3    0  502 -0.96538201575E+02  0.70330948352E+03 -0.71740017428E+03  0.10092704663E+04  0.10100000352E+00 0. -1.
</event>
<event>
 5   0  0.5843670E-05  0.1809867E+04  0.7818609E-02  0.8701070E-01
        1   -1    0    0  501    0  0.00000000000E+00  0.00000000000E+00  0.16531868899E+04  0.16531868899E+04  0.50400001928E-02 0.  1.
       -1   -1    0    0    0  501  0.00000000000E+00  0.00000000000E+00 -0.49534928929E+03  0.49534928931E+03  0.50400001928E-02 0. -1.
    10030    2    1    2    0    0  0.00000000000E+00  0.00000000000E+00  0.11578376007E+04  0.21485361793E+04  0.18098673443E+04 0.  0.
        2    1    3    3  502    0 -0.76041777251E+03 -0.34851142281E+03  0.98879382158E+03  0.12951481082E+04  0.25500000920E-02 0.  1.
       -2    1    3    3    0  502  0.76041777251E+03  0.34851142281E+03  0.16904377907E+03  0.85338807106E+03  0.25500000920E-02 0. -1.
</event>
<event>
 5   0  0.5843670E-05  0.2278791E+04  0.7818609E-02  0.8486331E-01
        1   -1    0    0  501    0  0.00000000000E+00  0.00000000000E+00  0.15060250855E+04  0.15060250855E+04  0.50400001928E-02 0.  1.
       -1   -1    0    0    0  501  0.00000000000E+00  0.00000000000E+00 -0.86201904794E+03  0.86201904796E+03  0.50400001928E-02 0. -1.
    10030    2    1    2    0    0  0.00000000000E+00  0.00000000000E+00  0.64400603758E+03  0.23680441335E+04  0.22787911799E+04 0.  0.
        2    1    3    3  502    0 -0.55647086946E+03  0.41601719143E+03 -0.61641245901E+03  0.92881346446E+03  0.25500000920E-02 0. -1.
       -2    1    3    3    0  502  0.55647086946E+03 -0.41601719143E+03  0.12604184966E+04  0.14392306690E+04  0.25500000920E-02 0.  1.
</event>
<event>
 5   0  0.1281432E-04  0.2304135E+04  0.7818609E-02  0.8476293E-01
       -2   -1    0    0    0  501  0.00000000000E+00  0.00000000000E+00  0.82350756454E+03  0.82350756454E+03  0.25500000920E-02 0. -1.
        2   -1    0    0  501    0  0.00000000000E+00  0.00000000000E+00 -0.16117150351E+04  0.16117150351E+04  0.25500000920E-02 0.  1.
    10030    2    1    2    0    0  0.00000000000E+00  0.00000000000E+00 -0.78820747059E+03  0.24352225997E+04  0.23041349989E+04 0.  0.
        4    1    3    3  502    0 -0.98119398351E+03  0.53767595367E+03 -0.10385091756E+03  0.11236652929E+04  0.12699999809E+01 0. -1.
       -4    1    3    3    0  502  0.98119398351E+03 -0.53767595367E+03 -0.68435655303E+03  0.13115573068E+04  0.12699999809E+01 0.  1.
</event>
<event>
 5   0  0.5632156E-05  0.1199549E+04  0.7818609E-02  0.9113252E-01
       -1   -1    0    0    0  501  0.00000000000E+00  0.00000000000E+00  0.15259323786E+03  0.15259323794E+03  0.50400001928E-02 0. -1.
        1   -1    0    0  501    0  0.00000000000E+00  0.00000000000E+00 -0.23574397249E+04  0.23574397250E+04  0.50400001928E-02 0.  1.
    10030    2    1    2    0    0  0.00000000000E+00  0.00000000000E+00 -0.22048464871E+04  0.25100329629E+04  0.11995488499E+04 0.  0.
        4    1    3    3  502    0  0.17272330398E+03 -0.20099248306E+03 -0.22282798806E+04  0.22439839922E+04  0.12699999809E+01 0.  1.
       -4    1    3    3    0  502 -0.17272330398E+03  0.20099248306E+03  0.23433393512E+02  0.26604897071E+03  0.12699999809E+01 0. -1.
</event>
<event>
 5   0  0.5642466E-05  0.2293633E+04  0.7818609E-02  0.8480436E-01
       -1   -1    0    0    0  501  0.00000000000E+00  0.00000000000E+00  0.54758142278E+03  0.54758142280E+03  0.50400001928E-02 0.  1.
        1   -1    0    0  501    0  0.00000000000E+00  0.00000000000E+00 -0.24018121500E+04  0.24018121500E+04  0.50400001928E-02 0. -1.
    10030    2    1    2    0    0  0.00000000000E+00  0.00000000000E+00 -0.18542307272E+04  0.29493935728E+04  0.22936326771E+04 0.  0.
        1    1    3    3  502    0  0.91026073252E+03  0.41175816453E+03 -0.20303746279E+03  0.10194820246E+04  0.50400001928E-02 0.  1.
       -1    1    3    3    0  502 -0.91026073252E+03 -0.41175816453E+03 -0.16511932644E+04  0.19299115481E+04  0.50400001928E-02 0. -1.
</event>
<event>
 5   0  0.1234988E-04  0.2273876E+04  0.7818609E-02  0.8488293E-01
        2   -1    0    0  501    0  0.00000000000E+00  0.00000000000E+00  0.11516816559E+04  0.11516816559E+04  0.25500000920E-02 0. -1.
       -2   -1    0    0    0  501  0.00000000000E+00  0.00000000000E+00 -0.11223833861E+04  0.11223833861E+04  0.25500000920E-02 0.  1.
    10030    2    1    2    0    0  0.00000000000E+00  0.00000000000E+00  0.29298269802E+02  0.22740650420E+04  0.22738762997E+04 0.  0.
        5    1    3    3  502    0 -0.11140950170E+04  0.20023311122E+03  0.12098416080E+03  0.11384025048E+04  0.46999998093E+01 0.  1.
       -5    1    3    3    0  502  0.11140950170E+04 -0.20023311122E+03 -0.91685891002E+02  0.11356625372E+04  0.46999998093E+01 0. -1.
</event>
<event>
 5   0  0.1237296E-04  0.1573685E+04  0.7818609E-02  0.8836879E-01
        2   -1    0    0  501    0  0.00000000000E+00  0.00000000000E+00  0.12122311385E+04  0.12122311385E+04  0.25500000920E-02 0.  1.
       -2   -1    0    0    0  501  0.00000000000E+00  0.00000000000E+00 -0.51072883704E+03  0.51072883705E+03  0.25500000920E-02 0. -1.
    10030    2    1    2    0    0  0.00000000000E+00  0.00000000000E+00  0.70150230144E+03  0.17229599755E+04  0.15736853556E+04 0.  0.
        1    1    3    3  502    0  0.20512497600E+03 -0.11400553156E+03 -0.47152041417E+03  0.52669252701E+03  0.50400001928E-02 0. -1.
       -1    1    3    3    0  502 -0.20512497600E+03  0.11400553156E+03  0.11730227156E+04  0.11962674485E+04  0.50400001928E-02 0.  1.
</event>
<event>
 5   0  0.1237296E-04  0.2260800E+04  0.7818609E-02  0.8493540E-01
       -2   -1    0    0    0  501  0.00000000000E+00  0.00000000000E+00  0.61214719446E+03  0.61214719447E+03  0.25500000920E-02 0.  1.
        2   -1    0    0  501    0  0.00000000000E+00  0.00000000000E+00 -0.20874126155E+04  0.20874126155E+04  0.25500000920E-02 0. -1.
    10030    2    1    2    0    0  0.00000000000E+00  0.00000000000E+00 -0.14752654210E+04  0.26995598099E+04  0.22607996605E+04 0.  0.
        1    1    3    3  502    0  0.79575572996E+03  0.80283082893E+03 -0.74511399303E+03  0.13538683039E+04  0.50400001928E-02 0.  1.
       -1    1    3    3    0  502 -0.79575572996E+03 -0.80283082893E+03 -0.73015142796E+03  0.13456915060E+04  0.50400001928E-02 0. -1.
</event>
<event>
 5   0  0.5663790E-05  0.2312129E+04  0.7818609E-02  0.8473154E-01
       -1   -1    0    0    0  501  0.00000000000E+00  0.00000000000E+00  0.69356507069E+03  0.69356507071E+03  0.50400001928E-02 0.  1.
        1   -1    0    0  501    0  0.00000000000E+00  0.00000000000E+00 -0.19269786794E+04  0.19269786794E+04  0.50400001928E-02 0. -1.
    10030    2    1    2    0    0  0.00000000000E+00  0.00000000000E+00 -0.12334136087E+04  0.26205437501E+04  0.23121289791E+04 0.  0.
        3    1    3    3  502    0 -0.52102209544E+01 -0.20330595341E+03 -0.19065447229E+04  0.19173610113E+04  0.10100000352E+00 0. -1.
       -3    1    3    3    0  502  0.52102209544E+01  0.20330595341E+03  0.67313111417E+03  0.70318273881E+03  0.10100000352E+00 0.  1.
</event>
<event>
 5   0  0.1234988E-04  0.2361600E+04  0.7818609E-02  0.8454021E-01
       -2   -1    0    0    0  501  0.00000000000E+00  0.00000000000E+00  0.51775077514E+03  0.51775077514E+03  0.25500000920E-02 0.  1.
        2   -1    0    0  501    0  0.00000000000E+00  0.00000000000E+00 -0.26929724401E+04  0.26929724401E+04  0.25500000920E-02 0. -1.
    10030    2    1    2    0    0  0.00000000000E+00  0.00000000000E+00 -0.21752216649E+04  0.32107232152E+04  0.23615999393E+04 0.  0.
        5    1    3    3  502    0 -0.93886790887E+03  0.33974961955E+02 -0.20600858596E+04  0.22642003196E+04  0.46999998093E+01 0. -1.
       -5    1    3    3    0  502  0.93886790887E+03 -0.33974961955E+02 -0.11513580538E+03  0.94652289567E+03  0.46999998093E+01 0.  1.
</event>
<event>
 5   0  0.1270613E-04  0.2286053E+04  0.7818609E-02  0.8483440E-01
        2   -1    0    0  501    0  0.00000000000E+00  0.00000000000E+00  0.16064996461E+04  0.16064996461E+04  0.25500000920E-02 0.  1.
       -2   -1    0    0    0  501  0.00000000000E+00  0.00000000000E+00 -0.81326504855E+03  0.81326504855E+03  0.25500000920E-02 0. -1.
    10030    2    1    2    0    0  0.00000000000E+00  0.00000000000E+00  0.79323459756E+03  0.24197646947E+04  0.22860533788E+04 0.  0.
        2    1    3    3  502    0 -0.86524670371E+03 -0.61131204027E+03 -0.57616455400E+02  0.10609778154E+04  0.25500000920E-02 0. -1.
       -2    1    3    3    0  502  0.86524670371E+03  0.61131204027E+03  0.85085105296E+03  0.13587868792E+04  0.25500000920E-02 0.  1.
</event>
<event>
 5   0  0.5924654E-05  0.2330830E+04  0.7818609E-02  0.8465864E-01
        1   -1    0    0  501    0  0.00000000000E+00  0.00000000000E+00  0.14259336292E+04  0.14259336292E+04  0.50400001928E-02 0.  1.
       -1   -1    0    0    0  501  0.00000000000E+00  0.00000000000E+00 -0.95249313742E+03  0.95249313743E+03  0.50400001928E-02 0. -1.
    10030    2    1    2    0    0  0.00000000000E+00  0.00000000000E+00  0.47344049179E+03  0.23784267666E+04  0.23308298919E+04 0.  0.
        5    1    3    3  502    0  0.34397518082E+03 -0.15459202279E+03 -0.88849982894E+03  0.96523139949E+03  0.46999998093E+01 0. -1.
       -5    1    3    3    0  502 -0.34397518082E+03  0.15459202279E+03  0.13619403207E+04  0.14131953672E+04  0.46999998093E+01 0.  1.
</event>
<event>
 5   0  0.1237296E-04  0.2159602E+04  0.7818609E-02  0.8535433E-01
       -2   -1    0    0    0  501  0.00000000000E+00  0.00000000000E+00  0.88879439607E+03  0.88879439607E+03  0.25500000920E-02 0.  1.
        2   -1    0    0  501    0  0.00000000000E+00  0.00000000000E+00 -0.13118554060E+04  0.13118554060E+04  0.25500000920E-02 0. -1.
    10030    2    1    2    0    0  0.00000000000E+00  0.00000000000E+00 -0.42306100996E+03  0.22006498021E+04  0.21596015682E+04 0.  0.
        1    1    3    3  502    0 -0.10664469842E+04 -0.15999456699E+02 -0.39790491381E+02  0.10673089693E+04  0.50400001928E-02 0.  1.
       -1    1    3    3    0  502  0.10664469842E+04  0.15999456699E+02 -0.38327051858E+03  0.11333408328E+04  0.50400001928E-02 0. -1.
</event>
<event>
 5   0  0.1281432E-04  0.2496772E+04  0.7818609E-02  0.8404137E-01
        2   -1    0    0  501    0  0.00000000000E+00  0.00000000000E+00  0.24575652172E+04  0.24575652172E+04  0.25500000920E-02 0.  1.
       -2   -1    0    0    0  501  0.00000000000E+00  0.00000000000E+00 -0.63415089061E+03  0.63415089061E+03  0.25500000920E-02 0. -1.
    10030    2    1    2    0    0  0.00000000000E+00  0.00000000000E+00  0.18234143266E+04  0.30917161078E+04  0.24967716525E+04 0.  0.
        4    1    3    3  502    0  0.12463381005E+03  0.12227113069E+04  0.64066960257E+03  0.13860070993E+04  0.12699999809E+01 0.  1.
       -4    1    3    3    0  502 -0.12463381005E+03 -0.12227113069E+04  0.11827447241E+04  0.17057090086E+04  0.12699999809E+01 0. -1.
</event>
<event>
 5   0  0.1237296E-04  0.2043096E+04  0.7818609E-02  0.8586733E-01
       -2   -1    0    0    0  501  0.00000000000E+00  0.00000000000E+00  0.22543393841E+04  0.22543393841E+04  0.25500000920E-02 0. -1.
        2   -1    0    0  501    0  0.00000000000E+00  0.00000000000E+00 -0.46291180779E+03  0.46291180779E+03  0.25500000920E-02 0.  1.
    10030    2    1    2    0    0  0.00000000000E+00  0.00000000000E+00  0.17914275763E+04  0.27172511919E+04  0.20430960033E+04 0.  0.
        1    1    3    3  502    0 -0.65378403163E+03 -0.73746643036E+03  0.53817751217E+03  0.11229093154E+04  0.50400001928E-02 0. -1.
       -1    1    3    3    0  502  0.65378403163E+03  0.73746643036E+03  0.12532500641E+04  0.15943418765E+04  0.50400001928E-02 0.  1.
</event>
<event>
 5   0  0.1270613E-04  0.2267800E+04  0.7818609E-02  0.8490726E-01
       -2   -1    0    0    0  501  0.00000000000E+00  0.00000000000E+00  0.10970642028E+04  0.10970642028E+04  0.25500000920E-02 0.  1.
        2   -1    0    0  501    0  0.00000000000E+00  0.00000000000E+00 -0.11719724308E+04  0.11719724308E+04  0.25500000920E-02 0. -1.
    10030    2    1    2    0    0  0.00000000000E+00  0.00000000000E+00 -0.74908228003E+02  0.22690366337E+04  0.22677998153E+04 0.  0.
        2    1    3    3  502    0  0.10382824058E+04 -0.28927547486E+03 -0.38980856294E+03  0.11461506753E+04  0.25500000920E-02 0. -1.
       -2    1    3    3    0  502 -0.10382824058E+04  0.28927547486E+03  0.31490033493E+03  0.11228859584E+04  0.25500000920E-02 0.  1.
</event>
<event>
 5   0  0.5843670E-05  0.2287134E+04  0.7818609E-02  0.8483011E-01
        1   -1    0    0  501    0  0.00000000000E+00  0.00000000000E+00  0.19824081776E+04  0.19824081776E+04  0.50400001928E-02 0.  1.
       -1   -1    0    0    0  501  0.00000000000E+00  0.00000000000E+00 -0.65967514017E+03  0.65967514019E+03  0.50400001928E-02 0. -1.
    10030    2    1    2    0    0  0.00000000000E+00  0.00000000000E+00  0.13227330374E+04  0.26420833178E+04  0.22871339204E+04 0.  0.
        2    1    3    3  502    0 -0.37008356329E+03  0.68067842786E+03 -0.31027483357E+03  0.83459896856E+03  0.25500000920E-02 0. -1.
       -2    1    3    3    0  502  0.37008356329E+03 -0.68067842786E+03  0.16330078710E+04  0.18074843492E+04  0.25500000920E-02 0.  1.
</event>
<event>
 5   0  0.5843670E-05  0.1989392E+04  0.7818609E-02  0.8611596E-01
       -1   -1    0    0    0  501  0.00000000000E+00  0.00000000000E+00  0.13370519515E+04  0.13370519516E+04  0.50400001928E-02 0.  1.
        1   -1    0    0  501    0  0.00000000000E+00  0.00000000000E+00 -0.74000154261E+03  0.74000154263E+03  0.50400001928E-02 0. -1.
    10030    2    1    2    0    0  0.00000000000E+00  0.00000000000E+00  0.59705040894E+03  0.20770534942E+04  0.19893923763E+04 0.  0.
        2    1    3    3  502    0 -0.73372143868E+03  0.60174112020E+03 -0.12915826431E+02  0.94900281553E+03  0.25500000920E-02 0. -1.
       -2    1    3    3    0  502  0.73372143868E+03 -0.60174112020E+03  0.60996623537E+03  0.11280506787E+04  0.25500000920E-02 0.  1.
</event>
<event>
 5   0  0.1237296E-04  0.2225075E+04  0.7818609E-02  0.8508063E-01
        2   -1    0    0  501    0  0.00000000000E+00  0.00000000000E+00  0.13961757102E+04  0.13961757102E+04  0.25500000920E-02 0. -1.
       -2   -1    0    0    0  501  0.00000000000E+00  0.00000000000E+00 -0.88652140868E+03  0.88652140868E+03  0.25500000920E-02 0.  1.
    10030    2    1    2    0    0  0.00000000000E+00  0.00000000000E+00  0.50965430150E+03  0.22826971189E+04  0.22250749716E+04 0.  0.
        1    1    3    3  502    0  0.50821009058E+03  0.38266057333E+03 -0.68151539454E+03  0.93229278854E+03  0.50400001928E-02 0.  1.
       -1    1    3    3    0  502 -0.50821009058E+03 -0.38266057333E+03  0.11911696960E+04  0.13504043303E+04  0.50400001928E-02 0. -1.
</event>
<event>
 5   0  0.5642466E-05  0.2265378E+04  0.7818609E-02  0.8491699E-01
       -1   -1    0    0    0  501  0.00000000000E+00  0.00000000000E+00  0.89979521470E+03  0.89979521472E+03  0.50400001928E-02 0.  1.
        1   -1    0    0  501    0  0.00000000000E+00  0.00000000000E+00 -0.14258620873E+04  0.14258620873E+04  0.50400001928E-02 0. -1.
    10030    2    1    2    0    0  0.00000000000E+00  0.00000000000E+00 -0.52606687255E+03  0.23256573020E+04  0.22653775694E+04 0.  0.
        1    1    3    3  502    0 -0.86830294666E+03  0.49863857099E+03 -0.80664546327E+03  0.12857944373E+04  0.50400001928E-02 0. -1.
       -1    1    3    3    0  502  0.86830294666E+03 -0.49863857099E+03  0.28057859072E+03  0.10398628646E+04  0.50400001928E-02 0.  1.
</event>
<event>
 5   0  0.5924654E-05  0.2337638E+04  0.7818609E-02  0.8463227E-01
       -1   -1    0    0    0  501  0.00000000000E+00  0.00000000000E+00  0.82887405655E+03  0.82887405656E+03  0.50400001928E-02 0. -1.
        1   -1    0    0  501    0  0.00000000000E+00  0.00000000000E+00 -0.16481845784E+04  0.16481845784E+04  0.50400001928E-02 0.  1.
    10030    2    1    2    0    0  0.00000000000E+00  0.00000000000E+00 -0.81931052189E+03  0.24770586350E+04  0.23376376430E+04 0.  0.
        5    1    3    3  502    0  0.25442476958E+03  0.93496304648E+02  0.79509823966E+03  0.84004572677E+03  0.46999998093E+01 0. -1.
       -5    1    3    3    0  502 -0.25442476958E+03 -0.93496304648E+02 -0.16144087616E+04  0.16370129082E+04  0.46999998093E+01 0.  1.
</event>
<event>
 5   0  0.1237296E-04  0.2268589E+04  0.7818609E-02  0.8490410E-01
       -2   -1    0    0    0  501  0.00000000000E+00  0.00000000000E+00  0.70817097504E+03  0.70817097505E+03  0.25500000920E-02 0. -1.
        2   -1    0    0  501    0  0.00000000000E+00  0.00000000000E+00 -0.18168267284E+04  0.18168267284E+04  0.25500000920E-02 0.  1.
    10030    2    1    2    0    0  0.00000000000E+00  0.00000000000E+00 -0.11086557534E+04  0.25249977035E+04  0.22685889498E+04 0.  0.
        1    1    3    3  502    0  0.72377090059E+03  0.51501539351E+03  0.23076067634E+03  0.91778846248E+03  0.50400001928E-02 0. -1.
       -1    1    3    3    0  502 -0.72377090059E+03 -0.51501539351E+03 -0.13394164297E+04  0.16072092410E+04  0.50400001928E-02 0.  1.
</event>
<event>
 5   0  0.5632156E-05  0.2539216E+04  0.7818609E-02  0.8389146E-01
       -1   -1    0    0    0  501  0.00000000000E+00  0.00000000000E+00  0.76822152397E+03  0.76822152398E+03  0.50400001928E-02 0.  1.
        1   -1    0    0  501    0  0.00000000000E+00  0.00000000000E+00 -0.20982283607E+04  0.20982283607E+04  0.50400001928E-02 0. -1.
    10030    2    1    2    0    0  0.00000000000E+00  0.00000000000E+00 -0.13300068367E+04  0.28664498847E+04  0.25392157757E+04 0.  0.
        4    1    3    3  502    0  0.32605341555E+03  0.32146352168E+03 -0.20017772239E+04  0.20534759050E+04  0.12699999809E+01 0. -1.
       -4    1    3    3    0  502 -0.32605341555E+03 -0.32146352168E+03  0.67177038718E+03  0.81297397963E+03  0.12699999809E+01 0.  1.
</event>
<event>
 5   0  0.1270613E-04  0.2288154E+04  0.7818609E-02  0.8482606E-01
       -2   -1    0    0    0  501  0.00000000000E+00  0.00000000000E+00  0.64048755402E+03  0.64048755403E+03  0.25500000920E-02 0. -1.
        2   -1    0    0  501    0  0.00000000000E+00  0.00000000000E+00 -0.20436185727E+04  0.20436185727E+04  0.25500000920E-02 0.  1.
    10030    2    1    2    0    0  0.00000000000E+00  0.00000000000E+00 -0.14031310187E+04  0.26841061267E+04  0.22881540691E+04 0.  0.
        2    1    3    3  502    0 -0.50581884791E+03  0.18025429494E+03  0.48348096114E+03  0.72256360103E+03  0.25500000920E-02 0. -1.
       -2    1    3    3    0  502  0.50581884791E+03 -0.18025429494E+03 -0.18866119798E+04  0.19615425257E+04  0.25500000920E-02 0.  1.
</event>
<event>
 5   0  0.5632156E-05  0.2270613E+04  0.7818609E-02  0.8489599E-01
       -1   -1    0    0    0  501  0.00000000000E+00  0.00000000000E+00  0.71055785505E+03  0.71055785507E+03  0.50400001928E-02 0.  1.
        1   -1    0    0  501    0  0.00000000000E+00  0.00000000000E+00 -0.18139565582E+04  0.18139565582E+04  0.50400001928E-02 0. -1.
    10030    2    1    2    0    0  0.00000000000E+00  0.00000000000E+00 -0.11033987032E+04  0.25245144133E+04  0.22706132046E+04 0.  0.
        4    1    3    3  502    0  0.66671865481E+03 -0.24385423751E+03 -0.15367377294E+04  0.16927915157E+04  0.12699999809E+01 0. -1.
       -4    1    3    3    0  502 -0.66671865481E+03  0.24385423751E+03  0.43333902623E+03  0.83172289759E+03  0.12699999809E+01 0.  1.
</event>
<event>
 5   0  0.5642466E-05  0.2222142E+04  0.7818609E-02  0.8509268E-01
        1   -1    0    0  501    0  0.00000000000E+00  0.00000000000E+00  0.13038286382E+04  0.13038286383E+04  0.50400001928E-02 0. -1.
       -1   -1    0    0    0  501  0.00000000000E+00  0.00000000000E+00 -0.94681029663E+03  0.94681029665E+03  0.50400001928E-02 0.  1.
    10030    2    1    2    0    0  0.00000000000E+00  0.00000000000E+00  0.35701834161E+03  0.22506389349E+04  0.22221416514E+04 0.  0.
        1    1    3    3  502    0 -0.61617328008E+03  0.81545851256E+03  0.61979877719E+03  0.11953211372E+04  0.50400001928E-02 0.  1.
       -1    1    3    3    0  502  0.61617328008E+03 -0.81545851256E+03 -0.26278043558E+03  0.10553177977E+04  0.50400001928E-02 0. -1.
</event>
<event>
 5   0  0.1234988E-04  0.2358156E+04  0.7818609E-02  0.8455338E-01
       -2   -1    0    0    0  501  0.00000000000E+00  0.00000000000E+00  0.16501270770E+04  0.16501270770E+04  0.25500000920E-02 0. -1.
        2   -1    0    0  501    0  0.00000000000E+00  0.00000000000E+00 -0.84249568080E+03  0.84249568081E+03  0.25500000920E-02 0.  1.
    10030    2    1    2    0    0  0.00000000000E+00  0.00000000000E+00  0.80763139620E+03  0.24926227578E+04  0.23581560043E+04 0.  0.
        5    1    3    3  502    0  0.22726615527E+03 -0.11035260615E+04  0.36459613564E+02  0.11272848208E+04  0.46999998093E+01 0.  1.
       -5    1    3    3    0  502 -0.22726615527E+03  0.11035260615E+04  0.77117178264E+03  0.13653379370E+04  0.46999998093E+01 0. -1.
</event>
<event>
 5   0  0.5663790E-05  0.2358566E+04  0.7818609E-02  0.8455181E-01
       -1   -1    0    0    0  501  0.00000000000E+00  0.00000000000E+00  0.89699347675E+03  0.89699347676E+03  0.50400001928E-02 0.  1.
        1   -1    0    0  501    0  0.00000000000E+00  0.00000000000E+00 -0.15504113806E+04  0.15504113806E+04  0.50400001928E-02 0. -1.
    10030    2    1    2    0    0  0.00000000000E+00  0.00000000000E+00 -0.65341790381E+03  0.24474048573E+04  0.23585664245E+04 0.  0.
        3    1    3    3  502    0  0.45335640236E+03 -0.51748096031E+03 -0.13205908500E+04  0.14890529793E+04  0.10100000352E+00 0. -1.
       -3    1    3    3    0  502 -0.45335640236E+03  0.51748096031E+03  0.66717294617E+03  0.95835187804E+03  0.10100000352E+00 0.  1.
</event>
<event>
 5   0  0.5663790E-05  0.2284655E+04  0.7818609E-02  0.8483996E-01
       -1   -1    0    0    0  501  0.00000000000E+00  0.00000000000E+00  0.99526705639E+03  0.99526705640E+03  0.50400001928E-02 0.  1.
        1   -1    0    0  501    0  0.00000000000E+00  0.00000000000E+00 -0.13111179987E+04  0.13111179987E+04  0.50400001928E-02 0. -1.
    10030    2    1    2    0    0  0.00000000000E+00  0.00000000000E+00 -0.31585094231E+03  0.23063850551E+04  0.22846553799E+04 0.  0.
        3    1    3    3  502    0  0.36546267128E+03  0.84032775800E+03  0.53061651047E+03  0.10588992380E+04  0.10100000352E+00 0.  1.
       -3    1    3    3    0  502 -0.36546267128E+03 -0.84032775800E+03 -0.84646745277E+03  0.12474858171E+04  0.10100000352E+00 0. -1.
</event>
<event>
 5   0  0.1270613E-04  0.2270289E+04  0.7818609E-02  0.8489729E-01
       -2   -1    0    0    0  501  0.00000000000E+00  0.00000000000E+00  0.83890908112E+03  0.83890908112E+03  0.25500000920E-02 0.  1.
        2   -1    0    0  501    0  0.00000000000E+00  0.00000000000E+00 -0.15359869195E+04  0.15359869195E+04  0.25500000920E-02 0. -1.
    10030    2    1    2    0    0  0.00000000000E+00  0.00000000000E+00 -0.69707783840E+03  0.23748960006E+04  0.22702892990E+04 0.  0.
        2    1    3    3  502    0 -0.10694583000E+04  0.26107866029E+03 -0.58924493609E+02  0.11024405736E+04  0.25500000920E-02 0.  1.
       -2    1    3    3    0  502  0.10694583000E+04 -0.26107866029E+03 -0.63815334479E+03  0.12724554271E+04  0.25500000920E-02 0. -1.
</event>
<event>
 5   0  0.1281432E-04  0.2286797E+04  0.7818609E-02  0.8483145E-01
        2   -1    0    0  501    0  0.00000000000E+00  0.00000000000E+00  0.14365578187E+04  0.14365578187E+04  0.25500000920E-02 0. -1.
       -2   -1    0    0    0  501  0.00000000000E+00  0.00000000000E+00 -0.91006441129E+03  0.91006441129E+03  0.25500000920E-02 0.  1.
    10030    2    1    2    0    0  0.00000000000E+00  0.00000000000E+00  0.52649340744E+03  0.23466222300E+04  0.22867970138E+04 0.  0.
        4    1    3    3  502    0 -0.10552117616E+04 -0.38566000538E+03  0.45195233853E+02  0.11243886000E+04  0.12699999809E+01 0. -1.
       -4    1    3    3    0  502  0.10552117616E+04  0.38566000538E+03  0.48129817359E+03  0.12222336301E+04  0.12699999809E+01 0.  1.
</event>
<event>
 5   0  0.5663790E-05  0.2313826E+04  0.7818609E-02  0.8472490E-01
       -1   -1    0    0    0  501  0.00000000000E+00  0.00000000000E+00  0.16918796000E+04  0.16918796000E+04  0.50400001928E-02 0. -1.
        1   -1    0    0  501    0  0.00000000000E+00  0.00000000000E+00 -0.79110115801E+03  0.79110115802E+03  0.50400001928E-02 0.  1.
    10030    2    1    2    0    0  0.00000000000E+00  0.00000000000E+00  0.90077844199E+03  0.24829807580E+04  0.23138261912E+04 0.  0.
        3    1    3    3  502    0 -0.58532133383E+03 -0.65934510340E+03 -0.35344587304E+03  0.94987421514E+03  0.10100000352E+00 0.  1.
       -3    1    3    3    0  502  0.58532133383E+03  0.65934510340E+03  0.12542243150E+04  0.15331065429E+04  0.10100000352E+00 0. -1.
</event>
<event>
 5   0  0.1270613E-04  0.2278231E+04  0.7818609E-02  0.8486554E-01
       -2   -1    0    0    0  501  0.00000000000E+00  0.00000000000E+00  0.10956018858E+04  0.10956018858E+04  0.25500000920E-02 0.  1.
        2   -1    0    0  501    0  0.00000000000E+00  0.00000000000E+00 -0.11843575950E+04  0.11843575950E+04  0.25500000920E-02 0. -1.
    10030    2    1    2    0    0  0.00000000000E+00  0.00000000000E+00 -0.88755709143E+02  0.22799594808E+04  0.22782312565E+04 0.  0.
        2    1    3    3  502    0  0.87267140357E+03  0.43700491030E+03 -0.63223791335E+03  0.11628643297E+04  0.25500000920E-02 0. -1.
       -2    1    3    3    0  502 -0.87267140357E+03 -0.43700491030E+03  0.54348220421E+03  0.11170951511E+04  0.25500000920E-02 0.  1.
</event>
<event>
 5   0  0.1281432E-04  0.1901483E+04  0.7818609E-02  0.8654119E-01
       -2   -1    0    0    0  501  0.00000000000E+00  0.00000000000E+00  0.10038629473E+04  0.10038629473E+04  0.25500000920E-02 0. -1.
        2   -1    0    0  501    0  0.00000000000E+00  0.00000000000E+00 -0.90043099574E+03  0.90043099575E+03  0.25500000920E-02 0.  1.
    10030    2    1    2    0    0  0.00000000000E+00  0.00000000000E+00  0.10343195151E+03  0.19042939430E+04  0.19014829089E+04 0.  0.
        4    1    3    3  502    0 -0.69343025996E+03 -0.23610375868E+03  0.65867893225E+03  0.98511423651E+03  0.12699999809E+01 0. -1.
       -4    1    3    3    0  502  0.69343025996E+03  0.23610375868E+03 -0.55524698074E+03  0.91917970649E+03  0.12699999809E+01 0.  1.
</event>
<event>
 5   0  0.1257524E-04  0.2283628E+04  0.7818609E-02  0.8484405E-01
       -2   -1    0    0    0  501  0.00000000000E+00  0.00000000000E+00  0.21464703932E+04  0.21464703932E+04  0.25500000920E-02 0. -1.
        2   -1    0    0  501    0  0.00000000000E+00  0.00000000000E+00 -0.60738739234E+03  0.60738739235E+03  0.25500000920E-02 0.  1.
    10030    2    1    2    0    0  0.00000000000E+00  0.00000000000E+00  0.15390830009E+04  0.27538577856E+04  0.22836278636E+04 0.  0.
        3    1    3    3  502    0  0.27938845352E+03  0.47122880836E+03 -0.43855551866E+03  0.70174457671E+03  0.10100000352E+00 0.  1.
       -3    1    3    3    0  502 -0.27938845352E+03 -0.47122880836E+03  0.19776385195E+04  0.20521132089E+04  0.10100000352E+00 0. -1.
</event>
<event>
 5   0  0.5663790E-05  0.1526951E+04  0.7818609E-02  0.8866726E-01
        1   -1    0    0  501    0  0.00000000000E+00  0.00000000000E+00  0.10021438314E+04  0.10021438314E+04  0.50400001928E-02 0.  1.
       -1   -1    0    0    0  501  0.00000000000E+00  0.00000000000E+00 -0.58164825331E+03  0.58164825333E+03  0.50400001928E-02 0. -1.
    10030    2    1    2    0    0  0.00000000000E+00  0.00000000000E+00  0.42049557809E+03  0.15837920847E+04  0.15269514847E+04 0.  0.
        3    1    3    3  502    0 -0.39783050860E+03 -0.63974831295E+03  0.33874727545E+03  0.82601255699E+03  0.10100000352E+00 0.  1.
       -3    1    3    3    0  502  0.39783050860E+03  0.63974831295E+03  0.81748302645E+02  0.75777952775E+03  0.10100000352E+00 0. -1.
</event>
<event>
 5   0  0.1270613E-04  0.2312291E+04  0.7818609E-02  0.8473090E-01
       -2   -1    0    0    0  501  0.00000000000E+00  0.00000000000E+00  0.73184535205E+03  0.73184535206E+03  0.25500000920E-02 0.  1.
        2   -1    0    0  501    0  0.00000000000E+00  0.00000000000E+00 -0.18264418153E+04  0.18264418153E+04  0.25500000920E-02 0. -1.
    10030    2    1    2    0    0  0.00000000000E+00  0.00000000000E+00 -0.10945964632E+04  0.25582871674E+04  0.23122914637E+04 0.  0.
        2    1    3    3  502    0  0.10238170085E+03 -0.11504639491E+04 -0.60396899299E+03  0.13033909066E+04  0.25500000920E-02 0. -1.
       -2    1    3    3    0  502 -0.10238170085E+03  0.11504639491E+04 -0.49062747026E+03  0.12548962608E+04  0.25500000920E-02 0.  1.
</event>
<event>
 5   0  0.5924654E-05  0.2238554E+04  0.7818609E-02  0.8502550E-01
        1   -1    0    0  501    0  0.00000000000E+00  0.00000000000E+00  0.11327194314E+04  0.11327194314E+04  0.50400001928E-02 0.  1.
       -1   -1    0    0    0  501  0.00000000000E+00  0.00000000000E+00 -0.11059940593E+04  0.11059940593E+04  0.50400001928E-02 0. -1.
    10030    2    1    2    0    0  0.00000000000E+00  0.00000000000E+00  0.26725372152E+02  0.22387134907E+04  0.22385539636E+04 0.  0.
        5    1    3    3  502    0 -0.65962147375E+03  0.39068918713E+03  0.82890859474E+03  0.11290925905E+04  0.46999998093E+01 0.  1.
       -5    1    3    3    0  502  0.65962147375E+03 -0.39068918713E+03 -0.80218322259E+03  0.11096209002E+04  0.46999998093E+01 0. -1.
</event>
<event>
 5   0  0.5632156E-05  0.2380762E+04  0.7818609E-02  0.8446741E-01
       -1   -1    0    0    0  501  0.00000000000E+00  0.00000000000E+00  0.14021656392E+04  0.14021656392E+04  0.50400001928E-02 0.  1.
        1   -1    0    0  501    0  0.00000000000E+00  0.00000000000E+00 -0.10105849378E+04  0.10105849378E+04  0.50400001928E-02 0. -1.
    10030    2    1    2    0    0  0.00000000000E+00  0.00000000000E+00  0.39158070140E+03  0.24127505771E+04  0.23807624622E+04 0.  0.
        4    1    3    3  502    0  0.48666210539E+03  0.10105242749E+04 -0.20832362093E+03  0.11407890510E+04  0.12699999809E+01 0. -1.
       -4    1    3    3    0  502 -0.48666210539E+03 -0.10105242749E+04  0.59990432232E+03  0.12719615261E+04  0.12699999809E+01 0.  1.
</event>
<event>
 5   0  0.1270613E-04  0.2282342E+04  0.7818609E-02  0.8484916E-01
       -2   -1    0    0    0  501  0.00000000000E+00  0.00000000000E+00  0.21878854825E+04  0.21878854825E+04  0.25500000920E-02 0. -1.
        2   -1    0    0  501    0  0.00000000000E+00  0.00000000000E+00 -0.59521906873E+03  0.59521906874E+03  0.25500000920E-02 0.  1.
    10030    2    1    2    0    0  0.00000000000E+00  0.00000000000E+00  0.15926664138E+04  0.27831045512E+04  0.22823419195E+04 0.  0.
        2    1    3    3  502    0 -0.91515152585E+03  0.21793280091E+03  0.86355581768E+01  0.94078243704E+03  0.25500000920E-02 0.  1.
       -2    1    3    3    0  502  0.91515152585E+03 -0.21793280091E+03  0.15840308556E+04  0.18423221142E+04  0.25500000920E-02 0. -1.
</event>
<event>
 5   0  0.5924654E-05  0.2235843E+04  0.7818609E-02  0.8503656E-01
       -1   -1    0    0    0  501  0.00000000000E+00  0.00000000000E+00  0.50085523967E+03  0.50085523969E+03  0.50400001928E-02 0.  1.
        1   -1    0    0  501    0  0.00000000000E+00  0.00000000000E+00 -0.24952300011E+04  0.24952300011E+04  0.50400001928E-02 0. -1.
    10030    2    1    2    0    0  0.00000000000E+00  0.00000000000E+00 -0.19943747614E+04  0.29960852408E+04  0.22358434831E+04 0.  0.
        5    1    3    3  502    0 -0.10488708509E+04  0.32490031505E+03 -0.71598439851E+03  0.13108569813E+04  0.46999998093E+01 0.  1.
       -5    1    3    3    0  502  0.10488708509E+04 -0.32490031505E+03 -0.12783903629E+04  0.16852282595E+04  0.46999998093E+01 0. -1.
</event>
<event>
 5   0  0.5663790E-05  0.1554680E+04  0.7818609E-02  0.8848884E-01
       -1   -1    0    0    0  501  0.00000000000E+00  0.00000000000E+00  0.85312461488E+03  0.85312461489E+03  0.50400001928E-02 0.  1.
        1   -1    0    0  501    0  0.00000000000E+00  0.00000000000E+00 -0.70828766367E+03  0.70828766369E+03  0.50400001928E-02 0. -1.
    10030    2    1    2    0    0  0.00000000000E+00  0.00000000000E+00  0.14483695120E+03  0.15614122786E+04  0.15546802119E+04 0.  0.
        3    1    3    3  502    0 -0.29056461745E+03  0.62480550979E+03  0.43376512970E+03  0.81422473552E+03  0.10100000352E+00 0.  1.
       -3    1    3    3    0  502  0.29056461745E+03 -0.62480550979E+03 -0.28892817850E+03  0.74718754307E+03  0.10100000352E+00 0. -1.
</event>
<event>
 5   0  0.5663790E-05  0.2259131E+04  0.7818609E-02  0.8494212E-01
       -1   -1    0    0    0  501  0.00000000000E+00  0.00000000000E+00  0.13104389965E+04  0.13104389965E+04  0.50400001928E-02 0.  1.
        1   -1    0    0  501    0  0.00000000000E+00  0.00000000000E+00 -0.97365697397E+03  0.97365697398E+03  0.50400001928E-02 0. -1.
    10030    2    1    2    0    0  0.00000000000E+00  0.00000000000E+00  0.33678202254E+03  0.22840959705E+04  0.22591308664E+04 0.  0.
        3    1    3    3  502    0 -0.65956569760E+03  0.25852106507E+03  0.10579191935E+04  0.12732058281E+04  0.10100000352E+00 0.  1.
       -3    1    3    3    0  502  0.65956569760E+03 -0.25852106507E+03 -0.72113717093E+03  0.10108901424E+04  0.10100000352E+00 0. -1.
</event>
<event>
 5   0  0.5843670E-05  0.2261573E+04  0.7818609E-02  0.8493228E-01
        1   -1    0    0  501    0  0.00000000000E+00  0.00000000000E+00  0.16609507162E+04  0.16609507162E+04  0.50400001928E-02 0. -1.
       -1   -1    0    0    0  501  0.00000000000E+00  0.00000000000E+00 -0.76984698846E+03  0.76984698848E+03  0.50400001928E-02 0.  1.
    10030    2    1    2    0    0  0.00000000000E+00  0.00000000000E+00  0.89110372769E+03  0.24307977046E+04  0.22615728216E+04 0.  0.
        2    1    3    3  502    0 -0.53692406513E+03 -0.99389657507E+03  0.49993481055E+03  0.12353350430E+04  0.25500000920E-02 0.  1.
       -2    1    3    3    0  502  0.53692406513E+03  0.99389657507E+03  0.39116891714E+03  0.11954626616E+04  0.25500000920E-02 0. -1.
</event>
<event>
 5   0  0.1234988E-04  0.2323835E+04  0.7818609E-02  0.8468582E-01
       -2   -1    0    0    0  501  0.00000000000E+00  0.00000000000E+00  0.17127886569E+04  0.17127886569E+04  0.25500000920E-02 0.  1.
        2   -1    0    0  501    0  0.00000000000E+00  0.00000000000E+00 -0.78821887230E+03  0.78821887231E+03  0.25500000920E-02 0. -1.
    10030    2    1    2    0    0  0.00000000000E+00  0.00000000000E+00  0.92456978457E+03  0.25010075292E+04  0.23238350575E+04 0.  0.
        5    1    3    3  502    0 -0.26429885005E+03  0.54750964461E+03 -0.60336235829E+03  0.85655643041E+03  0.46999998093E+01 0. -1.
       -5    1    3    3    0  502  0.26429885005E+03 -0.54750964461E+03  0.15279321429E+04  0.16444510988E+04  0.46999998093E+01 0.  1.
</event>
<event>
 5   0  0.5632156E-05  0.2190338E+04  0.7818609E-02  0.8522461E-01
        1   -1    0    0  501    0  0.00000000000E+00  0.00000000000E+00  0.13644230303E+04  0.13644230303E+04  0.50400001928E-02 0. -1.
       -1   -1    0    0    0  501  0.00000000000E+00  0.00000000000E+00 -0.87904908634E+03  0.87904908636E+03  0.50400001928E-02 0.  1.
    10030    2    1    2    0    0  0.00000000000E+00  0.00000000000E+00  0.48537394399E+03  0.22434721167E+04  0.21903377075E+04 0.  0.
        4    1    3    3  502    0 -0.84625606294E+03  0.43547682824E+03  0.79768372511E+03  0.12418092970E+04  0.12699999809E+01 0. -1.
       -4    1    3    3    0  502  0.84625606294E+03 -0.43547682824E+03 -0.31230978112E+03  0.10016628197E+04  0.12699999809E+01 0.  1.
</event>
<event>
 5   0  0.5663790E-05  0.2174331E+04  0.7818609E-02  0.8529188E-01
        1   -1    0    0  501    0  0.00000000000E+00  0.00000000000E+00  0.10936220475E+04  0.10936220475E+04  0.50400001928E-02 0. -1.
       -1   -1    0    0    0  501  0.00000000000E+00  0.00000000000E+00 -0.10807475342E+04  0.10807475342E+04  0.50400001928E-02 0.  1.
    10030    2    1    2    0    0  0.00000000000E+00  0.00000000000E+00  0.12874513240E+02  0.21743695817E+04  0.21743314662E+04 0.  0.
        3    1    3    3  502    0  0.52854175727E+03 -0.89152939298E+03 -0.32181881859E+03  0.10852411759E+04  0.10100000352E+00 0.  1.
       -3    1    3    3    0  502 -0.52854175727E+03  0.89152939298E+03  0.33469333183E+03  0.10891284058E+04  0.10100000352E+00 0. -1.
</event>
<event>
 5   0  0.1270613E-04  0.2160202E+04  0.7818609E-02  0.8535178E-01
        2   -1    0    0  501    0  0.00000000000E+00  0.00000000000E+00  0.13447174250E+04  0.13447174250E+04  0.25500000920E-02 0.  1.
       -2   -1    0    0    0  501  0.00000000000E+00  0.00000000000E+00 -0.86755669601E+03  0.86755669601E+03  0.25500000920E-02 0. -1.
    10030    2    1    2    0    0  0.00000000000E+00  0.00000000000E+00  0.47716072897E+03  0.22122741210E+04  0.21602024037E+04 0.  0.
        2    1    3    3  502    0  0.53605527738E+02  0.32560592773E+03  0.12918293507E+04  0.13333101080E+04  0.25500000920E-02 0.  1.
       -2    1    3    3    0  502 -0.53605527738E+02 -0.32560592773E+03 -0.81466862176E+03  0.87896401295E+03  0.25500000920E-02 0. -1.
</event>
<event>
 5   0  0.4489500E-05  0.2276339E+04  0.7818609E-02  0.8487309E-01
        4   -1    0    0  501    0  0.00000000000E+00  0.00000000000E+00  0.20162280975E+04  0.20162284975E+04  0.12699999809E+01 0. -1.
       -4   -1    0    0    0  501  0.00000000000E+00  0.00000000000E+00 -0.64250049292E+03  0.64250174809E+03  0.12699999809E+01 0.  1.
    10030    2    1    2    0    0  0.00000000000E+00  0.00000000000E+00  0.13737276046E+04  0.26587302456E+04  0.22763389438E+04 0.  0.
        5    1    3    3  502    0  0.43861055165E+03  0.78100764089E+03 -0.13327102364E+03  0.90561327668E+03  0.46999998093E+01 0.  1.
       -5    1    3    3    0  502 -0.43861055165E+03 -0.78100764089E+03  0.15069986282E+04  0.17531169689E+04  0.46999998093E+01 0. -1.
</event>
<event>
 5   0  0.1234988E-04  0.2334033E+04  0.7818609E-02  0.8464622E-01
       -2   -1    0    0    0  501  0.00000000000E+00  0.00000000000E+00  0.88395070374E+03  0.88395070375E+03  0.25500000920E-02 0. -1.
        2   -1    0    0  501    0  0.00000000000E+00  0.00000000000E+00 -0.15407281499E+04  0.15407281499E+04  0.25500000920E-02 0.  1.
    10030    2    1    2    0    0  0.00000000000E+00  0.00000000000E+00 -0.65677744612E+03  0.24246788536E+04  0.23340331894E+04 0.  0.
        5    1    3    3  502    0 -0.82214748170E+03  0.11511161858E+03 -0.11804426909E+04  0.14431369314E+04  0.46999998093E+01 0.  1.
       -5    1    3    3    0  502  0.82214748170E+03 -0.11511161858E+03  0.52366524478E+03  0.98154192217E+03  0.46999998093E+01 0. -1.
</event>
<event>
 5   0  0.5642466E-05  0.2246116E+04  0.7818609E-02  0.8499475E-01
        1   -1    0    0  501    0  0.00000000000E+00  0.00000000000E+00  0.17316476511E+04  0.17316476511E+04  0.50400001928E-02 0. -1.
       -1   -1    0    0    0  501  0.00000000000E+00  0.00000000000E+00 -0.72835783342E+03  0.72835783344E+03  0.50400001928E-02 0.  1.
    10030    2    1    2    0    0  0.00000000000E+00  0.00000000000E+00  0.10032898177E+04  0.24600054845E+04  0.22461158754E+04 0.  0.
        1    1    3    3  502    0 -0.13053324695E+03  0.92817482631E+03 -0.17590264954E+03  0.95367142082E+03  0.50400001928E-02 0.  1.
       -1    1    3    3    0  502  0.13053324695E+03 -0.92817482631E+03  0.11791924672E+04  0.15063340637E+04  0.50400001928E-02 0. -1.
</event>
<event>
 5   0  0.1257524E-04  0.2364077E+04  0.7818609E-02  0.8453076E-01
       -2   -1    0    0    0  501  0.00000000000E+00  0.00000000000E+00  0.64543238913E+03  0.64543238914E+03  0.25500000920E-02 0.  1.
        2   -1    0    0  501    0  0.00000000000E+00  0.00000000000E+00 -0.21647743274E+04  0.21647743274E+04  0.25500000920E-02 0. -1.
    10030    2    1    2    0    0  0.00000000000E+00  0.00000000000E+00 -0.15193419383E+04  0.28102067166E+04  0.23640773812E+04 0.  0.
        3    1    3    3  502    0  0.44576401947E+03  0.93324403176E+03 -0.14400103937E+04  0.17729297584E+04  0.10100000352E+00 0. -1.
       -3    1    3    3    0  502 -0.44576401947E+03 -0.93324403176E+03 -0.79331544586E+02  0.10372769582E+04  0.10100000352E+00 0.  1.
</event>
<event>
 5   0  0.1234988E-04  0.2276949E+04  0.7818609E-02  0.8487066E-01
        2   -1    0    0  501    0  0.00000000000E+00  0.00000000000E+00  0.33676767129E+04  0.33676767129E+04  0.25500000920E-02 0. -1.
       -2   -1    0    0    0  501  0.00000000000E+00  0.00000000000E+00 -0.38487196342E+03  0.38487196343E+03  0.25500000920E-02 0.  1.
    10030    2    1    2    0    0  0.00000000000E+00  0.00000000000E+00  0.29828047494E+04  0.37525486763E+04  0.22769491419E+04 0.  0.
        5    1    3    3  502    0 -0.14796805090E+03  0.45116032609E+03  0.31966961774E+04  0.32317686681E+04  0.46999998093E+01 0. -1.
       -5    1    3    3    0  502  0.14796805090E+03 -0.45116032609E+03 -0.21389142796E+03  0.52078000814E+03  0.46999998093E+01 0.  1.
</event>
<event>
 5   0  0.5642466E-05  0.2378392E+04  0.7818609E-02  0.8447638E-01
       -1   -1    0    0    0  501  0.00000000000E+00  0.00000000000E+00  0.12692424866E+04  0.12692424866E+04  0.50400001928E-02 0. -1.
        1   -1    0    0  501    0  0.00000000000E+00  0.00000000000E+00 -0.11141978230E+04  0.11141978230E+04  0.50400001928E-02 0.  1.
    10030    2    1    2    0    0  0.00000000000E+00  0.00000000000E+00  0.15504466355E+03  0.23834403096E+04  0.23783920748E+04 0.  0.
        1    1    3    3  502    0 -0.32279395117E+03  0.12288124854E+02  0.12244340821E+04  0.12663276647E+04  0.50400001928E-02 0. -1.
       -1    1    3    3    0  502  0.32279395117E+03 -0.12288124854E+02 -0.10693894185E+04  0.11171126449E+04  0.50400001928E-02 0.  1.
</event>
<event>
 5   0  0.1270613E-04  0.2296147E+04  0.7818609E-02  0.8479442E-01
       -2   -1    0    0    0  501  0.00000000000E+00  0.00000000000E+00  0.13773734806E+04  0.13773734806E+04  0.25500000920E-02 0.  1.
        2   -1    0    0  501    0  0.00000000000E+00  0.00000000000E+00 -0.95694617924E+03  0.95694617925E+03  0.25500000920E-02 0. -1.
    10030    2    1    2    0    0  0.00000000000E+00  0.00000000000E+00  0.42042730136E+03  0.23343196598E+04  0.22961465891E+04 0.  0.
        2    1    3    3  502    0  0.42109683451E+03  0.37246724760E+03  0.12278636954E+04  0.13504457223E+04  0.25500000920E-02 0.  1.
       -2    1    3    3    0  502 -0.42109683451E+03 -0.37246724760E+03 -0.80743639400E+03  0.98387393752E+03  0.25500000920E-02 0. -1.
</event>
<event>
 5   0  0.1234988E-04  0.2291039E+04  0.7818609E-02  0.8481463E-01
        2   -1    0    0  501    0  0.00000000000E+00  0.00000000000E+00  0.17828052496E+04  0.17828052497E+04  0.25500000920E-02 0. -1.
       -2   -1    0    0    0  501  0.00000000000E+00  0.00000000000E+00 -0.73603949887E+03  0.73603949888E+03  0.25500000920E-02 0.  1.
    10030    2    1    2    0    0  0.00000000000E+00  0.00000000000E+00  0.10467657508E+04  0.25188447485E+04  0.22910391376E+04 0.  0.
        5    1    3    3  502    0  0.91945597875E+03 -0.21936979345E+03 -0.18800280476E+03  0.96378916145E+03  0.46999998093E+01 0.  1.
       -5    1    3    3    0  502 -0.91945597875E+03  0.21936979345E+03  0.12347685555E+04  0.15550555871E+04  0.46999998093E+01 0. -1.
</event>
<event>
 5   0  0.5843670E-05  0.2297953E+04  0.7818609E-02  0.8478729E-01
        1   -1    0    0  501    0  0.00000000000E+00  0.00000000000E+00  0.13046077412E+04  0.13046077412E+04  0.50400001928E-02 0.  1.
       -1   -1    0    0    0  501  0.00000000000E+00  0.00000000000E+00 -0.10119111294E+04  0.10119111294E+04  0.50400001928E-02 0. -1.
    10030    2    1    2    0    0  0.00000000000E+00  0.00000000000E+00  0.29269661184E+03  0.23165188707E+04  0.22979530830E+04 0.  0.
        2    1    3    3  502    0  0.37741535276E+03  0.10602658431E+04 -0.86910621489E+02  0.11287867215E+04  0.25500000920E-02 0. -1.
       -2    1    3    3    0  502 -0.37741535276E+03 -0.10602658431E+04  0.37960723332E+03  0.11877321491E+04  0.25500000920E-02 0.  1.
</event>
<event>
 5   0  0.1234988E-04  0.2374999E+04  0.7818609E-02  0.8448923E-01
       -2   -1    0    0    0  501  0.00000000000E+00  0.00000000000E+00  0.13225264385E+04  0.13225264385E+04  0.25500000920E-02 0.  1.
        2   -1    0    0  501    0  0.00000000000E+00  0.00000000000E+00 -0.10662581173E+04  0.10662581173E+04  0.25500000920E-02 0. -1.
    10030    2    1    2    0    0  0.00000000000E+00  0.00000000000E+00  0.25626832122E+03  0.23887845558E+04  0.23749985688E+04 0.  0.
        5    1    3    3  502    0 -0.98416833221E+03 -0.36295662843E+03  0.68796870397E+03  0.12544512138E+04  0.46999998093E+01 0.  1.
       -5    1    3    3    0  502  0.98416833221E+03  0.36295662843E+03 -0.43170038275E+03  0.11343333420E+04  0.46999998093E+01 0. -1.
</event>
<event>
 5   0  0.5632156E-05  0.1914073E+04  0.7818609E-02  0.8647883E-01
        1   -1    0    0  501    0  0.00000000000E+00  0.00000000000E+00  0.11999829561E+04  0.11999829561E+04  0.50400001928E-02 0.  1.
       -1   -1    0    0    0  501  0.00000000000E+00  0.00000000000E+00 -0.76327628668E+03  0.76327628669E+03  0.50400001928E-02 0. -1.
    10030    2    1    2    0    0  0.00000000000E+00  0.00000000000E+00  0.43670666945E+03  0.19632592428E+04  0.19140726578E+04 0.  0.
        4    1    3    3  502    0  0.67176814068E+01  0.46009791553E+03 -0.64236608048E+03  0.79017150883E+03  0.12699999809E+01 0. -1.
       -4    1    3    3    0  502 -0.67176814068E+01 -0.46009791553E+03  0.10790727499E+04  0.11730877340E+04  0.12699999809E+01 0.  1.
</event>
<event>
 5   0  0.5924654E-05  0.2377714E+04  0.7818609E-02  0.8447895E-01
       -1   -1    0    0    0  501  0.00000000000E+00  0.00000000000E+00  0.13139918870E+04  0.13139918870E+04  0.50400001928E-02 0.  1.
        1   -1    0    0  501    0  0.00000000000E+00  0.00000000000E+00 -0.10756386049E+04  0.10756386049E+04  0.50400001928E-02 0. -1.
    10030    2    1    2    0    0  0.00000000000E+00  0.00000000000E+00  0.23835328211E+03  0.23896304919E+04  0.23777135236E+04 0.  0.
        5    1    3    3  502    0  0.45338593293E+03 -0.77910889899E+03 -0.65981383486E+03  0.11171149750E+04  0.46999998093E+01 0. -1.
       -5    1    3    3    0  502 -0.45338593293E+03  0.77910889899E+03  0.89816711697E+03  0.12725155169E+04  0.46999998093E+01 0.  1.
</event>
<event>
 5   0  0.5924654E-05  0.2316322E+04  0.7818609E-02  0.8471513E-01
        1   -1    0    0  501    0  0.00000000000E+00  0.00000000000E+00  0.92340500814E+03  0.92340500815E+03  0.50400001928E-02 0. -1.
       -1   -1    0    0    0  501  0.00000000000E+00  0.00000000000E+00 -0.14525992787E+04  0.14525992787E+04  0.50400001928E-02 0.  1.
    10030    2    1    2    0    0  0.00000000000E+00  0.00000000000E+00 -0.52919427056E+03  0.23760042869E+04  0.23163224722E+04 0.  0.
        5    1    3    3  502    0  0.69150152498E+03  0.32081472846E+03  0.62977350346E+03  0.98880392632E+03  0.46999998093E+01 0. -1.
       -5    1    3    3    0  502 -0.69150152498E+03 -0.32081472846E+03 -0.11589677740E+04  0.13872003605E+04  0.46999998093E+01 0.  1.
</event>
<event>
 5   0  0.5924654E-05  0.2281341E+04  0.7818609E-02  0.8485315E-01
        1   -1    0    0  501    0  0.00000000000E+00  0.00000000000E+00  0.14337046011E+04  0.14337046011E+04  0.50400001928E-02 0.  1.
       -1   -1    0    0    0  501  0.00000000000E+00  0.00000000000E+00 -0.90752913290E+03  0.90752913291E+03  0.50400001928E-02 0. -1.
    10030    2    1    2    0    0  0.00000000000E+00  0.00000000000E+00  0.52617546817E+03  0.23412337340E+04  0.22813405651E+04 0.  0.
        5    1    3    3  502    0  0.19116291022E+03  0.10837470235E+04  0.57105909759E+03  0.12398312192E+04  0.46999998093E+01 0.  1.
       -5    1    3    3    0  502 -0.19116291022E+03 -0.10837470235E+04 -0.44883629421E+02  0.11014025147E+04  0.46999998093E+01 0. -1.
</event>
<event>
 5   0  0.1257524E-04  0.2331648E+04  0.7818609E-02  0.8465546E-01
       -2   -1    0    0    0  501  0.00000000000E+00  0.00000000000E+00  0.66646427133E+03  0.66646427134E+03  0.25500000920E-02 0. -1.
        2   -1    0    0  501    0  0.00000000000E+00  0.00000000000E+00 -0.20393368133E+04  0.20393368133E+04  0.25500000920E-02 0.  1.
    10030    2    1    2    0    0  0.00000000000E+00  0.00000000000E+00 -0.13728725420E+04  0.27058010846E+04  0.23316475920E+04 0.  0.
        3    1    3    3  502    0  0.66273258807E+03  0.17809054585E+03 -0.17801202670E+04  0.19078152166E+04  0.10100000352E+00 0.  1.
       -3    1    3    3    0  502 -0.66273258807E+03 -0.17809054585E+03  0.40724772499E+03  0.79798586800E+03  0.10100000352E+00 0. -1.
</event>
<event>
 5   0  0.5924654E-05  0.1613967E+04  0.7818609E-02  0.8812013E-01
        1   -1    0    0  501    0  0.00000000000E+00  0.00000000000E+00  0.25225628638E+04  0.25225628638E+04  0.50400001928E-02 0.  1.
       -1   -1    0    0    0  501  0.00000000000E+00  0.00000000000E+00 -0.25815900969E+03  0.25815900974E+03  0.50400001928E-02 0. -1.
    10030    2    1    2    0    0  0.00000000000E+00  0.00000000000E+00  0.22644038541E+04  0.27807218735E+04  0.16139669524E+04 0.  0.
        5    1    3    3  502    0 -0.19602074857E+03 -0.53832537557E+03  0.21113581891E+04  0.21877097240E+04  0.46999998093E+01 0.  1.
       -5    1    3    3    0  502  0.19602074857E+03  0.53832537557E+03  0.15304566494E+03  0.59301214946E+03  0.46999998093E+01 0. -1.
</event>
<event>
 5   0  0.5924654E-05  0.2236746E+04  0.7818609E-02  0.8503287E-01
       -1   -1    0    0    0  501  0.00000000000E+00  0.00000000000E+00  0.48332996201E+03  0.48332996203E+03  0.50400001928E-02 0. -1.
        1   -1    0    0  501    0  0.00000000000E+00  0.00000000000E+00 -0.25877935361E+04  0.25877935361E+04  0.50400001928E-02 0.  1.
    10030    2    1    2    0    0  0.00000000000E+00  0.00000000000E+00 -0.21044635741E+04  0.30711234982E+04  0.22367459861E+04 0.  0.
        5    1    3    3  502    0  0.92028385276E+03 -0.21693196734E+03 -0.18723286862E+04  0.20975267930E+04  0.46999998093E+01 0.  1.
       -5    1    3    3    0  502 -0.92028385276E+03  0.21693196734E+03 -0.23213488789E+03  0.97359670515E+03  0.46999998093E+01 0. -1.
</event>
<event>
 5   0  0.1257524E-04  0.2194510E+04  0.7818609E-02  0.8520717E-01
        2   -1    0    0  501    0  0.00000000000E+00  0.00000000000E+00  0.30979891975E+04  0.30979891975E+04  0.25500000920E-02 0.  1.
       -2   -1    0    0    0  501  0.00000000000E+00  0.00000000000E+00 -0.38862907347E+03  0.38862907348E+03  0.25500000920E-02 0. -1.
    10030    2    1    2    0    0  0.00000000000E+00  0.00000000000E+00  0.27093601241E+04  0.34866182710E+04  0.21945101243E+04 0.  0.
        3    1    3    3  502    0 -0.46500839772E+03  0.37451513104E+03 -0.10793510655E+03  0.60674903440E+03  0.10100000352E+00 0. -1.
       -3    1    3    3    0  502  0.46500839772E+03 -0.37451513104E+03  0.28172952306E+04  0.28798692366E+04  0.10100000352E+00 0.  1.
</event>
<event>
 5   0  0.1237296E-04  0.2214485E+04  0.7818609E-02  0.8512423E-01
       -2   -1    0    0    0  501  0.00000000000E+00  0.00000000000E+00  0.94294002337E+03  0.94294002338E+03  0.25500000920E-02 0.  1.
        2   -1    0    0  501    0  0.00000000000E+00  0.00000000000E+00 -0.13001742802E+04  0.13001742802E+04  0.25500000920E-02 0. -1.
    10030    2    1    2    0    0  0.00000000000E+00  0.00000000000E+00 -0.35723425680E+03  0.22431143036E+04  0.22144853724E+04 0.  0.
        1    1    3    3  502    0 -0.10204584184E+03  0.33655711014E+03 -0.12420962062E+04  0.12909248730E+04  0.50400001928E-02 0. -1.
       -1    1    3    3    0  502  0.10204584184E+03 -0.33655711014E+03  0.88486194938E+03  0.95218943058E+03  0.50400001928E-02 0.  1.
</event>
<event>
 5   0  0.1281432E-04  0.2040917E+04  0.7818609E-02  0.8587726E-01
       -2   -1    0    0    0  501  0.00000000000E+00  0.00000000000E+00  0.57977820600E+03  0.57977820601E+03  0.25500000920E-02 0. -1.
        2   -1    0    0  501    0  0.00000000000E+00  0.00000000000E+00 -0.17960931642E+04  0.17960931642E+04  0.25500000920E-02 0.  1.
    10030    2    1    2    0    0  0.00000000000E+00  0.00000000000E+00 -0.12163149582E+04  0.23758713702E+04  0.20409171199E+04 0.  0.
        4    1    3    3  502    0  0.50779048145E+03 -0.67282105154E+03 -0.12776979594E+04  0.15307034424E+04  0.12699999809E+01 0.  1.
       -4    1    3    3    0  502 -0.50779048145E+03  0.67282105154E+03  0.61383001136E+02  0.84516792779E+03  0.12699999809E+01 0. -1.
</event>
<event>
 5   0  0.5843670E-05  0.2022229E+04  0.7818609E-02  0.8596298E-01
       -1   -1    0    0    0  501  0.00000000000E+00  0.00000000000E+00  0.85893677049E+03  0.85893677051E+03  0.50400001928E-02 0. -1.
        1   -1    0    0  501    0  0.00000000000E+00  0.00000000000E+00 -0.11902535971E+04  0.11902535971E+04  0.50400001928E-02 0.  1.
    10030    2    1    2    0    0  0.00000000000E+00  0.00000000000E+00 -0.33131682661E+03  0.20491903676E+04  0.20222290481E+04 0.  0.
        2    1    3    3  502    0 -0.10906167901E+03 -0.28301457241E+03  0.81175362188E+03  0.86656542781E+03  0.25500000920E-02 0. -1.
       -2    1    3    3    0  502  0.10906167901E+03  0.28301457241E+03 -0.11430704485E+04  0.11826249398E+04  0.25500000920E-02 0.  1.
</event>
<event>
 5   0  0.1234988E-04  0.2312253E+04  0.7818609E-02  0.8473105E-01
        2   -1    0    0  501    0  0.00000000000E+00  0.00000000000E+00  0.16935939505E+04  0.16935939505E+04  0.25500000920E-02 0. -1.
       -2   -1    0    0    0  501  0.00000000000E+00  0.00000000000E+00 -0.78922616390E+03  0.78922616390E+03  0.25500000920E-02 0.  1.
    10030    2    1    2    0    0  0.00000000000E+00  0.00000000000E+00  0.90436778663E+03  0.24828201144E+04  0.23122531494E+04 0.  0.
        5    1    3    3  502    0  0.45409099443E+03 -0.30107444024E+03 -0.64272219465E+03  0.84259026774E+03  0.46999998093E+01 0.  1.
       -5    1    3    3    0  502 -0.45409099443E+03  0.30107444024E+03  0.15470899813E+04  0.16402298467E+04  0.46999998093E+01 0. -1.
</event>
<event>
 5   0  0.5632156E-05  0.1942957E+04  0.7818609E-02  0.8633764E-01
        1   -1    0    0  501    0  0.00000000000E+00  0.00000000000E+00  0.10311817689E+04  0.10311817689E+04  0.50400001928E-02 0.  1.
       -1   -1    0    0    0  501  0.00000000000E+00  0.00000000000E+00 -0.91523200883E+03  0.91523200884E+03  0.50400001928E-02 0. -1.
    10030    2    1    2    0    0  0.00000000000E+00  0.00000000000E+00  0.11594976004E+03  0.19464137777E+04  0.19429570884E+04 0.  0.
        4    1    3    3  502    0 -0.48677594015E+03 -0.79754075643E+03  0.32443093347E+03  0.98907993487E+03  0.12699999809E+01 0. -1.
       -4    1    3    3    0  502  0.48677594015E+03  0.79754075643E+03 -0.20848117343E+03  0.95733384284E+03  0.12699999809E+01 0.  1.
</event>
<event>
 5   0  0.1237296E-04  0.2219975E+04  0.7818609E-02  0.8510160E-01
       -2   -1    0    0    0  501  0.00000000000E+00  0.00000000000E+00  0.67085665625E+03  0.67085665625E+03  0.25500000920E-02 0.  1.
        2   -1    0    0  501    0  0.00000000000E+00  0.00000000000E+00 -0.18365663068E+04  0.18365663068E+04  0.25500000920E-02 0. -1.
    10030    2    1    2    0    0  0.00000000000E+00  0.00000000000E+00 -0.11657096506E+04  0.25074229631E+04  0.22199754337E+04 0.  0.
        1    1    3    3  502    0  0.31526891514E+03  0.18809025355E+03 -0.17660112847E+04  0.18037650318E+04  0.50400001928E-02 0. -1.
       -1    1    3    3    0  502 -0.31526891514E+03 -0.18809025355E+03  0.60030163409E+03  0.70365793128E+03  0.50400001928E-02 0.  1.
</event>
<event>
 5   0  0.1234988E-04  0.1705877E+04  0.7818609E-02  0.8758019E-01
       -2   -1    0    0    0  501  0.00000000000E+00  0.00000000000E+00  0.59088938926E+03  0.59088938927E+03  0.25500000920E-02 0.  1.
        2   -1    0    0  501    0  0.00000000000E+00  0.00000000000E+00 -0.12312024909E+04  0.12312024909E+04  0.25500000920E-02 0. -1.
    10030    2    1    2    0    0  0.00000000000E+00  0.00000000000E+00 -0.64031310164E+03  0.18220918802E+04  0.17058774726E+04 0.  0.
        5    1    3    3  502    0  0.50234464523E+01  0.35829127458E+03 -0.11468918661E+04  0.12015743485E+04  0.46999998093E+01 0. -1.
       -5    1    3    3    0  502 -0.50234464523E+01 -0.35829127458E+03  0.50657876449E+03  0.62051753164E+03  0.46999998093E+01 0.  1.
</event>
<event>
 5   0  0.1270613E-04  0.2233058E+04  0.7818609E-02  0.8504793E-01
       -2   -1    0    0    0  501  0.00000000000E+00  0.00000000000E+00  0.66367729405E+03  0.66367729405E+03  0.25500000920E-02 0. -1.
        2   -1    0    0  501    0  0.00000000000E+00  0.00000000000E+00 -0.18783781809E+04  0.18783781809E+04  0.25500000920E-02 0.  1.
    10030    2    1    2    0    0  0.00000000000E+00  0.00000000000E+00 -0.12147008869E+04  0.25420554750E+04  0.22330579467E+04 0.  0.
        2    1    3    3  502    0 -0.36933111546E+03  0.53924098203E+02 -0.18052552902E+04  0.18434369921E+04  0.25500000920E-02 0.  1.
       -2    1    3    3    0  502  0.36933111546E+03 -0.53924098203E+02  0.59055440334E+03  0.69861848281E+03  0.25500000920E-02 0. -1.
</event>
<event>
 5   0  0.5642466E-05  0.2303494E+04  0.7818609E-02  0.8476545E-01
       -1   -1    0    0    0  501  0.00000000000E+00  0.00000000000E+00  0.82095659080E+03  0.82095659081E+03  0.50400001928E-02 0.  1.
        1   -1    0    0  501    0  0.00000000000E+00  0.00000000000E+00 -0.16158244231E+04  0.16158244231E+04  0.50400001928E-02 0. -1.
    10030    2    1    2    0    0  0.00000000000E+00  0.00000000000E+00 -0.79486783227E+03  0.24367810139E+04  0.23034944842E+04 0.  0.
        1    1    3    3  502    0  0.54361732064E+03 -0.97574994252E+03 -0.10026302513E+03  0.11214545982E+04  0.50400001928E-02 0. -1.
       -1    1    3    3    0  502 -0.54361732064E+03  0.97574994252E+03 -0.69460480714E+03  0.13153264157E+04  0.50400001928E-02 0.  1.
</event>
<event>
 5   0  0.5632156E-05  0.2282270E+04  0.7818609E-02  0.8484945E-01
        1   -1    0    0  501    0  0.00000000000E+00  0.00000000000E+00  0.10159203060E+04  0.10159203060E+04  0.50400001928E-02 0.  1.
       -1   -1    0    0    0  501  0.00000000000E+00  0.00000000000E+00 -0.12817823008E+04  0.12817823008E+04  0.50400001928E-02 0. -1.
    10030    2    1    2    0    0  0.00000000000E+00  0.00000000000E+00 -0.26586199475E+03  0.22977026068E+04  0.22822696311E+04 0.  0.
        4    1    3    3  502    0  0.82938363184E+03 -0.20499531716E+03  0.62868089517E+03  0.10607269063E+04  0.12699999809E+01 0. -1.
       -4    1    3    3    0  502 -0.82938363184E+03  0.20499531716E+03 -0.89454288993E+03  0.12369757005E+04  0.12699999809E+01 0.  1.
</event>
<event>
 5   0  0.1270613E-04  0.2391990E+04  0.7818609E-02  0.8442509E-01
        2   -1    0    0  501    0  0.00000000000E+00  0.00000000000E+00  0.19006473949E+04  0.19006473949E+04  0.25500000920E-02 0.  1.
       -2   -1    0    0    0  501  0.00000000000E+00  0.00000000000E+00 -0.75258764417E+03  0.75258764417E+03  0.25500000920E-02 0. -1.
    10030    2    1    2    0    0  0.00000000000E+00  0.00000000000E+00  0.11480597508E+04  0.26532350391E+04  0.23919897536E+04 0.  0.
        2    1    3    3  502    0  0.94227448143E+03  0.27676923082E+03 -0.18310405671E+03  0.99900425478E+03  0.25500000920E-02 0. -1.
       -2    1    3    3    0  502 -0.94227448143E+03 -0.27676923082E+03  0.13311638075E+04  0.16542307843E+04  0.25500000920E-02 0.  1.
</event>
<event>
 5   0  0.1234988E-04  0.2273519E+04  0.7818609E-02  0.8488436E-01
        2   -1    0    0  501    0  0.00000000000E+00  0.00000000000E+00  0.10359823419E+04  0.10359823419E+04  0.25500000920E-02 0.  1.
       -2   -1    0    0    0  501  0.00000000000E+00  0.00000000000E+00 -0.12473404267E+04  0.12473404267E+04  0.25500000920E-02 0. -1.
    10030    2    1    2    0    0  0.00000000000E+00  0.00000000000E+00 -0.21135808487E+03  0.22833227686E+04  0.22735194360E+04 0.  0.
        5    1    3    3  502    0 -0.68895526775E+03  0.89139046980E+03 -0.25787202740E+03  0.11557492821E+04  0.46999998093E+01 0. -1.
       -5    1    3    3    0  502  0.68895526775E+03 -0.89139046980E+03  0.46513942529E+02  0.11275734865E+04  0.46999998093E+01 0.  1.
</event>
<event>
 5   0  0.5632156E-05  0.2310900E+04  0.7818609E-02  0.8473636E-01
       -1   -1    0    0    0  501  0.00000000000E+00  0.00000000000E+00  0.78279878337E+03  0.78279878339E+03  0.50400001928E-02 0. -1.
        1   -1    0    0  501    0  0.00000000000E+00  0.00000000000E+00 -0.17055024859E+04  0.17055024860E+04  0.50400001928E-02 0.  1.
    10030    2    1    2    0    0  0.00000000000E+00  0.00000000000E+00 -0.92270370257E+03  0.24883012693E+04  0.23109004921E+04 0.  0.
        4    1    3    3  502    0  0.29780028677E+03 -0.32698510913E+03  0.68804801182E+03  0.81793395324E+03  0.12699999809E+01 0. -1.
       -4    1    3    3    0  502 -0.29780028677E+03  0.32698510913E+03 -0.16107517144E+04  0.16703673161E+04  0.12699999809E+01 0.  1.
</event>
<event>
 5   0  0.5843670E-05  0.2007188E+04  0.7818609E-02  0.8603267E-01
        1   -1    0    0  501    0  0.00000000000E+00  0.00000000000E+00  0.68344360890E+03  0.68344360892E+03  0.50400001928E-02 0.  1.
       -1   -1    0    0    0  501  0.00000000000E+00  0.00000000000E+00 -0.14737147883E+04  0.14737147883E+04  0.50400001928E-02 0. -1.
    10030    2    1    2    0    0  0.00000000000E+00  0.00000000000E+00 -0.79027117936E+03  0.21571583972E+04  0.20071880364E+04 0.  0.
        2    1    3    3  502    0 -0.77496633321E+02  0.98965237285E+03 -0.55375519704E+03  0.11366892124E+04  0.25500000920E-02 0.  1.
       -2    1    3    3    0  502  0.77496633321E+02 -0.98965237285E+03 -0.23651598232E+03  0.10204691848E+04  0.25500000920E-02 0. -1.
</event>
<event>
 5   0  0.1281432E-04  0.2292795E+04  0.7818609E-02  0.8480767E-01
        2   -1    0    0  501    0  0.00000000000E+00  0.00000000000E+00  0.10775897645E+04  0.10775897645E+04  0.25500000920E-02 0.  1.
       -2   -1    0    0    0  501  0.00000000000E+00  0.00000000000E+00 -0.12195985619E+04  0.12195985619E+04  0.25500000920E-02 0. -1.
    10030    2    1    2    0    0  0.00000000000E+00  0.00000000000E+00 -0.14200879738E+03  0.22971883264E+04  0.22927947375E+04 0.  0.
        4    1    3    3  502    0  0.17202216280E+02  0.16457507182E+03  0.10655610521E+04  0.10783333618E+04  0.12699999809E+01 0.  1.
       -4    1    3    3    0  502 -0.17202216280E+02 -0.16457507182E+03 -0.12075698495E+04  0.12188549646E+04  0.12699999809E+01 0. -1.
</event>
<event>
 5   0  0.5924654E-05  0.1521920E+04  0.7818609E-02  0.8870006E-01
       -1   -1    0    0    0  501  0.00000000000E+00  0.00000000000E+00  0.60956399905E+03  0.60956399907E+03  0.50400001928E-02 0. -1.
        1   -1    0    0  501    0  0.00000000000E+00  0.00000000000E+00 -0.94995761348E+03  0.94995761350E+03  0.50400001928E-02 0.  1.
    10030    2    1    2    0    0  0.00000000000E+00  0.00000000000E+00 -0.34039361443E+03  0.15595216126E+04  0.15219197900E+04 0.  0.
        5    1    3    3  502    0 -0.44353948347E+02 -0.17706415415E+03 -0.92717631832E+03  0.94498518648E+03  0.46999998093E+01 0.  1.
       -5    1    3    3    0  502  0.44353948347E+02  0.17706415415E+03  0.58678270388E+03  0.61453642609E+03  0.46999998093E+01 0. -1.
</event>
<event>
 5   0  0.1281432E-04  0.2436687E+04  0.7818609E-02  0.8425895E-01
        2   -1    0    0  501    0  0.00000000000E+00  0.00000000000E+00  0.19294462119E+04  0.19294462119E+04  0.25500000920E-02 0.  1.
       -2   -1    0    0    0  501  0.00000000000E+00  0.00000000000E+00 -0.76931933463E+03  0.76931933463E+03  0.25500000920E-02 0. -1.
    10030    2    1    2    0    0  0.00000000000E+00  0.00000000000E+00  0.11601268773E+04  0.26987655465E+04  0.24366865009E+04 0.  0.
        4    1    3    3  502    0  0.15413078159E+03 -0.58043545214E+03  0.17541229748E+04  0.18540794577E+04  0.12699999809E+01 0.  1.
       -4    1    3    3    0  502 -0.15413078159E+03  0.58043545214E+03 -0.59399609750E+03  0.84468608884E+03  0.12699999809E+01 0. -1.
</event>
<event>
 5   0  0.1281432E-04  0.2257319E+04  0.7818609E-02  0.8494942E-01
        2   -1    0    0  501    0  0.00000000000E+00  0.00000000000E+00  0.11659571288E+04  0.11659571288E+04  0.25500000920E-02 0.  1.
       -2   -1    0    0    0  501  0.00000000000E+00  0.00000000000E+00 -0.10925547467E+04  0.10925547468E+04  0.25500000920E-02 0. -1.
    10030    2    1    2    0    0  0.00000000000E+00  0.00000000000E+00  0.73402382083E+02  0.22585118756E+04  0.22573187596E+04 0.  0.
        4    1    3    3  502    0 -0.10698341711E+04 -0.23151680767E+03 -0.23862637348E+03  0.11203077010E+04  0.12699999809E+01 0. -1.
       -4    1    3    3    0  502  0.10698341711E+04  0.23151680767E+03  0.31202875556E+03  0.11382041746E+04  0.12699999809E+01 0.  1.
</event>
<event>
 5   0  0.1257524E-04  0.2323282E+04  0.7818609E-02  0.8468798E-01
       -2   -1    0    0    0  501  0.00000000000E+00  0.00000000000E+00  0.15628738194E+04  0.15628738194E+04  0.25500000920E-02 0.  1.
        2   -1    0    0  501    0  0.00000000000E+00  0.00000000000E+00 -0.86341576740E+03  0.86341576740E+03  0.25500000920E-02 0. -1.
    10030    2    1    2    0    0  0.00000000000E+00  0.00000000000E+00  0.69945805198E+03  0.24262895868E+04  0.23232820734E+04 0.  0.
        3    1    3    3  502    0  0.26146659232E+03 -0.10954704280E+04  0.64693357695E+03  0.12988238143E+04  0.10100000352E+00 0.  1.
       -3    1    3    3    0  502 -0.26146659232E+03  0.10954704280E+04  0.52524475033E+02  0.11274657725E+04  0.10100000352E+00 0. -1.
</event>
<event>
 5   0  0.5843670E-05  0.2651532E+04  0.7818609E-02  0.8350905E-01
       -1   -1    0    0    0  501  0.00000000000E+00  0.00000000000E+00  0.10959013537E+04  0.10959013537E+04  0.50400001928E-02 0.  1.
        1   -1    0    0  501    0  0.00000000000E+00  0.00000000000E+00 -0.16038440688E+04  0.16038440688E+04  0.50400001928E-02 0. -1.
    10030    2    1    2    0    0  0.00000000000E+00  0.00000000000E+00 -0.50794271512E+03  0.26997454225E+04  0.26515315469E+04 0.  0.
        2    1    3    3  502    0 -0.82001827411E+03  0.42003471789E+03  0.71667082043E+03  0.11672515577E+04  0.25500000920E-02 0.  1.
       -2    1    3    3    0  502  0.82001827411E+03 -0.42003471789E+03 -0.12246135355E+04  0.15324938648E+04  0.25500000920E-02 0. -1.
</event>
<event>
 5   0  0.5632156E-05  0.2327766E+04  0.7818609E-02  0.8467053E-01
        1   -1    0    0  501    0  0.00000000000E+00  0.00000000000E+00  0.22640750398E+04  0.22640750398E+04  0.50400001928E-02 0. -1.
       -1   -1    0    0    0  501  0.00000000000E+00  0.00000000000E+00 -0.59831228452E+03  0.59831228454E+03  0.50400001928E-02 0.  1.
    10030    2    1    2    0    0  0.00000000000E+00  0.00000000000E+00  0.16657627552E+04  0.28623873243E+04  0.23277662335E+04 0.  0.
        4    1    3    3  502    0 -0.82589434268E+03 -0.80847324216E+03  0.10018967695E+04  0.15295519599E+04  0.12699999809E+01 0.  1.
       -4    1    3    3    0  502  0.82589434268E+03  0.80847324216E+03  0.66386598577E+03  0.13328353644E+04  0.12699999809E+01 0. -1.
</event>
<event>
 5   0  0.5924654E-05  0.2285866E+04  0.7818609E-02  0.8483515E-01
        1   -1    0    0  501    0  0.00000000000E+00  0.00000000000E+00  0.23136364650E+04  0.23136364650E+04  0.50400001928E-02 0.  1.
       -1   -1    0    0    0  501  0.00000000000E+00  0.00000000000E+00 -0.56460709986E+03  0.56460709988E+03  0.50400001928E-02 0. -1.
    10030    2    1    2    0    0  0.00000000000E+00  0.00000000000E+00  0.17490293651E+04  0.28782435649E+04  0.22858657657E+04 0.  0.
        5    1    3    3  502    0  0.45743546122E+03  0.18378158027E+02  0.21931310705E+04  0.22404086547E+04  0.46999998093E+01 0.  1.
       -5    1    3    3    0  502 -0.45743546122E+03 -0.18378158027E+02 -0.44410170537E+03  0.63783491013E+03  0.46999998093E+01 0. -1.
</event>
<event>
 5   0  0.1237296E-04  0.2289180E+04  0.7818609E-02  0.8482199E-01
        2   -1    0    0  501    0  0.00000000000E+00  0.00000000000E+00  0.14143710310E+04  0.14143710310E+04  0.25500000920E-02 0.  1.
       -2   -1    0    0    0  501  0.00000000000E+00  0.00000000000E+00 -0.92626785105E+03  0.92626785105E+03  0.25500000920E-02 0. -1.
    10030    2    1    2    0    0  0.00000000000E+00  0.00000000000E+00  0.48810317997E+03  0.23406388821E+04  0.22891801288E+04 0.  0.
        1    1    3    3  502    0  0.18967996508E+03 -0.90090324137E+02 -0.90640403031E+03  0.93041013636E+03  0.50400001928E-02 0. -1.
       -1    1    3    3    0  502 -0.18967996508E+03  0.90090324137E+02  0.13945072103E+04  0.14102287457E+04  0.50400001928E-02 0.  1.
</event>
<event>
 5   0  0.1234988E-04  0.2282936E+04  0.7818609E-02  0.8484680E-01
        2   -1    0    0  501    0  0.00000000000E+00  0.00000000000E+00  0.18316510569E+04  0.18316510569E+04  0.25500000920E-02 0. -1.
       -2   -1    0    0    0  501  0.00000000000E+00  0.00000000000E+00 -0.71135226910E+03  0.71135226910E+03  0.25500000920E-02 0.  1.
    10030    2    1    2    0    0  0.00000000000E+00  0.00000000000E+00  0.11202987878E+04  0.25430033260E+04  0.22829359479E+04 0.  0.
        5    1    3    3  502    0 -0.94291479267E+03  0.57127197871E+03  0.88962641194E+03  0.14166500001E+04  0.46999998093E+01 0. -1.
       -5    1    3    3    0  502  0.94291479267E+03 -0.57127197871E+03  0.23067237589E+03  0.11263533260E+04  0.46999998093E+01 0.  1.
</event>
<event>
 5   0  0.1281432E-04  0.2518205E+04  0.7818609E-02  0.8396528E-01
       -2   -1    0    0    0  501  0.00000000000E+00  0.00000000000E+00  0.18588297269E+04  0.18588297269E+04  0.25500000920E-02 0. -1.
        2   -1    0    0  501    0  0.00000000000E+00  0.00000000000E+00 -0.85286954419E+03  0.85286954420E+03  0.25500000920E-02 0.  1.
    10030    2    1    2    0    0  0.00000000000E+00  0.00000000000E+00  0.10059601827E+04  0.27116992711E+04  0.25182051242E+04 0.  0.
        4    1    3    3  502    0  0.43696644809E+03 -0.11459207450E+04  0.19600827854E+03  0.12419721772E+04  0.12699999809E+01 0.  1.
       -4    1    3    3    0  502 -0.43696644809E+03  0.11459207450E+04  0.80995190413E+03  0.14697270939E+04  0.12699999809E+01 0. -1.
</event>
<event>
 5   0  0.5924654E-05  0.2170825E+04  0.7818609E-02  0.8530670E-01
       -1   -1    0    0    0  501  0.00000000000E+00  0.00000000000E+00  0.15193402076E+04  0.15193402076E+04  0.50400001928E-02 0.  1.
        1   -1    0    0  501    0  0.00000000000E+00  0.00000000000E+00 -0.77541606853E+03  0.77541606855E+03  0.50400001928E-02 0. -1.
    10030    2    1    2    0    0  0.00000000000E+00  0.00000000000E+00  0.74392413905E+03  0.22947562761E+04  0.21708254748E+04 0.  0.
        5    1    3    3  502    0  0.20664299933E+03 -0.36762340520E+03 -0.68525953351E+03  0.80464340890E+03  0.46999998093E+01 0. -1.
       -5    1    3    3    0  502 -0.20664299933E+03  0.36762340520E+03  0.14291836726E+04  0.14901128672E+04  0.46999998093E+01 0.  1.
</event>
<event>
 5   0  0.5642466E-05  0.2283847E+04  0.7818609E-02  0.8484317E-01
        1   -1    0    0  501    0  0.00000000000E+00  0.00000000000E+00  0.12272444870E+04  0.12272444870E+04  0.50400001928E-02 0. -1.
       -1   -1    0    0    0  501  0.00000000000E+00  0.00000000000E+00 -0.10625344226E+04  0.10625344226E+04  0.50400001928E-02 0.  1.
    10030    2    1    2    0    0  0.00000000000E+00  0.00000000000E+00  0.16471006438E+03  0.22897789095E+04  0.22838472036E+04 0.  0.
        1    1    3    3  502    0 -0.66118733007E+03 -0.22725052983E+03 -0.82286204297E+03  0.10797747129E+04  0.50400001928E-02 0.  1.
       -1    1    3    3    0  502  0.66118733007E+03  0.22725052983E+03  0.98757210734E+03  0.12100041967E+04  0.50400001928E-02 0. -1.
</event>
<event>
 5   0  0.5843670E-05  0.2286737E+04  0.7818609E-02  0.8483169E-01
       -1   -1    0    0    0  501  0.00000000000E+00  0.00000000000E+00  0.12907942036E+04  0.12907942036E+04  0.50400001928E-02 0.  1.
        1   -1    0    0  501    0  0.00000000000E+00  0.00000000000E+00 -0.10127806225E+04  0.10127806225E+04  0.50400001928E-02 0. -1.
    10030    2    1    2    0    0  0.00000000000E+00  0.00000000000E+00  0.27801358107E+03  0.23035748261E+04  0.22867368515E+04 0.  0.
        2    1    3    3  502    0  0.67894795544E+03  0.65099743351E+03 -0.51579747818E+03  0.10727604687E+04  0.25500000920E-02 0. -1.
       -2    1    3    3    0  502 -0.67894795544E+03 -0.65099743351E+03  0.79381105925E+03  0.12308143574E+04  0.25500000920E-02 0.  1.
</event>
<event>
 5   0  0.5843670E-05  0.2302574E+04  0.7818609E-02  0.8476907E-01
        1   -1    0    0  501    0  0.00000000000E+00  0.00000000000E+00  0.10492154459E+04  0.10492154459E+04  0.50400001928E-02 0. -1.
       -1   -1    0    0    0  501  0.00000000000E+00  0.00000000000E+00 -0.12632887609E+04  0.12632887609E+04  0.50400001928E-02 0.  1.
    10030    2    1    2    0    0  0.00000000000E+00  0.00000000000E+00 -0.21407331497E+03  0.23125042068E+04  0.23025742816E+04 0.  0.
        2    1    3    3  502    0 -0.74483797652E+03  0.19900191506E+02 -0.98847894867E+03  0.12378490461E+04  0.25500000920E-02 0.  1.
       -2    1    3    3    0  502  0.74483797652E+03 -0.19900191506E+02  0.77440563369E+03  0.10746551607E+04  0.25500000920E-02 0. -1.
</event>
<event>
 5   0  0.5663790E-05  0.2261334E+04  0.7818609E-02  0.8493324E-01
        1   -1    0    0  501    0  0.00000000000E+00  0.00000000000E+00  0.12627383599E+04  0.12627383599E+04  0.50400001928E-02 0.  1.
       -1   -1    0    0    0  501  0.00000000000E+00  0.00000000000E+00 -0.10124095259E+04  0.10124095260E+04  0.50400001928E-02 0. -1.
    10030    2    1    2    0    0  0.00000000000E+00  0.00000000000E+00  0.25032883396E+03  0.22751478859E+04  0.22613344241E+04 0.  0.
        3    1    3    3  502    0  0.49365448884E+03 -0.55087643905E+03  0.98551884712E+03  0.12322365900E+04  0.10100000352E+00 0.  1.
       -3    1    3    3    0  502 -0.49365448884E+03  0.55087643905E+03 -0.73519001316E+03  0.10429112959E+04  0.10100000352E+00 0. -1.
</event>
<event>
 5   0  0.1237296E-04  0.2389363E+04  0.7818609E-02  0.8443497E-01
       -2   -1    0    0    0  501  0.00000000000E+00  0.00000000000E+00  0.17361279110E+04  0.17361279110E+04  0.25500000920E-02 0. -1.
        2   -1    0    0  501    0  0.00000000000E+00  0.00000000000E+00 -0.82209620021E+03  0.82209620021E+03  0.25500000920E-02 0.  1.
    10030    2    1    2    0    0  0.00000000000E+00  0.00000000000E+00  0.91403171077E+03  0.25582241112E+04  0.23893632279E+04 0.  0.
        1    1    3    3  502    0 -0.11729310376E+04 -0.14784142013E+03  0.27268652583E+03  0.12132527543E+04  0.50400001928E-02 0.  1.
       -1    1    3    3    0  502  0.11729310376E+04  0.14784142013E+03  0.64134518494E+03  0.13449713569E+04  0.50400001928E-02 0. -1.
</event>
<event>
 5   0  0.5843670E-05  0.2314531E+04  0.7818609E-02  0.8472214E-01
        1   -1    0    0  501    0  0.00000000000E+00  0.00000000000E+00  0.12949630069E+04  0.12949630069E+04  0.50400001928E-02 0. -1.
       -1   -1    0    0    0  501  0.00000000000E+00  0.00000000000E+00 -0.10342101491E+04  0.10342101491E+04  0.50400001928E-02 0.  1.
    10030    2    1    2    0    0  0.00000000000E+00  0.00000000000E+00  0.26075285785E+03  0.23291731560E+04  0.23145313863E+04 0.  0.
        2    1    3    3  502    0 -0.18204603095E+03 -0.32541599184E+02 -0.10192444303E+04  0.10358855737E+04  0.25500000920E-02 0.  1.
       -2    1    3    3    0  502  0.18204603095E+03  0.32541599184E+02  0.12799972881E+04  0.12932875824E+04  0.25500000920E-02 0. -1.
</event>
<event>
 5   0  0.5632156E-05  0.2334994E+04  0.7818609E-02  0.8464250E-01
       -1   -1    0    0    0  501  0.00000000000E+00  0.00000000000E+00  0.67928047127E+03  0.67928047129E+03  0.50400001928E-02 0. -1.
        1   -1    0    0  501    0  0.00000000000E+00  0.00000000000E+00 -0.20066076592E+04  0.20066076593E+04  0.50400001928E-02 0.  1.
    10030    2    1    2    0    0  0.00000000000E+00  0.00000000000E+00 -0.13273271880E+04  0.26858881305E+04  0.23349941297E+04 0.  0.
        4    1    3    3  502    0 -0.48002771710E+03  0.71840220955E+03 -0.15668460946E+04  0.17892838347E+04  0.12699999809E+01 0.  1.
       -4    1    3    3    0  502  0.48002771710E+03 -0.71840220955E+03  0.23951890664E+03  0.89660429588E+03  0.12699999809E+01 0. -1.
</event>
<event>
 5   0  0.1281432E-04  0.2365712E+04  0.7818609E-02  0.8452453E-01
       -2   -1    0    0    0  501  0.00000000000E+00  0.00000000000E+00  0.98463997338E+03  0.98463997338E+03  0.25500000920E-02 0.  1.
        2   -1    0    0  501    0  0.00000000000E+00  0.00000000000E+00 -0.14209740892E+04  0.14209740892E+04  0.25500000920E-02 0. -1.
    10030    2    1    2    0    0  0.00000000000E+00  0.00000000000E+00 -0.43633411584E+03  0.24056140626E+04  0.23657116387E+04 0.  0.
        4    1    3    3  502    0 -0.39831058243E+03  0.10993141417E+04 -0.36254771626E+02  0.11698114906E+04  0.12699999809E+01 0. -1.
       -4    1    3    3    0  502  0.39831058243E+03 -0.10993141417E+04 -0.40007934421E+03  0.12358025720E+04  0.12699999809E+01 0.  1.
</event>
<event>
 5   0  0.5924654E-05  0.2144866E+04  0.7818609E-02  0.8541733E-01
        1   -1    0    0  501    0  0.00000000000E+00  0.00000000000E+00  0.18748574947E+04  0.18748574947E+04  0.50400001928E-02 0.  1.
       -1   -1    0    0    0  501  0.00000000000E+00  0.00000000000E+00 -0.61343972681E+03  0.61343972683E+03  0.50400001928E-02 0. -1.
    10030    2    1    2    0    0  0.00000000000E+00  0.00000000000E+00  0.12614177679E+04  0.24882972215E+04  0.21448655616E+04 0.  0.
        5    1    3    3  502    0 -0.13384627948E+03  0.60925422904E+03  0.16427311460E+04  0.17571833286E+04  0.46999998093E+01 0.  1.
       -5    1    3    3    0  502  0.13384627948E+03 -0.60925422904E+03 -0.38131337813E+03  0.73111389296E+03  0.46999998093E+01 0. -1.
</event>
<event>
 5   0  0.5924654E-05  0.1976685E+04  0.7818609E-02  0.8617600E-01
       -1   -1    0    0    0  501  0.00000000000E+00  0.00000000000E+00  0.19065264176E+04  0.19065264176E+04  0.50400001928E-02 0. -1.
        1   -1    0    0  501    0  0.00000000000E+00  0.00000000000E+00 -0.51235623100E+03  0.51235623103E+03  0.50400001928E-02 0.  1.
    10030    2    1    2    0    0  0.00000000000E+00  0.00000000000E+00  0.13941701866E+04  0.24188826486E+04  0.19766847899E+04 0.  0.
        5    1    3    3  502    0 -0.26425940673E+03 -0.71001120853E+03  0.14737771681E+04  0.16571029484E+04  0.46999998093E+01 0. -1.
       -5    1    3    3    0  502  0.26425940673E+03  0.71001120853E+03 -0.79606981474E+02  0.76177970030E+03  0.46999998093E+01 0.  1.
</event>
<event>
 5   0  0.5843670E-05  0.1779463E+04  0.7818609E-02  0.8717298E-01
       -1   -1    0    0    0  501  0.00000000000E+00  0.00000000000E+00  0.44444966962E+03  0.44444966964E+03  0.50400001928E-02 0.  1.
        1   -1    0    0  501    0  0.00000000000E+00  0.00000000000E+00 -0.17811280213E+04  0.17811280213E+04  0.50400001928E-02 0. -1.
    10030    2    1    2    0    0  0.00000000000E+00  0.00000000000E+00 -0.13366783517E+04  0.22255776909E+04  0.17794625713E+04 0.  0.
        2    1    3    3  502    0 -0.70724595015E+03  0.38271568358E+03 -0.19216213391E+03  0.82679768637E+03  0.25500000920E-02 0.  1.
       -2    1    3    3    0  502  0.70724595015E+03 -0.38271568358E+03 -0.11445162178E+04  0.13987800046E+04  0.25500000920E-02 0. -1.
</event>
<event>
 5   0  0.1237296E-04  0.1477634E+04  0.7818609E-02  0.8899464E-01
       -2   -1    0    0    0  501  0.00000000000E+00  0.00000000000E+00  0.69141814418E+03  0.69141814418E+03  0.25500000920E-02 0.  1.
        2   -1    0    0  501    0  0.00000000000E+00  0.00000000000E+00 -0.78946550199E+03  0.78946550200E+03  0.25500000920E-02 0. -1.
    10030    2    1    2    0    0  0.00000000000E+00  0.00000000000E+00 -0.98047357815E+02  0.14808836462E+04  0.14776342880E+04 0.  0.
        1    1    3    3  502    0 -0.40994248418E+03 -0.42956706641E+03 -0.48961534281E+03  0.76961281747E+03  0.50400001928E-02 0. -1.
       -1    1    3    3    0  502  0.40994248418E+03  0.42956706641E+03  0.39156798499E+03  0.71127082871E+03  0.50400001928E-02 0.  1.
</event>
<event>
 5   0  0.5843670E-05  0.2359521E+04  0.7818609E-02  0.8454815E-01
       -1   -1    0    0    0  501  0.00000000000E+00  0.00000000000E+00  0.15003233219E+04  0.15003233219E+04  0.50400001928E-02 0.  1.
        1   -1    0    0  501    0  0.00000000000E+00  0.00000000000E+00 -0.92769027015E+03  0.92769027017E+03  0.50400001928E-02 0. -1.
    10030    2    1    2    0    0  0.00000000000E+00  0.00000000000E+00  0.57263305173E+03  0.24280135921E+04  0.23595214327E+04 0.  0.
        2    1    3    3  502    0 -0.97670955818E+03 -0.11407418947E+03  0.95705088173E+03  0.13721956391E+04  0.25500000920E-02 0.  1.
       -2    1    3    3    0  502  0.97670955818E+03  0.11407418947E+03 -0.38441783000E+03  0.10558179530E+04  0.25500000920E-02 0. -1.
</event>
<event>
 5   0  0.1237296E-04  0.2277385E+04  0.7818609E-02  0.8486891E-01
       -2   -1    0    0    0  501  0.00000000000E+00  0.00000000000E+00  0.83093823754E+03  0.83093823755E+03  0.25500000920E-02 0. -1.
        2   -1    0    0  501    0  0.00000000000E+00  0.00000000000E+00 -0.15604301126E+04  0.15604301126E+04  0.25500000920E-02 0.  1.
    10030    2    1    2    0    0  0.00000000000E+00  0.00000000000E+00 -0.72949187507E+03  0.23913683502E+04  0.22773853847E+04 0.  0.
        1    1    3    3  502    0 -0.83528305611E+03  0.66253388077E+03 -0.78472931207E+03  0.13238009746E+04  0.50400001928E-02 0.  1.
       -1    1    3    3    0  502  0.83528305611E+03 -0.66253388077E+03  0.55237436996E+02  0.10675673756E+04  0.50400001928E-02 0. -1.
</event>
<event>
 5   0  0.1257524E-04  0.2333427E+04  0.7818609E-02  0.8464857E-01
       -2   -1    0    0    0  501  0.00000000000E+00  0.00000000000E+00  0.11992048701E+04  0.11992048701E+04  0.25500000920E-02 0. -1.
        2   -1    0    0  501    0  0.00000000000E+00  0.00000000000E+00 -0.11351025448E+04  0.11351025448E+04  0.25500000920E-02 0.  1.
    10030    2    1    2    0    0  0.00000000000E+00  0.00000000000E+00  0.64102325327E+02  0.23343074149E+04  0.23334270932E+04 0.  0.
        3    1    3    3  502    0  0.41037680718E+03  0.12122055156E+03  0.11178716069E+04  0.11969713805E+04  0.10100000352E+00 0. -1.
       -3    1    3    3    0  502 -0.41037680718E+03 -0.12122055156E+03 -0.10537692816E+04  0.11373360344E+04  0.10100000352E+00 0.  1.
</event>
<event>
 5   0  0.1257524E-04  0.2277012E+04  0.7818609E-02  0.8487041E-01
        2   -1    0    0  501    0  0.00000000000E+00  0.00000000000E+00  0.14733776908E+04  0.14733776908E+04  0.25500000920E-02 0. -1.
       -2   -1    0    0    0  501  0.00000000000E+00  0.00000000000E+00 -0.87974426292E+03  0.87974426293E+03  0.25500000920E-02 0.  1.
    10030    2    1    2    0    0  0.00000000000E+00  0.00000000000E+00  0.59363342785E+03  0.23531219537E+04  0.22770117001E+04 0.  0.
        3    1    3    3  502    0 -0.41166629143E+02  0.14372060025E+03 -0.86955642870E+03  0.88231439702E+03  0.10100000352E+00 0.  1.
       -3    1    3    3    0  502  0.41166629143E+02 -0.14372060025E+03  0.14631898565E+04  0.14708075567E+04  0.10100000352E+00 0. -1.
</event>
<event>
 5   0  0.5642466E-05  0.2331760E+04  0.7818609E-02  0.8465503E-01
        1   -1    0    0  501    0  0.00000000000E+00  0.00000000000E+00  0.78831425356E+03  0.78831425358E+03  0.50400001928E-02 0.  1.
       -1   -1    0    0    0  501  0.00000000000E+00  0.00000000000E+00 -0.17242827777E+04  0.17242827777E+04  0.50400001928E-02 0. -1.
    10030    2    1    2    0    0  0.00000000000E+00  0.00000000000E+00 -0.93596852411E+03  0.25125970313E+04  0.23317604430E+04 0.  0.
        1    1    3    3  502    0  0.17277476428E+03 -0.11355060179E+04 -0.25233441958E+03  0.11759667066E+04  0.50400001928E-02 0.  1.
       -1    1    3    3    0  502 -0.17277476428E+03  0.11355060179E+04 -0.68363410453E+03  0.13366303246E+04  0.50400001928E-02 0. -1.
</event>
<event>
 5   0  0.5924654E-05  0.2286711E+04  0.7818609E-02  0.8483179E-01
       -1   -1    0    0    0  501  0.00000000000E+00  0.00000000000E+00  0.91642718075E+03  0.91642718077E+03  0.50400001928E-02 0.  1.
        1   -1    0    0  501    0  0.00000000000E+00  0.00000000000E+00 -0.14264767301E+04  0.14264767301E+04  0.50400001928E-02 0. -1.
    10030    2    1    2    0    0  0.00000000000E+00  0.00000000000E+00 -0.51004954931E+03  0.23429039108E+04  0.22867112176E+04 0.  0.
        5    1    3    3  502    0  0.27496493404E+03 -0.55968489665E+03 -0.12368993916E+04  0.13852057946E+04  0.46999998093E+01 0. -1.
       -5    1    3    3    0  502 -0.27496493404E+03  0.55968489665E+03  0.72684984232E+03  0.95769811620E+03  0.46999998093E+01 0.  1.
</event>
<event>
 5   0  0.1257524E-04  0.2313561E+04  0.7818609E-02  0.8472593E-01
       -2   -1    0    0    0  501  0.00000000000E+00  0.00000000000E+00  0.83788990839E+03  0.83788990840E+03  0.25500000920E-02 0.  1.
        2   -1    0    0  501    0  0.00000000000E+00  0.00000000000E+00 -0.15970369152E+04  0.15970369152E+04  0.25500000920E-02 0. -1.
    10030    2    1    2    0    0  0.00000000000E+00  0.00000000000E+00 -0.75914700680E+03  0.24349268236E+04  0.23135609908E+04 0.  0.
        3    1    3    3  502    0 -0.11153861657E+04 -0.78627745333E+01 -0.70223911040E+03  0.13180621762E+04  0.10100000352E+00 0. -1.
       -3    1    3    3    0  502  0.11153861657E+04  0.78627745333E+01 -0.56907896404E+02  0.11168646474E+04  0.10100000352E+00 0.  1.
</event>
<event>
 5   0  0.5924654E-05  0.2285872E+04  0.7818609E-02  0.8483513E-01
        1   -1    0    0  501    0  0.00000000000E+00  0.00000000000E+00  0.10451845844E+04  0.10451845845E+04  0.50400001928E-02 0. -1.
       -1   -1    0    0    0  501  0.00000000000E+00  0.00000000000E+00 -0.12498294609E+04  0.12498294609E+04  0.50400001928E-02 0.  1.
    10030    2    1    2    0    0  0.00000000000E+00  0.00000000000E+00 -0.20464487648E+03  0.22950140454E+04  0.22858718125E+04 0.  0.
        5    1    3    3  502    0  0.61333762022E+03  0.87216083943E+03 -0.51559089387E+03  0.11843578961E+04  0.46999998093E+01 0. -1.
       -5    1    3    3    0  502 -0.61333762022E+03 -0.87216083943E+03  0.31094601739E+03  0.11106561493E+04  0.46999998093E+01 0.  1.
</event>
<event>
 5   0  0.1270613E-04  0.2354943E+04  0.7818609E-02  0.8456567E-01
        2   -1    0    0  501    0  0.00000000000E+00  0.00000000000E+00  0.13593964925E+04  0.13593964925E+04  0.25500000920E-02 0.  1.
       -2   -1    0    0    0  501  0.00000000000E+00  0.00000000000E+00 -0.10198931182E+04  0.10198931182E+04  0.25500000920E-02 0. -1.
    10030    2    1    2    0    0  0.00000000000E+00  0.00000000000E+00  0.33950337425E+03  0.23792896107E+04  0.23549429952E+04 0.  0.
        2    1    3    3  502    0  0.41818905632E+03 -0.94305377888E+03 -0.40374925125E+03  0.11078113443E+04  0.25500000920E-02 0. -1.
       -2    1    3    3    0  502 -0.41818905632E+03  0.94305377888E+03  0.74325262550E+03  0.12714782664E+04  0.25500000920E-02 0.  1.
</event>
<event>
 5   0  0.5642466E-05  0.2286242E+04  0.7818609E-02  0.8483366E-01
       -1   -1    0    0    0  501  0.00000000000E+00  0.00000000000E+00  0.11412325869E+04  0.11412325869E+04  0.50400001928E-02 0. -1.
        1   -1    0    0  501    0  0.00000000000E+00  0.00000000000E+00 -0.11450122706E+04  0.11450122706E+04  0.50400001928E-02 0.  1.
    10030    2    1    2    0    0  0.00000000000E+00  0.00000000000E+00 -0.37796837236E+01  0.22862448576E+04  0.22862417332E+04 0.  0.
        1    1    3    3  502    0 -0.90515802704E+03 -0.69787794298E+03  0.17620142406E+02  0.11430901743E+04  0.50400001928E-02 0. -1.
       -1    1    3    3    0  502  0.90515802704E+03  0.69787794298E+03 -0.21399826130E+02  0.11431546832E+04  0.50400001928E-02 0.  1.
</event>
<event>
 5   0  0.5642466E-05  0.2193013E+04  0.7818609E-02  0.8521342E-01
       -1   -1    0    0    0  501  0.00000000000E+00  0.00000000000E+00  0.11348060388E+04  0.11348060388E+04  0.50400001928E-02 0. -1.
        1   -1    0    0  501    0  0.00000000000E+00  0.00000000000E+00 -0.10594996832E+04  0.10594996832E+04  0.50400001928E-02 0.  1.
    10030    2    1    2    0    0  0.00000000000E+00  0.00000000000E+00  0.75306355615E+02  0.21943057221E+04  0.21930131223E+04 0.  0.
        1    1    3    3  502    0  0.36377568005E+03  0.59143948896E+03 -0.81148901461E+03  0.10680111588E+04  0.50400001928E-02 0.  1.
       -1    1    3    3    0  502 -0.36377568005E+03 -0.59143948896E+03  0.88679537022E+03  0.11262945632E+04  0.50400001928E-02 0. -1.
</event>
<event>
 5   0  0.5632156E-05  0.2337931E+04  0.7818609E-02  0.8463114E-01
        1   -1    0    0  501    0  0.00000000000E+00  0.00000000000E+00  0.18307068183E+04  0.18307068183E+04  0.50400001928E-02 0. -1.
       -1   -1    0    0    0  501  0.00000000000E+00  0.00000000000E+00 -0.74642210560E+03  0.74642210562E+03  0.50400001928E-02 0.  1.
    10030    2    1    2    0    0  0.00000000000E+00  0.00000000000E+00  0.10842847127E+04  0.25771289239E+04  0.23379307416E+04 0.  0.
        4    1    3    3  502    0 -0.60701964644E+03  0.96724225194E+03  0.26667904049E+03  0.11726677912E+04  0.12699999809E+01 0.  1.
       -4    1    3    3    0  502  0.60701964644E+03 -0.96724225194E+03  0.81760567221E+03  0.14044611327E+04  0.12699999809E+01 0. -1.
</event>
<event>
 5   0  0.1281432E-04  0.1371512E+04  0.7818609E-02  0.8974701E-01
        2   -1    0    0  501    0  0.00000000000E+00  0.00000000000E+00  0.58236879161E+03  0.58236879161E+03  0.25500000920E-02 0.  1.
       -2   -1    0    0    0  501  0.00000000000E+00  0.00000000000E+00 -0.80749786694E+03  0.80749786695E+03  0.25500000920E-02 0. -1.
    10030    2    1    2    0    0  0.00000000000E+00  0.00000000000E+00 -0.22512907534E+03  0.13898666586E+04  0.13715123871E+04 0.  0.
        4    1    3    3  502    0 -0.53358711530E+03 -0.41508378258E+03 -0.22921445125E+03  0.71382815420E+03  0.12699999809E+01 0. -1.
       -4    1    3    3    0  502  0.53358711530E+03  0.41508378258E+03  0.40853759132E+01  0.67603850435E+03  0.12699999809E+01 0.  1.
</event>
<event>
 5   0  0.5663790E-05  0.2522642E+04  0.7818609E-02  0.8394963E-01
       -1   -1    0    0    0  501  0.00000000000E+00  0.00000000000E+00  0.11309681159E+04  0.11309681159E+04  0.50400001928E-02 0. -1.
        1   -1    0    0  501    0  0.00000000000E+00  0.00000000000E+00 -0.14066980614E+04  0.14066980615E+04  0.50400001928E-02 0.  1.
    10030    2    1    2    0    0  0.00000000000E+00  0.00000000000E+00 -0.27572994555E+03  0.25376661774E+04  0.25226419930E+04 0.  0.
        3    1    3    3  502    0  0.52084444733E+03  0.48371625492E+03 -0.11860256134E+04  0.13827209117E+04  0.10100000352E+00 0.  1.
       -3    1    3    3    0  502 -0.52084444733E+03 -0.48371625492E+03  0.91029566790E+03  0.11549452657E+04  0.10100000352E+00 0. -1.
</event>
<event>
 5   0  0.5924654E-05  0.2380550E+04  0.7818609E-02  0.8446821E-01
       -1   -1    0    0    0  501  0.00000000000E+00  0.00000000000E+00  0.12009425310E+04  0.12009425310E+04  0.50400001928E-02 0. -1.
        1   -1    0    0  501    0  0.00000000000E+00  0.00000000000E+00 -0.11797025796E+04  0.11797025796E+04  0.50400001928E-02 0.  1.
    10030    2    1    2    0    0  0.00000000000E+00  0.00000000000E+00  0.21239951401E+02  0.23806451106E+04  0.23805503580E+04 0.  0.
        5    1    3    3  502    0  0.81434092099E+03  0.29860641770E+03  0.82576957898E+03  0.11975952638E+04  0.46999998093E+01 0.  1.
       -5    1    3    3    0  502 -0.81434092099E+03 -0.29860641770E+03 -0.80452962758E+03  0.11830498468E+04  0.46999998093E+01 0. -1.
</event>
<event>
 5   0  0.5632156E-05  0.2299103E+04  0.7818609E-02  0.8478275E-01
       -1   -1    0    0    0  501  0.00000000000E+00  0.00000000000E+00  0.10896637884E+04  0.10896637885E+04  0.50400001928E-02 0.  1.
        1   -1    0    0  501    0  0.00000000000E+00  0.00000000000E+00 -0.12127302811E+04  0.12127302811E+04  0.50400001928E-02 0. -1.
    10030    2    1    2    0    0  0.00000000000E+00  0.00000000000E+00 -0.12306649269E+03  0.23023940696E+04  0.22991026706E+04 0.  0.
        4    1    3    3  502    0 -0.26956597176E+03  0.27484976061E+03 -0.11462544720E+04  0.12091770472E+04  0.12699999809E+01 0. -1.
       -4    1    3    3    0  502  0.26956597176E+03 -0.27484976061E+03  0.10231879793E+04  0.10932170224E+04  0.12699999809E+01 0.  1.
</event>
<event>
 5   0  0.1270613E-04  0.2404865E+04  0.7818609E-02  0.8437684E-01
        2   -1    0    0  501    0  0.00000000000E+00  0.00000000000E+00  0.11485122700E+04  0.11485122700E+04  0.25500000920E-02 0. -1.
       -2   -1    0    0    0  501  0.00000000000E+00  0.00000000000E+00 -0.12588846107E+04  0.12588846107E+04  0.25500000920E-02 0.  1.
    10030    2    1    2    0    0  0.00000000000E+00  0.00000000000E+00 -0.11037234073E+03  0.24073968808E+04  0.24048654199E+04 0.  0.
        2    1    3    3  502    0 -0.10736686916E+04  0.48698559019E+03 -0.29191977065E+03  0.12145520067E+04  0.25500000920E-02 0. -1.
       -2    1    3    3    0  502  0.10736686916E+04 -0.48698559019E+03  0.18154742992E+03  0.11928448741E+04  0.25500000920E-02 0.  1.
</event>
<event>
 5   0  0.1281432E-04  0.2238304E+04  0.7818609E-02  0.8502652E-01
        2   -1    0    0  501    0  0.00000000000E+00  0.00000000000E+00  0.99025437991E+03  0.99025437991E+03  0.25500000920E-02 0.  1.
       -2   -1    0    0    0  501  0.00000000000E+00  0.00000000000E+00 -0.12648281415E+04  0.12648281415E+04  0.25500000920E-02 0. -1.
    10030    2    1    2    0    0  0.00000000000E+00  0.00000000000E+00 -0.27457376158E+03  0.22550825214E+04  0.22383043644E+04 0.  0.
        4    1    3    3  502    0 -0.27390966295E+03 -0.66377533748E+03  0.72756242656E+03  0.10222391597E+04  0.12699999809E+01 0.  1.
       -4    1    3    3    0  502  0.27390966295E+03  0.66377533748E+03 -0.10021361881E+04  0.12328433617E+04  0.12699999809E+01 0. -1.
</event>
<event>
 5   0  0.1281432E-04  0.2418599E+04  0.7818609E-02  0.8432573E-01
       -2   -1    0    0    0  501  0.00000000000E+00  0.00000000000E+00  0.88749191441E+03  0.88749191441E+03  0.25500000920E-02 0.  1.
        2   -1    0    0  501    0  0.00000000000E+00  0.00000000000E+00 -0.16477958248E+04  0.16477958248E+04  0.25500000920E-02 0. -1.
    10030    2    1    2    0    0  0.00000000000E+00  0.00000000000E+00 -0.76030391038E+03  0.25352877392E+04  0.24185991574E+04 0.  0.
        4    1    3    3  502    0  0.36180706405E+03 -0.18559274687E+03  0.81367815441E+03  0.90962782013E+03  0.12699999809E+01 0.  1.
       -4    1    3    3    0  502 -0.36180706405E+03  0.18559274687E+03 -0.15739820648E+04  0.16256599191E+04  0.12699999809E+01 0. -1.
</event>
<event>
 5   0  0.5632156E-05  0.2236498E+04  0.7818609E-02  0.8503389E-01
        1   -1    0    0  501    0  0.00000000000E+00  0.00000000000E+00  0.16293960782E+04  0.16293960782E+04  0.50400001928E-02 0.  1.
       -1   -1    0    0    0  501  0.00000000000E+00  0.00000000000E+00 -0.76745041257E+03  0.76745041258E+03  0.50400001928E-02 0. -1.
    10030    2    1    2    0    0  0.00000000000E+00  0.00000000000E+00  0.86194566565E+03  0.23968464908E+04  0.22364978806E+04 0.  0.
        4    1    3    3  502    0 -0.46148066620E+03 -0.94153887921E+03  0.14498893563E+02  0.10486523242E+04  0.12699999809E+01 0. -1.
       -4    1    3    3    0  502  0.46148066620E+03  0.94153887921E+03  0.84744677209E+03  0.13481941666E+04  0.12699999809E+01 0.  1.
</event>
<event>
 5   0  0.1270613E-04  0.1780221E+04  0.7818609E-02  0.8716889E-01
        2   -1    0    0  501    0  0.00000000000E+00  0.00000000000E+00  0.14968159313E+04  0.14968159313E+04  0.25500000920E-02 0.  1.
       -2   -1    0    0    0  501  0.00000000000E+00  0.00000000000E+00 -0.52932126485E+03  0.52932126486E+03  0.25500000920E-02 0. -1.
    10030    2    1    2    0    0  0.00000000000E+00  0.00000000000E+00  0.96749466648E+03  0.20261371962E+04  0.17802207751E+04 0.  0.
        2    1    3    3  502    0  0.72386408928E+03 -0.49194927423E+03  0.29916113401E+03  0.92492739838E+03  0.25500000920E-02 0. -1.
       -2    1    3    3    0  502 -0.72386408928E+03  0.49194927423E+03  0.66833353247E+03  0.11012097978E+04  0.25500000920E-02 0.  1.
</event>
<event>
 5   0  0.1281432E-04  0.2332675E+04  0.7818609E-02  0.8465148E-01
       -2   -1    0    0    0  501  0.00000000000E+00  0.00000000000E+00  0.14196634070E+04  0.14196634070E+04  0.25500000920E-02 0. -1.
        2   -1    0    0  501    0  0.00000000000E+00  0.00000000000E+00 -0.95821527050E+03  0.95821527051E+03  0.25500000920E-02 0.  1.
    10030    2    1    2    0    0  0.00000000000E+00  0.00000000000E+00  0.46144813649E+03  0.23778786775E+04  0.23326749928E+04 0.  0.
        4    1    3    3  502    0 -0.98667106949E+03  0.42694704427E+03  0.69174688941E+03  0.12784048459E+04  0.12699999809E+01 0. -1.
       -4    1    3    3    0  502  0.98667106949E+03 -0.42694704427E+03 -0.23029875292E+03  0.10994738317E+04  0.12699999809E+01 0.  1.
</event>
<event>
 5   0  0.1234988E-04  0.1426505E+04  0.7818609E-02  0.8934853E-01
        2   -1    0    0  501    0  0.00000000000E+00  0.00000000000E+00  0.10117158626E+04  0.10117158626E+04  0.25500000920E-02 0.  1.
       -2   -1    0    0    0  501  0.00000000000E+00  0.00000000000E+00 -0.50283784147E+03  0.50283784148E+03  0.25500000920E-02 0. -1.
    10030    2    1    2    0    0  0.00000000000E+00  0.00000000000E+00  0.50887802109E+03  0.15145537040E+04  0.14265048482E+04 0.  0.
        5    1    3    3  502    0  0.42732010016E+03  0.22534472600E+03 -0.30266159665E+03  0.57009547062E+03  0.46999998093E+01 0.  1.
       -5    1    3    3    0  502 -0.42732010016E+03 -0.22534472600E+03  0.81153961773E+03  0.94445823342E+03  0.46999998093E+01 0. -1.
</event>
<event>
 5   0  0.1234988E-04  0.2213063E+04  0.7818609E-02  0.8513011E-01
       -2   -1    0    0    0  501  0.00000000000E+00  0.00000000000E+00  0.10915010134E+04  0.10915010134E+04  0.25500000920E-02 0.  1.
        2   -1    0    0  501    0  0.00000000000E+00  0.00000000000E+00 -0.11217688068E+04  0.11217688068E+04  0.25500000920E-02 0. -1.
    10030    2    1    2    0    0  0.00000000000E+00  0.00000000000E+00 -0.30267793447E+02  0.22132698202E+04  0.22130628454E+04 0.  0.
        5    1    3    3  502    0  0.29012957493E+03 -0.74178188226E+02 -0.10804621942E+04  0.11212039141E+04  0.46999998093E+01 0. -1.
       -5    1    3    3    0  502 -0.29012957493E+03  0.74178188226E+02  0.10501944008E+04  0.10920659061E+04  0.46999998093E+01 0.  1.
</event>
<event>
 5   0  0.1257524E-04  0.2295122E+04  0.7818609E-02  0.8479847E-01
       -2   -1    0    0    0  501  0.00000000000E+00  0.00000000000E+00  0.11825842503E+04  0.11825842503E+04  0.25500000920E-02 0.  1.
        2   -1    0    0  501    0  0.00000000000E+00  0.00000000000E+00 -0.11135752837E+04  0.11135752837E+04  0.25500000920E-02 0. -1.
    10030    2    1    2    0    0  0.00000000000E+00  0.00000000000E+00  0.69008966626E+02  0.22961595340E+04  0.22951222991E+04 0.  0.
        3    1    3    3  502    0 -0.37742849730E+03  0.65199602764E+03  0.90054313591E+03  0.11741077636E+04  0.10100000352E+00 0.  1.
       -3    1    3    3    0  502  0.37742849730E+03 -0.65199602764E+03 -0.83153416928E+03  0.11220517704E+04  0.10100000352E+00 0. -1.
</event>
<event>
 5   0  0.5924654E-05  0.1375621E+04  0.7818609E-02  0.8971657E-01
        1   -1    0    0  501    0  0.00000000000E+00  0.00000000000E+00  0.89175077117E+03  0.89175077119E+03  0.50400001928E-02 0.  1.
       -1   -1    0    0    0  501  0.00000000000E+00  0.00000000000E+00 -0.53051062077E+03  0.53051062080E+03  0.50400001928E-02 0. -1.
    10030    2    1    2    0    0  0.00000000000E+00  0.00000000000E+00  0.36124015040E+03  0.14222613920E+04  0.13756209583E+04 0.  0.
        5    1    3    3  502    0  0.39769591838E+03  0.25469296505E+03  0.69760422938E+03  0.84243949384E+03  0.46999998093E+01 0.  1.
       -5    1    3    3    0  502 -0.39769591838E+03 -0.25469296505E+03 -0.33636407898E+03  0.57982189814E+03  0.46999998093E+01 0. -1.
</event>
<event>
 5   0  0.5843670E-05  0.2309770E+04  0.7818609E-02  0.8474079E-01
       -1   -1    0    0    0  501  0.00000000000E+00  0.00000000000E+00  0.89719584087E+03  0.89719584089E+03  0.50400001928E-02 0. -1.
        1   -1    0    0  501    0  0.00000000000E+00  0.00000000000E+00 -0.14865871444E+04  0.14865871444E+04  0.50400001928E-02 0.  1.
    10030    2    1    2    0    0  0.00000000000E+00  0.00000000000E+00 -0.58939130348E+03  0.23837829852E+04  0.23097703808E+04 0.  0.
        2    1    3    3  502    0  0.49556872944E+02 -0.65344414318E+03  0.68673065753E+03  0.94923344226E+03  0.25500000920E-02 0. -1.
       -2    1    3    3    0  502 -0.49556872944E+02  0.65344414318E+03 -0.12761219610E+04  0.14345495430E+04  0.25500000920E-02 0.  1.
</event>
<event>
 5   0  0.1237296E-04  0.2652511E+04  0.7818609E-02  0.8350580E-01
       -2   -1    0    0    0  501  0.00000000000E+00  0.00000000000E+00  0.86487434500E+03  0.86487434500E+03  0.25500000920E-02 0. -1.
        2   -1    0    0  501    0  0.00000000000E+00  0.00000000000E+00 -0.20337672017E+04  0.20337672017E+04  0.25500000920E-02 0.  1.
    10030    2    1    2    0    0  0.00000000000E+00  0.00000000000E+00 -0.11688928567E+04  0.28986415467E+04  0.26525105666E+04 0.  0.
        1    1    3    3  502    0 -0.85831821968E+03 -0.74617978646E+03 -0.13299984231E+04  0.17499686413E+04  0.50400001928E-02 0. -1.
       -1    1    3    3    0  502  0.85831821968E+03  0.74617978646E+03  0.16110556647E+03  0.11486729054E+04  0.50400001928E-02 0.  1.
</event>
<event>
 5   0  0.5632156E-05  0.2176601E+04  0.7818609E-02  0.8528231E-01
        1   -1    0    0  501    0  0.00000000000E+00  0.00000000000E+00  0.15227597253E+04  0.15227597253E+04  0.50400001928E-02 0.  1.
       -1   -1    0    0    0  501  0.00000000000E+00  0.00000000000E+00 -0.77779698172E+03  0.77779698174E+03  0.50400001928E-02 0. -1.
    10030    2    1    2    0    0  0.00000000000E+00  0.00000000000E+00  0.74496274356E+03  0.23005567070E+04  0.21766009448E+04 0.  0.
        4    1    3    3  502    0 -0.18102252757E+02  0.33458949318E+03 -0.72191720951E+03  0.79589188385E+03  0.12699999809E+01 0. -1.
       -4    1    3    3    0  502  0.18102252757E+02 -0.33458949318E+03  0.14668799531E+04  0.15046648232E+04  0.12699999809E+01 0.  1.
</event>
<event>
 5   0  0.1257524E-04  0.2302034E+04  0.7818609E-02  0.8477119E-01
       -2   -1    0    0    0  501  0.00000000000E+00  0.00000000000E+00  0.14416985361E+04  0.14416985361E+04  0.25500000920E-02 0.  1.
        2   -1    0    0  501    0  0.00000000000E+00  0.00000000000E+00 -0.91894411197E+03  0.91894411197E+03  0.25500000920E-02 0. -1.
    10030    2    1    2    0    0  0.00000000000E+00  0.00000000000E+00  0.52275442416E+03  0.23606426481E+04  0.23020342144E+04 0.  0.
        3    1    3    3  502    0  0.93192193067E+03  0.63463724938E+03  0.49878257713E+03  0.12328937475E+04  0.10100000352E+00 0.  1.
       -3    1    3    3    0  502 -0.93192193067E+03 -0.63463724938E+03  0.23971847029E+02  0.11277489006E+04  0.10100000352E+00 0. -1.
</event>
<event>
 5   0  0.5663790E-05  0.2280557E+04  0.7818609E-02  0.8485627E-01
       -1   -1    0    0    0  501  0.00000000000E+00  0.00000000000E+00  0.10223631606E+04  0.10223631606E+04  0.50400001928E-02 0. -1.
        1   -1    0    0  501    0  0.00000000000E+00  0.00000000000E+00 -0.12717936238E+04  0.12717936238E+04  0.50400001928E-02 0.  1.
    10030    2    1    2    0    0  0.00000000000E+00  0.00000000000E+00 -0.24943046321E+03  0.22941567844E+04  0.22805569046E+04 0.  0.
        3    1    3    3  502    0  0.38399010276E+03  0.70759482446E+03  0.68762504045E+03  0.10587573098E+04  0.10100000352E+00 0. -1.
       -3    1    3    3    0  502 -0.38399010276E+03 -0.70759482446E+03 -0.93705550366E+03  0.12353994746E+04  0.10100000352E+00 0.  1.
</event>
<event>
 5   0  0.5663790E-05  0.2315072E+04  0.7818609E-02  0.8472002E-01
        1   -1    0    0  501    0  0.00000000000E+00  0.00000000000E+00  0.24351600754E+04  0.24351600754E+04  0.50400001928E-02 0.  1.
       -1   -1    0    0    0  501  0.00000000000E+00  0.00000000000E+00 -0.55022632098E+03  0.55022632101E+03  0.50400001928E-02 0. -1.
    10030    2    1    2    0    0  0.00000000000E+00  0.00000000000E+00  0.18849337544E+04  0.29853863964E+04  0.23150716355E+04 0.  0.
        3    1    3    3  502    0 -0.10008656734E+04 -0.27145121455E+03  0.27929608355E+03  0.10739758706E+04  0.10100000352E+00 0. -1.
       -3    1    3    3    0  502  0.10008656734E+04  0.27145121455E+03  0.16056376709E+04  0.19114105259E+04  0.10100000352E+00 0.  1.
</event>
<event>
 5   0  0.5924654E-05  0.2256822E+04  0.7818609E-02  0.8495143E-01
       -1   -1    0    0    0  501  0.00000000000E+00  0.00000000000E+00  0.11468203067E+04  0.11468203067E+04  0.50400001928E-02 0.  1.
        1   -1    0    0  501    0  0.00000000000E+00  0.00000000000E+00 -0.11102976316E+04  0.11102976316E+04  0.50400001928E-02 0. -1.
    10030    2    1    2    0    0  0.00000000000E+00  0.00000000000E+00  0.36522675091E+02  0.22571179383E+04  0.22568224302E+04 0.  0.
        5    1    3    3  502    0 -0.13824430860E+03  0.10852044318E+04 -0.25837862772E+03  0.11240826273E+04  0.46999998093E+01 0.  1.
       -5    1    3    3    0  502  0.13824430860E+03 -0.10852044318E+04  0.29490130281E+03  0.11330353110E+04  0.46999998093E+01 0. -1.
</event>
<event>
 5   0  0.1270613E-04  0.2298744E+04  0.7818609E-02  0.8478417E-01
       -2   -1    0    0    0  501  0.00000000000E+00  0.00000000000E+00  0.14816983145E+04  0.14816983145E+04  0.25500000920E-02 0.  1.
        2   -1    0    0  501    0  0.00000000000E+00  0.00000000000E+00 -0.89158204862E+03  0.89158204863E+03  0.25500000920E-02 0. -1.
    10030    2    1    2    0    0  0.00000000000E+00  0.00000000000E+00  0.59011626590E+03  0.23732803631E+04  0.22987436731E+04 0.  0.
        2    1    3    3  502    0 -0.37773314816E+03  0.80484746300E+03  0.10470958188E+04  0.13736343850E+04  0.25500000920E-02 0.  1.
       -2    1    3    3    0  502  0.37773314816E+03 -0.80484746300E+03 -0.45697955287E+03  0.99964597817E+03  0.25500000920E-02 0. -1.
</event>
<event>
 5   0  0.1234988E-04  0.2294154E+04  0.7818609E-02  0.8480230E-01
       -2   -1    0    0    0  501  0.00000000000E+00  0.00000000000E+00  0.13081549326E+04  0.13081549326E+04  0.25500000920E-02 0.  1.
        2   -1    0    0  501    0  0.00000000000E+00  0.00000000000E+00 -0.10058327793E+04  0.10058327793E+04  0.25500000920E-02 0. -1.
    10030    2    1    2    0    0  0.00000000000E+00  0.00000000000E+00  0.30232215334E+03  0.23139877119E+04  0.22941535359E+04 0.  0.
        5    1    3    3  502    0 -0.62963521623E+03  0.90629162144E+03 -0.16452727129E+03  0.11157492199E+04  0.46999998093E+01 0. -1.
       -5    1    3    3    0  502  0.62963521623E+03 -0.90629162144E+03  0.46684942463E+03  0.11982384921E+04  0.46999998093E+01 0.  1.
</event>
<event>
 5   0  0.5632156E-05  0.2214660E+04  0.7818609E-02  0.8512351E-01
       -1   -1    0    0    0  501  0.00000000000E+00  0.00000000000E+00  0.10825370499E+04  0.10825370499E+04  0.50400001928E-02 0.  1.
        1   -1    0    0  501    0  0.00000000000E+00  0.00000000000E+00 -0.11326909817E+04  0.11326909817E+04  0.50400001928E-02 0. -1.
    10030    2    1    2    0    0  0.00000000000E+00  0.00000000000E+00 -0.50153931858E+02  0.22152280316E+04  0.22146602031E+04 0.  0.
        4    1    3    3  502    0  0.38933365526E+03  0.11768396433E+03  0.10051133766E+04  0.10842899627E+04  0.12699999809E+01 0.  1.
       -4    1    3    3    0  502 -0.38933365526E+03 -0.11768396433E+03 -0.10552673084E+04  0.11309380689E+04  0.12699999809E+01 0. -1.
</event>
<event>
 5   0  0.1281432E-04  0.2052549E+04  0.7818609E-02  0.8582439E-01
        2   -1    0    0  501    0  0.00000000000E+00  0.00000000000E+00  0.21727230365E+04  0.21727230365E+04  0.25500000920E-02 0.  1.
       -2   -1    0    0    0  501  0.00000000000E+00  0.00000000000E+00 -0.48475564946E+03  0.48475564947E+03  0.25500000920E-02 0. -1.
    10030    2    1    2    0    0  0.00000000000E+00  0.00000000000E+00  0.16879673870E+04  0.26574786859E+04  0.20525494066E+04 0.  0.
        4    1    3    3  502    0  0.86456975096E+03 -0.18745360375E+03  0.15175104731E+04  0.17565475674E+04  0.12699999809E+01 0.  1.
       -4    1    3    3    0  502 -0.86456975096E+03  0.18745360375E+03  0.17045691389E+03  0.90093111847E+03  0.12699999809E+01 0. -1.
</event>
<event>
 5   0  0.5924654E-05  0.2352013E+04  0.7818609E-02  0.8457691E-01
        1   -1    0    0  501    0  0.00000000000E+00  0.00000000000E+00  0.22350403234E+04  0.22350403234E+04  0.50400001928E-02 0. -1.
       -1   -1    0    0    0  501  0.00000000000E+00  0.00000000000E+00 -0.61877677412E+03  0.61877677414E+03  0.50400001928E-02 0.  1.
    10030    2    1    2    0    0  0.00000000000E+00  0.00000000000E+00  0.16162635492E+04  0.28538170975E+04  0.23520127902E+04 0.  0.
        5    1    3    3  502    0 -0.50981335182E+03  0.43202765002E+03 -0.36600801072E+03  0.76193273849E+03  0.46999998093E+01 0.  1.
       -5    1    3    3    0  502  0.50981335182E+03 -0.43202765002E+03  0.19822715600E+04  0.20918843590E+04  0.46999998093E+01 0. -1.
</event>
<event>
 5   0  0.1270613E-04  0.2280063E+04  0.7818609E-02  0.8485824E-01
        2   -1    0    0  501    0  0.00000000000E+00  0.00000000000E+00  0.16499995091E+04  0.16499995091E+04  0.25500000920E-02 0.  1.
       -2   -1    0    0    0  501  0.00000000000E+00  0.00000000000E+00 -0.78767982057E+03  0.78767982057E+03  0.25500000920E-02 0. -1.
    10030    2    1    2    0    0  0.00000000000E+00  0.00000000000E+00  0.86231968854E+03  0.24376793297E+04  0.22800625582E+04 0.  0.
        2    1    3    3  502    0  0.10780620290E+04  0.36932117317E+03  0.46589335164E+03  0.12311265095E+04  0.25500000920E-02 0.  1.
       -2    1    3    3    0  502 -0.10780620290E+04 -0.36932117317E+03  0.39642633690E+03  0.12065528202E+04  0.25500000920E-02 0. -1.
</event>
<event>
 5   0  0.1257524E-04  0.2274910E+04  0.7818609E-02  0.8487880E-01
        2   -1    0    0  501    0  0.00000000000E+00  0.00000000000E+00  0.14669807230E+04  0.14669807230E+04  0.25500000920E-02 0.  1.
       -2   -1    0    0    0  501  0.00000000000E+00  0.00000000000E+00 -0.88195031747E+03  0.88195031747E+03  0.25500000920E-02 0. -1.
    10030    2    1    2    0    0  0.00000000000E+00  0.00000000000E+00  0.58503040553E+03  0.23489310405E+04  0.22749102087E+04 0.  0.
        3    1    3    3  502    0 -0.46016660245E+03  0.94579860126E+03  0.73963608160E+03  0.12858265200E+04  0.10100000352E+00 0.  1.
       -3    1    3    3    0  502  0.46016660245E+03 -0.94579860126E+03 -0.15460567607E+03  0.10631045205E+04  0.10100000352E+00 0. -1.
</event>
<event>
 5   0  0.5843670E-05  0.2307656E+04  0.7818609E-02  0.8474909E-01
        1   -1    0    0  501    0  0.00000000000E+00  0.00000000000E+00  0.17257005877E+04  0.17257005877E+04  0.50400001928E-02 0.  1.
       -1   -1    0    0    0  501  0.00000000000E+00  0.00000000000E+00 -0.77146573369E+03  0.77146573371E+03  0.50400001928E-02 0. -1.
    10030    2    1    2    0    0  0.00000000000E+00  0.00000000000E+00  0.95423485401E+03  0.24971663214E+04  0.23076558409E+04 0.  0.
        2    1    3    3  502    0  0.32847021658E+03  0.31657856296E+03  0.16239652354E+04  0.16868247555E+04  0.25500000920E-02 0.  1.
       -2    1    3    3    0  502 -0.32847021658E+03 -0.31657856296E+03 -0.66973038143E+03  0.81034156596E+03  0.25500000920E-02 0. -1.
</event>
<event>
 5   0  0.5924654E-05  0.2314911E+04  0.7818609E-02  0.8472065E-01
        1   -1    0    0  501    0  0.00000000000E+00  0.00000000000E+00  0.14285031978E+04  0.14285031979E+04  0.50400001928E-02 0. -1.
       -1   -1    0    0    0  501  0.00000000000E+00  0.00000000000E+00 -0.93783699092E+03  0.93783699094E+03  0.50400001928E-02 0.  1.
    10030    2    1    2    0    0  0.00000000000E+00  0.00000000000E+00  0.49066620692E+03  0.23663401888E+04  0.23149109189E+04 0.  0.
        5    1    3    3  502    0 -0.97197667608E+03 -0.43313285902E+03  0.71079344301E+03  0.12796843912E+04  0.46999998093E+01 0.  1.
       -5    1    3    3    0  502  0.97197667608E+03  0.43313285902E+03 -0.22012723609E+03  0.10866557976E+04  0.46999998093E+01 0. -1.
</event>
<event>
 5   0  0.1257524E-04  0.2266837E+04  0.7818609E-02  0.8491113E-01
        2   -1    0    0  501    0  0.00000000000E+00  0.00000000000E+00  0.16629567456E+04  0.16629567456E+04  0.25500000920E-02 0.  1.
       -2   -1    0    0    0  501  0.00000000000E+00  0.00000000000E+00 -0.77250193731E+03  0.77250193731E+03  0.25500000920E-02 0. -1.
    10030    2    1    2    0    0  0.00000000000E+00  0.00000000000E+00  0.89045480825E+03  0.24354586829E+04  0.22668368337E+04 0.  0.
        3    1    3    3  502    0 -0.64710774317E+03 -0.14960596133E+03 -0.54151736074E+03  0.85695474625E+03  0.10100000352E+00 0. -1.
       -3    1    3    3    0  502  0.64710774317E+03  0.14960596133E+03  0.14319721690E+04  0.15785039366E+04  0.10100000352E+00 0.  1.
</event>
<event>
 5   0  0.1257524E-04  0.2211889E+04  0.7818609E-02  0.8513496E-01
       -2   -1    0    0    0  501  0.00000000000E+00  0.00000000000E+00  0.12092806910E+04  0.12092806910E+04  0.25500000920E-02 0. -1.
        2   -1    0    0  501    0  0.00000000000E+00  0.00000000000E+00 -0.10114386050E+04  0.10114386050E+04  0.25500000920E-02 0.  1.
    10030    2    1    2    0    0  0.00000000000E+00  0.00000000000E+00  0.19784208597E+03  0.22207192959E+04  0.22118889439E+04 0.  0.
        3    1    3    3  502    0  0.94238631937E+03 -0.44956858787E+03  0.46494371951E+03  0.11429683122E+04  0.10100000352E+00 0. -1.
       -3    1    3    3    0  502 -0.94238631937E+03  0.44956858787E+03 -0.26710163354E+03  0.10777509838E+04  0.10100000352E+00 0.  1.
</event>
<event>
 5   0  0.1270613E-04  0.2291293E+04  0.7818609E-02  0.8481362E-01
        2   -1    0    0  501    0  0.00000000000E+00  0.00000000000E+00  0.16806928194E+04  0.16806928194E+04  0.25500000920E-02 0.  1.
       -2   -1    0    0    0  501  0.00000000000E+00  0.00000000000E+00 -0.78093178379E+03  0.78093178380E+03  0.25500000920E-02 0. -1.
    10030    2    1    2    0    0  0.00000000000E+00  0.00000000000E+00  0.89976103564E+03  0.24616246032E+04  0.22912934701E+04 0.  0.
        2    1    3    3  502    0 -0.85120122514E+03  0.23136563711E+03  0.12352747041E+04  0.15178857593E+04  0.25500000920E-02 0.  1.
       -2    1    3    3    0  502  0.85120122514E+03 -0.23136563711E+03 -0.33551366850E+03  0.94373884389E+03  0.25500000920E-02 0. -1.
</event>
<event>
 5   0  0.5642466E-05  0.2252327E+04  0.7818609E-02  0.8496959E-01
       -1   -1    0    0    0  501  0.00000000000E+00  0.00000000000E+00  0.70106753507E+03  0.70106753509E+03  0.50400001928E-02 0.  1.
        1   -1    0    0  501    0  0.00000000000E+00  0.00000000000E+00 -0.18090182144E+04  0.18090182144E+04  0.50400001928E-02 0. -1.
    10030    2    1    2    0    0  0.00000000000E+00  0.00000000000E+00 -0.11079506793E+04  0.25100857494E+04  0.22523267440E+04 0.  0.
        1    1    3    3  502    0 -0.22982162899E+03  0.51161484169E+03  0.53434723998E+03  0.77465779560E+03  0.50400001928E-02 0.  1.
       -1    1    3    3    0  502  0.22982162899E+03 -0.51161484169E+03 -0.16422979193E+04  0.17354279538E+04  0.50400001928E-02 0. -1.
</event>
<event>
 5   0  0.1281432E-04  0.2165891E+04  0.7818609E-02  0.8532760E-01
       -2   -1    0    0    0  501  0.00000000000E+00  0.00000000000E+00  0.60844288897E+03  0.60844288898E+03  0.25500000920E-02 0. -1.
        2   -1    0    0  501    0  0.00000000000E+00  0.00000000000E+00 -0.19274963982E+04  0.19274963982E+04  0.25500000920E-02 0.  1.
    10030    2    1    2    0    0  0.00000000000E+00  0.00000000000E+00 -0.13190535093E+04  0.25359392872E+04  0.21658914811E+04 0.  0.
        4    1    3    3  502    0  0.10334487317E+04 -0.27671142796E+03 -0.46296169845E+03  0.11657275164E+04  0.12699999809E+01 0. -1.
       -4    1    3    3    0  502 -0.10334487317E+04  0.27671142796E+03 -0.85609181080E+03  0.13702117708E+04  0.12699999809E+01 0.  1.
</event>
<event>
 5   0  0.1257524E-04  0.2323753E+04  0.7818609E-02  0.8468614E-01
       -2   -1    0    0    0  501  0.00000000000E+00  0.00000000000E+00  0.12676846580E+04  0.12676846580E+04  0.25500000920E-02 0. -1.
        2   -1    0    0  501    0  0.00000000000E+00  0.00000000000E+00 -0.10648998559E+04  0.10648998559E+04  0.25500000920E-02 0.  1.
    10030    2    1    2    0    0  0.00000000000E+00  0.00000000000E+00  0.20278480206E+03  0.23325845138E+04  0.23237531793E+04 0.  0.
        3    1    3    3  502    0  0.74140870080E+03 -0.99501849477E+02 -0.79101371438E+03  0.10887103316E+04  0.10100000352E+00 0.  1.
       -3    1    3    3    0  502 -0.74140870080E+03  0.99501849477E+02  0.99379851645E+03  0.12438741822E+04  0.10100000352E+00 0. -1.
</event>
<event>
 5   0  0.5843670E-05  0.2261680E+04  0.7818609E-02  0.8493185E-01
        1   -1    0    0  501    0  0.00000000000E+00  0.00000000000E+00  0.15232030924E+04  0.15232030924E+04  0.50400001928E-02 0.  1.
       -1   -1    0    0    0  501  0.00000000000E+00  0.00000000000E+00 -0.83954589306E+03  0.83954589308E+03  0.50400001928E-02 0. -1.
    10030    2    1    2    0    0  0.00000000000E+00  0.00000000000E+00  0.68365719933E+03  0.23627489855E+04  0.22616798187E+04 0.  0.
        2    1    3    3  502    0  0.89838029179E+03  0.24583150921E+03  0.10117973249E+04  0.13752287469E+04  0.25500000920E-02 0.  1.
       -2    1    3    3    0  502 -0.89838029179E+03 -0.24583150921E+03 -0.32814012556E+03  0.98752023859E+03  0.25500000920E-02 0. -1.
</event>
<event>
 5   0  0.5642466E-05  0.2301471E+04  0.7818609E-02  0.8477341E-01
        1   -1    0    0  501    0  0.00000000000E+00  0.00000000000E+00  0.91864125196E+03  0.91864125198E+03  0.50400001928E-02 0. -1.
       -1   -1    0    0    0  501  0.00000000000E+00  0.00000000000E+00 -0.14414681154E+04  0.14414681154E+04  0.50400001928E-02 0.  1.
    10030    2    1    2    0    0  0.00000000000E+00  0.00000000000E+00 -0.52282686342E+03  0.23601093674E+04  0.23014708985E+04 0.  0.
        1    1    3    3  502    0 -0.68254625222E+03 -0.78057540062E+03  0.25032482028E+03  0.10666910791E+04  0.50400001928E-02 0. -1.
       -1    1    3    3    0  502  0.68254625222E+03  0.78057540062E+03 -0.77315168370E+03  0.12934182883E+04  0.50400001928E-02 0.  1.
</event>
<event>
 5   0  0.1237296E-04  0.2211781E+04  0.7818609E-02  0.8513541E-01
       -2   -1    0    0    0  501  0.00000000000E+00  0.00000000000E+00  0.17153103503E+04  0.17153103503E+04  0.25500000920E-02 0.  1.
        2   -1    0    0  501    0  0.00000000000E+00  0.00000000000E+00 -0.71298679998E+03  0.71298679999E+03  0.25500000920E-02 0. -1.
    10030    2    1    2    0    0  0.00000000000E+00  0.00000000000E+00  0.10023235503E+04  0.24282971503E+04  0.22117808550E+04 0.  0.
        1    1    3    3  502    0  0.85062126467E+03 -0.49647797442E+02  0.12751347251E+04  0.15336199030E+04  0.50400001928E-02 0.  1.
       -1    1    3    3    0  502 -0.85062126467E+03  0.49647797442E+02 -0.27281117479E+03  0.89467724729E+03  0.50400001928E-02 0. -1.
</event>
<event>
 5   0  0.5924654E-05  0.2504955E+04  0.7818609E-02  0.8401222E-01
        1   -1    0    0  501    0  0.00000000000E+00  0.00000000000E+00  0.97389065281E+03  0.97389065282E+03  0.50400001928E-02 0.  1.
       -1   -1    0    0    0  501  0.00000000000E+00  0.00000000000E+00 -0.16107559137E+04  0.16107559137E+04  0.50400001928E-02 0. -1.
    10030    2    1    2    0    0  0.00000000000E+00  0.00000000000E+00 -0.63686526091E+03  0.25846465665E+04  0.25049551919E+04 0.  0.
        5    1    3    3  502    0  0.56552630021E+03  0.95061358643E+03 -0.92465431983E+03  0.14416982653E+04  0.46999998093E+01 0. -1.
       -5    1    3    3    0  502 -0.56552630021E+03 -0.95061358643E+03  0.28778905892E+03  0.11429483013E+04  0.46999998093E+01 0.  1.
</event>
<event>
 5   0  0.5632156E-05  0.2307795E+04  0.7818609E-02  0.8474854E-01
        1   -1    0    0  501    0  0.00000000000E+00  0.00000000000E+00  0.19463157847E+04  0.19463157847E+04  0.50400001928E-02 0. -1.
       -1   -1    0    0    0  501  0.00000000000E+00  0.00000000000E+00 -0.68410222261E+03  0.68410222263E+03  0.50400001928E-02 0.  1.
    10030    2    1    2    0    0  0.00000000000E+00  0.00000000000E+00  0.12622135621E+04  0.26304180073E+04  0.23077945786E+04 0.  0.
        4    1    3    3  502    0 -0.10609164295E+04 -0.17247038879E+02  0.11424143388E+03  0.10671896968E+04  0.12699999809E+01 0.  1.
       -4    1    3    3    0  502  0.10609164295E+04  0.17247038879E+02  0.11479721282E+04  0.15632283106E+04  0.12699999809E+01 0. -1.
</event>
<event>
 5   0  0.1257524E-04  0.1648798E+04  0.7818609E-02  0.8791118E-01
       -2   -1    0    0    0  501  0.00000000000E+00  0.00000000000E+00  0.65433681387E+03  0.65433681388E+03  0.25500000920E-02 0.  1.
        2   -1    0    0  501    0  0.00000000000E+00  0.00000000000E+00 -0.10386607490E+04  0.10386607490E+04  0.25500000920E-02 0. -1.
    10030    2    1    2    0    0  0.00000000000E+00  0.00000000000E+00 -0.38432393508E+03  0.16929975628E+04  0.16487983081E+04 0.  0.
        3    1    3    3  502    0 -0.12757588506E+03  0.59145277182E+03  0.38279671834E+03  0.71597857895E+03  0.10100000352E+00 0.  1.
       -3    1    3    3    0  502  0.12757588506E+03 -0.59145277182E+03 -0.76712065343E+03  0.97701898388E+03  0.10100000352E+00 0. -1.
</event>
<event>
 5   0  0.5632156E-05  0.2414433E+04  0.7818609E-02  0.8434120E-01
       -1   -1    0    0    0  501  0.00000000000E+00  0.00000000000E+00  0.58463468299E+03  0.58463468301E+03  0.50400001928E-02 0.  1.
        1   -1    0    0  501    0  0.00000000000E+00  0.00000000000E+00 -0.24927912976E+04  0.24927912976E+04  0.50400001928E-02 0. -1.
    10030    2    1    2    0    0  0.00000000000E+00  0.00000000000E+00 -0.19081566146E+04  0.30774259806E+04  0.24144334740E+04 0.  0.
        4    1    3    3  502    0 -0.14307206242E+03  0.11558772677E+04 -0.13588476974E+04  0.17896900712E+04  0.12699999809E+01 0.  1.
       -4    1    3    3    0  502  0.14307206242E+03 -0.11558772677E+04 -0.54930891719E+03  0.12877359095E+04  0.12699999809E+01 0. -1.
</event>
<event>
 5   0  0.5642466E-05  0.2068194E+04  0.7818609E-02  0.8575385E-01
       -1   -1    0    0    0  501  0.00000000000E+00  0.00000000000E+00  0.11129752072E+04  0.11129752072E+04  0.50400001928E-02 0. -1.
        1   -1    0    0  501    0  0.00000000000E+00  0.00000000000E+00 -0.96080888861E+03  0.96080888863E+03  0.50400001928E-02 0.  1.
    10030    2    1    2    0    0  0.00000000000E+00  0.00000000000E+00  0.15216631862E+03  0.20737840959E+04  0.20681938709E+04 0.  0.
        1    1    3    3  502    0  0.13156474275E+03 -0.92589136699E+03 -0.36643995862E+03  0.10044213998E+04  0.50400001928E-02 0.  1.
       -1    1    3    3    0  502 -0.13156474275E+03  0.92589136699E+03  0.51860627724E+03  0.10693626961E+04  0.50400001928E-02 0. -1.
</event>
<event>
 5   0  0.5843670E-05  0.1864937E+04  0.7818609E-02  0.8672509E-01
       -1   -1    0    0    0  501  0.00000000000E+00  0.00000000000E+00  0.60871107087E+03  0.60871107089E+03  0.50400001928E-02 0.  1.
        1   -1    0    0  501    0  0.00000000000E+00  0.00000000000E+00 -0.14284235987E+04  0.14284235987E+04  0.50400001928E-02 0. -1.
    10030    2    1    2    0    0  0.00000000000E+00  0.00000000000E+00 -0.81971252781E+03  0.20371346696E+04  0.18649367372E+04 0.  0.
        2    1    3    3  502    0 -0.62667864805E+03  0.37956478210E+03 -0.10399180648E+04  0.12720947815E+04  0.25500000920E-02 0. -1.
       -2    1    3    3    0  502  0.62667864805E+03 -0.37956478210E+03  0.22020553699E+03  0.76503988802E+03  0.25500000920E-02 0.  1.
</event>
<event>
 5   0  0.1237296E-04  0.2184038E+04  0.7818609E-02  0.8525101E-01
       -2   -1    0    0    0  501  0.00000000000E+00  0.00000000000E+00  0.15493851261E+04  0.15493851261E+04  0.25500000920E-02 0. -1.
        2   -1    0    0  501    0  0.00000000000E+00  0.00000000000E+00 -0.76966351208E+03  0.76966351208E+03  0.25500000920E-02 0.  1.
    10030    2    1    2    0    0  0.00000000000E+00  0.00000000000E+00  0.77972161400E+03  0.23190486382E+04  0.21840377265E+04 0.  0.
        1    1    3    3  502    0 -0.33498350060E+03  0.10040235808E+04  0.10449481282E+03  0.10635772010E+04  0.50400001928E-02 0.  1.
       -1    1    3    3    0  502  0.33498350060E+03 -0.10040235808E+04  0.67522680118E+03  0.12554714372E+04  0.50400001928E-02 0. -1.
</event>
<event>
 5   0  0.5924654E-05  0.2264693E+04  0.7818609E-02  0.8491974E-01
       -1   -1    0    0    0  501  0.00000000000E+00  0.00000000000E+00  0.11817278814E+04  0.11817278814E+04  0.50400001928E-02 0.  1.
        1   -1    0    0  501    0  0.00000000000E+00  0.00000000000E+00 -0.10850284972E+04  0.10850284972E+04  0.50400001928E-02 0. -1.
    10030    2    1    2    0    0  0.00000000000E+00  0.00000000000E+00  0.96699384230E+02  0.22667563786E+04  0.22646928510E+04 0.  0.
        5    1    3    3  502    0  0.60558887747E+03  0.30411329333E+03 -0.85965028681E+03  0.10946430876E+04  0.46999998093E+01 0. -1.
       -5    1    3    3    0  502 -0.60558887747E+03 -0.30411329333E+03  0.95634967104E+03  0.11721132910E+04  0.46999998093E+01 0.  1.
</event>
<event>
 5   0  0.1257524E-04  0.2291247E+04  0.7818609E-02  0.8481380E-01
       -2   -1    0    0    0  501  0.00000000000E+00  0.00000000000E+00  0.64855686486E+03  0.64855686487E+03  0.25500000920E-02 0.  1.
        2   -1    0    0  501    0  0.00000000000E+00  0.00000000000E+00 -0.20236511480E+04  0.20236511480E+04  0.25500000920E-02 0. -1.
    10030    2    1    2    0    0  0.00000000000E+00  0.00000000000E+00 -0.13750942831E+04  0.26722080128E+04  0.22912466861E+04 0.  0.
        3    1    3    3  502    0  0.22896118641E+03 -0.67847754625E+03 -0.17304920551E+04  0.18727941074E+04  0.10100000352E+00 0. -1.
       -3    1    3    3    0  502 -0.22896118641E+03  0.67847754625E+03  0.35539777202E+03  0.79941390544E+03  0.10100000352E+00 0.  1.
</event>
<event>
 5   0  0.1270613E-04  0.2196355E+04  0.7818609E-02  0.8519947E-01
       -2   -1    0    0    0  501  0.00000000000E+00  0.00000000000E+00  0.55433882333E+03  0.55433882333E+03  0.25500000920E-02 0.  1.
        2   -1    0    0  501    0  0.00000000000E+00  0.00000000000E+00 -0.21755542986E+04  0.21755542986E+04  0.25500000920E-02 0. -1.
    10030    2    1    2    0    0  0.00000000000E+00  0.00000000000E+00 -0.16212154752E+04  0.27298931219E+04  0.21963553537E+04 0.  0.
        2    1    3    3  502    0  0.21558128084E+03 -0.84099200269E+03  0.25251187532E+02  0.86855078131E+03  0.25500000920E-02 0.  1.
       -2    1    3    3    0  502 -0.21558128084E+03  0.84099200269E+03 -0.16464666628E+04  0.18613423406E+04  0.25500000920E-02 0. -1.
</event>
<event>
 5   0  0.1281432E-04  0.2295015E+04  0.7818609E-02  0.8479889E-01
       -2   -1    0    0    0  501  0.00000000000E+00  0.00000000000E+00  0.14362165725E+04  0.14362165725E+04  0.25500000920E-02 0.  1.
        2   -1    0    0  501    0  0.00000000000E+00  0.00000000000E+00 -0.91683504147E+03  0.91683504148E+03  0.25500000920E-02 0. -1.
    10030    2    1    2    0    0  0.00000000000E+00  0.00000000000E+00  0.51938153105E+03  0.23530516140E+04  0.22950151902E+04 0.  0.
        4    1    3    3  502    0  0.97748588626E+03  0.46253725365E+03 -0.13388190784E+03  0.10896537739E+04  0.12699999809E+01 0. -1.
       -4    1    3    3    0  502 -0.97748588626E+03 -0.46253725365E+03  0.65326343889E+03  0.12633978401E+04  0.12699999809E+01 0.  1.
</event>
<event>
 5   0  0.1257524E-04  0.1647355E+04  0.7818609E-02  0.8791973E-01
        2   -1    0    0  501    0  0.00000000000E+00  0.00000000000E+00  0.14590270191E+04  0.14590270191E+04  0.25500000920E-02 0.  1.
       -2   -1    0    0    0  501  0.00000000000E+00  0.00000000000E+00 -0.46499780606E+03  0.46499780606E+03  0.25500000920E-02 0. -1.
    10030    2    1    2    0    0  0.00000000000E+00  0.00000000000E+00  0.99402921304E+03  0.19240248252E+04  0.16473546830E+04 0.  0.
        3    1    3    3  502    0  0.68269603671E+03  0.44649855787E+03  0.36379932139E+03  0.89318799654E+03  0.10100000352E+00 0. -1.
       -3    1    3    3    0  502 -0.68269603671E+03 -0.44649855787E+03  0.63022989165E+03  0.10308368286E+04  0.10100000352E+00 0.  1.
</event>
<event>
 5   0  0.5642466E-05  0.2169235E+04  0.7818609E-02  0.8531344E-01
        1   -1    0    0  501    0  0.00000000000E+00  0.00000000000E+00  0.10935655319E+04  0.10935655319E+04  0.50400001928E-02 0.  1.
       -1   -1    0    0    0  501  0.00000000000E+00  0.00000000000E+00 -0.10757422371E+04  0.10757422371E+04  0.50400001928E-02 0. -1.
    10030    2    1    2    0    0  0.00000000000E+00  0.00000000000E+00  0.17823294727E+02  0.21693077690E+04  0.21692345486E+04 0.  0.
        1    1    3    3  502    0 -0.89892569951E+03  0.58567912743E+02 -0.59517580654E+03  0.10796906290E+04  0.50400001928E-02 0. -1.
       -1    1    3    3    0  502  0.89892569951E+03 -0.58567912743E+02  0.61299910126E+03  0.10896171400E+04  0.50400001928E-02 0.  1.
</event>
<event>
 5   0  0.5924654E-05  0.2280825E+04  0.7818609E-02  0.8485520E-01
        1   -1    0    0  501    0  0.00000000000E+00  0.00000000000E+00  0.35237203639E+04  0.35237203639E+04  0.50400001928E-02 0. -1.
       -1   -1    0    0    0  501  0.00000000000E+00  0.00000000000E+00 -0.36908184653E+03  0.36908184656E+03  0.50400001928E-02 0.  1.
    10030    2    1    2    0    0  0.00000000000E+00  0.00000000000E+00  0.31546385174E+04  0.38928022105E+04  0.22808254810E+04 0.  0.
        5    1    3    3  502    0  0.56649326353E+03 -0.93958972268E+03  0.10463695804E+04  0.15161315422E+04  0.46999998093E+01 0.  1.
       -5    1    3    3    0  502 -0.56649326353E+03  0.93958972268E+03  0.21082689370E+04  0.23766706683E+04  0.46999998093E+01 0. -1.
</event>
<event>
 5   0  0.4489500E-05  0.1742991E+04  0.7818609E-02  0.8737218E-01
       -3   -1    0    0    0  501  0.00000000000E+00  0.00000000000E+00  0.13431849151E+04  0.13431849189E+04  0.10100000352E+00 0.  1.
        3   -1    0    0  501    0  0.00000000000E+00  0.00000000000E+00 -0.56545045873E+03  0.56545046775E+03  0.10100000352E+00 0. -1.
    10030    2    1    2    0    0  0.00000000000E+00  0.00000000000E+00  0.77773445634E+03  0.19086353866E+04  0.17429911516E+04 0.  0.
        1    1    3    3  502    0  0.85221340994E+03 -0.63178414918E+02  0.20160246952E+03  0.87801068554E+03  0.50400001928E-02 0. -1.
       -1    1    3    3    0  502 -0.85221340994E+03  0.63178414918E+02  0.57613198682E+03  0.10306247011E+04  0.50400001928E-02 0.  1.
</event>
<event>
 5   0  0.1281432E-04  0.2111944E+04  0.7818609E-02  0.8556000E-01
       -2   -1    0    0    0  501  0.00000000000E+00  0.00000000000E+00  0.56948435411E+03  0.56948435411E+03  0.25500000920E-02 0. -1.
        2   -1    0    0  501    0  0.00000000000E+00  0.00000000000E+00 -0.19580458471E+04  0.19580458471E+04  0.25500000920E-02 0.  1.
    10030    2    1    2    0    0  0.00000000000E+00  0.00000000000E+00 -0.13885614930E+04  0.25275302012E+04  0.21119436304E+04 0.  0.
        4    1    3    3  502    0 -0.50489438607E+03  0.67007488719E+03 -0.14616730429E+04  0.16853511186E+04  0.12699999809E+01 0.  1.
       -4    1    3    3    0  502  0.50489438607E+03 -0.67007488719E+03  0.73111549983E+02  0.84217908260E+03  0.12699999809E+01 0. -1.
</event>
<event>
 5   0  0.1270613E-04  0.2278093E+04  0.7818609E-02  0.8486609E-01
        2   -1    0    0  501    0  0.00000000000E+00  0.00000000000E+00  0.23570424492E+04  0.23570424492E+04  0.25500000920E-02 0. -1.
       -2   -1    0    0    0  501  0.00000000000E+00  0.00000000000E+00 -0.55044722207E+03  0.55044722207E+03  0.25500000920E-02 0.  1.
    10030    2    1    2    0    0  0.00000000000E+00  0.00000000000E+00  0.18065952272E+04  0.29074896713E+04  0.22780934735E+04 0.  0.
        2    1    3    3  502    0 -0.19561049673E+03 -0.64017267722E+03  0.20795165925E+04  0.21845992268E+04  0.25500000920E-02 0. -1.
       -2    1    3    3    0  502  0.19561049673E+03  0.64017267722E+03 -0.27292136536E+03  0.72289044452E+03  0.25500000920E-02 0.  1.
</event>
<event>
 5   0  0.5843670E-05  0.2372575E+04  0.7818609E-02  0.8449843E-01
        1   -1    0    0  501    0  0.00000000000E+00  0.00000000000E+00  0.23017510269E+04  0.23017510269E+04  0.50400001928E-02 0. -1.
       -1   -1    0    0    0  501  0.00000000000E+00  0.00000000000E+00 -0.61139471384E+03  0.61139471386E+03  0.50400001928E-02 0.  1.
    10030    2    1    2    0    0  0.00000000000E+00  0.00000000000E+00  0.16903563131E+04  0.29131457408E+04  0.23725753185E+04 0.  0.
        2    1    3    3  502    0  0.46767158346E+03  0.21967515590E+03 -0.46597259512E+03  0.69577607281E+03  0.25500000920E-02 0.  1.
       -2    1    3    3    0  502 -0.46767158346E+03 -0.21967515590E+03  0.21563289082E+04  0.22173696680E+04  0.25500000920E-02 0. -1.
</event>
<event>
 5   0  0.4489500E-05  0.2319289E+04  0.7818609E-02  0.8470354E-01
       -4   -1    0    0    0  501  0.00000000000E+00  0.00000000000E+00  0.15711569084E+04  0.15711574217E+04  0.12699999809E+01 0. -1.
        4   -1    0    0  501    0  0.00000000000E+00  0.00000000000E+00 -0.85591314250E+03  0.85591408471E+03  0.12699999809E+01 0.  1.
    10030    2    1    2    0    0  0.00000000000E+00  0.00000000000E+00  0.71524376591E+03  0.24270715064E+04  0.23192892128E+04 0.  0.
        2    1    3    3  502    0  0.48795306503E+01  0.32713942098E+03  0.15218575594E+04  0.15566291921E+04  0.25500000920E-02 0. -1.
       -2    1    3    3    0  502 -0.48795306503E+01 -0.32713942098E+03 -0.80661379352E+03  0.87044231428E+03  0.25500000920E-02 0.  1.
</event>
<event>
 5   0  0.1237296E-04  0.2252684E+04  0.7818609E-02  0.8496814E-01
       -2   -1    0    0    0  501  0.00000000000E+00  0.00000000000E+00  0.13457705386E+04  0.13457705386E+04  0.25500000920E-02 0. -1.
        2   -1    0    0  501    0  0.00000000000E+00  0.00000000000E+00 -0.94269160463E+03  0.94269160463E+03  0.25500000920E-02 0.  1.
    10030    2    1    2    0    0  0.00000000000E+00  0.00000000000E+00  0.40307893401E+03  0.22884621433E+04  0.22526842553E+04 0.  0.
        1    1    3    3  502    0 -0.42027300025E+03  0.10253471656E+04 -0.33576884040E+01  0.11081414526E+04  0.50400001928E-02 0.  1.
       -1    1    3    3    0  502  0.42027300025E+03 -0.10253471656E+04  0.40643662242E+03  0.11803206907E+04  0.50400001928E-02 0. -1.
</event>
<event>
 5   0  0.5632156E-05  0.2331916E+04  0.7818609E-02  0.8465443E-01
       -1   -1    0    0    0  501  0.00000000000E+00  0.00000000000E+00  0.55830229627E+03  0.55830229629E+03  0.50400001928E-02 0. -1.
        1   -1    0    0  501    0  0.00000000000E+00  0.00000000000E+00 -0.24349846192E+04  0.24349846192E+04  0.50400001928E-02 0.  1.
    10030    2    1    2    0    0  0.00000000000E+00  0.00000000000E+00 -0.18766823229E+04  0.29932869154E+04  0.23319155253E+04 0.  0.
        4    1    3    3  502    0 -0.91068484688E+03 -0.24503835265E+02 -0.18723952533E+04  0.20822614931E+04  0.12699999809E+01 0.  1.
       -4    1    3    3    0  502  0.91068484688E+03  0.24503835265E+02 -0.42870696133E+01  0.91102542234E+03  0.12699999809E+01 0. -1.
</event>
<event>
 5   0  0.5924654E-05  0.2317991E+04  0.7818609E-02  0.8470861E-01
        1   -1    0    0  501    0  0.00000000000E+00  0.00000000000E+00  0.24025819957E+04  0.24025819957E+04  0.50400001928E-02 0. -1.
       -1   -1    0    0    0  501  0.00000000000E+00  0.00000000000E+00 -0.55909478282E+03  0.55909478284E+03  0.50400001928E-02 0.  1.
    10030    2    1    2    0    0  0.00000000000E+00  0.00000000000E+00  0.18434872128E+04  0.29616767785E+04  0.23179914229E+04 0.  0.
        5    1    3    3  502    0  0.74128882982E+03  0.39441671890E+03 -0.98951019972E+02  0.84550994774E+03  0.46999998093E+01 0.  1.
       -5    1    3    3    0  502 -0.74128882982E+03 -0.39441671890E+03  0.19424382328E+04  0.21161668308E+04  0.46999998093E+01 0. -1.
</event>
<event>
 5   0  0.5642466E-05  0.2297196E+04  0.7818609E-02  0.8479027E-01
       -1   -1    0    0    0  501  0.00000000000E+00  0.00000000000E+00  0.88344930074E+03  0.88344930075E+03  0.50400001928E-02 0. -1.
        1   -1    0    0  501    0  0.00000000000E+00  0.00000000000E+00 -0.14933260400E+04  0.14933260401E+04  0.50400001928E-02 0.  1.
    10030    2    1    2    0    0  0.00000000000E+00  0.00000000000E+00 -0.60987673931E+03  0.23767753408E+04  0.22971964181E+04 0.  0.
        1    1    3    3  502    0  0.62183951404E+03  0.79235845937E+03  0.26623780008E+03  0.10418247816E+04  0.50400001928E-02 0. -1.
       -1    1    3    3    0  502 -0.62183951404E+03 -0.79235845937E+03 -0.87611453938E+03  0.13349505592E+04  0.50400001928E-02 0.  1.
</event>
<event>
 5   0  0.5663790E-05  0.2330312E+04  0.7818609E-02  0.8466064E-01
        1   -1    0    0  501    0  0.00000000000E+00  0.00000000000E+00  0.11329386289E+04  0.11329386289E+04  0.50400001928E-02 0. -1.
       -1   -1    0    0    0  501  0.00000000000E+00  0.00000000000E+00 -0.11982899997E+04  0.11982899997E+04  0.50400001928E-02 0.  1.
    10030    2    1    2    0    0  0.00000000000E+00  0.00000000000E+00 -0.65351370830E+02  0.23312286286E+04  0.23303124506E+04 0.  0.
        3    1    3    3  502    0 -0.11701841960E+02  0.52983149865E+02  0.11316740287E+04  0.11329740795E+04  0.10100000352E+00 0. -1.
       -3    1    3    3    0  502  0.11701841960E+02 -0.52983149865E+02 -0.11970253995E+04  0.11982545492E+04  0.10100000352E+00 0.  1.
</event>
<event>
 5   0  0.1237296E-04  0.1837671E+04  0.7818609E-02  0.8686519E-01
        2   -1    0    0  501    0  0.00000000000E+00  0.00000000000E+00  0.13535803401E+04  0.13535803401E+04  0.25500000920E-02 0.  1.
       -2   -1    0    0    0  501  0.00000000000E+00  0.00000000000E+00 -0.62372255545E+03  0.62372255546E+03  0.25500000920E-02 0. -1.
    10030    2    1    2    0    0  0.00000000000E+00  0.00000000000E+00  0.72985778464E+03  0.19773028956E+04  0.18376709050E+04 0.  0.
        1    1    3    3  502    0  0.46949929268E+03 -0.78474157386E+03  0.26863191764E+03  0.95310651596E+03  0.50400001928E-02 0. -1.
       -1    1    3    3    0  502 -0.46949929268E+03  0.78474157386E+03  0.46122586701E+03  0.10241963796E+04  0.50400001928E-02 0.  1.
</event>
<event>
 5   0  0.1237296E-04  0.2270161E+04  0.7818609E-02  0.8489780E-01
       -2   -1    0    0    0  501  0.00000000000E+00  0.00000000000E+00  0.54598725056E+03  0.54598725057E+03  0.25500000920E-02 0.  1.
        2   -1    0    0  501    0  0.00000000000E+00  0.00000000000E+00 -0.23597761683E+04  0.23597761683E+04  0.25500000920E-02 0. -1.
    10030    2    1    2    0    0  0.00000000000E+00  0.00000000000E+00 -0.18137889178E+04  0.29057634189E+04  0.22701609653E+04 0.  0.
        1    1    3    3  502    0  0.57387020719E+03 -0.63069424281E+03  0.52071593648E+02  0.85429133995E+03  0.50400001928E-02 0.  1.
       -1    1    3    3    0  502 -0.57387020719E+03  0.63069424281E+03 -0.18658605114E+04  0.20514720790E+04  0.50400001928E-02 0. -1.
</event>
<event>
 5   0  0.4489500E-05  0.2251654E+04  0.7818609E-02  0.8497231E-01
        3   -1    0    0  501    0  0.00000000000E+00  0.00000000000E+00  0.14681577346E+04  0.14681577381E+04  0.10100000352E+00 0. -1.
       -3   -1    0    0    0  501  0.00000000000E+00  0.00000000000E+00 -0.86331793606E+03  0.86331794197E+03  0.10100000352E+00 0.  1.
    10030    2    1    2    0    0  0.00000000000E+00  0.00000000000E+00  0.60483979853E+03  0.23314756800E+04  0.22516544284E+04 0.  0.
        2    1    3    3  502    0  0.71670564010E+03  0.78198227442E+03  0.69305180246E+03  0.12670769720E+04  0.25500000920E-02 0. -1.
       -2    1    3    3    0  502 -0.71670564010E+03 -0.78198227442E+03 -0.88212003926E+02  0.10643987081E+04  0.25500000920E-02 0.  1.
</event>
<event>
 5   0  0.1281432E-04  0.2269351E+04  0.7818609E-02  0.8490105E-01
        2   -1    0    0  501    0  0.00000000000E+00  0.00000000000E+00  0.21729423978E+04  0.21729423978E+04  0.25500000920E-02 0.  1.
       -2   -1    0    0    0  501  0.00000000000E+00  0.00000000000E+00 -0.59250913406E+03  0.59250913407E+03  0.25500000920E-02 0. -1.
    10030    2    1    2    0    0  0.00000000000E+00  0.00000000000E+00  0.15804332637E+04  0.27654515319E+04  0.22693507605E+04 0.  0.
        4    1    3    3  502    0 -0.10748857388E+04  0.16681934925E+03  0.11837322141E+04  0.16076167499E+04  0.12699999809E+01 0. -1.
       -4    1    3    3    0  502  0.10748857388E+04 -0.16681934925E+03  0.39670104962E+03  0.11578347820E+04  0.12699999809E+01 0.  1.
</event>
<event>
 5   0  0.5843670E-05  0.2335574E+04  0.7818609E-02  0.8464026E-01
       -1   -1    0    0    0  501  0.00000000000E+00  0.00000000000E+00  0.13265227213E+04  0.13265227213E+04  0.50400001928E-02 0. -1.
        1   -1    0    0  501    0  0.00000000000E+00  0.00000000000E+00 -0.10280457787E+04  0.10280457787E+04  0.50400001928E-02 0.  1.
    10030    2    1    2    0    0  0.00000000000E+00  0.00000000000E+00  0.29847694262E+03  0.23545685001E+04  0.23355736632E+04 0.  0.
        2    1    3    3  502    0  0.72746682742E+03  0.41637097922E+03 -0.67048778776E+03  0.10733716276E+04  0.25500000920E-02 0.  1.
       -2    1    3    3    0  502 -0.72746682742E+03 -0.41637097922E+03  0.96896473038E+03  0.12811968725E+04  0.25500000920E-02 0. -1.
</event>
<event>
 5   0  0.1234988E-04  0.2329513E+04  0.7818609E-02  0.8466375E-01
       -2   -1    0    0    0  501  0.00000000000E+00  0.00000000000E+00  0.80566465251E+03  0.80566465251E+03  0.25500000920E-02 0.  1.
        2   -1    0    0  501    0  0.00000000000E+00  0.00000000000E+00 -0.16838987482E+04  0.16838987482E+04  0.25500000920E-02 0. -1.
    10030    2    1    2    0    0  0.00000000000E+00  0.00000000000E+00 -0.87823409569E+03  0.24895634007E+04  0.23295129962E+04 0.  0.
        5    1    3    3  502    0 -0.13240370169E+03 -0.11041431561E+04 -0.68948616333E+02  0.11141987485E+04  0.46999998093E+01 0. -1.
       -5    1    3    3    0  502  0.13240370169E+03  0.11041431561E+04 -0.80928547936E+03  0.13753646522E+04  0.46999998093E+01 0.  1.
</event>
<event>
 5   0  0.1234988E-04  0.2305271E+04  0.7818609E-02  0.8475846E-01
       -2   -1    0    0    0  501  0.00000000000E+00  0.00000000000E+00  0.12073778471E+04  0.12073778471E+04  0.25500000920E-02 0.  1.
        2   -1    0    0  501    0  0.00000000000E+00  0.00000000000E+00 -0.11003752399E+04  0.11003752399E+04  0.25500000920E-02 0. -1.
    10030    2    1    2    0    0  0.00000000000E+00  0.00000000000E+00  0.10700260727E+03  0.23077530870E+04  0.23052710801E+04 0.  0.
        5    1    3    3  502    0  0.85150545547E+03 -0.77532877359E+03  0.49686945807E+01  0.11516262526E+04  0.46999998093E+01 0.  1.
       -5    1    3    3    0  502 -0.85150545547E+03  0.77532877359E+03  0.10203391269E+03  0.11561268344E+04  0.46999998093E+01 0. -1.
</event>
<event>
 5   0  0.1257524E-04  0.1800469E+04  0.7818609E-02  0.8706050E-01
        2   -1    0    0  501    0  0.00000000000E+00  0.00000000000E+00  0.79785200064E+03  0.79785200064E+03  0.25500000920E-02 0.  1.
       -2   -1    0    0    0  501  0.00000000000E+00  0.00000000000E+00 -0.10157550060E+04  0.10157550060E+04  0.25500000920E-02 0. -1.
    10030    2    1    2    0    0  0.00000000000E+00  0.00000000000E+00 -0.21790300537E+03  0.18136070066E+04  0.18004690097E+04 0.  0.
        3    1    3    3  502    0  0.51840404073E+03  0.83147830188E+02  0.62766147178E+03  0.81830021659E+03  0.10100000352E+00 0.  1.
       -3    1    3    3    0  502 -0.51840404073E+03 -0.83147830188E+02 -0.84556447715E+03  0.99530679006E+03  0.10100000352E+00 0. -1.
</event>
<event>
 5   0  0.1234988E-04  0.2318693E+04  0.7818609E-02  0.8470587E-01
        2   -1    0    0  501    0  0.00000000000E+00  0.00000000000E+00  0.20009188802E+04  0.20009188802E+04  0.25500000920E-02 0.  1.
       -2   -1    0    0    0  501  0.00000000000E+00  0.00000000000E+00 -0.67173329723E+03  0.67173329724E+03  0.25500000920E-02 0. -1.
    10030    2    1    2    0    0  0.00000000000E+00  0.00000000000E+00  0.13291855830E+04  0.26726521774E+04  0.23186925945E+04 0.  0.
        5    1    3    3  502    0 -0.82058352653E+03  0.41688086437E+02  0.16073534724E+04  0.18051876622E+04  0.46999998093E+01 0.  1.
       -5    1    3    3    0  502  0.82058352653E+03 -0.41688086437E+02 -0.27816788939E+03  0.86746451527E+03  0.46999998093E+01 0. -1.
</event>
<event>
 5   0  0.1270613E-04  0.2247555E+04  0.7818609E-02  0.8498891E-01
        2   -1    0    0  501    0  0.00000000000E+00  0.00000000000E+00  0.14112046940E+04  0.14112046940E+04  0.25500000920E-02 0. -1.
       -2   -1    0    0    0  501  0.00000000000E+00  0.00000000000E+00 -0.89489241794E+03  0.89489241794E+03  0.25500000920E-02 0.  1.
    10030    2    1    2    0    0  0.00000000000E+00  0.00000000000E+00  0.51631227607E+03  0.23060971119E+04  0.22475554550E+04 0.  0.
        2    1    3    3  502    0  0.38487510270E+03 -0.73402815884E+03  0.10368372526E+04  0.13273875361E+04  0.25500000920E-02 0. -1.
       -2    1    3    3    0  502 -0.38487510270E+03  0.73402815884E+03 -0.52052497652E+03  0.97870957584E+03  0.25500000920E-02 0.  1.
</event>
<event>
 5   0  0.1234988E-04  0.1476780E+04  0.7818609E-02  0.8900043E-01
       -2   -1    0    0    0  501  0.00000000000E+00  0.00000000000E+00  0.49335224778E+03  0.49335224779E+03  0.25500000920E-02 0. -1.
        2   -1    0    0  501    0  0.00000000000E+00  0.00000000000E+00 -0.11051322764E+04  0.11051322764E+04  0.25500000920E-02 0.  1.
    10030    2    1    2    0    0  0.00000000000E+00  0.00000000000E+00 -0.61178002859E+03  0.15984845242E+04  0.14767795945E+04 0.  0.
        5    1    3    3  502    0  0.23425439971E+03  0.62151619782E+03  0.43244436742E+02  0.66561977077E+03  0.46999998093E+01 0. -1.
       -5    1    3    3    0  502 -0.23425439971E+03 -0.62151619782E+03 -0.65502446533E+03  0.93286475339E+03  0.46999998093E+01 0.  1.
</event>
<event>
 5   0  0.1270613E-04  0.2316541E+04  0.7818609E-02  0.8471428E-01
        2   -1    0    0  501    0  0.00000000000E+00  0.00000000000E+00  0.17070247727E+04  0.17070247727E+04  0.25500000920E-02 0.  1.
       -2   -1    0    0    0  501  0.00000000000E+00  0.00000000000E+00 -0.78592337884E+03  0.78592337885E+03  0.25500000920E-02 0. -1.
    10030    2    1    2    0    0  0.00000000000E+00  0.00000000000E+00  0.92110139382E+03  0.24929481515E+04  0.23165411087E+04 0.  0.
        2    1    3    3  502    0  0.75621526488E+03  0.44017524553E+03 -0.35617273354E+03  0.94470883860E+03  0.25500000920E-02 0. -1.
       -2    1    3    3    0  502 -0.75621526488E+03 -0.44017524553E+03  0.12772741274E+04  0.15482393129E+04  0.25500000920E-02 0.  1.
</event>
<event>
 5   0  0.1281432E-04  0.2258415E+04  0.7818609E-02  0.8494500E-01
        2   -1    0    0  501    0  0.00000000000E+00  0.00000000000E+00  0.19803225682E+04  0.19803225682E+04  0.25500000920E-02 0.  1.
       -2   -1    0    0    0  501  0.00000000000E+00  0.00000000000E+00 -0.64388971518E+03  0.64388971518E+03  0.25500000920E-02 0. -1.
    10030    2    1    2    0    0  0.00000000000E+00  0.00000000000E+00  0.13364328531E+04  0.26242122834E+04  0.22584147843E+04 0.  0.
        4    1    3    3  502    0 -0.68633454635E+03 -0.58707313968E+03  0.14557873671E+04  0.17131924737E+04  0.12699999809E+01 0.  1.
       -4    1    3    3    0  502  0.68633454635E+03  0.58707313968E+03 -0.11935451400E+03  0.91101980975E+03  0.12699999809E+01 0. -1.
</event>
<event>
 5   0  0.1237296E-04  0.2309748E+04  0.7818609E-02  0.8474088E-01
       -2   -1    0    0    0  501  0.00000000000E+00  0.00000000000E+00  0.11100215666E+04  0.11100215667E+04  0.25500000920E-02 0. -1.
        2   -1    0    0  501    0  0.00000000000E+00  0.00000000000E+00 -0.12015384662E+04  0.12015384662E+04  0.25500000920E-02 0.  1.
    10030    2    1    2    0    0  0.00000000000E+00  0.00000000000E+00 -0.91516899572E+02  0.23115600329E+04  0.23097477011E+04 0.  0.
        1    1    3    3  502    0  0.27966747201E+03 -0.50620760217E+03  0.95466263373E+03  0.11161723772E+04  0.50400001928E-02 0. -1.
       -1    1    3    3    0  502 -0.27966747201E+03  0.50620760217E+03 -0.10461795333E+04  0.11953876557E+04  0.50400001928E-02 0.  1.
</event>
<event>
 5   0  0.5642466E-05  0.2294305E+04  0.7818609E-02  0.8480170E-01
        1   -1    0    0  501    0  0.00000000000E+00  0.00000000000E+00  0.13326142922E+04  0.13326142922E+04  0.50400001928E-02 0. -1.
       -1   -1    0    0    0  501  0.00000000000E+00  0.00000000000E+00 -0.98750177965E+03  0.98750177966E+03  0.50400001928E-02 0.  1.
    10030    2    1    2    0    0  0.00000000000E+00  0.00000000000E+00  0.34511251256E+03  0.23201160719E+04  0.22943051106E+04 0.  0.
        1    1    3    3  502    0 -0.70121880151E+03  0.48593249067E+03 -0.60296160865E+03  0.10447013423E+04  0.50400001928E-02 0.  1.
       -1    1    3    3    0  502  0.70121880151E+03 -0.48593249067E+03  0.94807412121E+03  0.12754147296E+04  0.50400001928E-02 0. -1.
</event>
<event>
 5   0  0.5924654E-05  0.2088771E+04  0.7818609E-02  0.8566206E-01
       -1   -1    0    0    0  501  0.00000000000E+00  0.00000000000E+00  0.69000746161E+03  0.69000746163E+03  0.50400001928E-02 0.  1.
        1   -1    0    0  501    0  0.00000000000E+00  0.00000000000E+00 -0.15807667147E+04  0.15807667147E+04  0.50400001928E-02 0. -1.
    10030    2    1    2    0    0  0.00000000000E+00  0.00000000000E+00 -0.89075925309E+03  0.22707741763E+04  0.20887707660E+04 0.  0.
        5    1    3    3  502    0  0.53843590026E+03  0.13014300347E+03 -0.14078884558E+04  0.15129515570E+04  0.46999998093E+01 0. -1.
       -5    1    3    3    0  502 -0.53843590026E+03 -0.13014300347E+03  0.51712920269E+03  0.75782261929E+03  0.46999998093E+01 0.  1.
</event>
<event>
 5   0  0.5843670E-05  0.2239580E+04  0.7818609E-02  0.8502132E-01
       -1   -1    0    0    0  501  0.00000000000E+00  0.00000000000E+00  0.10941340610E+04  0.10941340610E+04  0.50400001928E-02 0.  1.
        1   -1    0    0  501    0  0.00000000000E+00  0.00000000000E+00 -0.11460475726E+04  0.11460475727E+04  0.50400001928E-02 0. -1.
    10030    2    1    2    0    0  0.00000000000E+00  0.00000000000E+00 -0.51913511663E+02  0.22401816336E+04  0.22395800363E+04 0.  0.
        2    1    3    3  502    0  0.52503637535E+03  0.62409054744E+02  0.96141102877E+03  0.10972097574E+04  0.25500000920E-02 0.  1.
       -2    1    3    3    0  502 -0.52503637535E+03 -0.62409054744E+02 -0.10133245404E+04  0.11429718762E+04  0.25500000920E-02 0. -1.
</event>
<event>
 5   0  0.5924654E-05  0.2151369E+04  0.7818609E-02  0.8538946E-01
        1   -1    0    0  501    0  0.00000000000E+00  0.00000000000E+00  0.13319783690E+04  0.13319783690E+04  0.50400001928E-02 0. -1.
       -1   -1    0    0    0  501  0.00000000000E+00  0.00000000000E+00 -0.86870582375E+03  0.86870582376E+03  0.50400001928E-02 0.  1.
    10030    2    1    2    0    0  0.00000000000E+00  0.00000000000E+00  0.46327254523E+03  0.22006841927E+04  0.21513692071E+04 0.  0.
        5    1    3    3  502    0  0.26618484053E+03 -0.69504928214E+03 -0.56277848998E+03  0.93310749258E+03  0.46999998093E+01 0.  1.
       -5    1    3    3    0  502 -0.26618484053E+03  0.69504928214E+03  0.10260510352E+04  0.12675767002E+04  0.46999998093E+01 0. -1.
</event>
<event>
 5   0  0.1237296E-04  0.2293544E+04  0.7818609E-02  0.8480471E-01
       -2   -1    0    0    0  501  0.00000000000E+00  0.00000000000E+00  0.82994208852E+03  0.82994208852E+03  0.25500000920E-02 0.  1.
        2   -1    0    0  501    0  0.00000000000E+00  0.00000000000E+00 -0.15845512833E+04  0.15845512833E+04  0.25500000920E-02 0. -1.
    10030    2    1    2    0    0  0.00000000000E+00  0.00000000000E+00 -0.75460919477E+03  0.24144933718E+04  0.22935438094E+04 0.  0.
        1    1    3    3  502    0 -0.25839436614E+03 -0.32766288653E+03  0.74717937773E+03  0.85580817839E+03  0.50400001928E-02 0.  1.
       -1    1    3    3    0  502  0.25839436614E+03  0.32766288653E+03 -0.15017885725E+04  0.15586851934E+04  0.50400001928E-02 0. -1.
</event>
<event>
 5   0  0.1281432E-04  0.2208707E+04  0.7818609E-02  0.8514813E-01
       -2   -1    0    0    0  501  0.00000000000E+00  0.00000000000E+00  0.11936208972E+04  0.11936208972E+04  0.25500000920E-02 0.  1.
        2   -1    0    0  501    0  0.00000000000E+00  0.00000000000E+00 -0.10217622799E+04  0.10217622799E+04  0.25500000920E-02 0. -1.
    10030    2    1    2    0    0  0.00000000000E+00  0.00000000000E+00  0.17185861738E+03  0.22153831771E+04  0.22087071415E+04 0.  0.
        4    1    3    3  502    0  0.49700808233E+02 -0.64630598764E+02 -0.10187387424E+04  0.10219968312E+04  0.12699999809E+01 0. -1.
       -4    1    3    3    0  502 -0.49700808233E+02  0.64630598764E+02  0.11905973598E+04  0.11933863460E+04  0.12699999809E+01 0.  1.
</event>
<event>
 5   0  0.5632156E-05  0.2408701E+04  0.7818609E-02  0.8436253E-01
        1   -1    0    0  501    0  0.00000000000E+00  0.00000000000E+00  0.22057931572E+04  0.22057931572E+04  0.50400001928E-02 0. -1.
       -1   -1    0    0    0  501  0.00000000000E+00  0.00000000000E+00 -0.65756858703E+03  0.65756858705E+03  0.50400001928E-02 0.  1.
    10030    2    1    2    0    0  0.00000000000E+00  0.00000000000E+00  0.15482245701E+04  0.28633617442E+04  0.24087011352E+04 0.  0.
        4    1    3    3  502    0  0.92971926247E+01 -0.10903591791E+03  0.21998699971E+04  0.22025904944E+04  0.12699999809E+01 0. -1.
       -4    1    3    3    0  502 -0.92971926247E+01  0.10903591791E+03 -0.65164542695E+03  0.66077124979E+03  0.12699999809E+01 0.  1.
</event>
<event>
 5   0  0.5843670E-05  0.2278346E+04  0.7818609E-02  0.8486508E-01
        1   -1    0    0  501    0  0.00000000000E+00  0.00000000000E+00  0.22099700943E+04  0.22099700943E+04  0.50400001928E-02 0. -1.
       -1   -1    0    0    0  501  0.00000000000E+00  0.00000000000E+00 -0.58720913831E+03  0.58720913833E+03  0.50400001928E-02 0.  1.
    10030    2    1    2    0    0  0.00000000000E+00  0.00000000000E+00  0.16227609559E+04  0.27971792326E+04  0.22783455706E+04 0.  0.
        2    1    3    3  502    0  0.83353913218E+03 -0.74989024594E+03  0.56402605113E+03  0.12550889419E+04  0.25500000920E-02 0.  1.
       -2    1    3    3    0  502 -0.83353913218E+03  0.74989024594E+03  0.10587349048E+04  0.15420902906E+04  0.25500000920E-02 0. -1.
</event>
<event>
 5   0  0.5843670E-05  0.2100565E+04  0.7818609E-02  0.8560995E-01
        1   -1    0    0  501    0  0.00000000000E+00  0.00000000000E+00  0.97490258658E+03  0.97490258659E+03  0.50400001928E-02 0. -1.
       -1   -1    0    0    0  501  0.00000000000E+00  0.00000000000E+00 -0.11314908174E+04  0.11314908174E+04  0.50400001928E-02 0.  1.
    10030    2    1    2    0    0  0.00000000000E+00  0.00000000000E+00 -0.15658823077E+03  0.21063934040E+04  0.21005649950E+04 0.  0.
        2    1    3    3  502    0  0.55447961330E+02 -0.95377327854E+03 -0.51577907352E+03  0.10857191147E+04  0.25500000920E-02 0.  1.
       -2    1    3    3    0  502 -0.55447961330E+02  0.95377327854E+03  0.35919084275E+03  0.10206742893E+04  0.25500000920E-02 0. -1.
</event>
<event>
 5   0  0.1270613E-04  0.2227482E+04  0.7818609E-02  0.8507076E-01
       -2   -1    0    0    0  501  0.00000000000E+00  0.00000000000E+00  0.83492093279E+03  0.83492093280E+03  0.25500000920E-02 0.  1.
        2   -1    0    0  501    0  0.00000000000E+00  0.00000000000E+00 -0.14856719707E+04  0.14856719707E+04  0.25500000920E-02 0. -1.
    10030    2    1    2    0    0  0.00000000000E+00  0.00000000000E+00 -0.65075103788E+03  0.23205929035E+04  0.22274816521E+04 0.  0.
        2    1    3    3  502    0 -0.96500557526E+03  0.24894171938E+03 -0.84336223397E+03  0.13055526024E+04  0.25500000920E-02 0. -1.
       -2    1    3    3    0  502  0.96500557526E+03 -0.24894171938E+03  0.19261119609E+03  0.10150403011E+04  0.25500000920E-02 0.  1.
</event>
<event>
 5   0  0.5642466E-05  0.2352944E+04  0.7818609E-02  0.8457334E-01
       -1   -1    0    0    0  501  0.00000000000E+00  0.00000000000E+00  0.57868365427E+03  0.57868365429E+03  0.50400001928E-02 0. -1.
        1   -1    0    0  501    0  0.00000000000E+00  0.00000000000E+00 -0.23917836253E+04  0.23917836253E+04  0.50400001928E-02 0.  1.
    10030    2    1    2    0    0  0.00000000000E+00  0.00000000000E+00 -0.18130999710E+04  0.29704672796E+04  0.23529437635E+04 0.  0.
        1    1    3    3  502    0  0.84749814979E+02  0.46433373525E+03 -0.22670076002E+04  0.23156234168E+04  0.50400001928E-02 0.  1.
       -1    1    3    3    0  502 -0.84749814979E+02 -0.46433373525E+03  0.45390762918E+03  0.65484386283E+03  0.50400001928E-02 0. -1.
</event>
<event>
 5   0  0.5843670E-05  0.1426654E+04  0.7818609E-02  0.8934748E-01
        1   -1    0    0  501    0  0.00000000000E+00  0.00000000000E+00  0.11472435978E+04  0.11472435978E+04  0.50400001928E-02 0. -1.
       -1   -1    0    0    0  501  0.00000000000E+00  0.00000000000E+00 -0.44352865942E+03  0.44352865945E+03  0.50400001928E-02 0.  1.
    10030    2    1    2    0    0  0.00000000000E+00  0.00000000000E+00  0.70371493834E+03  0.15907722572E+04  0.14266540085E+04 0.  0.
        2    1    3    3  502    0 -0.14996922085E+03 -0.31721986519E+03 -0.34064813115E+03  0.48904024307E+03  0.25500000920E-02 0.  1.
       -2    1    3    3    0  502  0.14996922085E+03  0.31721986519E+03  0.10443630695E+04  0.11017320141E+04  0.25500000920E-02 0. -1.
</event>
<event>
 5   0  0.5663790E-05  0.2351382E+04  0.7818609E-02  0.8457933E-01
        1   -1    0    0  501    0  0.00000000000E+00  0.00000000000E+00  0.26025237287E+04  0.26025237287E+04  0.50400001928E-02 0.  1.
       -1   -1    0    0    0  501  0.00000000000E+00  0.00000000000E+00 -0.53111875967E+03  0.53111875970E+03  0.50400001928E-02 0. -1.
    10030    2    1    2    0    0  0.00000000000E+00  0.00000000000E+00  0.20714049691E+04  0.31336424884E+04  0.23513818702E+04 0.  0.
        3    1    3    3  502    0 -0.32123779465E+03 -0.10588038178E+04  0.15654158983E+04  0.19169731845E+04  0.10100000352E+00 0. -1.
       -3    1    3    3    0  502  0.32123779465E+03  0.10588038178E+04  0.50598907076E+03  0.12166693039E+04  0.10100000352E+00 0.  1.
</event>
<event>
 5   0  0.5632156E-05  0.2320121E+04  0.7818609E-02  0.8470030E-01
        1   -1    0    0  501    0  0.00000000000E+00  0.00000000000E+00  0.11413804787E+04  0.11413804788E+04  0.50400001928E-02 0.  1.
       -1   -1    0    0    0  501  0.00000000000E+00  0.00000000000E+00 -0.11790466973E+04  0.11790466973E+04  0.50400001928E-02 0. -1.
    10030    2    1    2    0    0  0.00000000000E+00  0.00000000000E+00 -0.37666218577E+02  0.23204271761E+04  0.23201214484E+04 0.  0.
        4    1    3    3  502    0  0.93657150167E+03  0.97994770743E+02 -0.69639571537E+03  0.11712120893E+04  0.12699999809E+01 0. -1.
       -4    1    3    3    0  502 -0.93657150167E+03 -0.97994770743E+02  0.65872949680E+03  0.11492150868E+04  0.12699999809E+01 0.  1.
</event>
<event>
 5   0  0.1281432E-04  0.2299180E+04  0.7818609E-02  0.8478244E-01
       -2   -1    0    0    0  501  0.00000000000E+00  0.00000000000E+00  0.99003281604E+03  0.99003281604E+03  0.25500000920E-02 0.  1.
        2   -1    0    0  501    0  0.00000000000E+00  0.00000000000E+00 -0.13348624596E+04  0.13348624596E+04  0.25500000920E-02 0. -1.
    10030    2    1    2    0    0  0.00000000000E+00  0.00000000000E+00 -0.34482964353E+03  0.23248952756E+04  0.22991804104E+04 0.  0.
        4    1    3    3  502    0 -0.62652755466E+03 -0.83264496456E+03 -0.66335666269E+03  0.12352643800E+04  0.12699999809E+01 0. -1.
       -4    1    3    3    0  502  0.62652755466E+03  0.83264496456E+03  0.31852701916E+03  0.10896308956E+04  0.12699999809E+01 0.  1.
</event>
<event>
 5   0  0.1270613E-04  0.2109352E+04  0.7818609E-02  0.8557135E-01
       -2   -1    0    0    0  501  0.00000000000E+00  0.00000000000E+00  0.10168063377E+04  0.10168063377E+04  0.25500000920E-02 0.  1.
        2   -1    0    0  501    0  0.00000000000E+00  0.00000000000E+00 -0.10939565396E+04  0.10939565396E+04  0.25500000920E-02 0. -1.
    10030    2    1    2    0    0  0.00000000000E+00  0.00000000000E+00 -0.77150201879E+02  0.21107628773E+04  0.21093524529E+04 0.  0.
        2    1    3    3  502    0 -0.75012557669E+03  0.20103037159E+03  0.67551284127E+03  0.10292809091E+04  0.25500000920E-02 0.  1.
       -2    1    3    3    0  502  0.75012557669E+03 -0.20103037159E+03 -0.75266304315E+03  0.10814819682E+04  0.25500000920E-02 0. -1.
</event>
<event>
 5   0  0.1234988E-04  0.2113414E+04  0.7818609E-02  0.8555357E-01
        2   -1    0    0  501    0  0.00000000000E+00  0.00000000000E+00  0.58320472915E+03  0.58320472916E+03  0.25500000920E-02 0. -1.
       -2   -1    0    0    0  501  0.00000000000E+00  0.00000000000E+00 -0.19146453079E+04  0.19146453079E+04  0.25500000920E-02 0.  1.
    10030    2    1    2    0    0  0.00000000000E+00  0.00000000000E+00 -0.13314405787E+04  0.24978500371E+04  0.21134144868E+04 0.  0.
        5    1    3    3  502    0  0.70827964689E+03 -0.60610084434E+03 -0.77624499806E+02  0.93544959494E+03  0.46999998093E+01 0.  1.
       -5    1    3    3    0  502 -0.70827964689E+03  0.60610084434E+03 -0.12538160789E+04  0.15624004421E+04  0.46999998093E+01 0. -1.
</event>
<event>
 5   0  0.1257524E-04  0.2150641E+04  0.7818609E-02  0.8539258E-01
        2   -1    0    0  501    0  0.00000000000E+00  0.00000000000E+00  0.16217921650E+04  0.16217921650E+04  0.25500000920E-02 0.  1.
       -2   -1    0    0    0  501  0.00000000000E+00  0.00000000000E+00 -0.71298533752E+03  0.71298533753E+03  0.25500000920E-02 0. -1.
    10030    2    1    2    0    0  0.00000000000E+00  0.00000000000E+00  0.90880682743E+03  0.23347775025E+04  0.21506408665E+04 0.  0.
        3    1    3    3  502    0 -0.56107424041E+03  0.68556023555E+03  0.11161121732E+04  0.14249573794E+04  0.10100000352E+00 0.  1.
       -3    1    3    3    0  502  0.56107424041E+03 -0.68556023555E+03 -0.20730534572E+03  0.90982012309E+03  0.10100000352E+00 0. -1.
</event>
<event>
 5   0  0.1237296E-04  0.2256636E+04  0.7818609E-02  0.8495218E-01
        2   -1    0    0  501    0  0.00000000000E+00  0.00000000000E+00  0.12099891078E+04  0.12099891078E+04  0.25500000920E-02 0.  1.
       -2   -1    0    0    0  501  0.00000000000E+00  0.00000000000E+00 -0.10521590905E+04  0.10521590905E+04  0.25500000920E-02 0. -1.
    10030    2    1    2    0    0  0.00000000000E+00  0.00000000000E+00  0.15783001726E+03  0.22621481983E+04  0.22566355835E+04 0.  0.
        1    1    3    3  502    0 -0.44462670822E+03 -0.83571629758E+03 -0.53657706206E+03  0.10881312344E+04  0.50400001928E-02 0. -1.
       -1    1    3    3    0  502  0.44462670822E+03  0.83571629758E+03  0.69440707931E+03  0.11740169639E+04  0.50400001928E-02 0.  1.
</event>
<event>
 5   0  0.5663790E-05  0.1913372E+04  0.7818609E-02  0.8648229E-01
       -1   -1    0    0    0  501  0.00000000000E+00  0.00000000000E+00  0.99893909325E+03  0.99893909327E+03  0.50400001928E-02 0.  1.
        1   -1    0    0  501    0  0.00000000000E+00  0.00000000000E+00 -0.91622042465E+03  0.91622042466E+03  0.50400001928E-02 0. -1.
    10030    2    1    2    0    0  0.00000000000E+00  0.00000000000E+00  0.82718668604E+02  0.19151595179E+04  0.19133723111E+04 0.  0.
        3    1    3    3  502    0 -0.26586262005E+03 -0.35985815938E+03 -0.80504719924E+03  0.92102216630E+03  0.10100000352E+00 0. -1.
       -3    1    3    3    0  502  0.26586262005E+03  0.35985815938E+03  0.88776586784E+03  0.99413735163E+03  0.10100000352E+00 0.  1.
</event>
<event>
 5   0  0.5663790E-05  0.2161140E+04  0.7818609E-02  0.8534779E-01
       -1   -1    0    0    0  501  0.00000000000E+00  0.00000000000E+00  0.15048569402E+04  0.15048569402E+04  0.50400001928E-02 0. -1.
        1   -1    0    0  501    0  0.00000000000E+00  0.00000000000E+00 -0.77590890878E+03  0.77590890880E+03  0.50400001928E-02 0.  1.
    10030    2    1    2    0    0  0.00000000000E+00  0.00000000000E+00  0.72894803141E+03  0.22807658490E+04  0.21611403530E+04 0.  0.
        3    1    3    3  502    0 -0.39657278617E+03 -0.32301042416E+03  0.13690160266E+04  0.14614412750E+04  0.10100000352E+00 0. -1.
       -3    1    3    3    0  502  0.39657278617E+03  0.32301042416E+03 -0.64006799523E+03  0.81932457401E+03  0.10100000352E+00 0.  1.
</event>
<event>
 5   0  0.1257524E-04  0.2195058E+04  0.7818609E-02  0.8520488E-01
        2   -1    0    0  501    0  0.00000000000E+00  0.00000000000E+00  0.15074349060E+04  0.15074349060E+04  0.25500000920E-02 0. -1.
       -2   -1    0    0    0  501  0.00000000000E+00  0.00000000000E+00 -0.79908601081E+03  0.79908601082E+03  0.25500000920E-02 0.  1.
    10030    2    1    2    0    0  0.00000000000E+00  0.00000000000E+00  0.70834889521E+03  0.23065209168E+04  0.21950582185E+04 0.  0.
        3    1    3    3  502    0 -0.92037328530E+03 -0.56208080773E+03  0.13998993186E+03  0.10874828780E+04  0.10100000352E+00 0. -1.
       -3    1    3    3    0  502  0.92037328530E+03  0.56208080773E+03  0.56835896336E+03  0.12190380388E+04  0.10100000352E+00 0.  1.
</event>
<event>
 5   0  0.5632156E-05  0.2205964E+04  0.7818609E-02  0.8515950E-01
        1   -1    0    0  501    0  0.00000000000E+00  0.00000000000E+00  0.17497536294E+04  0.17497536294E+04  0.50400001928E-02 0. -1.
       -1   -1    0    0    0  501  0.00000000000E+00  0.00000000000E+00 -0.69528033497E+03  0.69528033499E+03  0.50400001928E-02 0.  1.
    10030    2    1    2    0    0  0.00000000000E+00  0.00000000000E+00  0.10544732944E+04  0.24450339644E+04  0.22059639975E+04 0.  0.
        4    1    3    3  502    0 -0.17958005295E+03 -0.28296308974E+03  0.16919533200E+04  0.17248260073E+04  0.12699999809E+01 0. -1.
       -4    1    3    3    0  502  0.17958005295E+03  0.28296308974E+03 -0.63748002556E+03  0.72020795709E+03  0.12699999809E+01 0.  1.
</event>
<event>
 5   0  0.1237296E-04  0.2297845E+04  0.7818609E-02  0.8478771E-01
       -2   -1    0    0    0  501  0.00000000000E+00  0.00000000000E+00  0.83371516296E+03  0.83371516296E+03  0.25500000920E-02 0. -1.
        2   -1    0    0  501    0  0.00000000000E+00  0.00000000000E+00 -0.15833022105E+04  0.15833022105E+04  0.25500000920E-02 0.  1.
    10030    2    1    2    0    0  0.00000000000E+00  0.00000000000E+00 -0.74958704759E+03  0.24170173735E+04  0.22978451301E+04 0.  0.
        1    1    3    3  502    0 -0.82341774810E+02 -0.90892557836E+03  0.35932608997E+03  0.98083694559E+03  0.50400001928E-02 0. -1.
       -1    1    3    3    0  502  0.82341774810E+02  0.90892557836E+03 -0.11089131376E+04  0.14361804279E+04  0.50400001928E-02 0.  1.
</event>
<event>
 5   0  0.1257524E-04  0.1601743E+04  0.7818609E-02  0.8819478E-01
       -2   -1    0    0    0  501  0.00000000000E+00  0.00000000000E+00  0.70252230880E+03  0.70252230881E+03  0.25500000920E-02 0. -1.
        2   -1    0    0  501    0  0.00000000000E+00  0.00000000000E+00 -0.91298867139E+03  0.91298867140E+03  0.25500000920E-02 0.  1.
    10030    2    1    2    0    0  0.00000000000E+00  0.00000000000E+00 -0.21046636259E+03  0.16155109802E+04  0.16017426876E+04 0.  0.
        3    1    3    3  502    0 -0.46099645818E+03 -0.58527438446E+03 -0.40158029365E+03  0.84636315020E+03  0.10100000352E+00 0.  1.
       -3    1    3    3    0  502  0.46099645818E+03  0.58527438446E+03  0.19111393106E+03  0.76914783001E+03  0.10100000352E+00 0. -1.
</event>
<event>
 5   0  0.5642466E-05  0.2289726E+04  0.7818609E-02  0.8481983E-01
        1   -1    0    0  501    0  0.00000000000E+00  0.00000000000E+00  0.12077199895E+04  0.12077199895E+04  0.50400001928E-02 0. -1.
       -1   -1    0    0    0  501  0.00000000000E+00  0.00000000000E+00 -0.10852773422E+04  0.10852773422E+04  0.50400001928E-02 0.  1.
    10030    2    1    2    0    0  0.00000000000E+00  0.00000000000E+00  0.12244264724E+03  0.22929973317E+04  0.22897258703E+04 0.  0.
        1    1    3    3  502    0  0.94767572435E+03  0.17683051784E+03 -0.55719870282E+03  0.11134759562E+04  0.50400001928E-02 0.  1.
       -1    1    3    3    0  502 -0.94767572435E+03 -0.17683051784E+03  0.67964135006E+03  0.11795213755E+04  0.50400001928E-02 0. -1.
</event>
<event>
 5   0  0.1257524E-04  0.1971262E+04  0.7818609E-02  0.8620176E-01
       -2   -1    0    0    0  501  0.00000000000E+00  0.00000000000E+00  0.97000903156E+03  0.97000903156E+03  0.25500000920E-02 0.  1.
        2   -1    0    0  501    0  0.00000000000E+00  0.00000000000E+00 -0.10015045763E+04  0.10015045763E+04  0.25500000920E-02 0. -1.
    10030    2    1    2    0    0  0.00000000000E+00  0.00000000000E+00 -0.31495544750E+02  0.19715136079E+04  0.19712620162E+04 0.  0.
        3    1    3    3  502    0 -0.36520881041E+02  0.91590661432E+03  0.34658257132E+03  0.97996846370E+03  0.10100000352E+00 0.  1.
       -3    1    3    3    0  502  0.36520881041E+02 -0.91590661432E+03 -0.37807811607E+03  0.99154514418E+03  0.10100000352E+00 0. -1.
</event>
<event>
 5   0  0.1237296E-04  0.1868707E+04  0.7818609E-02  0.8670591E-01
       -2   -1    0    0    0  501  0.00000000000E+00  0.00000000000E+00  0.27488753332E+04  0.27488753332E+04  0.25500000920E-02 0. -1.
        2   -1    0    0  501    0  0.00000000000E+00  0.00000000000E+00 -0.31759054034E+03  0.31759054035E+03  0.25500000920E-02 0.  1.
    10030    2    1    2    0    0  0.00000000000E+00  0.00000000000E+00  0.24312847929E+04  0.30664658736E+04  0.18687073633E+04 0.  0.
        1    1    3    3  502    0  0.49856840127E+03  0.68502920837E+03  0.56921972262E+03  0.10207088516E+04  0.50400001928E-02 0. -1.
       -1    1    3    3    0  502 -0.49856840127E+03 -0.68502920837E+03  0.18620650702E+04  0.20457570220E+04  0.50400001928E-02 0.  1.
</event>
<event>
 5   0  0.5843670E-05  0.2309939E+04  0.7818609E-02  0.8474013E-01
       -1   -1    0    0    0  501  0.00000000000E+00  0.00000000000E+00  0.13084532705E+04  0.13084532705E+04  0.50400001928E-02 0.  1.
        1   -1    0    0  501    0  0.00000000000E+00  0.00000000000E+00 -0.10194898461E+04  0.10194898461E+04  0.50400001928E-02 0. -1.
    10030    2    1    2    0    0  0.00000000000E+00  0.00000000000E+00  0.28896342438E+03  0.23279431166E+04  0.23099392402E+04 0.  0.
        2    1    3    3  502    0 -0.80044340979E+03  0.51092938890E+02 -0.69303985544E+03  0.10600115008E+04  0.25500000920E-02 0. -1.
       -2    1    3    3    0  502  0.80044340979E+03 -0.51092938890E+02  0.98200327982E+03  0.12679316158E+04  0.25500000920E-02 0.  1.
</event>
<event>
 5   0  0.1281432E-04  0.2294820E+04  0.7818609E-02  0.8479966E-01
       -2   -1    0    0    0  501  0.00000000000E+00  0.00000000000E+00  0.67685615248E+03  0.67685615248E+03  0.25500000920E-02 0. -1.
        2   -1    0    0  501    0  0.00000000000E+00  0.00000000000E+00 -0.19450948206E+04  0.19450948206E+04  0.25500000920E-02 0.  1.
    10030    2    1    2    0    0  0.00000000000E+00  0.00000000000E+00 -0.12682386681E+04  0.26219509731E+04  0.22948197284E+04 0.  0.
        4    1    3    3  502    0  0.12274284601E+03 -0.13171781151E+03 -0.19288543483E+04  0.19372392981E+04  0.12699999809E+01 0.  1.
       -4    1    3    3    0  502 -0.12274284601E+03  0.13171781151E+03  0.66061568018E+03  0.68471167502E+03  0.12699999809E+01 0. -1.
</event>
<event>
 5   0  0.1270613E-04  0.2283019E+04  0.7818609E-02  0.8484647E-01
        2   -1    0    0  501    0  0.00000000000E+00  0.00000000000E+00  0.14816586345E+04  0.14816586345E+04  0.25500000920E-02 0.  1.
       -2   -1    0    0    0  501  0.00000000000E+00  0.00000000000E+00 -0.87944964148E+03  0.87944964148E+03  0.25500000920E-02 0. -1.
    10030    2    1    2    0    0  0.00000000000E+00  0.00000000000E+00  0.60220899306E+03  0.23611082760E+04  0.22830191895E+04 0.  0.
        2    1    3    3  502    0 -0.95392881992E+03 -0.62683113235E+03  0.31363045633E+03  0.11837489282E+04  0.25500000920E-02 0.  1.
       -2    1    3    3    0  502  0.95392881992E+03  0.62683113235E+03  0.28857853673E+03  0.11773593478E+04  0.25500000920E-02 0. -1.
</event>
<event>
 5   0  0.5663790E-05  0.2334653E+04  0.7818609E-02  0.8464382E-01
       -1   -1    0    0    0  501  0.00000000000E+00  0.00000000000E+00  0.11951210290E+04  0.11951210290E+04  0.50400001928E-02 0. -1.
        1   -1    0    0  501    0  0.00000000000E+00  0.00000000000E+00 -0.11401784859E+04  0.11401784860E+04  0.50400001928E-02 0.  1.
    10030    2    1    2    0    0  0.00000000000E+00  0.00000000000E+00  0.54942543037E+02  0.23352995149E+04  0.23346531095E+04 0.  0.
        3    1    3    3  502    0 -0.74718937134E+03  0.66260534265E+03 -0.57710775414E+03  0.11534258393E+04  0.10100000352E+00 0.  1.
       -3    1    3    3    0  502  0.74718937134E+03 -0.66260534265E+03  0.63205029718E+03  0.11818736756E+04  0.10100000352E+00 0. -1.
</event>
<event>
 5   0  0.5632156E-05  0.2392712E+04  0.7818609E-02  0.8442237E-01
       -1   -1    0    0    0  501  0.00000000000E+00  0.00000000000E+00  0.88301094113E+03  0.88301094115E+03  0.50400001928E-02 0.  1.
        1   -1    0    0  501    0  0.00000000000E+00  0.00000000000E+00 -0.16208947438E+04  0.16208947438E+04  0.50400001928E-02 0. -1.
    10030    2    1    2    0    0  0.00000000000E+00  0.00000000000E+00 -0.73788380263E+03  0.25039056849E+04  0.23927120957E+04 0.  0.
        4    1    3    3  502    0 -0.61479316207E+03 -0.62574168490E+03 -0.12202213789E+04  0.15028190559E+04  0.12699999809E+01 0. -1.
       -4    1    3    3    0  502  0.61479316207E+03  0.62574168490E+03  0.48233757631E+03  0.10010866290E+04  0.12699999809E+01 0.  1.
</event>
<event>
 5   0  0.5924654E-05  0.1980865E+04  0.7818609E-02  0.8615620E-01
       -1   -1    0    0    0  501  0.00000000000E+00  0.00000000000E+00  0.63027054667E+03  0.63027054669E+03  0.50400001928E-02 0. -1.
        1   -1    0    0  501    0  0.00000000000E+00  0.00000000000E+00 -0.15564052622E+04  0.15564052622E+04  0.50400001928E-02 0.  1.
    10030    2    1    2    0    0  0.00000000000E+00  0.00000000000E+00 -0.92613471557E+03  0.21866758089E+04  0.19808648571E+04 0.  0.
        5    1    3    3  502    0  0.70485054553E+03  0.43780034486E+03  0.13390746264E+03  0.84049790722E+03  0.46999998093E+01 0. -1.
       -5    1    3    3    0  502 -0.70485054553E+03 -0.43780034486E+03 -0.10600421782E+04  0.13461779017E+04  0.46999998093E+01 0.  1.
</event>
<event>
 5   0  0.5632156E-05  0.2404876E+04  0.7818609E-02  0.8437680E-01
        1   -1    0    0  501    0  0.00000000000E+00  0.00000000000E+00  0.13252539494E+04  0.13252539494E+04  0.50400001928E-02 0.  1.
       -1   -1    0    0    0  501  0.00000000000E+00  0.00000000000E+00 -0.10910034395E+04  0.10910034395E+04  0.50400001928E-02 0. -1.
    10030    2    1    2    0    0  0.00000000000E+00  0.00000000000E+00  0.23425050983E+03  0.24162573889E+04  0.24048755619E+04 0.  0.
        4    1    3    3  502    0  0.97478028865E+03  0.68202530723E+03  0.29259393268E+03  0.12251399729E+04  0.12699999809E+01 0. -1.
       -4    1    3    3    0  502 -0.97478028865E+03 -0.68202530723E+03 -0.58343422853E+02  0.11911174160E+04  0.12699999809E+01 0.  1.
</event>
<event>
 5   0  0.5642466E-05  0.2368020E+04  0.7818609E-02  0.8451574E-01
       -1   -1    0    0    0  501  0.00000000000E+00  0.00000000000E+00  0.69504603246E+03  0.69504603248E+03  0.50400001928E-02 0. -1.
        1   -1    0    0  501    0  0.00000000000E+00  0.00000000000E+00 -0.20169593574E+04  0.20169593574E+04  0.50400001928E-02 0.  1.
    10030    2    1    2    0    0  0.00000000000E+00  0.00000000000E+00 -0.13219133250E+04  0.27120053899E+04  0.23680199316E+04 0.  0.
        1    1    3    3  502    0  0.65606898383E+03 -0.41732993082E+03  0.36166039112E+03  0.85754826175E+03  0.50400001928E-02 0. -1.
       -1    1    3    3    0  502 -0.65606898383E+03  0.41732993082E+03 -0.16835737161E+04  0.18544571282E+04  0.50400001928E-02 0.  1.
</event>
<event>
 5   0  0.1234988E-04  0.2260655E+04  0.7818609E-02  0.8493598E-01
       -2   -1    0    0    0  501  0.00000000000E+00  0.00000000000E+00  0.15572887914E+04  0.15572887914E+04  0.25500000920E-02 0.  1.
        2   -1    0    0  501    0  0.00000000000E+00  0.00000000000E+00 -0.82042573330E+03  0.82042573330E+03  0.25500000920E-02 0. -1.
    10030    2    1    2    0    0  0.00000000000E+00  0.00000000000E+00  0.73686305812E+03  0.23777145247E+04  0.22606545943E+04 0.  0.
        5    1    3    3  502    0 -0.29349164205E+03 -0.63974023928E+03 -0.56179336139E+03  0.90057691987E+03  0.46999998093E+01 0. -1.
       -5    1    3    3    0  502  0.29349164205E+03  0.63974023928E+03  0.12986564195E+04  0.14771376048E+04  0.46999998093E+01 0.  1.
</event>
<event>
 5   0  0.5632156E-05  0.2048316E+04  0.7818609E-02  0.8584359E-01
        1   -1    0    0  501    0  0.00000000000E+00  0.00000000000E+00  0.23287090903E+04  0.23287090903E+04  0.50400001928E-02 0.  1.
       -1   -1    0    0    0  501  0.00000000000E+00  0.00000000000E+00 -0.45042110642E+03  0.45042110644E+03  0.50400001928E-02 0. -1.
    10030    2    1    2    0    0  0.00000000000E+00  0.00000000000E+00  0.18782879839E+04  0.27791301967E+04  0.20483161133E+04 0.  0.
        4    1    3    3  502    0 -0.50659711239E+03 -0.82757567888E+03  0.13837399078E+04  0.16900473023E+04  0.12699999809E+01 0.  1.
       -4    1    3    3    0  502  0.50659711239E+03  0.82757567888E+03  0.49454807604E+03  0.10890828944E+04  0.12699999809E+01 0. -1.
</event>
<event>
 5   0  0.1234988E-04  0.2295307E+04  0.7818609E-02  0.8479774E-01
       -2   -1    0    0    0  501  0.00000000000E+00  0.00000000000E+00  0.70631594496E+03  0.70631594496E+03  0.25500000920E-02 0. -1.
        2   -1    0    0  501    0  0.00000000000E+00  0.00000000000E+00 -0.18647583656E+04  0.18647583656E+04  0.25500000920E-02 0.  1.
    10030    2    1    2    0    0  0.00000000000E+00  0.00000000000E+00 -0.11584424207E+04  0.25710743106E+04  0.22953070097E+04 0.  0.
        5    1    3    3  502    0 -0.11073546000E+04 -0.24684539230E+03 -0.77297574577E+03  0.13728366441E+04  0.46999998093E+01 0.  1.
       -5    1    3    3    0  502  0.11073546000E+04  0.24684539230E+03 -0.38546667490E+03  0.11982376665E+04  0.46999998093E+01 0. -1.
</event>
<event>
 5   0  0.1257524E-04  0.2042168E+04  0.7818609E-02  0.8587156E-01
        2   -1    0    0  501    0  0.00000000000E+00  0.00000000000E+00  0.11502651006E+04  0.11502651006E+04  0.25500000920E-02 0.  1.
       -2   -1    0    0    0  501  0.00000000000E+00  0.00000000000E+00 -0.90641042372E+03  0.90641042372E+03  0.25500000920E-02 0. -1.
    10030    2    1    2    0    0  0.00000000000E+00  0.00000000000E+00  0.24385467691E+03  0.20566755244E+04  0.20421677475E+04 0.  0.
        3    1    3    3  502    0 -0.86963117158E+03  0.11831311811E+03 -0.40365741630E+03  0.96602054245E+03  0.10100000352E+00 0. -1.
       -3    1    3    3    0  502  0.86963117158E+03 -0.11831311811E+03  0.64751209321E+03  0.10906549819E+04  0.10100000352E+00 0.  1.
</event>
<event>
 5   0  0.1257524E-04  0.1816232E+04  0.7818609E-02  0.8697715E-01
       -2   -1    0    0    0  501  0.00000000000E+00  0.00000000000E+00  0.62073424759E+03  0.62073424760E+03  0.25500000920E-02 0.  1.
        2   -1    0    0  501    0  0.00000000000E+00  0.00000000000E+00 -0.13285473169E+04  0.13285473169E+04  0.25500000920E-02 0. -1.
    10030    2    1    2    0    0  0.00000000000E+00  0.00000000000E+00 -0.70781306926E+03  0.19492815645E+04  0.18162321648E+04 0.  0.
        3    1    3    3  502    0  0.24975997384E+02 -0.83043787374E+03 -0.74740363216E+03  0.11175254190E+04  0.10100000352E+00 0. -1.
       -3    1    3    3    0  502 -0.24975997384E+02  0.83043787374E+03  0.39590562898E+02  0.83175614543E+03  0.10100000352E+00 0.  1.
</event>
<event>
 5   0  0.5924654E-05  0.2270960E+04  0.7818609E-02  0.8489460E-01
       -1   -1    0    0    0  501  0.00000000000E+00  0.00000000000E+00  0.76739091365E+03  0.76739091367E+03  0.50400001928E-02 0.  1.
        1   -1    0    0  501    0  0.00000000000E+00  0.00000000000E+00 -0.16801277006E+04  0.16801277006E+04  0.50400001928E-02 0. -1.
    10030    2    1    2    0    0  0.00000000000E+00  0.00000000000E+00 -0.91273678698E+03  0.24475186143E+04  0.22709599127E+04 0.  0.
        5    1    3    3  502    0 -0.89677619209E+03 -0.64272140929E+03 -0.16719018039E+03  0.11159180055E+04  0.46999998093E+01 0.  1.
       -5    1    3    3    0  502  0.89677619209E+03  0.64272140929E+03 -0.74554660659E+03  0.13316006088E+04  0.46999998093E+01 0. -1.
</event>
<event>
 5   0  0.1234988E-04  0.2314765E+04  0.7818609E-02  0.8472122E-01
        2   -1    0    0  501    0  0.00000000000E+00  0.00000000000E+00  0.12424974484E+04  0.12424974484E+04  0.25500000920E-02 0.  1.
       -2   -1    0    0    0  501  0.00000000000E+00  0.00000000000E+00 -0.10780984001E+04  0.10780984001E+04  0.25500000920E-02 0. -1.
    10030    2    1    2    0    0  0.00000000000E+00  0.00000000000E+00  0.16439904830E+03  0.23205958486E+04  0.23147652247E+04 0.  0.
        5    1    3    3  502    0 -0.35413350806E+03 -0.32976541471E+03 -0.97180815778E+03  0.10856283691E+04  0.46999998093E+01 0. -1.
       -5    1    3    3    0  502  0.35413350806E+03  0.32976541471E+03  0.11362072061E+04  0.12349674795E+04  0.46999998093E+01 0.  1.
</event>
<event>
 5   0  0.1257524E-04  0.1565437E+04  0.7818609E-02  0.8842067E-01
       -2   -1    0    0    0  501  0.00000000000E+00  0.00000000000E+00  0.68248697792E+03  0.68248697792E+03  0.25500000920E-02 0.  1.
        2   -1    0    0  501    0  0.00000000000E+00  0.00000000000E+00 -0.89767020998E+03  0.89767020999E+03  0.25500000920E-02 0. -1.
    10030    2    1    2    0    0  0.00000000000E+00  0.00000000000E+00 -0.21518323207E+03  0.15801571879E+04  0.15654369726E+04 0.  0.
        3    1    3    3  502    0 -0.51881510591E+03 -0.45696302379E+03  0.26282486119E+03  0.73963588143E+03  0.10100000352E+00 0. -1.
       -3    1    3    3    0  502  0.51881510591E+03  0.45696302379E+03 -0.47800809326E+03  0.84052130648E+03  0.10100000352E+00 0.  1.
</event>
<event>
 5   0  0.5663790E-05  0.2302583E+04  0.7818609E-02  0.8476903E-01
       -1   -1    0    0    0  501  0.00000000000E+00  0.00000000000E+00  0.63068245040E+03  0.63068245042E+03  0.50400001928E-02 0. -1.
        1   -1    0    0  501    0  0.00000000000E+00  0.00000000000E+00 -0.21016471351E+04  0.21016471351E+04  0.50400001928E-02 0.  1.
    10030    2    1    2    0    0  0.00000000000E+00  0.00000000000E+00 -0.14709646847E+04  0.27323295855E+04  0.23025828672E+04 0.  0.
        3    1    3    3  502    0  0.95077600301E+03 -0.31017979940E+03 -0.14122664115E+04  0.17305152248E+04  0.10100000352E+00 0.  1.
       -3    1    3    3    0  502 -0.95077600301E+03  0.31017979940E+03 -0.58698273125E+02  0.10018143607E+04  0.10100000352E+00 0. -1.
</event>
<event>
 5   0  0.5663790E-05  0.2286644E+04  0.7818609E-02  0.8483206E-01
        1   -1    0    0  501    0  0.00000000000E+00  0.00000000000E+00  0.28752819476E+04  0.28752819476E+04  0.50400001928E-02 0.  1.
       -1   -1    0    0    0  501  0.00000000000E+00  0.00000000000E+00 -0.45462861000E+03  0.45462861003E+03  0.50400001928E-02 0. -1.
    10030    2    1    2    0    0  0.00000000000E+00  0.00000000000E+00  0.24206533376E+04  0.33299105576E+04  0.22866442095E+04 0.  0.
        3    1    3    3  502    0 -0.36018204744E+03 -0.27613566853E+03 -0.31782952645E+03  0.55407367093E+03  0.10100000352E+00 0. -1.
       -3    1    3    3    0  502  0.36018204744E+03  0.27613566853E+03  0.27384828640E+04  0.27758368867E+04  0.10100000352E+00 0.  1.
</event>
<event>
 5   0  0.5632156E-05  0.2190950E+04  0.7818609E-02  0.8522204E-01
        1   -1    0    0  501    0  0.00000000000E+00  0.00000000000E+00  0.92439771308E+03  0.92439771309E+03  0.50400001928E-02 0. -1.
       -1   -1    0    0    0  501  0.00000000000E+00  0.00000000000E+00 -0.12982135163E+04  0.12982135163E+04  0.50400001928E-02 0.  1.
    10030    2    1    2    0    0  0.00000000000E+00  0.00000000000E+00 -0.37381580322E+03  0.22226112294E+04  0.21909501186E+04 0.  0.
        4    1    3    3  502    0 -0.86804251420E+03 -0.39782020599E+03 -0.73160781297E+03  0.12029174235E+04  0.12699999809E+01 0.  1.
       -4    1    3    3    0  502  0.86804251420E+03  0.39782020599E+03  0.35779200975E+03  0.10196938060E+04  0.12699999809E+01 0. -1.
</event>
<event>
 5   0  0.1237296E-04  0.2043135E+04  0.7818609E-02  0.8586715E-01
        2   -1    0    0  501    0  0.00000000000E+00  0.00000000000E+00  0.83396139434E+03  0.83396139435E+03  0.25500000920E-02 0. -1.
       -2   -1    0    0    0  501  0.00000000000E+00  0.00000000000E+00 -0.12513769500E+04  0.12513769500E+04  0.25500000920E-02 0.  1.
    10030    2    1    2    0    0  0.00000000000E+00  0.00000000000E+00 -0.41741555566E+03  0.20853383444E+04  0.20431349109E+04 0.  0.
        1    1    3    3  502    0  0.52883991983E+03  0.30455006977E+03 -0.10448848031E+04  0.12100440725E+04  0.50400001928E-02 0.  1.
       -1    1    3    3    0  502 -0.52883991983E+03 -0.30455006977E+03  0.62746924740E+03  0.87529427181E+03  0.50400001928E-02 0. -1.
</event>
<event>
 5   0  0.1234988E-04  0.2369073E+04  0.7818609E-02  0.8451174E-01
       -2   -1    0    0    0  501  0.00000000000E+00  0.00000000000E+00  0.96745311613E+03  0.96745311613E+03  0.25500000920E-02 0. -1.
        2   -1    0    0  501    0  0.00000000000E+00  0.00000000000E+00 -0.14503301815E+04  0.14503301815E+04  0.25500000920E-02 0.  1.
    10030    2    1    2    0    0  0.00000000000E+00  0.00000000000E+00 -0.48287706536E+03  0.24177832976E+04  0.23690727752E+04 0.  0.
        5    1    3    3  502    0  0.10212525204E+04 -0.45944684929E+03  0.15257765114E+03  0.11301991627E+04  0.46999998093E+01 0. -1.
       -5    1    3    3    0  502 -0.10212525204E+04  0.45944684929E+03 -0.63545471650E+03  0.12875841349E+04  0.46999998093E+01 0.  1.
</event>
<event>
 5   0  0.1270613E-04  0.2179605E+04  0.7818609E-02  0.8526965E-01
       -2   -1    0    0    0  501  0.00000000000E+00  0.00000000000E+00  0.87514279645E+03  0.87514279645E+03  0.25500000920E-02 0. -1.
        2   -1    0    0  501    0  0.00000000000E+00  0.00000000000E+00 -0.13571148971E+04  0.13571148971E+04  0.25500000920E-02 0.  1.
    10030    2    1    2    0    0  0.00000000000E+00  0.00000000000E+00 -0.48197210067E+03  0.22322576936E+04  0.21796048506E+04 0.  0.
        2    1    3    3  502    0 -0.15409834508E+03 -0.79192883896E+03 -0.99133172657E+03  0.12781377774E+04  0.25500000920E-02 0.  1.
       -2    1    3    3    0  502  0.15409834508E+03  0.79192883896E+03  0.50935962589E+03  0.95411991617E+03  0.25500000920E-02 0. -1.
</event>
<event>
 5   0  0.1257524E-04  0.2324345E+04  0.7818609E-02  0.8468383E-01
        2   -1    0    0  501    0  0.00000000000E+00  0.00000000000E+00  0.90209053848E+03  0.90209053848E+03  0.25500000920E-02 0. -1.
       -2   -1    0    0    0  501  0.00000000000E+00  0.00000000000E+00 -0.14972393230E+04  0.14972393231E+04  0.25500000920E-02 0.  1.
    10030    2    1    2    0    0  0.00000000000E+00  0.00000000000E+00 -0.59514878457E+03  0.23993298615E+04  0.23243454366E+04 0.  0.
        3    1    3    3  502    0 -0.10986323712E+04  0.22065109800E+03  0.20531739390E+02  0.11207593661E+04  0.10100000352E+00 0. -1.
       -3    1    3    3    0  502  0.10986323712E+04 -0.22065109800E+03 -0.61568052396E+03  0.12785704955E+04  0.10100000352E+00 0.  1.
</event>
<event>
 5   0  0.5843670E-05  0.2396157E+04  0.7818609E-02  0.8440944E-01
       -1   -1    0    0    0  501  0.00000000000E+00  0.00000000000E+00  0.65540545006E+03  0.65540545008E+03  0.50400001928E-02 0. -1.
        1   -1    0    0  501    0  0.00000000000E+00  0.00000000000E+00 -0.21900826288E+04  0.21900826288E+04  0.50400001928E-02 0.  1.
    10030    2    1    2    0    0  0.00000000000E+00  0.00000000000E+00 -0.15346771787E+04  0.28454880788E+04  0.23961569990E+04 0.  0.
        2    1    3    3  502    0  0.85270491333E+03  0.76663788092E+03 -0.35502265616E+03  0.12003667756E+04  0.25500000920E-02 0. -1.
       -2    1    3    3    0  502 -0.85270491333E+03 -0.76663788092E+03 -0.11796545225E+04  0.16451213032E+04  0.25500000920E-02 0.  1.
</event>
<event>
 5   0  0.5642466E-05  0.2272157E+04  0.7818609E-02  0.8488981E-01
       -1   -1    0    0    0  501  0.00000000000E+00  0.00000000000E+00  0.58672374639E+03  0.58672374641E+03  0.50400001928E-02 0.  1.
        1   -1    0    0  501    0  0.00000000000E+00  0.00000000000E+00 -0.21997996958E+04  0.21997996958E+04  0.50400001928E-02 0. -1.
    10030    2    1    2    0    0  0.00000000000E+00  0.00000000000E+00 -0.16130759494E+04  0.27865234422E+04  0.22721573175E+04 0.  0.
        1    1    3    3  502    0  0.38949243634E+03 -0.87201731733E+03 -0.15610904740E+04  0.18300606623E+04  0.50400001928E-02 0. -1.
       -1    1    3    3    0  502 -0.38949243634E+03  0.87201731733E+03 -0.51985475415E+02  0.95646277992E+03  0.50400001928E-02 0.  1.
</event>
<event>
 5   0  0.1257524E-04  0.2426870E+04  0.7818609E-02  0.8429512E-01
        2   -1    0    0  501    0  0.00000000000E+00  0.00000000000E+00  0.12878190926E+04  0.12878190926E+04  0.25500000920E-02 0. -1.
       -2   -1    0    0    0  501  0.00000000000E+00  0.00000000000E+00 -0.11433476050E+04  0.11433476050E+04  0.25500000920E-02 0.  1.
    10030    2    1    2    0    0  0.00000000000E+00  0.00000000000E+00  0.14447148755E+03  0.24311666976E+04  0.24268703098E+04 0.  0.
        3    1    3    3  502    0 -0.68521805471E+03  0.69483338505E+03 -0.65022589207E+03  0.11726512424E+04  0.10100000352E+00 0.  1.
       -3    1    3    3    0  502  0.68521805471E+03 -0.69483338505E+03  0.79469737961E+03  0.12585154551E+04  0.10100000352E+00 0. -1.
</event>
<event>
 5   0  0.1234988E-04  0.2318748E+04  0.7818609E-02  0.8470566E-01
        2   -1    0    0  501    0  0.00000000000E+00  0.00000000000E+00  0.13629731690E+04  0.13629731690E+04  0.25500000920E-02 0. -1.
       -2   -1    0    0    0  501  0.00000000000E+00  0.00000000000E+00 -0.98618780352E+03  0.98618780352E+03  0.25500000920E-02 0.  1.
    10030    2    1    2    0    0  0.00000000000E+00  0.00000000000E+00  0.37678536547E+03  0.23491609725E+04  0.23187475204E+04 0.  0.
        5    1    3    3  502    0 -0.80267583759E+03 -0.58854475159E+03 -0.41392350715E+03  0.10779741113E+04  0.46999998093E+01 0.  1.
       -5    1    3    3    0  502  0.80267583759E+03  0.58854475159E+03  0.79070887262E+03  0.12711868612E+04  0.46999998093E+01 0. -1.
</event>
<event>
 5   0  0.5663790E-05  0.2283356E+04  0.7818609E-02  0.8484513E-01
        1   -1    0    0  501    0  0.00000000000E+00  0.00000000000E+00  0.15424612092E+04  0.15424612092E+04  0.50400001928E-02 0.  1.
       -1   -1    0    0    0  501  0.00000000000E+00  0.00000000000E+00 -0.84503167066E+03  0.84503167068E+03  0.50400001928E-02 0. -1.
    10030    2    1    2    0    0  0.00000000000E+00  0.00000000000E+00  0.69742953854E+03  0.23874928799E+04  0.22833559272E+04 0.  0.
        3    1    3    3  502    0 -0.98497942683E+02 -0.11224374491E+04  0.54112034750E+03  0.12499515641E+04  0.10100000352E+00 0. -1.
       -3    1    3    3    0  502  0.98497942683E+02  0.11224374491E+04  0.15630919104E+03  0.11375413158E+04  0.10100000352E+00 0.  1.
</event>
<event>
 5   0  0.5843670E-05  0.2241533E+04  0.7818609E-02  0.8501337E-01
       -1   -1    0    0    0  501  0.00000000000E+00  0.00000000000E+00  0.10539437475E+04  0.10539437475E+04  0.50400001928E-02 0.  1.
        1   -1    0    0  501    0  0.00000000000E+00  0.00000000000E+00 -0.11918264216E+04  0.11918264216E+04  0.50400001928E-02 0. -1.
    10030    2    1    2    0    0  0.00000000000E+00  0.00000000000E+00 -0.13788267416E+03  0.22457701691E+04  0.22415334083E+04 0.  0.
        2    1    3    3  502    0 -0.77299247526E+03 -0.94143631302E+01  0.74407999743E+03  0.10729683311E+04  0.25500000920E-02 0.  1.
       -2    1    3    3    0  502  0.77299247526E+03  0.94143631302E+01 -0.88196267159E+03  0.11728018380E+04  0.25500000920E-02 0. -1.
</event>
<event>
 5   0  0.5843670E-05  0.2271621E+04  0.7818609E-02  0.8489195E-01
        1   -1    0    0  501    0  0.00000000000E+00  0.00000000000E+00  0.19923193755E+04  0.19923193755E+04  0.50400001928E-02 0.  1.
       -1   -1    0    0    0  501  0.00000000000E+00  0.00000000000E+00 -0.64751970671E+03  0.64751970673E+03  0.50400001928E-02 0. -1.
    10030    2    1    2    0    0  0.00000000000E+00  0.00000000000E+00  0.13447996688E+04  0.26398390823E+04  0.22716214982E+04 0.  0.
        2    1    3    3  502    0 -0.51174409804E+03 -0.76732796083E+03  0.14427132757E+04  0.17123363622E+04  0.25500000920E-02 0.  1.
       -2    1    3    3    0  502  0.51174409804E+03  0.76732796083E+03 -0.97913606880E+02  0.92750272009E+03  0.25500000920E-02 0. -1.
</event>
<event>
 5   0  0.1281432E-04  0.1983491E+04  0.7818609E-02  0.8614378E-01
        2   -1    0    0  501    0  0.00000000000E+00  0.00000000000E+00  0.18129553175E+04  0.18129553175E+04  0.25500000920E-02 0.  1.
       -2   -1    0    0    0  501  0.00000000000E+00  0.00000000000E+00 -0.54251696327E+03  0.54251696328E+03  0.25500000920E-02 0. -1.
    10030    2    1    2    0    0  0.00000000000E+00  0.00000000000E+00  0.12704383543E+04  0.23554722808E+04  0.19834908756E+04 0.  0.
        4    1    3    3  502    0 -0.40704986680E+01  0.68178272250E+03 -0.22006693511E+03  0.71643235444E+03  0.12699999809E+01 0. -1.
       -4    1    3    3    0  502  0.40704986680E+01 -0.68178272250E+03  0.14905052894E+04  0.16390399264E+04  0.12699999809E+01 0.  1.
</event>
<event>
 5   0  0.5924654E-05  0.2383154E+04  0.7818609E-02  0.8445838E-01
       -1   -1    0    0    0  501  0.00000000000E+00  0.00000000000E+00  0.11647931094E+04  0.11647931094E+04  0.50400001928E-02 0.  1.
        1   -1    0    0  501    0  0.00000000000E+00  0.00000000000E+00 -0.12189766323E+04  0.12189766323E+04  0.50400001928E-02 0. -1.
    10030    2    1    2    0    0  0.00000000000E+00  0.00000000000E+00 -0.54183522869E+02  0.23837697417E+04  0.23831538614E+04 0.  0.
        5    1    3    3  502    0  0.27267717964E+03  0.42352895412E+03 -0.11072337265E+04  0.12164366956E+04  0.46999998093E+01 0. -1.
       -5    1    3    3    0  502 -0.27267717964E+03 -0.42352895412E+03  0.10530502036E+04  0.11673330461E+04  0.46999998093E+01 0.  1.
</event>
<event>
 5   0  0.1234988E-04  0.1587549E+04  0.7818609E-02  0.8828234E-01
        2   -1    0    0  501    0  0.00000000000E+00  0.00000000000E+00  0.78010228398E+03  0.78010228399E+03  0.25500000920E-02 0. -1.
       -2   -1    0    0    0  501  0.00000000000E+00  0.00000000000E+00 -0.80768675407E+03  0.80768675407E+03  0.25500000920E-02 0.  1.
    10030    2    1    2    0    0  0.00000000000E+00  0.00000000000E+00 -0.27584470086E+02  0.15877890381E+04  0.15875494091E+04 0.  0.
        5    1    3    3  502    0 -0.18788918799E+03 -0.58542825876E+03  0.48830704564E+03  0.78517160795E+03  0.46999998093E+01 0. -1.
       -5    1    3    3    0  502  0.18788918799E+03  0.58542825876E+03 -0.51589151573E+03  0.80261743011E+03  0.46999998093E+01 0.  1.
</event>
<event>
 5   0  0.5843670E-05  0.2291844E+04  0.7818609E-02  0.8481144E-01
        1   -1    0    0  501    0  0.00000000000E+00  0.00000000000E+00  0.25018176244E+04  0.25018176244E+04  0.50400001928E-02 0.  1.
       -1   -1    0    0    0  501  0.00000000000E+00  0.00000000000E+00 -0.52487317434E+03  0.52487317437E+03  0.50400001928E-02 0. -1.
    10030    2    1    2    0    0  0.00000000000E+00  0.00000000000E+00  0.19769444500E+04  0.30266907988E+04  0.22918437627E+04 0.  0.
        2    1    3    3  502    0  0.22327407304E+03 -0.13706488015E+03 -0.48479083924E+03  0.55105376406E+03  0.25500000920E-02 0. -1.
       -2    1    3    3    0  502 -0.22327407304E+03  0.13706488015E+03  0.24617352893E+04  0.24756370347E+04  0.25500000920E-02 0.  1.
</event>
<event>
 5   0  0.1237296E-04  0.2303897E+04  0.7818609E-02  0.8476386E-01
        2   -1    0    0  501    0  0.00000000000E+00  0.00000000000E+00  0.14602207688E+04  0.14602207688E+04  0.25500000920E-02 0.  1.
       -2   -1    0    0    0  501  0.00000000000E+00  0.00000000000E+00 -0.90875642426E+03  0.90875642426E+03  0.25500000920E-02 0. -1.
    10030    2    1    2    0    0  0.00000000000E+00  0.00000000000E+00  0.55146434452E+03  0.23689771930E+04  0.23038967030E+04 0.  0.
        1    1    3    3  502    0  0.82435677821E+03  0.45350329762E+03  0.95915414940E+03  0.13435795552E+04  0.50400001928E-02 0.  1.
       -1    1    3    3    0  502 -0.82435677821E+03 -0.45350329762E+03 -0.40768980488E+03  0.10253976379E+04  0.50400001928E-02 0. -1.
</event>
<event>
 5   0  0.5924654E-05  0.2260543E+04  0.7818609E-02  0.8493643E-01
        1   -1    0    0  501    0  0.00000000000E+00  0.00000000000E+00  0.18087585481E+04  0.18087585481E+04  0.50400001928E-02 0.  1.
       -1   -1    0    0    0  501  0.00000000000E+00  0.00000000000E+00 -0.70629299060E+03  0.70629299062E+03  0.50400001928E-02 0. -1.
    10030    2    1    2    0    0  0.00000000000E+00  0.00000000000E+00  0.11024655575E+04  0.25150515387E+04  0.22605428412E+04 0.  0.
        5    1    3    3  502    0  0.40727057653E+03 -0.19655263001E+03  0.17037085642E+04  0.17627101919E+04  0.46999998093E+01 0.  1.
       -5    1    3    3    0  502 -0.40727057653E+03  0.19655263001E+03 -0.60124300677E+03  0.75234134677E+03  0.46999998093E+01 0. -1.
</event>
<event>
 5   0  0.4489500E-05  0.2279526E+04  0.7818609E-02  0.8486038E-01
        4   -1    0    0  501    0  0.00000000000E+00  0.00000000000E+00  0.55884794197E+03  0.55884938503E+03  0.12699999809E+01 0.  1.
       -4   -1    0    0    0  501  0.00000000000E+00  0.00000000000E+00 -0.23245278135E+04  0.23245281604E+04  0.12699999809E+01 0. -1.
    10030    2    1    2    0    0  0.00000000000E+00  0.00000000000E+00 -0.17656798715E+04  0.28833775454E+04  0.22795264115E+04 0.  0.
        1    1    3    3  502    0  0.44459935951E+03  0.92509826547E+03 -0.15096812352E+04  0.18255445279E+04  0.50400001928E-02 0. -1.
       -1    1    3    3    0  502 -0.44459935951E+03 -0.92509826547E+03 -0.25599863630E+03  0.10578330176E+04  0.50400001928E-02 0.  1.
</event>
<event>
 5   0  0.1270613E-04  0.2330648E+04  0.7818609E-02  0.8465934E-01
       -2   -1    0    0    0  501  0.00000000000E+00  0.00000000000E+00  0.10297466384E+04  0.10297466384E+04  0.25500000920E-02 0. -1.
        2   -1    0    0  501    0  0.00000000000E+00  0.00000000000E+00 -0.13187514476E+04  0.13187514476E+04  0.25500000920E-02 0.  1.
    10030    2    1    2    0    0  0.00000000000E+00  0.00000000000E+00 -0.28900480921E+03  0.23484980860E+04  0.23306478671E+04 0.  0.
        2    1    3    3  502    0 -0.56021358186E+03 -0.63761848331E+03 -0.94910607510E+03  0.12732631030E+04  0.25500000920E-02 0.  1.
       -2    1    3    3    0  502  0.56021358186E+03  0.63761848331E+03  0.66010126589E+03  0.10752349831E+04  0.25500000920E-02 0. -1.
</event>
<event>
 5   0  0.1270613E-04  0.1626534E+04  0.7818609E-02  0.8804411E-01
       -2   -1    0    0    0  501  0.00000000000E+00  0.00000000000E+00  0.34622417190E+03  0.34622417191E+03  0.25500000920E-02 0.  1.
        2   -1    0    0  501    0  0.00000000000E+00  0.00000000000E+00 -0.19103321569E+04  0.19103321569E+04  0.25500000920E-02 0. -1.
    10030    2    1    2    0    0  0.00000000000E+00  0.00000000000E+00 -0.15641079850E+04  0.22565563288E+04  0.16265339457E+04 0.  0.
        2    1    3    3  502    0  0.69033896974E+03 -0.14286175370E+03 -0.13446129226E+04  0.15182098951E+04  0.25500000920E-02 0. -1.
       -2    1    3    3    0  502 -0.69033896974E+03  0.14286175370E+03 -0.21949506239E+03  0.73834643375E+03  0.25500000920E-02 0.  1.
</event>
<event>
 5   0  0.1281432E-04  0.2263392E+04  0.7818609E-02  0.8492496E-01
        2   -1    0    0  501    0  0.00000000000E+00  0.00000000000E+00  0.91589874626E+03  0.91589874626E+03  0.25500000920E-02 0.  1.
       -2   -1    0    0    0  501  0.00000000000E+00  0.00000000000E+00 -0.13983382005E+04  0.13983382005E+04  0.25500000920E-02 0. -1.
    10030    2    1    2    0    0  0.00000000000E+00  0.00000000000E+00 -0.48243945421E+03  0.23142369467E+04  0.22633923254E+04 0.  0.
        4    1    3    3  502    0  0.94342730708E+03 -0.54810401032E+03 -0.54840420126E+03  0.12211559568E+04  0.12699999809E+01 0. -1.
       -4    1    3    3    0  502 -0.94342730708E+03  0.54810401032E+03  0.65964747051E+02  0.10930809900E+04  0.12699999809E+01 0.  1.
</event>
<event>
 5   0  0.1270613E-04  0.2020431E+04  0.7818609E-02  0.8597128E-01
       -2   -1    0    0    0  501  0.00000000000E+00  0.00000000000E+00  0.91244599006E+03  0.91244599007E+03  0.25500000920E-02 0. -1.
        2   -1    0    0  501    0  0.00000000000E+00  0.00000000000E+00 -0.11184614759E+04  0.11184614759E+04  0.25500000920E-02 0.  1.
    10030    2    1    2    0    0  0.00000000000E+00  0.00000000000E+00 -0.20601548582E+03  0.20309074659E+04  0.20204313289E+04 0.  0.
        2    1    3    3  502    0  0.98221088965E+03 -0.22277735524E+03 -0.24065782520E+02  0.10074458515E+04  0.25500000920E-02 0. -1.
       -2    1    3    3    0  502 -0.98221088965E+03  0.22277735524E+03 -0.18194970330E+03  0.10234616145E+04  0.25500000920E-02 0.  1.
</event>
<event>
 5   0  0.1270613E-04  0.2341816E+04  0.7818609E-02  0.8461614E-01
       -2   -1    0    0    0  501  0.00000000000E+00  0.00000000000E+00  0.11712120685E+04  0.11712120685E+04  0.25500000920E-02 0.  1.
        2   -1    0    0  501    0  0.00000000000E+00  0.00000000000E+00 -0.11706036779E+04  0.11706036779E+04  0.25500000920E-02 0. -1.
    10030    2    1    2    0    0  0.00000000000E+00  0.00000000000E+00  0.60839062941E+00  0.23418157464E+04  0.23418156674E+04 0.  0.
        2    1    3    3  502    0  0.10825323145E+04 -0.25560184953E+03  0.36611377220E+03  0.11710029085E+04  0.25500000920E-02 0. -1.
       -2    1    3    3    0  502 -0.10825323145E+04  0.25560184953E+03 -0.36550538157E+03  0.11708128379E+04  0.25500000920E-02 0.  1.
</event>
<event>
 5   0  0.1257524E-04  0.1683799E+04  0.7818609E-02  0.8770658E-01
        2   -1    0    0  501    0  0.00000000000E+00  0.00000000000E+00  0.76529730124E+03  0.76529730124E+03  0.25500000920E-02 0.  1.
       -2   -1    0    0    0  501  0.00000000000E+00  0.00000000000E+00 -0.92616968258E+03  0.92616968258E+03  0.25500000920E-02 0. -1.
    10030    2    1    2    0    0  0.00000000000E+00  0.00000000000E+00 -0.16087238134E+03  0.16914669838E+04  0.16837994638E+04 0.  0.
        3    1    3    3  502    0 -0.65316728431E+03 -0.26002602908E+03 -0.54574532560E+03  0.88998820650E+03  0.10100000352E+00 0. -1.
       -3    1    3    3    0  502  0.65316728431E+03  0.26002602908E+03  0.38487294426E+03  0.80147877733E+03  0.10100000352E+00 0.  1.
</event>
<event>
 5   0  0.5632156E-05  0.2162281E+04  0.7818609E-02  0.8534293E-01
        1   -1    0    0  501    0  0.00000000000E+00  0.00000000000E+00  0.11066040851E+04  0.11066040852E+04  0.50400001928E-02 0.  1.
       -1   -1    0    0    0  501  0.00000000000E+00  0.00000000000E+00 -0.10562632618E+04  0.10562632619E+04  0.50400001928E-02 0. -1.
    10030    2    1    2    0    0  0.00000000000E+00  0.00000000000E+00  0.50340823305E+02  0.21628673470E+04  0.21622814253E+04 0.  0.
        4    1    3    3  502    0 -0.91434484992E+03  0.19463199983E+03 -0.51807481828E+03  0.10687896192E+04  0.12699999809E+01 0. -1.
       -4    1    3    3    0  502  0.91434484992E+03 -0.19463199983E+03  0.56841564159E+03  0.10940777278E+04  0.12699999809E+01 0.  1.
</event>
<event>
 5   0  0.5642466E-05  0.2269655E+04  0.7818609E-02  0.8489983E-01
       -1   -1    0    0    0  501  0.00000000000E+00  0.00000000000E+00  0.98452652491E+03  0.98452652492E+03  0.50400001928E-02 0.  1.
        1   -1    0    0  501    0  0.00000000000E+00  0.00000000000E+00 -0.13080739397E+04  0.13080739397E+04  0.50400001928E-02 0. -1.
    10030    2    1    2    0    0  0.00000000000E+00  0.00000000000E+00 -0.32354741478E+03  0.22926004646E+04  0.22696550312E+04 0.  0.
        1    1    3    3  502    0 -0.34358522651E+03  0.25364075546E+03 -0.12238064061E+04  0.12961815306E+04  0.50400001928E-02 0. -1.
       -1    1    3    3    0  502  0.34358522651E+03 -0.25364075546E+03  0.90025899128E+03  0.99641893404E+03  0.50400001928E-02 0.  1.
</event>
<event>
 5   0  0.5663790E-05  0.2167456E+04  0.7818609E-02  0.8532097E-01
        1   -1    0    0  501    0  0.00000000000E+00  0.00000000000E+00  0.75234395501E+03  0.75234395502E+03  0.50400001928E-02 0.  1.
       -1   -1    0    0    0  501  0.00000000000E+00  0.00000000000E+00 -0.15610765625E+04  0.15610765625E+04  0.50400001928E-02 0. -1.
    10030    2    1    2    0    0  0.00000000000E+00  0.00000000000E+00 -0.80873260752E+03  0.23134205176E+04  0.21674561266E+04 0.  0.
        3    1    3    3  502    0 -0.98693742783E+03  0.44589575000E+03 -0.44703333914E+03  0.11716259313E+04  0.10100000352E+00 0.  1.
       -3    1    3    3    0  502  0.98693742783E+03 -0.44589575000E+03 -0.36169926839E+03  0.11417945863E+04  0.10100000352E+00 0. -1.
</event>
<event>
 5   0  0.5843670E-05  0.2199511E+04  0.7818609E-02  0.8518632E-01
       -1   -1    0    0    0  501  0.00000000000E+00  0.00000000000E+00  0.79951072413E+03  0.79951072415E+03  0.50400001928E-02 0.  1.
        1   -1    0    0  501    0  0.00000000000E+00  0.00000000000E+00 -0.15127528477E+04  0.15127528477E+04  0.50400001928E-02 0. -1.
    10030    2    1    2    0    0  0.00000000000E+00  0.00000000000E+00 -0.71324212359E+03  0.23122635719E+04  0.21995109681E+04 0.  0.
        2    1    3    3  502    0 -0.76887550161E+03  0.14296189768E+03 -0.11694683300E+04  0.14068631121E+04  0.25500000920E-02 0. -1.
       -2    1    3    3    0  502  0.76887550161E+03 -0.14296189768E+03  0.45622620644E+03  0.90540045981E+03  0.25500000920E-02 0.  1.
</event>
<event>
 5   0  0.5642466E-05  0.1582856E+04  0.7818609E-02  0.8831150E-01
        1   -1    0    0  501    0  0.00000000000E+00  0.00000000000E+00  0.88221260810E+03  0.88221260812E+03  0.50400001928E-02 0.  1.
       -1   -1    0    0    0  501  0.00000000000E+00  0.00000000000E+00 -0.70998562928E+03  0.70998562930E+03  0.50400001928E-02 0. -1.
    10030    2    1    2    0    0  0.00000000000E+00  0.00000000000E+00  0.17222697882E+03  0.15921982374E+04  0.15828559931E+04 0.  0.
        1    1    3    3  502    0  0.73095151094E+03 -0.68892200673E+02  0.38336059761E+03  0.82825213220E+03  0.50400001928E-02 0.  1.
       -1    1    3    3    0  502 -0.73095151094E+03  0.68892200673E+02 -0.21113361879E+03  0.76394610522E+03  0.50400001928E-02 0. -1.
</event>
<event>
 5   0  0.1281432E-04  0.1360182E+04  0.7818609E-02  0.8983156E-01
        2   -1    0    0  501    0  0.00000000000E+00  0.00000000000E+00  0.13795202156E+04  0.13795202156E+04  0.25500000920E-02 0. -1.
       -2   -1    0    0    0  501  0.00000000000E+00  0.00000000000E+00 -0.33527889543E+03  0.33527889544E+03  0.25500000920E-02 0.  1.
    10030    2    1    2    0    0  0.00000000000E+00  0.00000000000E+00  0.10442413201E+04  0.17147991110E+04  0.13601823615E+04 0.  0.
        4    1    3    3  502    0  0.65373681350E+03  0.83311124065E+02  0.31037408454E+03  0.72845470001E+03  0.12699999809E+01 0.  1.
       -4    1    3    3    0  502 -0.65373681350E+03 -0.83311124065E+02  0.73386723558E+03  0.98634441098E+03  0.12699999809E+01 0. -1.
</event>
<event>
 5   0  0.1281432E-04  0.2358445E+04  0.7818609E-02  0.8455227E-01
       -2   -1    0    0    0  501  0.00000000000E+00  0.00000000000E+00  0.80855367573E+03  0.80855367573E+03  0.25500000920E-02 0.  1.
        2   -1    0    0  501    0  0.00000000000E+00  0.00000000000E+00 -0.17198189680E+04  0.17198189680E+04  0.25500000920E-02 0. -1.
    10030    2    1    2    0    0  0.00000000000E+00  0.00000000000E+00 -0.91126529228E+03  0.25283726437E+04  0.23584452066E+04 0.  0.
        4    1    3    3  502    0 -0.72969412006E+03 -0.85439768058E+03 -0.71911254423E+02  0.11258870933E+04  0.12699999809E+01 0.  1.
       -4    1    3    3    0  502  0.72969412006E+03  0.85439768058E+03 -0.83935403785E+03  0.14024855504E+04  0.12699999809E+01 0. -1.
</event>
<event>
 5   0  0.1270613E-04  0.1976853E+04  0.7818609E-02  0.8617520E-01
       -2   -1    0    0    0  501  0.00000000000E+00  0.00000000000E+00  0.53775550718E+03  0.53775550719E+03  0.25500000920E-02 0.  1.
        2   -1    0    0  501    0  0.00000000000E+00  0.00000000000E+00 -0.18167856267E+04  0.18167856267E+04  0.25500000920E-02 0. -1.
    10030    2    1    2    0    0  0.00000000000E+00  0.00000000000E+00 -0.12790301196E+04  0.23545411339E+04  0.19768525248E+04 0.  0.
        2    1    3    3  502    0  0.38303035167E+03 -0.72308045885E+03 -0.12999109149E+04  0.15360097614E+04  0.25500000920E-02 0. -1.
       -2    1    3    3    0  502 -0.38303035167E+03  0.72308045885E+03  0.20880795353E+02  0.81853137257E+03  0.25500000920E-02 0.  1.
</event>
<event>
 5   0  0.5924654E-05  0.2289825E+04  0.7818609E-02  0.8481944E-01
       -1   -1    0    0    0  501  0.00000000000E+00  0.00000000000E+00  0.61768682545E+03  0.61768682547E+03  0.50400001928E-02 0.  1.
        1   -1    0    0  501    0  0.00000000000E+00  0.00000000000E+00 -0.21221503017E+04  0.21221503017E+04  0.50400001928E-02 0. -1.
    10030    2    1    2    0    0  0.00000000000E+00  0.00000000000E+00 -0.15044634763E+04  0.27398371272E+04  0.22898246946E+04 0.  0.
        5    1    3    3  502    0  0.26261163749E+03 -0.11141945849E+04 -0.77639293080E+03  0.13831856412E+04  0.46999998093E+01 0.  1.
       -5    1    3    3    0  502 -0.26261163749E+03  0.11141945849E+04 -0.72807054547E+03  0.13566514859E+04  0.46999998093E+01 0. -1.
</event>
<event>
 5   0  0.5632156E-05  0.1877034E+04  0.7818609E-02  0.8666373E-01
       -1   -1    0    0    0  501  0.00000000000E+00  0.00000000000E+00  0.12456684897E+04  0.12456684897E+04  0.50400001928E-02 0. -1.
        1   -1    0    0  501    0  0.00000000000E+00  0.00000000000E+00 -0.70710172203E+03  0.70710172205E+03  0.50400001928E-02 0.  1.
    10030    2    1    2    0    0  0.00000000000E+00  0.00000000000E+00  0.53856676770E+03  0.19527702118E+04  0.18770341864E+04 0.  0.
        4    1    3    3  502    0 -0.79529805999E+03  0.49499925692E+03  0.20961547979E+03  0.95992891969E+03  0.12699999809E+01 0.  1.
       -4    1    3    3    0  502  0.79529805999E+03 -0.49499925692E+03  0.32895128790E+03  0.99284129210E+03  0.12699999809E+01 0. -1.
</event>
<event>
 5   0  0.5663790E-05  0.2183335E+04  0.7818609E-02  0.8525397E-01
       -1   -1    0    0    0  501  0.00000000000E+00  0.00000000000E+00  0.11102835664E+04  0.11102835664E+04  0.50400001928E-02 0.  1.
        1   -1    0    0  501    0  0.00000000000E+00  0.00000000000E+00 -0.10733638067E+04  0.10733638067E+04  0.50400001928E-02 0. -1.
    10030    2    1    2    0    0  0.00000000000E+00  0.00000000000E+00  0.36919759686E+02  0.21836473731E+04  0.21833352426E+04 0.  0.
        3    1    3    3  502    0 -0.10107443527E+04  0.68416100175E+02 -0.38835775233E+03  0.10849454656E+04  0.10100000352E+00 0. -1.
       -3    1    3    3    0  502  0.10107443527E+04 -0.68416100175E+02  0.42527751201E+03  0.10987019076E+04  0.10100000352E+00 0.  1.
</event>
<event>
 5   0  0.5632156E-05  0.1208123E+04  0.7818609E-02  0.9105776E-01
       -1   -1    0    0    0  501  0.00000000000E+00  0.00000000000E+00  0.12102680670E+04  0.12102680670E+04  0.50400001928E-02 0.  1.
        1   -1    0    0  501    0  0.00000000000E+00  0.00000000000E+00 -0.30149542345E+03  0.30149542350E+03  0.50400001928E-02 0. -1.
    10030    2    1    2    0    0  0.00000000000E+00  0.00000000000E+00  0.90877264350E+03  0.15117634905E+04  0.12081229795E+04 0.  0.
        4    1    3    3  502    0  0.54986062637E+03 -0.21500625419E+03  0.61421568404E+03  0.85196063124E+03  0.12699999809E+01 0.  1.
       -4    1    3    3    0  502 -0.54986062637E+03  0.21500625419E+03  0.29455695946E+03  0.65980285922E+03  0.12699999809E+01 0. -1.
</event>
<event>
 5   0  0.5843670E-05  0.2242677E+04  0.7818609E-02  0.8500872E-01
       -1   -1    0    0    0  501  0.00000000000E+00  0.00000000000E+00  0.11603849178E+04  0.11603849178E+04  0.50400001928E-02 0.  1.
        1   -1    0    0  501    0  0.00000000000E+00  0.00000000000E+00 -0.10836057168E+04  0.10836057168E+04  0.50400001928E-02 0. -1.
    10030    2    1    2    0    0  0.00000000000E+00  0.00000000000E+00  0.76779200996E+02  0.22439906346E+04  0.22426767316E+04 0.  0.
        2    1    3    3  502    0 -0.64331314704E+03 -0.74653394330E+03  0.57371238593E+03  0.11403116396E+04  0.25500000920E-02 0.  1.
       -2    1    3    3    0  502  0.64331314704E+03  0.74653394330E+03 -0.49693318494E+03  0.11036789950E+04  0.25500000920E-02 0. -1.
</event>
<event>
 5   0  0.1237296E-04  0.2215781E+04  0.7818609E-02  0.8511888E-01
        2   -1    0    0  501    0  0.00000000000E+00  0.00000000000E+00  0.12025939501E+04  0.12025939501E+04  0.25500000920E-02 0. -1.
       -2   -1    0    0    0  501  0.00000000000E+00  0.00000000000E+00 -0.10206453113E+04  0.10206453113E+04  0.25500000920E-02 0.  1.
    10030    2    1    2    0    0  0.00000000000E+00  0.00000000000E+00  0.18194863881E+03  0.22232392614E+04  0.22157814663E+04 0.  0.
        1    1    3    3  502    0 -0.14205228925E+03  0.57505431690E+03 -0.84842231815E+03  0.10347399433E+04  0.50400001928E-02 0.  1.
       -1    1    3    3    0  502  0.14205228925E+03 -0.57505431690E+03  0.10303709570E+04  0.11884993181E+04  0.50400001928E-02 0. -1.
</event>
<event>
 5   0  0.1270613E-04  0.2328498E+04  0.7818609E-02  0.8466769E-01
       -2   -1    0    0    0  501  0.00000000000E+00  0.00000000000E+00  0.84745769962E+03  0.84745769962E+03  0.25500000920E-02 0.  1.
        2   -1    0    0  501    0  0.00000000000E+00  0.00000000000E+00 -0.15994618794E+04  0.15994618794E+04  0.25500000920E-02 0. -1.
    10030    2    1    2    0    0  0.00000000000E+00  0.00000000000E+00 -0.75200417982E+03  0.24469195791E+04  0.23284984732E+04 0.  0.
        2    1    3    3  502    0 -0.62962842444E+03 -0.71967676901E+03 -0.10739403923E+04  0.14379549961E+04  0.25500000920E-02 0. -1.
       -2    1    3    3    0  502  0.62962842444E+03  0.71967676901E+03  0.32193621245E+03  0.10089645829E+04  0.25500000920E-02 0.  1.
</event>
<event>
 5   0  0.1257524E-04  0.2279047E+04  0.7818609E-02  0.8486229E-01
       -2   -1    0    0    0  501  0.00000000000E+00  0.00000000000E+00  0.16082300986E+04  0.16082300986E+04  0.25500000920E-02 0.  1.
        2   -1    0    0  501    0  0.00000000000E+00  0.00000000000E+00 -0.80741817192E+03  0.80741817192E+03  0.25500000920E-02 0. -1.
    10030    2    1    2    0    0  0.00000000000E+00  0.00000000000E+00  0.80081192663E+03  0.24156482705E+04  0.22790473503E+04 0.  0.
        3    1    3    3  502    0 -0.26540907422E+03  0.83087163075E+03 -0.37684323787E+03  0.95015813399E+03  0.10100000352E+00 0.  1.
       -3    1    3    3    0  502  0.26540907422E+03 -0.83087163075E+03  0.11776551645E+04  0.14654901365E+04  0.10100000352E+00 0. -1.
</event>
<event>
 5   0  0.1234988E-04  0.2276386E+04  0.7818609E-02  0.8487290E-01
        2   -1    0    0  501    0  0.00000000000E+00  0.00000000000E+00  0.14512245299E+04  0.14512245299E+04  0.25500000920E-02 0. -1.
       -2   -1    0    0    0  501  0.00000000000E+00  0.00000000000E+00 -0.89268279343E+03  0.89268279344E+03  0.25500000920E-02 0.  1.
    10030    2    1    2    0    0  0.00000000000E+00  0.00000000000E+00  0.55854173646E+03  0.23439073233E+04  0.22763858787E+04 0.  0.
        5    1    3    3  502    0  0.11777645562E+03 -0.11228822568E+04  0.42750360964E+03  0.12072768043E+04  0.46999998093E+01 0. -1.
       -5    1    3    3    0  502 -0.11777645562E+03  0.11228822568E+04  0.13103812681E+03  0.11366305190E+04  0.46999998093E+01 0.  1.
</event>
<event>
 5   0  0.5924654E-05  0.2266858E+04  0.7818609E-02  0.8491105E-01
       -1   -1    0    0    0  501  0.00000000000E+00  0.00000000000E+00  0.64669519015E+03  0.64669519017E+03  0.50400001928E-02 0.  1.
        1   -1    0    0  501    0  0.00000000000E+00  0.00000000000E+00 -0.19865011417E+04  0.19865011417E+04  0.50400001928E-02 0. -1.
    10030    2    1    2    0    0  0.00000000000E+00  0.00000000000E+00 -0.13398059516E+04  0.26331963319E+04  0.22668575020E+04 0.  0.
        5    1    3    3  502    0 -0.26686870125E+03 -0.23292002335E+03 -0.19205426826E+04  0.19529405845E+04  0.46999998093E+01 0. -1.
       -5    1    3    3    0  502  0.26686870125E+03  0.23292002335E+03  0.58073673107E+03  0.68025574734E+03  0.46999998093E+01 0.  1.
</event>
<event>
 5   0  0.5843670E-05  0.2309339E+04  0.7818609E-02  0.8474248E-01
       -1   -1    0    0    0  501  0.00000000000E+00  0.00000000000E+00  0.85790411142E+03  0.85790411143E+03  0.50400001928E-02 0. -1.
        1   -1    0    0  501    0  0.00000000000E+00  0.00000000000E+00 -0.15540916299E+04  0.15540916300E+04  0.50400001928E-02 0.  1.
    10030    2    1    2    0    0  0.00000000000E+00  0.00000000000E+00 -0.69618751853E+03  0.24119957414E+04  0.23093389521E+04 0.  0.
        2    1    3    3  502    0  0.48380942165E+02 -0.95338583664E+03  0.33037975859E+03  0.10101663497E+04  0.25500000920E-02 0.  1.
       -2    1    3    3    0  502 -0.48380942165E+02  0.95338583664E+03 -0.10265672771E+04  0.14018293917E+04  0.25500000920E-02 0. -1.
</event>
<event>
 5   0  0.5924654E-05  0.1777101E+04  0.7818609E-02  0.8718573E-01
       -1   -1    0    0    0  501  0.00000000000E+00  0.00000000000E+00  0.74559227202E+03  0.74559227204E+03  0.50400001928E-02 0. -1.
        1   -1    0    0  501    0  0.00000000000E+00  0.00000000000E+00 -0.10589190044E+04  0.10589190044E+04  0.50400001928E-02 0.  1.
    10030    2    1    2    0    0  0.00000000000E+00  0.00000000000E+00 -0.31332673233E+03  0.18045112764E+04  0.17771008147E+04 0.  0.
        5    1    3    3  502    0  0.17733526372E+03 -0.70137198145E+03 -0.68049758806E+03  0.99321171433E+03  0.46999998093E+01 0.  1.
       -5    1    3    3    0  502 -0.17733526372E+03  0.70137198145E+03  0.36717085573E+03  0.81129956207E+03  0.46999998093E+01 0. -1.
</event>
<event>
 5   0  0.1270613E-04  0.2328350E+04  0.7818609E-02  0.8466826E-01
       -2   -1    0    0    0  501  0.00000000000E+00  0.00000000000E+00  0.74572546891E+03  0.74572546891E+03  0.25500000920E-02 0.  1.
        2   -1    0    0  501    0  0.00000000000E+00  0.00000000000E+00 -0.18174296598E+04  0.18174296598E+04  0.25500000920E-02 0. -1.
    10030    2    1    2    0    0  0.00000000000E+00  0.00000000000E+00 -0.10717041909E+04  0.25631551287E+04  0.23283501328E+04 0.  0.
        2    1    3    3  502    0  0.12483438154E+03 -0.98928336011E+03 -0.11973116557E+04  0.15581464598E+04  0.25500000920E-02 0. -1.
       -2    1    3    3    0  502 -0.12483438154E+03  0.98928336011E+03  0.12560746476E+03  0.10050086689E+04  0.25500000920E-02 0.  1.
</event>
<event>
 5   0  0.1237296E-04  0.2282379E+04  0.7818609E-02  0.8484901E-01
       -2   -1    0    0    0  501  0.00000000000E+00  0.00000000000E+00  0.57681744056E+03  0.57681744057E+03  0.25500000920E-02 0. -1.
        2   -1    0    0  501    0  0.00000000000E+00  0.00000000000E+00 -0.22577571059E+04  0.22577571059E+04  0.25500000920E-02 0.  1.
    10030    2    1    2    0    0  0.00000000000E+00  0.00000000000E+00 -0.16809396653E+04  0.28345745465E+04  0.22823791755E+04 0.  0.
        1    1    3    3  502    0  0.35212689581E+03 -0.89056574323E+03 -0.16112855187E+04  0.18743910255E+04  0.50400001928E-02 0.  1.
       -1    1    3    3    0  502 -0.35212689581E+03  0.89056574323E+03 -0.69654146673E+02  0.96018352097E+03  0.50400001928E-02 0. -1.
</event>
<event>
 5   0  0.1237296E-04  0.2093083E+04  0.7818609E-02  0.8564296E-01
        2   -1    0    0  501    0  0.00000000000E+00  0.00000000000E+00  0.24240883453E+04  0.24240883453E+04  0.25500000920E-02 0.  1.
       -2   -1    0    0    0  501  0.00000000000E+00  0.00000000000E+00 -0.45181905624E+03  0.45181905624E+03  0.25500000920E-02 0. -1.
    10030    2    1    2    0    0  0.00000000000E+00  0.00000000000E+00  0.19722692891E+04  0.28759074016E+04  0.20930831884E+04 0.  0.
        1    1    3    3  502    0  0.88846432952E+02 -0.32146929342E+03  0.23491126638E+04  0.23726707531E+04  0.50400001928E-02 0.  1.
       -1    1    3    3    0  502 -0.88846432952E+02  0.32146929342E+03 -0.37684337473E+03  0.50323664847E+03  0.50400001928E-02 0. -1.
</event>
<event>
 5   0  0.1257524E-04  0.1616654E+04  0.7818609E-02  0.8810382E-01
        2   -1    0    0  501    0  0.00000000000E+00  0.00000000000E+00  0.51951843165E+03  0.51951843166E+03  0.25500000920E-02 0.  1.
       -2   -1    0    0    0  501  0.00000000000E+00  0.00000000000E+00 -0.12576889296E+04  0.12576889296E+04  0.25500000920E-02 0. -1.
    10030    2    1    2    0    0  0.00000000000E+00  0.00000000000E+00 -0.73817049791E+03  0.17772073612E+04  0.16166540511E+04 0.  0.
        3    1    3    3  502    0  0.26502634565E+03 -0.19530954950E+03 -0.11806484788E+04  0.12256898567E+04  0.10100000352E+00 0. -1.
       -3    1    3    3    0  502 -0.26502634565E+03  0.19530954950E+03  0.44247798092E+03  0.55151750454E+03  0.10100000352E+00 0.  1.
</event>
<event>
 5   0  0.5632156E-05  0.2329720E+04  0.7818609E-02  0.8466294E-01
       -1   -1    0    0    0  501  0.00000000000E+00  0.00000000000E+00  0.75681760225E+03  0.75681760227E+03  0.50400001928E-02 0.  1.
        1   -1    0    0  501    0  0.00000000000E+00  0.00000000000E+00 -0.17929011000E+04  0.17929011000E+04  0.50400001928E-02 0. -1.
    10030    2    1    2    0    0  0.00000000000E+00  0.00000000000E+00 -0.10360834977E+04  0.25497187023E+04  0.23297202507E+04 0.  0.
        4    1    3    3  502    0 -0.73236336127E+02 -0.51057340998E+03  0.62502281169E+03  0.81037268953E+03  0.12699999809E+01 0.  1.
       -4    1    3    3    0  502  0.73236336127E+02  0.51057340998E+03 -0.16611063094E+04  0.17393460127E+04  0.12699999809E+01 0. -1.
</event>
<event>
 5   0  0.1237296E-04  0.2305487E+04  0.7818609E-02  0.8475761E-01
        2   -1    0    0  501    0  0.00000000000E+00  0.00000000000E+00  0.11140367734E+04  0.11140367734E+04  0.25500000920E-02 0.  1.
       -2   -1    0    0    0  501  0.00000000000E+00  0.00000000000E+00 -0.11927953829E+04  0.11927953829E+04  0.25500000920E-02 0. -1.
    10030    2    1    2    0    0  0.00000000000E+00  0.00000000000E+00 -0.78758609441E+02  0.23068321563E+04  0.23054872975E+04 0.  0.
        1    1    3    3  502    0  0.11117635136E+04 -0.23479535655E+02 -0.34328089218E+03  0.11637917210E+04  0.50400001928E-02 0. -1.
       -1    1    3    3    0  502 -0.11117635136E+04  0.23479535655E+02  0.26452228274E+03  0.11430404354E+04  0.50400001928E-02 0.  1.
</event>
<event>
 5   0  0.5843670E-05  0.1673790E+04  0.7818609E-02  0.8776456E-01
       -1   -1    0    0    0  501  0.00000000000E+00  0.00000000000E+00  0.98640781163E+03  0.98640781164E+03  0.50400001928E-02 0.  1.
        1   -1    0    0  501    0  0.00000000000E+00  0.00000000000E+00 -0.71004394465E+03  0.71004394467E+03  0.50400001928E-02 0. -1.
    10030    2    1    2    0    0  0.00000000000E+00  0.00000000000E+00  0.27636386697E+03  0.16964517563E+04  0.16737895849E+04 0.  0.
        2    1    3    3  502    0 -0.42160146439E+03  0.71954065865E+03  0.67188293120E+02  0.83666051715E+03  0.25500000920E-02 0.  1.
       -2    1    3    3    0  502  0.42160146439E+03 -0.71954065865E+03  0.20917557385E+03  0.85979123916E+03  0.25500000920E-02 0. -1.
</event>
<event>
 5   0  0.1234988E-04  0.2289316E+04  0.7818609E-02  0.8482146E-01
       -2   -1    0    0    0  501  0.00000000000E+00  0.00000000000E+00  0.13209870194E+04  0.13209870194E+04  0.25500000920E-02 0. -1.
        2   -1    0    0  501    0  0.00000000000E+00  0.00000000000E+00 -0.99186591228E+03  0.99186591228E+03  0.25500000920E-02 0.  1.
    10030    2    1    2    0    0  0.00000000000E+00  0.00000000000E+00  0.32912110715E+03  0.23128529317E+04  0.22893160508E+04 0.  0.
        5    1    3    3  502    0 -0.20890849948E+03  0.92360164930E+03  0.81424059228E+03  0.12488765351E+04  0.46999998093E+01 0. -1.
       -5    1    3    3    0  502  0.20890849948E+03 -0.92360164930E+03 -0.48511948513E+03  0.10639763966E+04  0.46999998093E+01 0.  1.
</event>
<event>
 5   0  0.1257524E-04  0.2746327E+04  0.7818609E-02  0.8320128E-01
        2   -1    0    0  501    0  0.00000000000E+00  0.00000000000E+00  0.21255015724E+04  0.21255015724E+04  0.25500000920E-02 0. -1.
       -2   -1    0    0    0  501  0.00000000000E+00  0.00000000000E+00 -0.88712132156E+03  0.88712132156E+03  0.25500000920E-02 0.  1.
    10030    2    1    2    0    0  0.00000000000E+00  0.00000000000E+00  0.12383802508E+04  0.30126228940E+04  0.27463268297E+04 0.  0.
        3    1    3    3  502    0  0.76943839722E+03  0.72605798856E+03  0.15795084805E+04  0.19010635707E+04  0.10100000352E+00 0. -1.
       -3    1    3    3    0  502 -0.76943839722E+03 -0.72605798856E+03 -0.34112822962E+03  0.11115593233E+04  0.10100000352E+00 0.  1.
</event>
<event>
 5   0  0.5843670E-05  0.2187667E+04  0.7818609E-02  0.8523579E-01
       -1   -1    0    0    0  501  0.00000000000E+00  0.00000000000E+00  0.62113267990E+03  0.62113267992E+03  0.50400001928E-02 0. -1.
        1   -1    0    0  501    0  0.00000000000E+00  0.00000000000E+00 -0.19262740507E+04  0.19262740507E+04  0.50400001928E-02 0.  1.
    10030    2    1    2    0    0  0.00000000000E+00  0.00000000000E+00 -0.13051413708E+04  0.25474067306E+04  0.21876670344E+04 0.  0.
        2    1    3    3  502    0  0.60799212222E+03  0.31473396318E+03  0.34079950427E+03  0.76475890997E+03  0.25500000920E-02 0. -1.
       -2    1    3    3    0  502 -0.60799212222E+03 -0.31473396318E+03 -0.16459408750E+04  0.17826478206E+04  0.25500000920E-02 0.  1.
</event>
<event>
 5   0  0.5843670E-05  0.2398797E+04  0.7818609E-02  0.8439954E-01
        1   -1    0    0  501    0  0.00000000000E+00  0.00000000000E+00  0.24149679025E+04  0.24149679025E+04  0.50400001928E-02 0.  1.
       -1   -1    0    0    0  501  0.00000000000E+00  0.00000000000E+00 -0.59568367701E+03  0.59568367703E+03  0.50400001928E-02 0. -1.
    10030    2    1    2    0    0  0.00000000000E+00  0.00000000000E+00  0.18192842254E+04  0.30106515795E+04  0.23987971653E+04 0.  0.
        2    1    3    3  502    0  0.49968714167E+03  0.10195170098E+04  0.13948433349E+04  0.17985244234E+04  0.25500000920E-02 0. -1.
       -2    1    3    3    0  502 -0.49968714167E+03 -0.10195170098E+04  0.42444089058E+03  0.12121271561E+04  0.25500000920E-02 0.  1.
</event>
<event>
 5   0  0.5924654E-05  0.2233288E+04  0.7818609E-02  0.8504699E-01
        1   -1    0    0  501    0  0.00000000000E+00  0.00000000000E+00  0.18484616423E+04  0.18484616423E+04  0.50400001928E-02 0.  1.
       -1   -1    0    0    0  501  0.00000000000E+00  0.00000000000E+00 -0.67455744167E+03  0.67455744169E+03  0.50400001928E-02 0. -1.
    10030    2    1    2    0    0  0.00000000000E+00  0.00000000000E+00  0.11739042006E+04  0.25230190840E+04  0.22332877615E+04 0.  0.
        5    1    3    3  502    0 -0.10616680592E+04 -0.34445741414E+03  0.54979970923E+03  0.12442233676E+04  0.46999998093E+01 0. -1.
       -5    1    3    3    0  502  0.10616680592E+04  0.34445741414E+03  0.62410449135E+03  0.12787957164E+04  0.46999998093E+01 0.  1.
</event>
<event>
 5   0  0.1270613E-04  0.2349452E+04  0.7818609E-02  0.8458674E-01
       -2   -1    0    0    0  501  0.00000000000E+00  0.00000000000E+00  0.70227635310E+03  0.70227635311E+03  0.25500000920E-02 0.  1.
        2   -1    0    0  501    0  0.00000000000E+00  0.00000000000E+00 -0.19650117837E+04  0.19650117837E+04  0.25500000920E-02 0. -1.
    10030    2    1    2    0    0  0.00000000000E+00  0.00000000000E+00 -0.12627354306E+04  0.26672881369E+04  0.23494521143E+04 0.  0.
        2    1    3    3  502    0  0.12174465534E+03  0.12838792950E+02 -0.19577503284E+04  0.19615740986E+04  0.25500000920E-02 0. -1.
       -2    1    3    3    0  502 -0.12174465534E+03 -0.12838792950E+02  0.69501489778E+03  0.70571403829E+03  0.25500000920E-02 0.  1.
</event>
<event>
 5   0  0.1270613E-04  0.1813091E+04  0.7818609E-02  0.8699369E-01
       -2   -1    0    0    0  501  0.00000000000E+00  0.00000000000E+00  0.50273285587E+03  0.50273285588E+03  0.25500000920E-02 0.  1.
        2   -1    0    0  501    0  0.00000000000E+00  0.00000000000E+00 -0.16347141830E+04  0.16347141830E+04  0.25500000920E-02 0. -1.
    10030    2    1    2    0    0  0.00000000000E+00  0.00000000000E+00 -0.11319813271E+04  0.21374470389E+04  0.18130907641E+04 0.  0.
        2    1    3    3  502    0 -0.73162447665E+03  0.32270832776E+03 -0.10694907295E+04  0.13353746516E+04  0.25500000920E-02 0. -1.
       -2    1    3    3    0  502  0.73162447665E+03 -0.32270832776E+03 -0.62490597634E+02  0.80207238728E+03  0.25500000920E-02 0.  1.
</event>
<event>
 5   0  0.5663790E-05  0.2310123E+04  0.7818609E-02  0.8473940E-01
        1   -1    0    0  501    0  0.00000000000E+00  0.00000000000E+00  0.97755595330E+03  0.97755595331E+03  0.50400001928E-02 0.  1.
       -1   -1    0    0    0  501  0.00000000000E+00  0.00000000000E+00 -0.13647989985E+04  0.13647989985E+04  0.50400001928E-02 0. -1.
    10030    2    1    2    0    0  0.00000000000E+00  0.00000000000E+00 -0.38724304519E+03  0.23423549518E+04  0.23101232747E+04 0.  0.
        3    1    3    3  502    0  0.74136042182E+03 -0.51573395058E+03  0.53654428874E+03  0.10504649289E+04  0.10100000352E+00 0.  1.
       -3    1    3    3    0  502 -0.74136042182E+03  0.51573395058E+03 -0.92378733393E+03  0.12918900229E+04  0.10100000352E+00 0. -1.
</event>
<event>
 5   0  0.1281432E-04  0.2287825E+04  0.7818609E-02  0.8482737E-01
        2   -1    0    0  501    0  0.00000000000E+00  0.00000000000E+00  0.11787117508E+04  0.11787117508E+04  0.25500000920E-02 0. -1.
       -2   -1    0    0    0  501  0.00000000000E+00  0.00000000000E+00 -0.11101407596E+04  0.11101407596E+04  0.25500000920E-02 0.  1.
    10030    2    1    2    0    0  0.00000000000E+00  0.00000000000E+00  0.68570991229E+02  0.22888525104E+04  0.22878251318E+04 0.  0.
        4    1    3    3  502    0  0.57740541121E+03  0.35453831623E+03 -0.88777903307E+03  0.11168024226E+04  0.12699999809E+01 0.  1.
       -4    1    3    3    0  502 -0.57740541121E+03 -0.35453831623E+03  0.95635002430E+03  0.11720500879E+04  0.12699999809E+01 0. -1.
</event>
<event>
 5   0  0.5642466E-05  0.2335801E+04  0.7818609E-02  0.8463937E-01
        1   -1    0    0  501    0  0.00000000000E+00  0.00000000000E+00  0.25141261813E+04  0.25141261813E+04  0.50400001928E-02 0.  1.
       -1   -1    0    0    0  501  0.00000000000E+00  0.00000000000E+00 -0.54253117067E+03  0.54253117069E+03  0.50400001928E-02 0. -1.
    10030    2    1    2    0    0  0.00000000000E+00  0.00000000000E+00  0.19715950106E+04  0.30566573520E+04  0.23358012076E+04 0.  0.
        1    1    3    3  502    0 -0.87517375594E+02  0.74015727197E+03 -0.19086203858E+03  0.76936363059E+03  0.50400001928E-02 0. -1.
       -1    1    3    3    0  502  0.87517375594E+02 -0.74015727197E+03  0.21624570492E+04  0.22872937214E+04  0.50400001928E-02 0.  1.
</event>
<event>
 5   0  0.1270613E-04  0.2044700E+04  0.7818609E-02  0.8586003E-01
        2   -1    0    0  501    0  0.00000000000E+00  0.00000000000E+00  0.17339325027E+04  0.17339325027E+04  0.25500000920E-02 0. -1.
       -2   -1    0    0    0  501  0.00000000000E+00  0.00000000000E+00 -0.60279128030E+03  0.60279128031E+03  0.25500000920E-02 0.  1.
    10030    2    1    2    0    0  0.00000000000E+00  0.00000000000E+00  0.11311412224E+04  0.23367237830E+04  0.20446998736E+04 0.  0.
        2    1    3    3  502    0  0.55081045059E+02 -0.46150902130E+03  0.16062114874E+04  0.16721064082E+04  0.25500000920E-02 0. -1.
       -2    1    3    3    0  502 -0.55081045059E+02  0.46150902130E+03 -0.47507026494E+03  0.66461737482E+03  0.25500000920E-02 0.  1.
</event>
<event>
 5   0  0.5663790E-05  0.2321570E+04  0.7818609E-02  0.8469465E-01
       -1   -1    0    0    0  501  0.00000000000E+00  0.00000000000E+00  0.49992273539E+03  0.49992273541E+03  0.50400001928E-02 0. -1.
        1   -1    0    0  501    0  0.00000000000E+00  0.00000000000E+00 -0.26952590828E+04  0.26952590828E+04  0.50400001928E-02 0.  1.
    10030    2    1    2    0    0  0.00000000000E+00  0.00000000000E+00 -0.21953363474E+04  0.31951818182E+04  0.23215695495E+04 0.  0.
        3    1    3    3  502    0 -0.19025488595E+03  0.70733654931E+03  0.14169149235E+03  0.74605522907E+03  0.10100000352E+00 0. -1.
       -3    1    3    3    0  502  0.19025488595E+03 -0.70733654931E+03 -0.23370278397E+04  0.24491265891E+04  0.10100000352E+00 0.  1.
</event>
<event>
 5   0  0.1237296E-04  0.2279034E+04  0.7818609E-02  0.8486234E-01
       -2   -1    0    0    0  501  0.00000000000E+00  0.00000000000E+00  0.97213380119E+03  0.97213380119E+03  0.25500000920E-02 0.  1.
        2   -1    0    0  501    0  0.00000000000E+00  0.00000000000E+00 -0.13357203775E+04  0.13357203775E+04  0.25500000920E-02 0. -1.
    10030    2    1    2    0    0  0.00000000000E+00  0.00000000000E+00 -0.36358657632E+03  0.23078541787E+04  0.22790339426E+04 0.  0.
        1    1    3    3  502    0 -0.92948402940E+03 -0.60060750588E+03 -0.45694425130E+03  0.11972752340E+04  0.50400001928E-02 0.  1.
       -1    1    3    3    0  502  0.92948402940E+03  0.60060750588E+03  0.93357674975E+02  0.11105789448E+04  0.50400001928E-02 0. -1.
</event>
<event>
 5   0  0.1234988E-04  0.2264421E+04  0.7818609E-02  0.8492083E-01
        2   -1    0    0  501    0  0.00000000000E+00  0.00000000000E+00  0.15714638544E+04  0.15714638544E+04  0.25500000920E-02 0. -1.
       -2   -1    0    0    0  501  0.00000000000E+00  0.00000000000E+00 -0.81573652457E+03  0.81573652457E+03  0.25500000920E-02 0.  1.
    10030    2    1    2    0    0  0.00000000000E+00  0.00000000000E+00  0.75572732983E+03  0.23872003790E+04  0.22644208647E+04 0.  0.
        5    1    3    3  502    0  0.34082611846E+03 -0.37642831932E+03 -0.68894233130E+03  0.85587636284E+03  0.46999998093E+01 0.  1.
       -5    1    3    3    0  502 -0.34082611846E+03  0.37642831932E+03  0.14446696611E+04  0.15313240161E+04  0.46999998093E+01 0. -1.
</event>
<event>
 5   0  0.5642466E-05  0.2271889E+04  0.7818609E-02  0.8489088E-01
        1   -1    0    0  501    0  0.00000000000E+00  0.00000000000E+00  0.22056916126E+04  0.22056916126E+04  0.50400001928E-02 0.  1.
       -1   -1    0    0    0  501  0.00000000000E+00  0.00000000000E+00 -0.58501812802E+03  0.58501812804E+03  0.50400001928E-02 0. -1.
    10030    2    1    2    0    0  0.00000000000E+00  0.00000000000E+00  0.16206734846E+04  0.27907097406E+04  0.22718887105E+04 0.  0.
        1    1    3    3  502    0 -0.15813724962E+03  0.10135645317E+04  0.14096596980E+04  0.17434049770E+04  0.50400001928E-02 0.  1.
       -1    1    3    3    0  502  0.15813724962E+03 -0.10135645317E+04  0.21101378654E+03  0.10473047636E+04  0.50400001928E-02 0. -1.
</event>
<event>
 5   0  0.5632156E-05  0.2323750E+04  0.7818609E-02  0.8468615E-01
       -1   -1    0    0    0  501  0.00000000000E+00  0.00000000000E+00  0.12239044029E+04  0.12239044029E+04  0.50400001928E-02 0. -1.
        1   -1    0    0  501    0  0.00000000000E+00  0.00000000000E+00 -0.11029895536E+04  0.11029895536E+04  0.50400001928E-02 0.  1.
    10030    2    1    2    0    0  0.00000000000E+00  0.00000000000E+00  0.12091484934E+03  0.23268939565E+04  0.23237502198E+04 0.  0.
        4    1    3    3  502    0  0.31872967571E+03 -0.97028242567E+03  0.61520652391E+03  0.11922739919E+04  0.12699999809E+01 0. -1.
       -4    1    3    3    0  502 -0.31872967571E+03  0.97028242567E+03 -0.49429167457E+03  0.11346199646E+04  0.12699999809E+01 0.  1.
</event>
<event>
 5   0  0.5632156E-05  0.2425676E+04  0.7818609E-02  0.8429953E-01
       -1   -1    0    0    0  501  0.00000000000E+00  0.00000000000E+00  0.13887740013E+04  0.13887740013E+04  0.50400001928E-02 0. -1.
        1   -1    0    0  501    0  0.00000000000E+00  0.00000000000E+00 -0.10591906652E+04  0.10591906652E+04  0.50400001928E-02 0.  1.
    10030    2    1    2    0    0  0.00000000000E+00  0.00000000000E+00  0.32958333610E+03  0.24479646664E+04  0.24256763660E+04 0.  0.
        4    1    3    3  502    0  0.11273849216E+04  0.34062918397E+03  0.45719494253E+03  0.12633502408E+04  0.12699999809E+01 0.  1.
       -4    1    3    3    0  502 -0.11273849216E+04 -0.34062918397E+03 -0.12761160643E+03  0.11846144257E+04  0.12699999809E+01 0. -1.
</event>
<event>
 5   0  0.1270613E-04  0.2314829E+04  0.7818609E-02  0.8472097E-01
       -2   -1    0    0    0  501  0.00000000000E+00  0.00000000000E+00  0.10640299766E+04  0.10640299766E+04  0.25500000920E-02 0.  1.
        2   -1    0    0  501    0  0.00000000000E+00  0.00000000000E+00 -0.12589944432E+04  0.12589944432E+04  0.25500000920E-02 0. -1.
    10030    2    1    2    0    0  0.00000000000E+00  0.00000000000E+00 -0.19496446659E+03  0.23230244198E+04  0.23148285707E+04 0.  0.
        2    1    3    3  502    0  0.30014825210E+02  0.11152219992E+04 -0.40677277546E+03  0.11874700367E+04  0.25500000920E-02 0. -1.
       -2    1    3    3    0  502 -0.30014825210E+02 -0.11152219992E+04  0.21180830888E+03  0.11355543831E+04  0.25500000920E-02 0.  1.
</event>
<event>
 5   0  0.1270613E-04  0.1378304E+04  0.7818609E-02  0.8969674E-01
       -2   -1    0    0    0  501  0.00000000000E+00  0.00000000000E+00  0.29710924882E+03  0.29710924883E+03  0.25500000920E-02 0. -1.
        2   -1    0    0  501    0  0.00000000000E+00  0.00000000000E+00 -0.15985052827E+04  0.15985052827E+04  0.25500000920E-02 0.  1.
    10030    2    1    2    0    0  0.00000000000E+00  0.00000000000E+00 -0.13013960339E+04  0.18956145315E+04  0.13783043260E+04 0.  0.
        2    1    3    3  502    0 -0.19555450708E+03  0.66041762071E+03 -0.68258965783E+03  0.96970183044E+03  0.25500000920E-02 0.  1.
       -2    1    3    3    0  502  0.19555450708E+03 -0.66041762071E+03 -0.61880637604E+03  0.92591270108E+03  0.25500000920E-02 0. -1.
</event>
<event>
 5   0  0.1281432E-04  0.2191084E+04  0.7818609E-02  0.8522148E-01
        2   -1    0    0  501    0  0.00000000000E+00  0.00000000000E+00  0.15224243129E+04  0.15224243129E+04  0.25500000920E-02 0.  1.
       -2   -1    0    0    0  501  0.00000000000E+00  0.00000000000E+00 -0.78835622573E+03  0.78835622574E+03  0.25500000920E-02 0. -1.
    10030    2    1    2    0    0  0.00000000000E+00  0.00000000000E+00  0.73406808716E+03  0.23107805386E+04  0.21910843756E+04 0.  0.
        4    1    3    3  502    0 -0.49744989567E+03  0.36832966592E+03 -0.58627562369E+03  0.85255138340E+03  0.12699999809E+01 0. -1.
       -4    1    3    3    0  502  0.49744989567E+03 -0.36832966592E+03  0.13203437108E+04  0.14582291552E+04  0.12699999809E+01 0.  1.
</event>
<event>
 5   0  0.1234988E-04  0.2304679E+04  0.7818609E-02  0.8476079E-01
        2   -1    0    0  501    0  0.00000000000E+00  0.00000000000E+00  0.15758480487E+04  0.15758480487E+04  0.25500000920E-02 0. -1.
       -2   -1    0    0    0  501  0.00000000000E+00  0.00000000000E+00 -0.84264840311E+03  0.84264840312E+03  0.25500000920E-02 0.  1.
    10030    2    1    2    0    0  0.00000000000E+00  0.00000000000E+00  0.73319964562E+03  0.24184964518E+04  0.23046785822E+04 0.  0.
        5    1    3    3  502    0  0.95908088088E+03 -0.57727131414E+02 -0.30097371348E+03  0.10068643523E+04  0.46999998093E+01 0.  1.
       -5    1    3    3    0  502 -0.95908088088E+03  0.57727131414E+02  0.10341733591E+04  0.14116320995E+04  0.46999998093E+01 0. -1.
</event>
<event>
 5   0  0.1270613E-04  0.2280596E+04  0.7818609E-02  0.8485611E-01
       -2   -1    0    0    0  501  0.00000000000E+00  0.00000000000E+00  0.68849584753E+03  0.68849584753E+03  0.25500000920E-02 0.  1.
        2   -1    0    0  501    0  0.00000000000E+00  0.00000000000E+00 -0.18885804976E+04  0.18885804976E+04  0.25500000920E-02 0. -1.
    10030    2    1    2    0    0  0.00000000000E+00  0.00000000000E+00 -0.12000846500E+04  0.25770763451E+04  0.22805962644E+04 0.  0.
        2    1    3    3  502    0  0.30714462766E+03 -0.67553308633E+03  0.37830443803E+03  0.83294478860E+03  0.25500000920E-02 0.  1.
       -2    1    3    3    0  502 -0.30714462766E+03  0.67553308633E+03 -0.15783890881E+04  0.17441315565E+04  0.25500000920E-02 0. -1.
</event>
<event>
 5   0  0.1237296E-04  0.2317047E+04  0.7818609E-02  0.8471230E-01
        2   -1    0    0  501    0  0.00000000000E+00  0.00000000000E+00  0.20162191512E+04  0.20162191512E+04  0.25500000920E-02 0. -1.
       -2   -1    0    0    0  501  0.00000000000E+00  0.00000000000E+00 -0.66568989210E+03  0.66568989211E+03  0.25500000920E-02 0.  1.
    10030    2    1    2    0    0  0.00000000000E+00  0.00000000000E+00  0.13505292591E+04  0.26819090433E+04  0.23170470079E+04 0.  0.
        1    1    3    3  502    0 -0.77637397445E+03 -0.16781481854E+03 -0.30089959734E+03  0.84938738466E+03  0.50400001928E-02 0.  1.
       -1    1    3    3    0  502  0.77637397445E+03  0.16781481854E+03  0.16514288564E+04  0.18325216586E+04  0.50400001928E-02 0. -1.
</event>
<event>
 5   0  0.1281432E-04  0.2339176E+04  0.7818609E-02  0.8462633E-01
       -2   -1    0    0    0  501  0.00000000000E+00  0.00000000000E+00  0.74886982082E+03  0.74886982083E+03  0.25500000920E-02 0. -1.
        2   -1    0    0  501    0  0.00000000000E+00  0.00000000000E+00 -0.18266680869E+04  0.18266680869E+04  0.25500000920E-02 0.  1.
    10030    2    1    2    0    0  0.00000000000E+00  0.00000000000E+00 -0.10777982661E+04  0.25755379077E+04  0.23391764388E+04 0.  0.
        4    1    3    3  502    0  0.88163950970E+03  0.68531218014E+03 -0.92188861598E+03  0.14480404837E+04  0.12699999809E+01 0.  1.
       -4    1    3    3    0  502 -0.88163950970E+03 -0.68531218014E+03 -0.15590965011E+03  0.11274974240E+04  0.12699999809E+01 0. -1.
</event>
<event>
 5   0  0.1281432E-04  0.2339025E+04  0.7818609E-02  0.8462691E-01
       -2   -1    0    0    0  501  0.00000000000E+00  0.00000000000E+00  0.14058684295E+04  0.14058684295E+04  0.25500000920E-02 0. -1.
        2   -1    0    0  501    0  0.00000000000E+00  0.00000000000E+00 -0.97289311906E+03  0.97289311906E+03  0.25500000920E-02 0.  1.
    10030    2    1    2    0    0  0.00000000000E+00  0.00000000000E+00  0.43297531048E+03  0.23787615486E+04  0.23390251999E+04 0.  0.
        4    1    3    3  502    0 -0.51752223405E+03 -0.11032281367E+03 -0.84418676814E+03  0.99631987753E+03  0.12699999809E+01 0.  1.
       -4    1    3    3    0  502  0.51752223405E+03  0.11032281367E+03  0.12771620786E+04  0.13824416711E+04  0.12699999809E+01 0. -1.
</event>
<event>
 5   0  0.1234988E-04  0.2610742E+04  0.7818609E-02  0.8364561E-01
       -2   -1    0    0    0  501  0.00000000000E+00  0.00000000000E+00  0.10854405713E+04  0.10854405713E+04  0.25500000920E-02 0. -1.
        2   -1    0    0  501    0  0.00000000000E+00  0.00000000000E+00 -0.15698636856E+04  0.15698636856E+04  0.25500000920E-02 0.  1.
    10030    2    1    2    0    0  0.00000000000E+00  0.00000000000E+00 -0.48442311426E+03  0.26553042569E+04  0.26107422208E+04 0.  0.
        5    1    3    3  502    0  0.11442738930E+04  0.39366103413E+03  0.25567437832E+03  0.12368198049E+04  0.46999998093E+01 0.  1.
       -5    1    3    3    0  502 -0.11442738930E+04 -0.39366103413E+03 -0.74009749258E+03  0.14184844520E+04  0.46999998093E+01 0. -1.
</event>
<event>
 5   0  0.5843670E-05  0.2242413E+04  0.7818609E-02  0.8500979E-01
       -1   -1    0    0    0  501  0.00000000000E+00  0.00000000000E+00  0.10713874052E+04  0.10713874052E+04  0.50400001928E-02 0.  1.
        1   -1    0    0  501    0  0.00000000000E+00  0.00000000000E+00 -0.11733420678E+04  0.11733420678E+04  0.50400001928E-02 0. -1.
    10030    2    1    2    0    0  0.00000000000E+00  0.00000000000E+00 -0.10195466259E+03  0.22447294730E+04  0.22424129088E+04 0.  0.
        2    1    3    3  502    0  0.81401821180E+03 -0.17892802360E+03  0.69977279462E+03  0.10882659835E+04  0.25500000920E-02 0. -1.
       -2    1    3    3    0  502 -0.81401821180E+03  0.17892802360E+03 -0.80172745721E+03  0.11564634894E+04  0.25500000920E-02 0.  1.
</event>
<event>
 5   0  0.1234988E-04  0.2413230E+04  0.7818609E-02  0.8434567E-01
       -2   -1    0    0    0  501  0.00000000000E+00  0.00000000000E+00  0.87797945379E+03  0.87797945379E+03  0.25500000920E-02 0. -1.
        2   -1    0    0  501    0  0.00000000000E+00  0.00000000000E+00 -0.16582620339E+04  0.16582620339E+04  0.25500000920E-02 0.  1.
    10030    2    1    2    0    0  0.00000000000E+00  0.00000000000E+00 -0.78028258007E+03  0.25362414877E+04  0.24132301960E+04 0.  0.
        5    1    3    3  502    0 -0.87921668703E+03 -0.53465406914E+03  0.27207302214E+03  0.10643884515E+04  0.46999998093E+01 0. -1.
       -5    1    3    3    0  502  0.87921668703E+03  0.53465406914E+03 -0.10523556022E+04  0.14718530361E+04  0.46999998093E+01 0.  1.
</event>
<event>
 5   0  0.1257524E-04  0.2226643E+04  0.7818609E-02  0.8507420E-01
        2   -1    0    0  501    0  0.00000000000E+00  0.00000000000E+00  0.13216182000E+04  0.13216182000E+04  0.25500000920E-02 0. -1.
       -2   -1    0    0    0  501  0.00000000000E+00  0.00000000000E+00 -0.93785372187E+03  0.93785372187E+03  0.25500000920E-02 0.  1.
    10030    2    1    2    0    0  0.00000000000E+00  0.00000000000E+00  0.38376447813E+03  0.22594719219E+04  0.22266428072E+04 0.  0.
        3    1    3    3  502    0 -0.88312356190E+03  0.53311249402E+03 -0.23306209262E+03  0.10575604503E+04  0.10100000352E+00 0.  1.
       -3    1    3    3    0  502  0.88312356190E+03 -0.53311249402E+03  0.61682657074E+03  0.12019114715E+04  0.10100000352E+00 0. -1.
</event>
<event>
 5   0  0.1234988E-04  0.2230203E+04  0.7818609E-02  0.8505961E-01
        2   -1    0    0  501    0  0.00000000000E+00  0.00000000000E+00  0.11710247248E+04  0.11710247248E+04  0.25500000920E-02 0. -1.
       -2   -1    0    0    0  501  0.00000000000E+00  0.00000000000E+00 -0.10618485259E+04  0.10618485259E+04  0.25500000920E-02 0.  1.
    10030    2    1    2    0    0  0.00000000000E+00  0.00000000000E+00  0.10917619894E+03  0.22328732507E+04  0.22302025718E+04 0.  0.
        5    1    3    3  502    0 -0.41227738561E+03  0.91027643502E+03  0.55000684505E+03  0.11406600942E+04  0.46999998093E+01 0. -1.
       -5    1    3    3    0  502  0.41227738561E+03 -0.91027643502E+03 -0.44083064611E+03  0.10922131566E+04  0.46999998093E+01 0.  1.
</event>
<event>
 5   0  0.5642466E-05  0.2297791E+04  0.7818609E-02  0.8478793E-01
       -1   -1    0    0    0  501  0.00000000000E+00  0.00000000000E+00  0.11931523665E+04  0.11931523665E+04  0.50400001928E-02 0.  1.
        1   -1    0    0  501    0  0.00000000000E+00  0.00000000000E+00 -0.11062799029E+04  0.11062799030E+04  0.50400001928E-02 0. -1.
    10030    2    1    2    0    0  0.00000000000E+00  0.00000000000E+00  0.86872463586E+02  0.22994322695E+04  0.22977906643E+04 0.  0.
        1    1    3    3  502    0 -0.27246269247E+03 -0.14209414908E+03 -0.10643929763E+04  0.11078623895E+04  0.50400001928E-02 0. -1.
       -1    1    3    3    0  502  0.27246269247E+03  0.14209414908E+03  0.11512654399E+04  0.11915698800E+04  0.50400001928E-02 0.  1.
</event>
<event>
 5   0  0.5924654E-05  0.2342475E+04  0.7818609E-02  0.8461360E-01
        1   -1    0    0  501    0  0.00000000000E+00  0.00000000000E+00  0.16493880678E+04  0.16493880678E+04  0.50400001928E-02 0. -1.
       -1   -1    0    0    0  501  0.00000000000E+00  0.00000000000E+00 -0.83170048013E+03  0.83170048014E+03  0.50400001928E-02 0.  1.
    10030    2    1    2    0    0  0.00000000000E+00  0.00000000000E+00  0.81768758770E+03  0.24810885480E+04  0.23424746299E+04 0.  0.
        5    1    3    3  502    0 -0.86879044803E+03  0.51718199864E+03  0.10350125450E+04  0.14469095067E+04  0.46999998093E+01 0. -1.
       -5    1    3    3    0  502  0.86879044803E+03 -0.51718199864E+03 -0.21732495731E+03  0.10341790413E+04  0.46999998093E+01 0.  1.
</event>
<event>
 5   0  0.5924654E-05  0.2278348E+04  0.7818609E-02  0.8486507E-01
        1   -1    0    0  501    0  0.00000000000E+00  0.00000000000E+00  0.86491639166E+03  0.86491639168E+03  0.50400001928E-02 0. -1.
       -1   -1    0    0    0  501  0.00000000000E+00  0.00000000000E+00 -0.15003963963E+04  0.15003963963E+04  0.50400001928E-02 0.  1.
    10030    2    1    2    0    0  0.00000000000E+00  0.00000000000E+00 -0.63548000468E+03  0.23653127880E+04  0.22783480307E+04 0.  0.
        5    1    3    3  502    0 -0.49509692673E+03  0.53623823838E+03  0.59030158842E+03  0.93869615448E+03  0.46999998093E+01 0. -1.
       -5    1    3    3    0  502  0.49509692673E+03 -0.53623823838E+03 -0.12257815931E+04  0.14266166335E+04  0.46999998093E+01 0.  1.
</event>
<event>
 5   0  0.1237296E-04  0.2321020E+04  0.7818609E-02  0.8469679E-01
        2   -1    0    0  501    0  0.00000000000E+00  0.00000000000E+00  0.16463253616E+04  0.16463253616E+04  0.25500000920E-02 0. -1.
       -2   -1    0    0    0  501  0.00000000000E+00  0.00000000000E+00 -0.81805390377E+03  0.81805390378E+03  0.25500000920E-02 0.  1.
    10030    2    1    2    0    0  0.00000000000E+00  0.00000000000E+00  0.82827145785E+03  0.24643792654E+04  0.23210195079E+04 0.  0.
        1    1    3    3  502    0 -0.49567633556E+03 -0.10475919250E+04  0.35008547542E+03  0.12106625092E+04  0.50400001928E-02 0. -1.
       -1    1    3    3    0  502  0.49567633556E+03  0.10475919250E+04  0.47818598242E+03  0.12537167562E+04  0.50400001928E-02 0.  1.
</event>
<event>
 5   0  0.1237296E-04  0.1754033E+04  0.7818609E-02  0.8731133E-01
       -2   -1    0    0    0  501  0.00000000000E+00  0.00000000000E+00  0.85464417626E+03  0.85464417626E+03  0.25500000920E-02 0.  1.
        2   -1    0    0  501    0  0.00000000000E+00  0.00000000000E+00 -0.89997462703E+03  0.89997462703E+03  0.25500000920E-02 0. -1.
    10030    2    1    2    0    0  0.00000000000E+00  0.00000000000E+00 -0.45330450770E+02  0.17546188033E+04  0.17540331511E+04 0.  0.
        1    1    3    3  502    0  0.70437157532E+03 -0.44701032486E+03  0.24798106952E+03  0.87031727405E+03  0.50400001928E-02 0. -1.
       -1    1    3    3    0  502 -0.70437157532E+03  0.44701032486E+03 -0.29331152029E+03  0.88430152924E+03  0.50400001928E-02 0.  1.
</event>
<event>
 5   0  0.5632156E-05  0.2318175E+04  0.7818609E-02  0.8470789E-01
        1   -1    0    0  501    0  0.00000000000E+00  0.00000000000E+00  0.16832124532E+04  0.16832124532E+04  0.50400001928E-02 0. -1.
       -1   -1    0    0    0  501  0.00000000000E+00  0.00000000000E+00 -0.79816641311E+03  0.79816641312E+03  0.50400001928E-02 0.  1.
    10030    2    1    2    0    0  0.00000000000E+00  0.00000000000E+00  0.88504604007E+03  0.24813788663E+04  0.23181748392E+04 0.  0.
        4    1    3    3  502    0 -0.41189405051E+03 -0.90193501219E+03 -0.20002007305E+03  0.10115103151E+04  0.12699999809E+01 0.  1.
       -4    1    3    3    0  502  0.41189405051E+03  0.90193501219E+03  0.10850661131E+04  0.14698685512E+04  0.12699999809E+01 0. -1.
</event>
<event>
 5   0  0.1270613E-04  0.2317409E+04  0.7818609E-02  0.8471089E-01
        2   -1    0    0  501    0  0.00000000000E+00  0.00000000000E+00  0.22583225981E+04  0.22583225981E+04  0.25500000920E-02 0. -1.
       -2   -1    0    0    0  501  0.00000000000E+00  0.00000000000E+00 -0.59451025215E+03  0.59451025216E+03  0.25500000920E-02 0.  1.
    10030    2    1    2    0    0  0.00000000000E+00  0.00000000000E+00  0.16638123459E+04  0.28528328502E+04  0.23174088437E+04 0.  0.
        2    1    3    3  502    0 -0.41976537921E+03  0.24623887311E+03  0.21264119205E+04  0.21813904308E+04  0.25500000920E-02 0. -1.
       -2    1    3    3    0  502  0.41976537921E+03 -0.24623887311E+03 -0.46259957454E+03  0.67144241941E+03  0.25500000920E-02 0.  1.
</event>
<event>
 5   0  0.4489500E-05  0.2280349E+04  0.7818609E-02  0.8485710E-01
        3   -1    0    0  501    0  0.00000000000E+00  0.00000000000E+00  0.82346309854E+03  0.82346310473E+03  0.10100000352E+00 0.  1.
       -3   -1    0    0    0  501  0.00000000000E+00  0.00000000000E+00 -0.15786962173E+04  0.15786962205E+04  0.10100000352E+00 0. -1.
    10030    2    1    2    0    0  0.00000000000E+00  0.00000000000E+00 -0.75523311876E+03  0.24021593253E+04  0.22803491751E+04 0.  0.
        4    1    3    3  502    0  0.60470233884E+03 -0.44802737986E+03 -0.12798751236E+04  0.14847475868E+04  0.12699999809E+01 0. -1.
       -4    1    3    3    0  502 -0.60470233884E+03  0.44802737986E+03  0.52464200482E+03  0.91741173844E+03  0.12699999809E+01 0.  1.
</event>
<event>
 5   0  0.1234988E-04  0.2320895E+04  0.7818609E-02  0.8469728E-01
        2   -1    0    0  501    0  0.00000000000E+00  0.00000000000E+00  0.69399267505E+03  0.69399267506E+03  0.25500000920E-02 0.  1.
       -2   -1    0    0    0  501  0.00000000000E+00  0.00000000000E+00 -0.19404213745E+04  0.19404213746E+04  0.25500000920E-02 0. -1.
    10030    2    1    2    0    0  0.00000000000E+00  0.00000000000E+00 -0.12464286995E+04  0.26344140496E+04  0.23208948451E+04 0.  0.
        5    1    3    3  502    0 -0.27444260747E+03 -0.57381826943E+03  0.47847951775E+03  0.79595910073E+03  0.46999998093E+01 0.  1.
       -5    1    3    3    0  502  0.27444260747E+03  0.57381826943E+03 -0.17249082172E+04  0.18384549489E+04  0.46999998093E+01 0. -1.
</event>
<event>
 5   0  0.1234988E-04  0.1539783E+04  0.7818609E-02  0.8858420E-01
       -2   -1    0    0    0  501  0.00000000000E+00  0.00000000000E+00  0.20844161642E+03  0.20844161643E+03  0.25500000920E-02 0. -1.
        2   -1    0    0  501    0  0.00000000000E+00  0.00000000000E+00 -0.28436418490E+04  0.28436418490E+04  0.25500000920E-02 0.  1.
    10030    2    1    2    0    0  0.00000000000E+00  0.00000000000E+00 -0.26352002325E+04  0.30520834654E+04  0.15397834959E+04 0.  0.
        5    1    3    3  502    0  0.37664021052E+03 -0.45984119333E+03 -0.22874361430E+04  0.23634081259E+04  0.46999998093E+01 0.  1.
       -5    1    3    3    0  502 -0.37664021052E+03  0.45984119333E+03 -0.34776408956E+03  0.68867533951E+03  0.46999998093E+01 0. -1.
</event>
<event>
 5   0  0.5642466E-05  0.2289996E+04  0.7818609E-02  0.8481876E-01
        1   -1    0    0  501    0  0.00000000000E+00  0.00000000000E+00  0.13997614948E+04  0.13997614948E+04  0.50400001928E-02 0.  1.
       -1   -1    0    0    0  501  0.00000000000E+00  0.00000000000E+00 -0.93660283149E+03  0.93660283150E+03  0.50400001928E-02 0. -1.
    10030    2    1    2    0    0  0.00000000000E+00  0.00000000000E+00  0.46315866334E+03  0.23363643263E+04  0.22899961393E+04 0.  0.
        1    1    3    3  502    0  0.19747954387E+03  0.63918325715E+03  0.11796238511E+04  0.13561216157E+04  0.50400001928E-02 0.  1.
       -1    1    3    3    0  502 -0.19747954387E+03 -0.63918325715E+03 -0.71646518776E+03  0.98024271064E+03  0.50400001928E-02 0. -1.
</event>
<event>
 5   0  0.5632156E-05  0.2249070E+04  0.7818609E-02  0.8498277E-01
       -1   -1    0    0    0  501  0.00000000000E+00  0.00000000000E+00  0.69619774527E+03  0.69619774529E+03  0.50400001928E-02 0. -1.
        1   -1    0    0  501    0  0.00000000000E+00  0.00000000000E+00 -0.18164084680E+04  0.18164084680E+04  0.50400001928E-02 0.  1.
    10030    2    1    2    0    0  0.00000000000E+00  0.00000000000E+00 -0.11202107228E+04  0.25126062133E+04  0.22490704569E+04 0.  0.
        4    1    3    3  502    0 -0.51592229983E+03 -0.41693493880E+03 -0.15745641844E+04  0.17085855397E+04  0.12699999809E+01 0.  1.
       -4    1    3    3    0  502  0.51592229983E+03  0.41693493880E+03  0.45435346166E+03  0.80402067366E+03  0.12699999809E+01 0. -1.
</event>
<event>
 5   0  0.1257524E-04  0.2279963E+04  0.7818609E-02  0.8485864E-01
       -2   -1    0    0    0  501  0.00000000000E+00  0.00000000000E+00  0.64063513587E+03  0.64063513587E+03  0.25500000920E-02 0. -1.
        2   -1    0    0  501    0  0.00000000000E+00  0.00000000000E+00 -0.20285453630E+04  0.20285453630E+04  0.25500000920E-02 0.  1.
    10030    2    1    2    0    0  0.00000000000E+00  0.00000000000E+00 -0.13879102271E+04  0.26691804988E+04  0.22799626613E+04 0.  0.
        3    1    3    3  502    0 -0.77457956208E+03 -0.73661319152E+03 -0.11578068570E+04  0.15757820980E+04  0.10100000352E+00 0.  1.
       -3    1    3    3    0  502  0.77457956208E+03  0.73661319152E+03 -0.23010337010E+03  0.10933984009E+04  0.10100000352E+00 0. -1.
</event>
<event>
 5   0  0.1237296E-04  0.2297049E+04  0.7818609E-02  0.8479086E-01
       -2   -1    0    0    0  501  0.00000000000E+00  0.00000000000E+00  0.88483614937E+03  0.88483614937E+03  0.25500000920E-02 0.  1.
        2   -1    0    0  501    0  0.00000000000E+00  0.00000000000E+00 -0.14907940064E+04  0.14907940064E+04  0.25500000920E-02 0. -1.
    10030    2    1    2    0    0  0.00000000000E+00  0.00000000000E+00 -0.60595785700E+03  0.23756301557E+04  0.22970489138E+04 0.  0.
        1    1    3    3  502    0  0.40792244821E+03  0.62732749407E+03  0.59813045067E+03  0.95796688075E+03  0.50400001928E-02 0.  1.
       -1    1    3    3    0  502 -0.40792244821E+03 -0.62732749407E+03 -0.12040883077E+04  0.14176632750E+04  0.50400001928E-02 0. -1.
</event>
<event>
 5   0  0.1234988E-04  0.2289081E+04  0.7818609E-02  0.8482239E-01
       -2   -1    0    0    0  501  0.00000000000E+00  0.00000000000E+00  0.75318836806E+03  0.75318836806E+03  0.25500000920E-02 0.  1.
        2   -1    0    0  501    0  0.00000000000E+00  0.00000000000E+00 -0.17392371107E+04  0.17392371107E+04  0.25500000920E-02 0. -1.
    10030    2    1    2    0    0  0.00000000000E+00  0.00000000000E+00 -0.98604874268E+03  0.24924254788E+04  0.22890811791E+04 0.  0.
        5    1    3    3  502    0  0.23942454216E+03 -0.11190940970E+04 -0.47562478146E+03  0.12393291459E+04  0.46999998093E+01 0.  1.
       -5    1    3    3    0  502 -0.23942454216E+03  0.11190940970E+04 -0.51042396122E+03  0.12530963329E+04  0.46999998093E+01 0. -1.
</event>
<event>
 5   0  0.1234988E-04  0.2308726E+04  0.7818609E-02  0.8474489E-01
       -2   -1    0    0    0  501  0.00000000000E+00  0.00000000000E+00  0.15877557199E+04  0.15877557199E+04  0.25500000920E-02 0. -1.
        2   -1    0    0  501    0  0.00000000000E+00  0.00000000000E+00 -0.83926881823E+03  0.83926881824E+03  0.25500000920E-02 0.  1.
    10030    2    1    2    0    0  0.00000000000E+00  0.00000000000E+00  0.74848690168E+03  0.24270245382E+04  0.23087259402E+04 0.  0.
        5    1    3    3  502    0 -0.74433037372E+03  0.12352431586E+03 -0.54416104375E+03  0.93027914809E+03  0.46999998093E+01 0.  1.
       -5    1    3    3    0  502  0.74433037372E+03 -0.12352431586E+03  0.12926479454E+04  0.14967453901E+04  0.46999998093E+01 0. -1.
</event>
<event>
 5   0  0.1257524E-04  0.2249961E+04  0.7818609E-02  0.8497916E-01
       -2   -1    0    0    0  501  0.00000000000E+00  0.00000000000E+00  0.60177440377E+03  0.60177440377E+03  0.25500000920E-02 0. -1.
        2   -1    0    0  501    0  0.00000000000E+00  0.00000000000E+00 -0.21030823329E+04  0.21030823329E+04  0.25500000920E-02 0.  1.
    10030    2    1    2    0    0  0.00000000000E+00  0.00000000000E+00 -0.15013079292E+04  0.27048567367E+04  0.22499609925E+04 0.  0.
        3    1    3    3  502    0  0.13884630925E+03 -0.22079864267E+03  0.56492295498E+03  0.62222848976E+03  0.10100000352E+00 0. -1.
       -3    1    3    3    0  502 -0.13884630925E+03  0.22079864267E+03 -0.20662308842E+04  0.20826282470E+04  0.10100000352E+00 0.  1.
</event>
<event>
 5   0  0.1281432E-04  0.2305021E+04  0.7818609E-02  0.8475944E-01
       -2   -1    0    0    0  501  0.00000000000E+00  0.00000000000E+00  0.15041963590E+04  0.15041963590E+04  0.25500000920E-02 0. -1.
        2   -1    0    0  501    0  0.00000000000E+00  0.00000000000E+00 -0.88305017214E+03  0.88305017215E+03  0.25500000920E-02 0.  1.
    10030    2    1    2    0    0  0.00000000000E+00  0.00000000000E+00  0.62114618684E+03  0.23872465311E+04  0.23050213480E+04 0.  0.
        4    1    3    3  502    0  0.75563220031E+03  0.57340606292E+03 -0.36738073375E+03  0.10172240420E+04  0.12699999809E+01 0.  1.
       -4    1    3    3    0  502 -0.75563220031E+03 -0.57340606292E+03  0.98852692059E+03  0.13700224892E+04  0.12699999809E+01 0. -1.
</event>
<event>
 5   0  0.5924654E-05  0.2288708E+04  0.7818609E-02  0.8482387E-01
        1   -1    0    0  501    0  0.00000000000E+00  0.00000000000E+00  0.17918001576E+04  0.17918001576E+04  0.50400001928E-02 0.  1.
       -1   -1    0    0    0  501  0.00000000000E+00  0.00000000000E+00 -0.73085500851E+03  0.73085500853E+03  0.50400001928E-02 0. -1.
    10030    2    1    2    0    0  0.00000000000E+00  0.00000000000E+00  0.10609451491E+04  0.25226551661E+04  0.22887080368E+04 0.  0.
        5    1    3    3  502    0  0.21257965612E+03 -0.71117993877E+03  0.14904512995E+04  0.16650628161E+04  0.46999998093E+01 0.  1.
       -5    1    3    3    0  502 -0.21257965612E+03  0.71117993877E+03 -0.42950615042E+03  0.85759234999E+03  0.46999998093E+01 0. -1.
</event>
<event>
 5   0  0.1257524E-04  0.1710441E+04  0.7818609E-02  0.8755432E-01
       -2   -1    0    0    0  501  0.00000000000E+00  0.00000000000E+00  0.11040804938E+04  0.11040804938E+04  0.25500000920E-02 0. -1.
        2   -1    0    0  501    0  0.00000000000E+00  0.00000000000E+00 -0.66245394001E+03  0.66245394001E+03  0.25500000920E-02 0.  1.
    10030    2    1    2    0    0  0.00000000000E+00  0.00000000000E+00  0.44162655376E+03  0.17665344338E+04  0.17104414321E+04 0.  0.
        3    1    3    3  502    0  0.83936970220E+02 -0.42596872775E+03  0.98179967863E+03  0.10735107783E+04  0.10100000352E+00 0. -1.
       -3    1    3    3    0  502 -0.83936970220E+02  0.42596872775E+03 -0.54017312488E+03  0.69302365546E+03  0.10100000352E+00 0.  1.
</event>
<event>
 5   0  0.1281432E-04  0.2288322E+04  0.7818609E-02  0.8482540E-01
        2   -1    0    0  501    0  0.00000000000E+00  0.00000000000E+00  0.22814882001E+04  0.22814882001E+04  0.25500000920E-02 0. -1.
       -2   -1    0    0    0  501  0.00000000000E+00  0.00000000000E+00 -0.57379399809E+03  0.57379399809E+03  0.25500000920E-02 0.  1.
    10030    2    1    2    0    0  0.00000000000E+00  0.00000000000E+00  0.17076942020E+04  0.28552821982E+04  0.22883218619E+04 0.  0.
        4    1    3    3  502    0  0.35454040217E+03  0.54084530972E+03 -0.32387815586E+03  0.72326427989E+03  0.12699999809E+01 0.  1.
       -4    1    3    3    0  502 -0.35454040217E+03 -0.54084530972E+03  0.20315723579E+04  0.21320179183E+04  0.12699999809E+01 0. -1.
</event>
<event>
 5   0  0.1237296E-04  0.2290525E+04  0.7818609E-02  0.8481666E-01
        2   -1    0    0  501    0  0.00000000000E+00  0.00000000000E+00  0.17160653358E+04  0.17160653358E+04  0.25500000920E-02 0. -1.
       -2   -1    0    0    0  501  0.00000000000E+00  0.00000000000E+00 -0.76432195241E+03  0.76432195241E+03  0.25500000920E-02 0.  1.
    10030    2    1    2    0    0  0.00000000000E+00  0.00000000000E+00  0.95174338337E+03  0.24803872882E+04  0.22905251869E+04 0.  0.
        1    1    3    3  502    0  0.29392356719E+02 -0.16117075612E+03  0.17033106542E+04  0.17111712679E+04  0.50400001928E-02 0. -1.
       -1    1    3    3    0  502 -0.29392356719E+02  0.16117075612E+03 -0.75156727085E+03  0.76921602031E+03  0.50400001928E-02 0.  1.
</event>
<event>
 5   0  0.5632156E-05  0.2278878E+04  0.7818609E-02  0.8486296E-01
       -1   -1    0    0    0  501  0.00000000000E+00  0.00000000000E+00  0.68577227809E+03  0.68577227811E+03  0.50400001928E-02 0. -1.
        1   -1    0    0  501    0  0.00000000000E+00  0.00000000000E+00 -0.18932257128E+04  0.18932257128E+04  0.50400001928E-02 0.  1.
    10030    2    1    2    0    0  0.00000000000E+00  0.00000000000E+00 -0.12074534347E+04  0.25789979910E+04  0.22788784172E+04 0.  0.
        4    1    3    3  502    0  0.10431751087E+03  0.10627306908E+04 -0.10536260282E+04  0.15001360220E+04  0.12699999809E+01 0.  1.
       -4    1    3    3    0  502 -0.10431751087E+03 -0.10627306908E+04 -0.15382740655E+03  0.10788619690E+04  0.12699999809E+01 0. -1.
</event>
<event>
 5   0  0.1257524E-04  0.2345243E+04  0.7818609E-02  0.8460293E-01
        2   -1    0    0  501    0  0.00000000000E+00  0.00000000000E+00  0.22893864734E+04  0.22893864734E+04  0.25500000920E-02 0.  1.
       -2   -1    0    0    0  501  0.00000000000E+00  0.00000000000E+00 -0.60061538437E+03  0.60061538437E+03  0.25500000920E-02 0. -1.
    10030    2    1    2    0    0  0.00000000000E+00  0.00000000000E+00  0.16887710890E+04  0.28900018578E+04  0.23452426200E+04 0.  0.
        3    1    3    3  502    0  0.11278992323E+04  0.30160411631E+03  0.97891901676E+03  0.15236154937E+04  0.10100000352E+00 0.  1.
       -3    1    3    3    0  502 -0.11278992323E+04 -0.30160411631E+03  0.70985207225E+03  0.13663863640E+04  0.10100000352E+00 0. -1.
</event>
<event>
 5   0  0.1234988E-04  0.2271741E+04  0.7818609E-02  0.8489147E-01
        2   -1    0    0  501    0  0.00000000000E+00  0.00000000000E+00  0.21308221390E+04  0.21308221390E+04  0.25500000920E-02 0. -1.
       -2   -1    0    0    0  501  0.00000000000E+00  0.00000000000E+00 -0.60549468881E+03  0.60549468881E+03  0.25500000920E-02 0.  1.
    10030    2    1    2    0    0  0.00000000000E+00  0.00000000000E+00  0.15253274502E+04  0.27363168278E+04  0.22717407316E+04 0.  0.
        5    1    3    3  502    0 -0.44655512935E+03 -0.99142221177E+03  0.36709903754E+03  0.11476555576E+04  0.46999998093E+01 0. -1.
       -5    1    3    3    0  502  0.44655512935E+03  0.99142221177E+03  0.11582284126E+04  0.15886612702E+04  0.46999998093E+01 0.  1.
</event>
<event>
 5   0  0.5663790E-05  0.2255326E+04  0.7818609E-02  0.8495747E-01
        1   -1    0    0  501    0  0.00000000000E+00  0.00000000000E+00  0.14923490138E+04  0.14923490138E+04  0.50400001928E-02 0.  1.
       -1   -1    0    0    0  501  0.00000000000E+00  0.00000000000E+00 -0.85209530399E+03  0.85209530400E+03  0.50400001928E-02 0. -1.
    10030    2    1    2    0    0  0.00000000000E+00  0.00000000000E+00  0.64025370984E+03  0.23444443178E+04  0.22553257739E+04 0.  0.
        3    1    3    3  502    0  0.80589567940E+03  0.19246963545E+02 -0.49956545220E+03  0.94836909635E+03  0.10100000352E+00 0.  1.
       -3    1    3    3    0  502 -0.80589567940E+03 -0.19246963545E+02  0.11398191620E+04  0.13960752215E+04  0.10100000352E+00 0. -1.
</event>
<event>
 5   0  0.4489500E-05  0.2311025E+04  0.7818609E-02  0.8473587E-01
       -3   -1    0    0    0  501  0.00000000000E+00  0.00000000000E+00  0.15263859181E+04  0.15263859215E+04  0.10100000352E+00 0. -1.
        3   -1    0    0  501    0  0.00000000000E+00  0.00000000000E+00 -0.87475217853E+03  0.87475218436E+03  0.10100000352E+00 0.  1.
    10030    2    1    2    0    0  0.00000000000E+00  0.00000000000E+00  0.65163373960E+03  0.24011381058E+04  0.23110252428E+04 0.  0.
        5    1    3    3  502    0 -0.33882763876E+03  0.45742490067E+03 -0.71894978544E+03  0.91703467356E+03  0.46999998093E+01 0.  1.
       -5    1    3    3    0  502  0.33882763876E+03 -0.45742490067E+03  0.13705835250E+04  0.14841034323E+04  0.46999998093E+01 0. -1.
</event>
<event>
 5   0  0.5632156E-05  0.2225972E+04  0.7818609E-02  0.8507695E-01
        1   -1    0    0  501    0  0.00000000000E+00  0.00000000000E+00  0.83466425305E+03  0.83466425307E+03  0.50400001928E-02 0. -1.
       -1   -1    0    0    0  501  0.00000000000E+00  0.00000000000E+00 -0.14841157111E+04  0.14841157112E+04  0.50400001928E-02 0.  1.
    10030    2    1    2    0    0  0.00000000000E+00  0.00000000000E+00 -0.64945145809E+03  0.23187799642E+04  0.22259724450E+04 0.  0.
        4    1    3    3  502    0  0.10684209873E+04  0.21594522519E+03 -0.90446739948E+02  0.10937723584E+04  0.12699999809E+01 0.  1.
       -4    1    3    3    0  502 -0.10684209873E+04 -0.21594522519E+03 -0.55900471814E+03  0.12250076058E+04  0.12699999809E+01 0. -1.
</event>
<event>
 5   0  0.1281432E-04  0.1630457E+04  0.7818609E-02  0.8802052E-01
       -2   -1    0    0    0  501  0.00000000000E+00  0.00000000000E+00  0.23940130991E+03  0.23940130992E+03  0.25500000920E-02 0.  1.
        2   -1    0    0  501    0  0.00000000000E+00  0.00000000000E+00 -0.27760816998E+04  0.27760816998E+04  0.25500000920E-02 0. -1.
    10030    2    1    2    0    0  0.00000000000E+00  0.00000000000E+00 -0.25366803899E+04  0.30154830097E+04  0.16304571081E+04 0.  0.
        4    1    3    3  502    0  0.51884690022E+03 -0.38473796382E+03 -0.21881997572E+04  0.22815444762E+04  0.12699999809E+01 0. -1.
       -4    1    3    3    0  502 -0.51884690022E+03  0.38473796382E+03 -0.34848063267E+03  0.73393853348E+03  0.12699999809E+01 0.  1.
</event>
<event>
 5   0  0.5663790E-05  0.2292942E+04  0.7818609E-02  0.8480709E-01
        1   -1    0    0  501    0  0.00000000000E+00  0.00000000000E+00  0.19762190372E+04  0.19762190372E+04  0.50400001928E-02 0.  1.
       -1   -1    0    0    0  501  0.00000000000E+00  0.00000000000E+00 -0.66510636997E+03  0.66510636999E+03  0.50400001928E-02 0. -1.
    10030    2    1    2    0    0  0.00000000000E+00  0.00000000000E+00  0.13111126672E+04  0.26413254072E+04  0.22929421014E+04 0.  0.
        3    1    3    3  502    0  0.98749837425E+03  0.36620907601E+03  0.11772881988E+04  0.15796422506E+04  0.10100000352E+00 0.  1.
       -3    1    3    3    0  502 -0.98749837425E+03 -0.36620907601E+03  0.13382446841E+03  0.10616831566E+04  0.10100000352E+00 0. -1.
</event>
<event>
 5   0  0.1234988E-04  0.2328472E+04  0.7818609E-02  0.8466779E-01
       -2   -1    0    0    0  501  0.00000000000E+00  0.00000000000E+00  0.10907277155E+04  0.10907277155E+04  0.25500000920E-02 0.  1.
        2   -1    0    0  501    0  0.00000000000E+00  0.00000000000E+00 -0.12426977757E+04  0.12426977757E+04  0.25500000920E-02 0. -1.
    10030    2    1    2    0    0  0.00000000000E+00  0.00000000000E+00 -0.15197006015E+03  0.23334254912E+04  0.23284715209E+04 0.  0.
        5    1    3    3  502    0  0.10500172406E+04 -0.20951889751E+03 -0.53411018788E+03  0.11965492705E+04  0.46999998093E+01 0.  1.
       -5    1    3    3    0  502 -0.10500172406E+04  0.20951889751E+03  0.38214012773E+03  0.11368762207E+04  0.46999998093E+01 0. -1.
</event>
<event>
 5   0  0.1270613E-04  0.2323978E+04  0.7818609E-02  0.8468527E-01
        2   -1    0    0  501    0  0.00000000000E+00  0.00000000000E+00  0.11411232482E+04  0.11411232482E+04  0.25500000920E-02 0. -1.
       -2   -1    0    0    0  501  0.00000000000E+00  0.00000000000E+00 -0.11832362567E+04  0.11832362567E+04  0.25500000920E-02 0.  1.
    10030    2    1    2    0    0  0.00000000000E+00  0.00000000000E+00 -0.42113008534E+02  0.23243595049E+04  0.23239779694E+04 0.  0.
        2    1    3    3  502    0  0.10876223424E+04 -0.21106342523E+03  0.32935550863E+03  0.11558309479E+04  0.25500000920E-02 0. -1.
       -2    1    3    3    0  502 -0.10876223424E+04  0.21106342523E+03 -0.37146851717E+03  0.11685285569E+04  0.25500000920E-02 0.  1.
</event>
<event>
 5   0  0.1234988E-04  0.2306642E+04  0.7818609E-02  0.8475307E-01
        2   -1    0    0  501    0  0.00000000000E+00  0.00000000000E+00  0.10613553150E+04  0.10613553150E+04  0.25500000920E-02 0. -1.
       -2   -1    0    0    0  501  0.00000000000E+00  0.00000000000E+00 -0.12532549267E+04  0.12532549267E+04  0.25500000920E-02 0.  1.
    10030    2    1    2    0    0  0.00000000000E+00  0.00000000000E+00 -0.19189961173E+03  0.23146102417E+04  0.23066415218E+04 0.  0.
        5    1    3    3  502    0  0.11035568942E+04 -0.32617104408E+03 -0.18864374810E+02  0.11509141251E+04  0.46999998093E+01 0.  1.
       -5    1    3    3    0  502 -0.11035568942E+04  0.32617104408E+03 -0.17303523692E+03  0.11636961166E+04  0.46999998093E+01 0. -1.
</event>
<event>
 5   0  0.5663790E-05  0.2311348E+04  0.7818609E-02  0.8473460E-01
        1   -1    0    0  501    0  0.00000000000E+00  0.00000000000E+00  0.14579868083E+04  0.14579868083E+04  0.50400001928E-02 0.  1.
       -1   -1    0    0    0  501  0.00000000000E+00  0.00000000000E+00 -0.91604540385E+03  0.91604540386E+03  0.50400001928E-02 0. -1.
    10030    2    1    2    0    0  0.00000000000E+00  0.00000000000E+00  0.54194140442E+03  0.23740322121E+04  0.23113477580E+04 0.  0.
        3    1    3    3  502    0 -0.13755991258E+03 -0.80197243774E+03 -0.57195632745E+03  0.99459367138E+03  0.10100000352E+00 0. -1.
       -3    1    3    3    0  502  0.13755991258E+03  0.80197243774E+03  0.11138977319E+04  0.13794385408E+04  0.10100000352E+00 0.  1.
</event>
<event>
 5   0  0.5632156E-05  0.2248035E+04  0.7818609E-02  0.8498697E-01
        1   -1    0    0  501    0  0.00000000000E+00  0.00000000000E+00  0.15461098712E+04  0.15461098712E+04  0.50400001928E-02 0.  1.
       -1   -1    0    0    0  501  0.00000000000E+00  0.00000000000E+00 -0.81715788717E+03  0.81715788719E+03  0.50400001928E-02 0. -1.
    10030    2    1    2    0    0  0.00000000000E+00  0.00000000000E+00  0.72895198400E+03  0.23632677584E+04  0.22480354763E+04 0.  0.
        4    1    3    3  502    0  0.91372681275E+03 -0.31363203510E+03  0.96851791065E+03  0.13679511314E+04  0.12699999809E+01 0.  1.
       -4    1    3    3    0  502 -0.91372681275E+03  0.31363203510E+03 -0.23956592665E+03  0.99531662696E+03  0.12699999809E+01 0. -1.
</event>
<event>
 5   0  0.1257524E-04  0.2385775E+04  0.7818609E-02  0.8444848E-01
        2   -1    0    0  501    0  0.00000000000E+00  0.00000000000E+00  0.19466690237E+04  0.19466690237E+04  0.25500000920E-02 0. -1.
       -2   -1    0    0    0  501  0.00000000000E+00  0.00000000000E+00 -0.73098243332E+03  0.73098243332E+03  0.25500000920E-02 0.  1.
    10030    2    1    2    0    0  0.00000000000E+00  0.00000000000E+00  0.12156865904E+04  0.26776514570E+04  0.23857752281E+04 0.  0.
        3    1    3    3  502    0 -0.42988302174E+03  0.84799413218E+03  0.14164638178E+04  0.17059493597E+04  0.10100000352E+00 0.  1.
       -3    1    3    3    0  502  0.42988302174E+03 -0.84799413218E+03 -0.20077722745E+03  0.97170209728E+03  0.10100000352E+00 0. -1.
</event>
<event>
 5   0  0.5843670E-05  0.2248110E+04  0.7818609E-02  0.8498666E-01
        1   -1    0    0  501    0  0.00000000000E+00  0.00000000000E+00  0.15152232076E+04  0.15152232076E+04  0.50400001928E-02 0. -1.
       -1   -1    0    0    0  501  0.00000000000E+00  0.00000000000E+00 -0.83387030860E+03  0.83387030861E+03  0.50400001928E-02 0.  1.
    10030    2    1    2    0    0  0.00000000000E+00  0.00000000000E+00  0.68135289903E+03  0.23490935162E+04  0.22481100007E+04 0.  0.
        2    1    3    3  502    0  0.24242764662E+03  0.35087079725E+03  0.14274016407E+04  0.14897506248E+04  0.25500000920E-02 0. -1.
       -2    1    3    3    0  502 -0.24242764662E+03 -0.35087079725E+03 -0.74604874164E+03  0.85934289147E+03  0.25500000920E-02 0.  1.
</event>
<event>
 5   0  0.1281432E-04  0.2231541E+04  0.7818609E-02  0.8505414E-01
        2   -1    0    0  501    0  0.00000000000E+00  0.00000000000E+00  0.85294288335E+03  0.85294288336E+03  0.25500000920E-02 0. -1.
       -2   -1    0    0    0  501  0.00000000000E+00  0.00000000000E+00 -0.14595866159E+04  0.14595866159E+04  0.25500000920E-02 0.  1.
    10030    2    1    2    0    0  0.00000000000E+00  0.00000000000E+00 -0.60664373257E+03  0.23125294993E+04  0.22315411864E+04 0.  0.
        4    1    3    3  502    0  0.10152299850E+04 -0.43611081530E+03 -0.46405694764E+03  0.11984302354E+04  0.12699999809E+01 0. -1.
       -4    1    3    3    0  502 -0.10152299850E+04  0.43611081530E+03 -0.14258678493E+03  0.11140992639E+04  0.12699999809E+01 0.  1.
</event>
<event>
 5   0  0.5632156E-05  0.2335837E+04  0.7818609E-02  0.8463924E-01
        1   -1    0    0  501    0  0.00000000000E+00  0.00000000000E+00  0.95067166537E+03  0.95067166538E+03  0.50400001928E-02 0.  1.
       -1   -1    0    0    0  501  0.00000000000E+00  0.00000000000E+00 -0.14348107704E+04  0.14348107705E+04  0.50400001928E-02 0. -1.
    10030    2    1    2    0    0  0.00000000000E+00  0.00000000000E+00 -0.48413910508E+03  0.23854824358E+04  0.23358372757E+04 0.  0.
        4    1    3    3  502    0  0.18835010114E+03  0.62705292497E+03  0.74562649087E+03  0.99228605155E+03  0.12699999809E+01 0.  1.
       -4    1    3    3    0  502 -0.18835010114E+03 -0.62705292497E+03 -0.12297655960E+04  0.13931963843E+04  0.12699999809E+01 0. -1.
</event>
<event>
 5   0  0.5642466E-05  0.2302175E+04  0.7818609E-02  0.8477064E-01
        1   -1    0    0  501    0  0.00000000000E+00  0.00000000000E+00  0.77815903470E+03  0.77815903472E+03  0.50400001928E-02 0.  1.
       -1   -1    0    0    0  501  0.00000000000E+00  0.00000000000E+00 -0.17027401486E+04  0.17027401486E+04  0.50400001928E-02 0. -1.
    10030    2    1    2    0    0  0.00000000000E+00  0.00000000000E+00 -0.92458111386E+03  0.24808991833E+04  0.23021751718E+04 0.  0.
        1    1    3    3  502    0  0.49408543592E+03  0.10202209705E+04 -0.67790162509E+03  0.13208034903E+04  0.50400001928E-02 0. -1.
       -1    1    3    3    0  502 -0.49408543592E+03 -0.10202209705E+04 -0.24667948877E+03  0.11600956930E+04  0.50400001928E-02 0.  1.
</event>
<event>
 5   0  0.5924654E-05  0.2265023E+04  0.7818609E-02  0.8491841E-01
        1   -1    0    0  501    0  0.00000000000E+00  0.00000000000E+00  0.20665427758E+04  0.20665427758E+04  0.50400001928E-02 0.  1.
       -1   -1    0    0    0  501  0.00000000000E+00  0.00000000000E+00 -0.62064147295E+03  0.62064147297E+03  0.50400001928E-02 0. -1.
    10030    2    1    2    0    0  0.00000000000E+00  0.00000000000E+00  0.14459013029E+04  0.26871842488E+04  0.22650228717E+04 0.  0.
        5    1    3    3  502    0 -0.51090510975E+03  0.38982621460E+03 -0.38336107431E+03  0.74831565001E+03  0.46999998093E+01 0. -1.
       -5    1    3    3    0  502  0.51090510975E+03 -0.38982621460E+03  0.18292623772E+04  0.19388685988E+04  0.46999998093E+01 0.  1.
</event>
<event>
 5   0  0.5663790E-05  0.2334485E+04  0.7818609E-02  0.8464447E-01
       -1   -1    0    0    0  501  0.00000000000E+00  0.00000000000E+00  0.57577124389E+03  0.57577124391E+03  0.50400001928E-02 0.  1.
        1   -1    0    0  501    0  0.00000000000E+00  0.00000000000E+00 -0.23663139496E+04  0.23663139497E+04  0.50400001928E-02 0. -1.
    10030    2    1    2    0    0  0.00000000000E+00  0.00000000000E+00 -0.17905427058E+04  0.29420851936E+04  0.23344854048E+04 0.  0.
        3    1    3    3  502    0 -0.40047397397E+03  0.39881569665E+03  0.39182437110E+03  0.68772066401E+03  0.10100000352E+00 0.  1.
       -3    1    3    3    0  502  0.40047397397E+03 -0.39881569665E+03 -0.21823670769E+04  0.22543645295E+04  0.10100000352E+00 0. -1.
</event>
<event>
 5   0  0.1270613E-04  0.2138828E+04  0.7818609E-02  0.8544330E-01
        2   -1    0    0  501    0  0.00000000000E+00  0.00000000000E+00  0.58953231667E+03  0.58953231667E+03  0.25500000920E-02 0.  1.
       -2   -1    0    0    0  501  0.00000000000E+00  0.00000000000E+00 -0.19399216398E+04  0.19399216398E+04  0.25500000920E-02 0. -1.
    10030    2    1    2    0    0  0.00000000000E+00  0.00000000000E+00 -0.13503893231E+04  0.25294539564E+04  0.21388281824E+04 0.  0.
        2    1    3    3  502    0 -0.44377660329E+03  0.76874115410E+03 -0.13805708735E+04  0.16413033152E+04  0.25500000920E-02 0. -1.
       -2    1    3    3    0  502  0.44377660329E+03 -0.76874115410E+03  0.30181550388E+02  0.88815064128E+03  0.25500000920E-02 0.  1.
</event>
<event>
 5   0  0.5632156E-05  0.2307272E+04  0.7818609E-02  0.8475059E-01
        1   -1    0    0  501    0  0.00000000000E+00  0.00000000000E+00  0.80724838622E+03  0.80724838623E+03  0.50400001928E-02 0. -1.
       -1   -1    0    0    0  501  0.00000000000E+00  0.00000000000E+00 -0.16486574568E+04  0.16486574568E+04  0.50400001928E-02 0.  1.
    10030    2    1    2    0    0  0.00000000000E+00  0.00000000000E+00 -0.84140907058E+03  0.24559058430E+04  0.23072720442E+04 0.  0.
        4    1    3    3  502    0  0.80944161874E+03  0.66781085093E+03  0.89448404518E+02  0.10531712571E+04  0.12699999809E+01 0. -1.
       -4    1    3    3    0  502 -0.80944161874E+03 -0.66781085093E+03 -0.93085747510E+03  0.14027345860E+04  0.12699999809E+01 0.  1.
</event>
<event>
 5   0  0.1257524E-04  0.2253668E+04  0.7818609E-02  0.8496416E-01
        2   -1    0    0  501    0  0.00000000000E+00  0.00000000000E+00  0.75097081843E+03  0.75097081843E+03  0.25500000920E-02 0. -1.
       -2   -1    0    0    0  501  0.00000000000E+00  0.00000000000E+00 -0.16908182156E+04  0.16908182157E+04  0.25500000920E-02 0.  1.
    10030    2    1    2    0    0  0.00000000000E+00  0.00000000000E+00 -0.93984739722E+03  0.24417890341E+04  0.22536682446E+04 0.  0.
        3    1    3    3  502    0 -0.36635336499E+03 -0.31140496484E+03 -0.15740925044E+04  0.16458903556E+04  0.10100000352E+00 0.  1.
       -3    1    3    3    0  502  0.36635336499E+03  0.31140496484E+03  0.63424510718E+03  0.79589867845E+03  0.10100000352E+00 0. -1.
</event>
<event>
 5   0  0.1281432E-04  0.2241818E+04  0.7818609E-02  0.8501221E-01
        2   -1    0    0  501    0  0.00000000000E+00  0.00000000000E+00  0.15016351594E+04  0.15016351594E+04  0.25500000920E-02 0.  1.
       -2   -1    0    0    0  501  0.00000000000E+00  0.00000000000E+00 -0.83671236194E+03  0.83671236194E+03  0.25500000920E-02 0. -1.
    10030    2    1    2    0    0  0.00000000000E+00  0.00000000000E+00  0.66492279742E+03  0.23383475213E+04  0.22418177455E+04 0.  0.
        4    1    3    3  502    0  0.87669712260E+03  0.58064847545E+03 -0.72434311342E+02  0.10540392968E+04  0.12699999809E+01 0. -1.
       -4    1    3    3    0  502 -0.87669712260E+03 -0.58064847545E+03  0.73735710876E+03  0.12843082245E+04  0.12699999809E+01 0.  1.
</event>
<event>
 5   0  0.5642466E-05  0.2354784E+04  0.7818609E-02  0.8456628E-01
       -1   -1    0    0    0  501  0.00000000000E+00  0.00000000000E+00  0.12317508151E+04  0.12317508152E+04  0.50400001928E-02 0.  1.
        1   -1    0    0  501    0  0.00000000000E+00  0.00000000000E+00 -0.11254319362E+04  0.11254319363E+04  0.50400001928E-02 0. -1.
    10030    2    1    2    0    0  0.00000000000E+00  0.00000000000E+00  0.10631887890E+03  0.23571827514E+04  0.23547838159E+04 0.  0.
        1    1    3    3  502    0 -0.80680699028E+02  0.10620296904E+04 -0.44918371208E+03  0.11559335819E+04  0.50400001928E-02 0. -1.
       -1    1    3    3    0  502  0.80680699028E+02 -0.10620296904E+04  0.55550259098E+03  0.12012491695E+04  0.50400001928E-02 0.  1.
</event>
<event>
 5   0  0.1234988E-04  0.2175216E+04  0.7818609E-02  0.8528815E-01
        2   -1    0    0  501    0  0.00000000000E+00  0.00000000000E+00  0.11060577439E+04  0.11060577439E+04  0.25500000920E-02 0.  1.
       -2   -1    0    0    0  501  0.00000000000E+00  0.00000000000E+00 -0.10694659073E+04  0.10694659073E+04  0.25500000920E-02 0. -1.
    10030    2    1    2    0    0  0.00000000000E+00  0.00000000000E+00  0.36591836673E+02  0.21755236512E+04  0.21752158961E+04 0.  0.
        5    1    3    3  502    0  0.52230522057E+03 -0.16483182871E+03  0.95805468000E+03  0.11035683645E+04  0.46999998093E+01 0.  1.
       -5    1    3    3    0  502 -0.52230522057E+03  0.16483182871E+03 -0.92146284332E+03  0.10719552868E+04  0.46999998093E+01 0. -1.
</event>
<event>
 5   0  0.4489500E-05  0.2264632E+04  0.7818609E-02  0.8491998E-01
        3   -1    0    0  501    0  0.00000000000E+00  0.00000000000E+00  0.12351805055E+04  0.12351805096E+04  0.10100000352E+00 0. -1.
       -3   -1    0    0    0  501  0.00000000000E+00  0.00000000000E+00 -0.10380175597E+04  0.10380175646E+04  0.10100000352E+00 0.  1.
    10030    2    1    2    0    0  0.00000000000E+00  0.00000000000E+00  0.19716294580E+03  0.22731980742E+04  0.22646315942E+04 0.  0.
        3    1    3    3  502    0  0.10544455576E+04 -0.36995806501E+03 -0.84906742754E+02  0.11206844199E+04  0.10100000352E+00 0.  1.
       -3    1    3    3    0  502 -0.10544455576E+04  0.36995806501E+03  0.28206968856E+03  0.11525136543E+04  0.10100000352E+00 0. -1.
</event>
<event>
 5   0  0.1237296E-04  0.2255409E+04  0.7818609E-02  0.8495713E-01
       -2   -1    0    0    0  501  0.00000000000E+00  0.00000000000E+00  0.13515826135E+04  0.13515826135E+04  0.25500000920E-02 0. -1.
        2   -1    0    0  501    0  0.00000000000E+00  0.00000000000E+00 -0.94091026497E+03  0.94091026497E+03  0.25500000920E-02 0.  1.
    10030    2    1    2    0    0  0.00000000000E+00  0.00000000000E+00  0.41067234855E+03  0.22924928785E+04  0.22554094573E+04 0.  0.
        1    1    3    3  502    0 -0.28034248603E+03  0.59637422606E+03 -0.72484089061E+03  0.97961647787E+03  0.50400001928E-02 0.  1.
       -1    1    3    3    0  502  0.28034248603E+03 -0.59637422606E+03  0.11355132392E+04  0.13128764006E+04  0.50400001928E-02 0. -1.
</event>
<event>
 5   0  0.1257524E-04  0.2038965E+04  0.7818609E-02  0.8588617E-01
        2   -1    0    0  501    0  0.00000000000E+00  0.00000000000E+00  0.76552033190E+03  0.76552033190E+03  0.25500000920E-02 0.  1.
       -2   -1    0    0    0  501  0.00000000000E+00  0.00000000000E+00 -0.13576972074E+04  0.13576972074E+04  0.25500000920E-02 0. -1.
    10030    2    1    2    0    0  0.00000000000E+00  0.00000000000E+00 -0.59217687549E+03  0.21232175393E+04  0.20389652443E+04 0.  0.
        3    1    3    3  502    0  0.44743406287E+03 -0.76144406037E+03  0.23421961561E+03  0.91370298031E+03  0.10100000352E+00 0. -1.
       -3    1    3    3    0  502 -0.44743406287E+03  0.76144406037E+03 -0.82639649110E+03  0.12095145590E+04  0.10100000352E+00 0.  1.
</event>
<event>
 5   0  0.5642466E-05  0.2335527E+04  0.7818609E-02  0.8464043E-01
       -1   -1    0    0    0  501  0.00000000000E+00  0.00000000000E+00  0.10161611631E+04  0.10161611631E+04  0.50400001928E-02 0. -1.
        1   -1    0    0  501    0  0.00000000000E+00  0.00000000000E+00 -0.13419839288E+04  0.13419839288E+04  0.50400001928E-02 0.  1.
    10030    2    1    2    0    0  0.00000000000E+00  0.00000000000E+00 -0.32582276570E+03  0.23581450920E+04  0.23355273066E+04 0.  0.
        1    1    3    3  502    0 -0.54567880539E+03  0.33471191112E+03 -0.11490346350E+04  0.13153243001E+04  0.50400001928E-02 0.  1.
       -1    1    3    3    0  502  0.54567880539E+03 -0.33471191112E+03  0.82321186929E+03  0.10428207918E+04  0.50400001928E-02 0. -1.
</event>
<event>
 5   0  0.5843670E-05  0.2273585E+04  0.7818609E-02  0.8488410E-01
       -1   -1    0    0    0  501  0.00000000000E+00  0.00000000000E+00  0.12593844460E+04  0.12593844460E+04  0.50400001928E-02 0.  1.
        1   -1    0    0  501    0  0.00000000000E+00  0.00000000000E+00 -0.10261338076E+04  0.10261338076E+04  0.50400001928E-02 0. -1.
    10030    2    1    2    0    0  0.00000000000E+00  0.00000000000E+00  0.23325063841E+03  0.22855182536E+04  0.22735847966E+04 0.  0.
        2    1    3    3  502    0 -0.36451551197E+02 -0.11240777098E+04 -0.49826217190E+02  0.11257717643E+04  0.25500000920E-02 0. -1.
       -2    1    3    3    0  502  0.36451551197E+02  0.11240777098E+04  0.28307685560E+03  0.11597464893E+04  0.25500000920E-02 0.  1.
</event>
<event>
 5   0  0.1237296E-04  0.2351877E+04  0.7818609E-02  0.8457743E-01
       -2   -1    0    0    0  501  0.00000000000E+00  0.00000000000E+00  0.11131868842E+04  0.11131868842E+04  0.25500000920E-02 0.  1.
        2   -1    0    0  501    0  0.00000000000E+00  0.00000000000E+00 -0.12422274065E+04  0.12422274065E+04  0.25500000920E-02 0. -1.
    10030    2    1    2    0    0  0.00000000000E+00  0.00000000000E+00 -0.12904052232E+03  0.23554142907E+04  0.23518769152E+04 0.  0.
        1    1    3    3  502    0 -0.20674937817E+03 -0.67489345744E+03 -0.10064691870E+04  0.12293114775E+04  0.50400001928E-02 0. -1.
       -1    1    3    3    0  502  0.20674937817E+03  0.67489345744E+03  0.87742866470E+03  0.11261028132E+04  0.50400001928E-02 0.  1.
</event>
<event>
 5   0  0.1257524E-04  0.2289190E+04  0.7818609E-02  0.8482196E-01
        2   -1    0    0  501    0  0.00000000000E+00  0.00000000000E+00  0.11703420952E+04  0.11703420952E+04  0.25500000920E-02 0.  1.
       -2   -1    0    0    0  501  0.00000000000E+00  0.00000000000E+00 -0.11194143770E+04  0.11194143770E+04  0.25500000920E-02 0. -1.
    10030    2    1    2    0    0  0.00000000000E+00  0.00000000000E+00  0.50927718146E+02  0.22897564722E+04  0.22891900466E+04 0.  0.
        3    1    3    3  502    0 -0.37223803009E+03 -0.93722048889E+03 -0.51610742206E+03  0.11328328549E+04  0.10100000352E+00 0. -1.
       -3    1    3    3    0  502  0.37223803009E+03  0.93722048889E+03  0.56703514021E+03  0.11569236173E+04  0.10100000352E+00 0.  1.
</event>
<event>
 5   0  0.5924654E-05  0.2242803E+04  0.7818609E-02  0.8500821E-01
       -1   -1    0    0    0  501  0.00000000000E+00  0.00000000000E+00  0.66993026992E+03  0.66993026994E+03  0.50400001928E-02 0. -1.
        1   -1    0    0  501    0  0.00000000000E+00  0.00000000000E+00 -0.18771219973E+04  0.18771219973E+04  0.50400001928E-02 0.  1.
    10030    2    1    2    0    0  0.00000000000E+00  0.00000000000E+00 -0.12071917274E+04  0.25470522672E+04  0.22428025739E+04 0.  0.
        5    1    3    3  502    0 -0.16960373330E+03 -0.28524184359E+03 -0.18200687153E+04  0.18500812291E+04  0.46999998093E+01 0.  1.
       -5    1    3    3    0  502  0.16960373330E+03  0.28524184359E+03  0.61287698795E+03  0.69697103816E+03  0.46999998093E+01 0. -1.
</event>
<event>
 5   0  0.1257524E-04  0.2590609E+04  0.7818609E-02  0.8371398E-01
       -2   -1    0    0    0  501  0.00000000000E+00  0.00000000000E+00  0.12514322441E+04  0.12514322441E+04  0.25500000920E-02 0. -1.
        2   -1    0    0  501    0  0.00000000000E+00  0.00000000000E+00 -0.13407146309E+04  0.13407146309E+04  0.25500000920E-02 0.  1.
    10030    2    1    2    0    0  0.00000000000E+00  0.00000000000E+00 -0.89282386804E+02  0.25921468750E+04  0.25906088236E+04 0.  0.
        3    1    3    3  502    0  0.38194663915E+03  0.47025298972E+02 -0.12821935481E+04  0.13386989650E+04  0.10100000352E+00 0.  1.
       -3    1    3    3    0  502 -0.38194663915E+03 -0.47025298972E+02  0.11929111613E+04  0.12534479099E+04  0.10100000352E+00 0. -1.
</event>
<event>
 5   0  0.5843670E-05  0.2281459E+04  0.7818609E-02  0.8485268E-01
       -1   -1    0    0    0  501  0.00000000000E+00  0.00000000000E+00  0.61010632459E+03  0.61010632461E+03  0.50400001928E-02 0. -1.
        1   -1    0    0  501    0  0.00000000000E+00  0.00000000000E+00 -0.21328476824E+04  0.21328476824E+04  0.50400001928E-02 0.  1.
    10030    2    1    2    0    0  0.00000000000E+00  0.00000000000E+00 -0.15227413578E+04  0.27429540070E+04  0.22814590599E+04 0.  0.
        2    1    3    3  502    0 -0.76268838595E+03  0.77977435790E+03 -0.35986972441E+03  0.11485851478E+04  0.25500000920E-02 0. -1.
       -2    1    3    3    0  502  0.76268838595E+03 -0.77977435790E+03 -0.11628716334E+04  0.15943688592E+04  0.25500000920E-02 0.  1.
</event>
<event>
 5   0  0.5632156E-05  0.2305756E+04  0.7818609E-02  0.8475655E-01
        1   -1    0    0  501    0  0.00000000000E+00  0.00000000000E+00  0.11590765225E+04  0.11590765225E+04  0.50400001928E-02 0.  1.
       -1   -1    0    0    0  501  0.00000000000E+00  0.00000000000E+00 -0.11467121819E+04  0.11467121819E+04  0.50400001928E-02 0. -1.
    10030    2    1    2    0    0  0.00000000000E+00  0.00000000000E+00  0.12364340564E+02  0.23057887044E+04  0.23057555535E+04 0.  0.
        4    1    3    3  502    0 -0.89845294424E+03 -0.43299229636E+03 -0.57212151284E+03  0.11497933119E+04  0.12699999809E+01 0.  1.
       -4    1    3    3    0  502  0.89845294424E+03  0.43299229636E+03  0.58448585340E+03  0.11559953925E+04  0.12699999809E+01 0. -1.
</event>
<event>
 5   0  0.1257524E-04  0.2265149E+04  0.7818609E-02  0.8491791E-01
        2   -1    0    0  501    0  0.00000000000E+00  0.00000000000E+00  0.24612094853E+04  0.24612094853E+04  0.25500000920E-02 0.  1.
       -2   -1    0    0    0  501  0.00000000000E+00  0.00000000000E+00 -0.52117649390E+03  0.52117649390E+03  0.25500000920E-02 0. -1.
    10030    2    1    2    0    0  0.00000000000E+00  0.00000000000E+00  0.19400329914E+04  0.29823859792E+04  0.22651485870E+04 0.  0.
        3    1    3    3  502    0  0.82156446204E+03  0.31834821818E+03  0.33061742829E+02  0.88170677799E+03  0.10100000352E+00 0. -1.
       -3    1    3    3    0  502 -0.82156446204E+03 -0.31834821818E+03  0.19069712485E+04  0.21006792012E+04  0.10100000352E+00 0.  1.
</event>
<event>
 5   0  0.5663790E-05  0.2282983E+04  0.7818609E-02  0.8484661E-01
        1   -1    0    0  501    0  0.00000000000E+00  0.00000000000E+00  0.18777164229E+04  0.18777164229E+04  0.50400001928E-02 0. -1.
       -1   -1    0    0    0  501  0.00000000000E+00  0.00000000000E+00 -0.69392927054E+03  0.69392927056E+03  0.50400001928E-02 0.  1.
    10030    2    1    2    0    0  0.00000000000E+00  0.00000000000E+00  0.11837871524E+04  0.25716456935E+04  0.22829825997E+04 0.  0.
        3    1    3    3  502    0 -0.64805218944E+02  0.53834468735E+03  0.17233855026E+04  0.18066743812E+04  0.10100000352E+00 0. -1.
       -3    1    3    3    0  502  0.64805218944E+02 -0.53834468735E+03 -0.53959835026E+03  0.76497131228E+03  0.10100000352E+00 0.  1.
</event>
<event>
 5   0  0.5642466E-05  0.2233300E+04  0.7818609E-02  0.8504694E-01
       -1   -1    0    0    0  501  0.00000000000E+00  0.00000000000E+00  0.12038876718E+04  0.12038876718E+04  0.50400001928E-02 0.  1.
        1   -1    0    0  501    0  0.00000000000E+00  0.00000000000E+00 -0.10357341763E+04  0.10357341763E+04  0.50400001928E-02 0. -1.
    10030    2    1    2    0    0  0.00000000000E+00  0.00000000000E+00  0.16815349548E+03  0.22396218482E+04  0.22333003436E+04 0.  0.
        1    1    3    3  502    0  0.93493493067E+03  0.53053253829E+03 -0.21900298478E+03  0.10970553341E+04  0.50400001928E-02 0. -1.
       -1    1    3    3    0  502 -0.93493493067E+03 -0.53053253829E+03  0.38715648026E+03  0.11425665140E+04  0.50400001928E-02 0.  1.
</event>
<event>
 5   0  0.5632156E-05  0.1530171E+04  0.7818609E-02  0.8864634E-01
       -1   -1    0    0    0  501  0.00000000000E+00  0.00000000000E+00  0.90587566655E+03  0.90587566656E+03  0.50400001928E-02 0.  1.
        1   -1    0    0  501    0  0.00000000000E+00  0.00000000000E+00 -0.64617706948E+03  0.64617706950E+03  0.50400001928E-02 0. -1.
    10030    2    1    2    0    0  0.00000000000E+00  0.00000000000E+00  0.25969859707E+03  0.15520527361E+04  0.15301713415E+04 0.  0.
        4    1    3    3  502    0  0.10210416067E+03  0.74135960979E+03 -0.31533252655E+02  0.74902288989E+03  0.12699999809E+01 0. -1.
       -4    1    3    3    0  502 -0.10210416067E+03 -0.74135960979E+03  0.29123184972E+03  0.80302984617E+03  0.12699999809E+01 0.  1.
</event>
<event>
 5   0  0.1270613E-04  0.2284429E+04  0.7818609E-02  0.8484086E-01
        2   -1    0    0  501    0  0.00000000000E+00  0.00000000000E+00  0.16569977594E+04  0.16569977594E+04  0.25500000920E-02 0.  1.
       -2   -1    0    0    0  501  0.00000000000E+00  0.00000000000E+00 -0.78735996867E+03  0.78735996867E+03  0.25500000920E-02 0. -1.
    10030    2    1    2    0    0  0.00000000000E+00  0.00000000000E+00  0.86963779071E+03  0.24443577280E+04  0.22844287723E+04 0.  0.
        2    1    3    3  502    0  0.94220903392E+03 -0.47814351787E+03 -0.29464368773E+02  0.10569991657E+04  0.25500000920E-02 0. -1.
       -2    1    3    3    0  502 -0.94220903392E+03  0.47814351787E+03  0.89910215948E+03  0.13873585623E+04  0.25500000920E-02 0.  1.
</event>
<event>
 5   0  0.1270613E-04  0.2308677E+04  0.7818609E-02  0.8474508E-01
        2   -1    0    0  501    0  0.00000000000E+00  0.00000000000E+00  0.16223651059E+04  0.16223651059E+04  0.25500000920E-02 0. -1.
       -2   -1    0    0    0  501  0.00000000000E+00  0.00000000000E+00 -0.82133005204E+03  0.82133005205E+03  0.25500000920E-02 0.  1.
    10030    2    1    2    0    0  0.00000000000E+00  0.00000000000E+00  0.80103505386E+03  0.24436951580E+04  0.23086768651E+04 0.  0.
        2    1    3    3  502    0  0.10429357013E+04  0.74313600174E+02  0.91826593348E+03  0.13915637653E+04  0.25500000920E-02 0. -1.
       -2    1    3    3    0  502 -0.10429357013E+04 -0.74313600174E+02 -0.11723087962E+03  0.10521313927E+04  0.25500000920E-02 0.  1.
</event>
<event>
 5   0  0.1270613E-04  0.2259354E+04  0.7818609E-02  0.8494122E-01
        2   -1    0    0  501    0  0.00000000000E+00  0.00000000000E+00  0.11957321762E+04  0.11957321762E+04  0.25500000920E-02 0.  1.
       -2   -1    0    0    0  501  0.00000000000E+00  0.00000000000E+00 -0.10672709611E+04  0.10672709611E+04  0.25500000920E-02 0. -1.
    10030    2    1    2    0    0  0.00000000000E+00  0.00000000000E+00  0.12846121509E+03  0.22630031373E+04  0.22593540926E+04 0.  0.
        2    1    3    3  502    0 -0.59149549746E+03  0.79840170224E+03 -0.47409256700E+03  0.11009432155E+04  0.25500000920E-02 0. -1.
       -2    1    3    3    0  502  0.59149549746E+03 -0.79840170224E+03  0.60255378209E+03  0.11620599218E+04  0.25500000920E-02 0.  1.
</event>
<event>
 5   0  0.5843670E-05  0.2330647E+04  0.7818609E-02  0.8465935E-01
       -1   -1    0    0    0  501  0.00000000000E+00  0.00000000000E+00  0.10421975734E+04  0.10421975734E+04  0.50400001928E-02 0.  1.
        1   -1    0    0  501    0  0.00000000000E+00  0.00000000000E+00 -0.13029953270E+04  0.13029953271E+04  0.50400001928E-02 0. -1.
    10030    2    1    2    0    0  0.00000000000E+00  0.00000000000E+00 -0.26079775369E+03  0.23451929004E+04  0.23306467497E+04 0.  0.
        2    1    3    3  502    0  0.10446318319E+04 -0.21717548750E+03  0.34109544266E+03  0.11201638084E+04  0.25500000920E-02 0.  1.
       -2    1    3    3    0  502 -0.10446318319E+04  0.21717548750E+03 -0.60189319635E+03  0.12250290921E+04  0.25500000920E-02 0. -1.
</event>
<event>
 5   0  0.5632156E-05  0.2349842E+04  0.7818609E-02  0.8458524E-01
        1   -1    0    0  501    0  0.00000000000E+00  0.00000000000E+00  0.83570364541E+03  0.83570364542E+03  0.50400001928E-02 0.  1.
       -1   -1    0    0    0  501  0.00000000000E+00  0.00000000000E+00 -0.16518282917E+04  0.16518282917E+04  0.50400001928E-02 0. -1.
    10030    2    1    2    0    0  0.00000000000E+00  0.00000000000E+00 -0.81612464631E+03  0.24875319371E+04  0.23498416330E+04 0.  0.
        4    1    3    3  502    0 -0.12988625351E+03 -0.60340836997E+03 -0.14663747909E+04  0.15909835763E+04  0.12699999809E+01 0. -1.
       -4    1    3    3    0  502  0.12988625351E+03  0.60340836997E+03  0.65025014462E+03  0.89654836081E+03  0.12699999809E+01 0.  1.
</event>
<event>
 5   0  0.5663790E-05  0.2370279E+04  0.7818609E-02  0.8450715E-01
       -1   -1    0    0    0  501  0.00000000000E+00  0.00000000000E+00  0.16576921314E+04  0.16576921314E+04  0.50400001928E-02 0. -1.
        1   -1    0    0  501    0  0.00000000000E+00  0.00000000000E+00 -0.84729595673E+03  0.84729595674E+03  0.50400001928E-02 0.  1.
    10030    2    1    2    0    0  0.00000000000E+00  0.00000000000E+00  0.81039617465E+03  0.25049880881E+04  0.23702791738E+04 0.  0.
        3    1    3    3  502    0 -0.10633843886E+04 -0.36391807570E+03  0.80250682551E+03  0.13810285801E+04  0.10100000352E+00 0. -1.
       -3    1    3    3    0  502  0.10633843886E+04  0.36391807570E+03  0.78893491376E+01  0.11239595081E+04  0.10100000352E+00 0.  1.
</event>
<event>
 5   0  0.1234988E-04  0.2220343E+04  0.7818609E-02  0.8510008E-01
        2   -1    0    0  501    0  0.00000000000E+00  0.00000000000E+00  0.26474402803E+04  0.26474402803E+04  0.25500000920E-02 0.  1.
       -2   -1    0    0    0  501  0.00000000000E+00  0.00000000000E+00 -0.46553670664E+03  0.46553670664E+03  0.25500000920E-02 0. -1.
    10030    2    1    2    0    0  0.00000000000E+00  0.00000000000E+00  0.21819035737E+04  0.31129769870E+04  0.22203428827E+04 0.  0.
        5    1    3    3  502    0  0.79041818242E+03  0.76840999781E+03  0.90684439108E+03  0.14274465550E+04  0.46999998093E+01 0. -1.
       -5    1    3    3    0  502 -0.79041818242E+03 -0.76840999781E+03  0.12750591826E+04  0.16855304319E+04  0.46999998093E+01 0.  1.
</event>
<event>
 5   0  0.5632156E-05  0.2296908E+04  0.7818609E-02  0.8479141E-01
       -1   -1    0    0    0  501  0.00000000000E+00  0.00000000000E+00  0.88128626373E+03  0.88128626375E+03  0.50400001928E-02 0.  1.
        1   -1    0    0  501    0  0.00000000000E+00  0.00000000000E+00 -0.14966148583E+04  0.14966148583E+04  0.50400001928E-02 0. -1.
    10030    2    1    2    0    0  0.00000000000E+00  0.00000000000E+00 -0.61532859457E+03  0.23779011221E+04  0.22969075878E+04 0.  0.
        4    1    3    3  502    0  0.11113595747E+04 -0.17999527830E+03 -0.54243400607E+03  0.12497018318E+04  0.12699999809E+01 0. -1.
       -4    1    3    3    0  502 -0.11113595747E+04  0.17999527830E+03 -0.72894588500E+02  0.11281992902E+04  0.12699999809E+01 0.  1.
</event>
<event>
 5   0  0.1234988E-04  0.2284956E+04  0.7818609E-02  0.8483877E-01
       -2   -1    0    0    0  501  0.00000000000E+00  0.00000000000E+00  0.74165002049E+03  0.74165002050E+03  0.25500000920E-02 0. -1.
        2   -1    0    0  501    0  0.00000000000E+00  0.00000000000E+00 -0.17599346708E+04  0.17599346708E+04  0.25500000920E-02 0.  1.
    10030    2    1    2    0    0  0.00000000000E+00  0.00000000000E+00 -0.10182846503E+04  0.25015846913E+04  0.22849556535E+04 0.  0.
        5    1    3    3  502    0  0.25084369147E+03 -0.22947404213E+03  0.68497641500E+03  0.76471934242E+03  0.46999998093E+01 0. -1.
       -5    1    3    3    0  502 -0.25084369147E+03  0.22947404213E+03 -0.17032610653E+04  0.17368653489E+04  0.46999998093E+01 0.  1.
</event>
<event>
 5   0  0.5632156E-05  0.2162621E+04  0.7818609E-02  0.8534149E-01
        1   -1    0    0  501    0  0.00000000000E+00  0.00000000000E+00  0.26747718810E+04  0.26747718810E+04  0.50400001928E-02 0. -1.
       -1   -1    0    0    0  501  0.00000000000E+00  0.00000000000E+00 -0.43713345108E+03  0.43713345111E+03  0.50400001928E-02 0.  1.
    10030    2    1    2    0    0  0.00000000000E+00  0.00000000000E+00  0.22376384300E+04  0.31119053322E+04  0.21626208759E+04 0.  0.
        4    1    3    3  502    0  0.15890575079E+03 -0.99859198250E+03  0.56750442548E+03  0.11595257095E+04  0.12699999809E+01 0.  1.
       -4    1    3    3    0  502 -0.15890575079E+03  0.99859198250E+03  0.16701340045E+04  0.19523796227E+04  0.12699999809E+01 0. -1.
</event>
<event>
 5   0  0.5924654E-05  0.2278835E+04  0.7818609E-02  0.8486313E-01
        1   -1    0    0  501    0  0.00000000000E+00  0.00000000000E+00  0.13888525739E+04  0.13888525739E+04  0.50400001928E-02 0.  1.
       -1   -1    0    0    0  501  0.00000000000E+00  0.00000000000E+00 -0.93478006597E+03  0.93478006598E+03  0.50400001928E-02 0. -1.
    10030    2    1    2    0    0  0.00000000000E+00  0.00000000000E+00  0.45407250797E+03  0.23236326399E+04  0.22788345273E+04 0.  0.
        5    1    3    3  502    0  0.78115254160E+03 -0.80984568722E+03  0.44064309302E+02  0.11260608703E+04  0.46999998093E+01 0. -1.
       -5    1    3    3    0  502 -0.78115254160E+03  0.80984568722E+03  0.41000819867E+03  0.11975717696E+04  0.46999998093E+01 0.  1.
</event>
<event>
 5   0  0.5663790E-05  0.2292895E+04  0.7818609E-02  0.8480728E-01
       -1   -1    0    0    0  501  0.00000000000E+00  0.00000000000E+00  0.95751275273E+03  0.95751275275E+03  0.50400001928E-02 0. -1.
        1   -1    0    0  501    0  0.00000000000E+00  0.00000000000E+00 -0.13726624326E+04  0.13726624326E+04  0.50400001928E-02 0.  1.
    10030    2    1    2    0    0  0.00000000000E+00  0.00000000000E+00 -0.41514967987E+03  0.23301751854E+04  0.22928949252E+04 0.  0.
        3    1    3    3  502    0 -0.33384525342E+03 -0.71264964573E+03  0.63965832347E+03  0.10141424711E+04  0.10100000352E+00 0. -1.
       -3    1    3    3    0  502  0.33384525342E+03  0.71264964573E+03 -0.10548080033E+04  0.13160327142E+04  0.10100000352E+00 0.  1.
</event>
<event>
 5   0  0.5642466E-05  0.1238531E+04  0.7818609E-02  0.9079783E-01
        1   -1    0    0  501    0  0.00000000000E+00  0.00000000000E+00  0.56902318449E+03  0.56902318451E+03  0.50400001928E-02 0. -1.
       -1   -1    0    0    0  501  0.00000000000E+00  0.00000000000E+00 -0.67394372596E+03  0.67394372598E+03  0.50400001928E-02 0.  1.
    10030    2    1    2    0    0  0.00000000000E+00  0.00000000000E+00 -0.10492054147E+03  0.12429669105E+04  0.12385307507E+04 0.  0.
        1    1    3    3  502    0 -0.24957292011E+03  0.43424176505E+03 -0.41795843829E+03  0.65233565680E+03  0.50400001928E-02 0.  1.
       -1    1    3    3    0  502  0.24957292011E+03 -0.43424176505E+03  0.31303789682E+03  0.59063125369E+03  0.50400001928E-02 0. -1.
</event>
<event>
 5   0  0.1281432E-04  0.2258460E+04  0.7818609E-02  0.8494482E-01
       -2   -1    0    0    0  501  0.00000000000E+00  0.00000000000E+00  0.14256072520E+04  0.14256072520E+04  0.25500000920E-02 0. -1.
        2   -1    0    0  501    0  0.00000000000E+00  0.00000000000E+00 -0.89446811903E+03  0.89446811904E+03  0.25500000920E-02 0.  1.
    10030    2    1    2    0    0  0.00000000000E+00  0.00000000000E+00  0.53113913296E+03  0.23200753710E+04  0.22584598621E+04 0.  0.
        4    1    3    3  502    0  0.76764205066E+03 -0.61520623831E+03 -0.30399845536E+03  0.10296454280E+04  0.12699999809E+01 0.  1.
       -4    1    3    3    0  502 -0.76764205066E+03  0.61520623831E+03  0.83513758832E+03  0.12904299431E+04  0.12699999809E+01 0. -1.
</event>
<event>
 5   0  0.1270613E-04  0.2325305E+04  0.7818609E-02  0.8468010E-01
       -2   -1    0    0    0  501  0.00000000000E+00  0.00000000000E+00  0.16622177998E+04  0.16622177998E+04  0.25500000920E-02 0. -1.
        2   -1    0    0  501    0  0.00000000000E+00  0.00000000000E+00 -0.81322701550E+03  0.81322701551E+03  0.25500000920E-02 0.  1.
    10030    2    1    2    0    0  0.00000000000E+00  0.00000000000E+00  0.84899078429E+03  0.24754448153E+04  0.23253046428E+04 0.  0.
        2    1    3    3  502    0 -0.82020645507E+03  0.82063028929E+03  0.50407296714E+03  0.12650147259E+04  0.25500000920E-02 0. -1.
       -2    1    3    3    0  502  0.82020645507E+03 -0.82063028929E+03  0.34491781715E+03  0.12104300894E+04  0.25500000920E-02 0.  1.
</event>
<event>
 5   0  0.5663790E-05  0.1803346E+04  0.7818609E-02  0.8704522E-01
       -1   -1    0    0    0  501  0.00000000000E+00  0.00000000000E+00  0.11579683181E+04  0.11579683181E+04  0.50400001928E-02 0.  1.
        1   -1    0    0  501    0  0.00000000000E+00  0.00000000000E+00 -0.70210430912E+03  0.70210430914E+03  0.50400001928E-02 0. -1.
    10030    2    1    2    0    0  0.00000000000E+00  0.00000000000E+00  0.45586400893E+03  0.18600726272E+04  0.18033463849E+04 0.  0.
        3    1    3    3  502    0  0.71708303386E+03 -0.30399527129E+03  0.69652800843E+03  0.10448791696E+04  0.10100000352E+00 0.  1.
       -3    1    3    3    0  502 -0.71708303386E+03  0.30399527129E+03 -0.24066399950E+03  0.81519345757E+03  0.10100000352E+00 0. -1.
</event>
<event>
 5   0  0.1257524E-04  0.2196282E+04  0.7818609E-02  0.8519977E-01
       -2   -1    0    0    0  501  0.00000000000E+00  0.00000000000E+00  0.70820219929E+03  0.70820219930E+03  0.25500000920E-02 0. -1.
        2   -1    0    0  501    0  0.00000000000E+00  0.00000000000E+00 -0.17027821681E+04  0.17027821681E+04  0.25500000920E-02 0.  1.
    10030    2    1    2    0    0  0.00000000000E+00  0.00000000000E+00 -0.99457996883E+03  0.24109843674E+04  0.21962823829E+04 0.  0.
        3    1    3    3  502    0 -0.54219942067E+03 -0.25150692393E+03  0.51400468891E+03  0.78831261247E+03  0.10100000352E+00 0. -1.
       -3    1    3    3    0  502  0.54219942067E+03  0.25150692393E+03 -0.15085846577E+04  0.16226717550E+04  0.10100000352E+00 0.  1.
</event>
<event>
 5   0  0.5642466E-05  0.1797210E+04  0.7818609E-02  0.8707785E-01
        1   -1    0    0  501    0  0.00000000000E+00  0.00000000000E+00  0.78234617541E+03  0.78234617543E+03  0.50400001928E-02 0.  1.
       -1   -1    0    0    0  501  0.00000000000E+00  0.00000000000E+00 -0.10321396711E+04  0.10321396711E+04  0.50400001928E-02 0. -1.
    10030    2    1    2    0    0  0.00000000000E+00  0.00000000000E+00 -0.24979349564E+03  0.18144858465E+04  0.17972095305E+04 0.  0.
        1    1    3    3  502    0  0.56503057466E+02 -0.15445757100E+03  0.76702109312E+03  0.78445592232E+03  0.50400001928E-02 0.  1.
       -1    1    3    3    0  502 -0.56503057466E+02  0.15445757100E+03 -0.10168145888E+04  0.10300299242E+04  0.50400001928E-02 0. -1.
</event>
<event>
 5   0  0.5632156E-05  0.2287649E+04  0.7818609E-02  0.8482807E-01
       -1   -1    0    0    0  501  0.00000000000E+00  0.00000000000E+00  0.92557466707E+03  0.92557466708E+03  0.50400001928E-02 0.  1.
        1   -1    0    0  501    0  0.00000000000E+00  0.00000000000E+00 -0.14135378934E+04  0.14135378935E+04  0.50400001928E-02 0. -1.
    10030    2    1    2    0    0  0.00000000000E+00  0.00000000000E+00 -0.48796322637E+03  0.23391125605E+04  0.22876493308E+04 0.  0.
        4    1    3    3  502    0  0.10816363077E+04 -0.20720870088E+03  0.71936105800E+02  0.11036525559E+04  0.12699999809E+01 0. -1.
       -4    1    3    3    0  502 -0.10816363077E+04  0.20720870088E+03 -0.55989933217E+03  0.12354600046E+04  0.12699999809E+01 0.  1.
</event>
<event>
 5   0  0.5924654E-05  0.2271794E+04  0.7818609E-02  0.8489126E-01
       -1   -1    0    0    0  501  0.00000000000E+00  0.00000000000E+00  0.73732439230E+03  0.73732439232E+03  0.50400001928E-02 0.  1.
        1   -1    0    0  501    0  0.00000000000E+00  0.00000000000E+00 -0.17499240258E+04  0.17499240259E+04  0.50400001928E-02 0. -1.
    10030    2    1    2    0    0  0.00000000000E+00  0.00000000000E+00 -0.10125996335E+04  0.24872484182E+04  0.22717937133E+04 0.  0.
        5    1    3    3  502    0 -0.34839135521E+03 -0.64976924334E+03 -0.14523465220E+04  0.16287753424E+04  0.46999998093E+01 0. -1.
       -5    1    3    3    0  502  0.34839135521E+03  0.64976924334E+03  0.43974688844E+03  0.85847307580E+03  0.46999998093E+01 0.  1.
</event>
<event>
 5   0  0.1257524E-04  0.2306287E+04  0.7818609E-02  0.8475446E-01
       -2   -1    0    0    0  501  0.00000000000E+00  0.00000000000E+00  0.60115058609E+03  0.60115058609E+03  0.25500000920E-02 0.  1.
        2   -1    0    0  501    0  0.00000000000E+00  0.00000000000E+00 -0.22119912927E+04  0.22119912927E+04  0.25500000920E-02 0. -1.
    10030    2    1    2    0    0  0.00000000000E+00  0.00000000000E+00 -0.16108407066E+04  0.28131418788E+04  0.23062869397E+04 0.  0.
        3    1    3    3  502    0 -0.26517602664E+03  0.75687423757E+03 -0.18161115130E+04  0.19853055116E+04  0.10100000352E+00 0. -1.
       -3    1    3    3    0  502  0.26517602664E+03 -0.75687423757E+03  0.20527080642E+03  0.82783636714E+03  0.10100000352E+00 0.  1.
</event>
<event>
 5   0  0.5642466E-05  0.2297320E+04  0.7818609E-02  0.8478979E-01
       -1   -1    0    0    0  501  0.00000000000E+00  0.00000000000E+00  0.62086079650E+03  0.62086079652E+03  0.50400001928E-02 0. -1.
        1   -1    0    0  501    0  0.00000000000E+00  0.00000000000E+00 -0.21251457160E+04  0.21251457160E+04  0.50400001928E-02 0.  1.
    10030    2    1    2    0    0  0.00000000000E+00  0.00000000000E+00 -0.15042849195E+04  0.27460065125E+04  0.22973198837E+04 0.  0.
        1    1    3    3  502    0  0.15654579289E+03  0.99197171818E+03 -0.14186331313E+04  0.17381123198E+04  0.50400001928E-02 0.  1.
       -1    1    3    3    0  502 -0.15654579289E+03 -0.99197171818E+03 -0.85651788203E+02  0.10078941928E+04  0.50400001928E-02 0. -1.
</event>
<event>
 5   0  0.1237296E-04  0.2282937E+04  0.7818609E-02  0.8484679E-01
       -2   -1    0    0    0  501  0.00000000000E+00  0.00000000000E+00  0.59208210045E+03  0.59208210046E+03  0.25500000920E-02 0.  1.
        2   -1    0    0  501    0  0.00000000000E+00  0.00000000000E+00 -0.22006239926E+04  0.22006239926E+04  0.25500000920E-02 0. -1.
    10030    2    1    2    0    0  0.00000000000E+00  0.00000000000E+00 -0.16085418921E+04  0.27927060930E+04  0.22829367717E+04 0.  0.
        1    1    3    3  502    0  0.59237287004E+02 -0.88294529435E+03 -0.16862734127E+04  0.19043685230E+04  0.50400001928E-02 0. -1.
       -1    1    3    3    0  502 -0.59237287004E+02  0.88294529435E+03  0.77731520601E+02  0.88833757002E+03  0.50400001928E-02 0.  1.
</event>
<event>
 5   0  0.5632156E-05  0.2275913E+04  0.7818609E-02  0.8487479E-01
        1   -1    0    0  501    0  0.00000000000E+00  0.00000000000E+00  0.12571646211E+04  0.12571646211E+04  0.50400001928E-02 0. -1.
       -1   -1    0    0    0  501  0.00000000000E+00  0.00000000000E+00 -0.10300517136E+04  0.10300517136E+04  0.50400001928E-02 0.  1.
    10030    2    1    2    0    0  0.00000000000E+00  0.00000000000E+00  0.22711290754E+03  0.22872163347E+04  0.22759126277E+04 0.  0.
        4    1    3    3  502    0 -0.69409174109E+01  0.78736444298E+03  0.93919147873E+03  0.12255909550E+04  0.12699999809E+01 0. -1.
       -4    1    3    3    0  502  0.69409174109E+01 -0.78736444298E+03 -0.71207857119E+03  0.10616253797E+04  0.12699999809E+01 0.  1.
</event>
<event>
 5   0  0.5924654E-05  0.2290951E+04  0.7818609E-02  0.8481497E-01
       -1   -1    0    0    0  501  0.00000000000E+00  0.00000000000E+00  0.16161425936E+04  0.16161425936E+04  0.50400001928E-02 0. -1.
        1   -1    0    0  501    0  0.00000000000E+00  0.00000000000E+00 -0.81188037854E+03  0.81188037855E+03  0.50400001928E-02 0.  1.
    10030    2    1    2    0    0  0.00000000000E+00  0.00000000000E+00  0.80426221510E+03  0.24280229722E+04  0.22909512965E+04 0.  0.
        5    1    3    3  502    0  0.10664015180E+04 -0.37195398268E+03  0.60469600825E+03  0.12811094080E+04  0.46999998093E+01 0. -1.
       -5    1    3    3    0  502 -0.10664015180E+04  0.37195398268E+03  0.19956620685E+03  0.11469135642E+04  0.46999998093E+01 0.  1.
</event>
<event>
 5   0  0.5843670E-05  0.1582991E+04  0.7818609E-02  0.8831066E-01
        1   -1    0    0  501    0  0.00000000000E+00  0.00000000000E+00  0.13914944568E+04  0.13914944568E+04  0.50400001928E-02 0. -1.
       -1   -1    0    0    0  501  0.00000000000E+00  0.00000000000E+00 -0.45021035444E+03  0.45021035447E+03  0.50400001928E-02 0.  1.
    10030    2    1    2    0    0  0.00000000000E+00  0.00000000000E+00  0.94128410232E+03  0.18417048113E+04  0.15829911088E+04 0.  0.
        2    1    3    3  502    0  0.35660571974E+03 -0.57598831003E+03  0.94684751482E+03  0.11642381152E+04  0.25500000920E-02 0. -1.
       -2    1    3    3    0  502 -0.35660571974E+03  0.57598831003E+03 -0.55634124945E+01  0.67746669601E+03  0.25500000920E-02 0.  1.
</event>
<event>
 5   0  0.5843670E-05  0.2292230E+04  0.7818609E-02  0.8480991E-01
       -1   -1    0    0    0  501  0.00000000000E+00  0.00000000000E+00  0.73943055346E+03  0.73943055348E+03  0.50400001928E-02 0. -1.
        1   -1    0    0  501    0  0.00000000000E+00  0.00000000000E+00 -0.17764751105E+04  0.17764751105E+04  0.50400001928E-02 0.  1.
    10030    2    1    2    0    0  0.00000000000E+00  0.00000000000E+00 -0.10370445570E+04  0.25159056640E+04  0.22922303324E+04 0.  0.
        2    1    3    3  502    0 -0.37389918822E+03  0.97884900667E+03 -0.10281988969E+04  0.14680391522E+04  0.25500000920E-02 0.  1.
       -2    1    3    3    0  502  0.37389918822E+03 -0.97884900667E+03 -0.88456601501E+01  0.10478665118E+04  0.25500000920E-02 0. -1.
</event>
<event>
 5   0  0.5924654E-05  0.2249701E+04  0.7818609E-02  0.8498022E-01
       -1   -1    0    0    0  501  0.00000000000E+00  0.00000000000E+00  0.51502151607E+03  0.51502151610E+03  0.50400001928E-02 0. -1.
        1   -1    0    0  501    0  0.00000000000E+00  0.00000000000E+00 -0.24567686599E+04  0.24567686599E+04  0.50400001928E-02 0.  1.
    10030    2    1    2    0    0  0.00000000000E+00  0.00000000000E+00 -0.19417471438E+04  0.29717901760E+04  0.22497010645E+04 0.  0.
        5    1    3    3  502    0 -0.84373543542E+03 -0.65230697933E+03 -0.14432435967E+04  0.17945383946E+04  0.46999998093E+01 0.  1.
       -5    1    3    3    0  502  0.84373543542E+03  0.65230697933E+03 -0.49850354708E+03  0.11772517814E+04  0.46999998093E+01 0. -1.
</event>
<event>
 5   0  0.1270613E-04  0.2321436E+04  0.7818609E-02  0.8469517E-01
       -2   -1    0    0    0  501  0.00000000000E+00  0.00000000000E+00  0.18552131483E+04  0.18552131483E+04  0.25500000920E-02 0.  1.
        2   -1    0    0  501    0  0.00000000000E+00  0.00000000000E+00 -0.72620555100E+03  0.72620555100E+03  0.25500000920E-02 0. -1.
    10030    2    1    2    0    0  0.00000000000E+00  0.00000000000E+00  0.11290075973E+04  0.25814186993E+04  0.23214358372E+04 0.  0.
        2    1    3    3  502    0 -0.94225928979E+03  0.15398675843E+03  0.12985042759E+04  0.16117313193E+04  0.25500000920E-02 0.  1.
       -2    1    3    3    0  502  0.94225928979E+03 -0.15398675843E+03 -0.16949667858E+03  0.96968738005E+03  0.25500000920E-02 0. -1.
</event>
<event>
 5   0  0.5632156E-05  0.2318202E+04  0.7818609E-02  0.8470779E-01
       -1   -1    0    0    0  501  0.00000000000E+00  0.00000000000E+00  0.45327629182E+03  0.45327629185E+03  0.50400001928E-02 0.  1.
        1   -1    0    0  501    0  0.00000000000E+00  0.00000000000E+00 -0.29640080914E+04  0.29640080914E+04  0.50400001928E-02 0. -1.
    10030    2    1    2    0    0  0.00000000000E+00  0.00000000000E+00 -0.25107317996E+04  0.34172843833E+04  0.23182015414E+04 0.  0.
        4    1    3    3  502    0 -0.36622003698E+03  0.54810089768E+03 -0.26607900108E+04  0.27412290681E+04  0.12699999809E+01 0. -1.
       -4    1    3    3    0  502  0.36622003698E+03 -0.54810089768E+03  0.15005821117E+03  0.67605531516E+03  0.12699999809E+01 0.  1.
</event>
<event>
 5   0  0.5642466E-05  0.2080720E+04  0.7818609E-02  0.8569784E-01
       -1   -1    0    0    0  501  0.00000000000E+00  0.00000000000E+00  0.94757669236E+03  0.94757669237E+03  0.50400001928E-02 0. -1.
        1   -1    0    0  501    0  0.00000000000E+00  0.00000000000E+00 -0.11422287082E+04  0.11422287082E+04  0.50400001928E-02 0.  1.
    10030    2    1    2    0    0  0.00000000000E+00  0.00000000000E+00 -0.19465201587E+03  0.20898054006E+04  0.20807203573E+04 0.  0.
        1    1    3    3  502    0 -0.51118108989E+03 -0.86444577044E+03  0.17547863483E+03  0.10194926915E+04  0.50400001928E-02 0. -1.
       -1    1    3    3    0  502  0.51118108989E+03  0.86444577044E+03 -0.37013065070E+03  0.10703127091E+04  0.50400001928E-02 0.  1.
</event>
<event>
 5   0  0.5642466E-05  0.2235366E+04  0.7818609E-02  0.8503851E-01
        1   -1    0    0  501    0  0.00000000000E+00  0.00000000000E+00  0.87772600025E+03  0.87772600026E+03  0.50400001928E-02 0.  1.
       -1   -1    0    0    0  501  0.00000000000E+00  0.00000000000E+00 -0.14232406088E+04  0.14232406088E+04  0.50400001928E-02 0. -1.
    10030    2    1    2    0    0  0.00000000000E+00  0.00000000000E+00 -0.54551460854E+03  0.23009666091E+04  0.22353659986E+04 0.  0.
        1    1    3    3  502    0 -0.60432715060E+03 -0.11731543202E+03  0.68748638950E+03  0.92282812664E+03  0.50400001928E-02 0.  1.
       -1    1    3    3    0  502  0.60432715060E+03  0.11731543202E+03 -0.12330009980E+04  0.13781384824E+04  0.50400001928E-02 0. -1.
</event>
<event>
 5   0  0.1281432E-04  0.2190749E+04  0.7818609E-02  0.8522288E-01
       -2   -1    0    0    0  501  0.00000000000E+00  0.00000000000E+00  0.14308812317E+04  0.14308812317E+04  0.25500000920E-02 0.  1.
        2   -1    0    0  501    0  0.00000000000E+00  0.00000000000E+00 -0.83853593350E+03  0.83853593350E+03  0.25500000920E-02 0. -1.
    10030    2    1    2    0    0  0.00000000000E+00  0.00000000000E+00  0.59234529824E+03  0.22694171652E+04  0.21907490312E+04 0.  0.
        4    1    3    3  502    0  0.34058848052E+03 -0.96420391142E+03  0.70289602662E+03  0.12408682980E+04  0.12699999809E+01 0.  1.
       -4    1    3    3    0  502 -0.34058848052E+03  0.96420391142E+03 -0.11055072837E+03  0.10285488672E+04  0.12699999809E+01 0. -1.
</event>
<event>
 5   0  0.5642466E-05  0.1547792E+04  0.7818609E-02  0.8853279E-01
        1   -1    0    0  501    0  0.00000000000E+00  0.00000000000E+00  0.92897162606E+03  0.92897162607E+03  0.50400001928E-02 0.  1.
       -1   -1    0    0    0  501  0.00000000000E+00  0.00000000000E+00 -0.64470783988E+03  0.64470783990E+03  0.50400001928E-02 0. -1.
    10030    2    1    2    0    0  0.00000000000E+00  0.00000000000E+00  0.28426378618E+03  0.15736794660E+04  0.15477923509E+04 0.  0.
        1    1    3    3  502    0  0.19318165506E+03  0.58317189160E+03 -0.33638469682E+03  0.70040222107E+03  0.50400001928E-02 0. -1.
       -1    1    3    3    0  502 -0.19318165506E+03 -0.58317189160E+03  0.62064848299E+03  0.87327724490E+03  0.50400001928E-02 0.  1.
</event>
<event>
 5   0  0.1281432E-04  0.2288900E+04  0.7818609E-02  0.8482311E-01
       -2   -1    0    0    0  501  0.00000000000E+00  0.00000000000E+00  0.10061332281E+04  0.10061332282E+04  0.25500000920E-02 0. -1.
        2   -1    0    0  501    0  0.00000000000E+00  0.00000000000E+00 -0.13017817496E+04  0.13017817496E+04  0.25500000920E-02 0.  1.
    10030    2    1    2    0    0  0.00000000000E+00  0.00000000000E+00 -0.29564852149E+03  0.23079149778E+04  0.22889000626E+04 0.  0.
        4    1    3    3  502    0  0.69474916562E+03  0.87425665414E+02  0.76492770381E+03  0.10370321379E+04  0.12699999809E+01 0. -1.
       -4    1    3    3    0  502 -0.69474916562E+03 -0.87425665414E+02 -0.10605762253E+04  0.12708828399E+04  0.12699999809E+01 0.  1.
</event>
<event>
 5   0  0.1257524E-04  0.2318937E+04  0.7818609E-02  0.8470492E-01
        2   -1    0    0  501    0  0.00000000000E+00  0.00000000000E+00  0.17154066616E+04  0.17154066616E+04  0.25500000920E-02 0. -1.
       -2   -1    0    0    0  501  0.00000000000E+00  0.00000000000E+00 -0.78370148319E+03  0.78370148320E+03  0.25500000920E-02 0.  1.
    10030    2    1    2    0    0  0.00000000000E+00  0.00000000000E+00  0.93170517838E+03  0.24991081448E+04  0.23189366054E+04 0.  0.
        3    1    3    3  502    0  0.44616624602E+03  0.10286291343E+04  0.78413707269E+03  0.13682153244E+04  0.10100000352E+00 0. -1.
       -3    1    3    3    0  502 -0.44616624602E+03 -0.10286291343E+04  0.14756810569E+03  0.11308928203E+04  0.10100000352E+00 0.  1.
</event>
<event>
 5   0  0.1237296E-04  0.2258304E+04  0.7818609E-02  0.8494545E-01
        2   -1    0    0  501    0  0.00000000000E+00  0.00000000000E+00  0.13456957617E+04  0.13456957617E+04  0.25500000920E-02 0.  1.
       -2   -1    0    0    0  501  0.00000000000E+00  0.00000000000E+00 -0.94745326939E+03  0.94745326940E+03  0.25500000920E-02 0. -1.
    10030    2    1    2    0    0  0.00000000000E+00  0.00000000000E+00  0.39824249231E+03  0.22931490311E+04  0.22583036546E+04 0.  0.
        1    1    3    3  502    0  0.12965938259E+03  0.58109232927E+03  0.11733541259E+04  0.13157658437E+04  0.50400001928E-02 0.  1.
       -1    1    3    3    0  502 -0.12965938259E+03 -0.58109232927E+03 -0.77511163355E+03  0.97738318745E+03  0.50400001928E-02 0. -1.
</event>
<event>
 5   0  0.1281432E-04  0.2705450E+04  0.7818609E-02  0.8333239E-01
       -2   -1    0    0    0  501  0.00000000000E+00  0.00000000000E+00  0.13570605849E+04  0.13570605849E+04  0.25500000920E-02 0.  1.
        2   -1    0    0  501    0  0.00000000000E+00  0.00000000000E+00 -0.13484028716E+04  0.13484028716E+04  0.25500000920E-02 0. -1.
    10030    2    1    2    0    0  0.00000000000E+00  0.00000000000E+00  0.86577133941E+01  0.27054634565E+04  0.27054496038E+04 0.  0.
        4    1    3    3  502    0 -0.84387584824E+03  0.98975020668E+03 -0.36733264574E+03  0.13515423798E+04  0.12699999809E+01 0. -1.
       -4    1    3    3    0  502  0.84387584824E+03 -0.98975020668E+03  0.37599035913E+03  0.13539210767E+04  0.12699999809E+01 0.  1.
</event>
<event>
 5   0  0.5642466E-05  0.1151123E+04  0.7818609E-02  0.9156748E-01
       -1   -1    0    0    0  501  0.00000000000E+00  0.00000000000E+00  0.27289336137E+03  0.27289336142E+03  0.50400001928E-02 0. -1.
        1   -1    0    0  501    0  0.00000000000E+00  0.00000000000E+00 -0.12139215145E+04  0.12139215145E+04  0.50400001928E-02 0.  1.
    10030    2    1    2    0    0  0.00000000000E+00  0.00000000000E+00 -0.94102815308E+03  0.14868148759E+04  0.11511231430E+04 0.  0.
        1    1    3    3  502    0 -0.17293193415E+03 -0.76724227802E+02  0.23158510669E+03  0.29903799532E+03  0.50400001928E-02 0. -1.
       -1    1    3    3    0  502  0.17293193415E+03  0.76724227802E+02 -0.11726132598E+04  0.11877768806E+04  0.50400001928E-02 0.  1.
</event>
<event>
 5   0  0.1257524E-04  0.2335010E+04  0.7818609E-02  0.8464244E-01
       -2   -1    0    0    0  501  0.00000000000E+00  0.00000000000E+00  0.14380326597E+04  0.14380326597E+04  0.25500000920E-02 0. -1.
        2   -1    0    0  501    0  0.00000000000E+00  0.00000000000E+00 -0.94786982013E+03  0.94786982014E+03  0.25500000920E-02 0.  1.
    10030    2    1    2    0    0  0.00000000000E+00  0.00000000000E+00  0.49016283959E+03  0.23859024799E+04  0.23350098574E+04 0.  0.
        3    1    3    3  502    0 -0.78588693735E+03  0.57968687894E+03  0.89888089612E+03  0.13272686358E+04  0.10100000352E+00 0. -1.
       -3    1    3    3    0  502  0.78588693735E+03 -0.57968687894E+03 -0.40871805653E+03  0.10586338441E+04  0.10100000352E+00 0.  1.
</event>
<event>
 5   0  0.5642466E-05  0.2220391E+04  0.7818609E-02  0.8509989E-01
        1   -1    0    0  501    0  0.00000000000E+00  0.00000000000E+00  0.16073684591E+04  0.16073684591E+04  0.50400001928E-02 0.  1.
       -1   -1    0    0    0  501  0.00000000000E+00  0.00000000000E+00 -0.76680240069E+03  0.76680240070E+03  0.50400001928E-02 0. -1.
    10030    2    1    2    0    0  0.00000000000E+00  0.00000000000E+00  0.84056605840E+03  0.23741708598E+04  0.22203909505E+04 0.  0.
        1    1    3    3  502    0  0.28434634043E+02 -0.62645246490E+03  0.13998557364E+04  0.15338993780E+04  0.50400001928E-02 0.  1.
       -1    1    3    3    0  502 -0.28434634043E+02  0.62645246490E+03 -0.55928967797E+03  0.84027148179E+03  0.50400001928E-02 0. -1.
</event>
<event>
 5   0  0.1281432E-04  0.2335212E+04  0.7818609E-02  0.8464165E-01
        2   -1    0    0  501    0  0.00000000000E+00  0.00000000000E+00  0.10062144043E+04  0.10062144043E+04  0.25500000920E-02 0. -1.
       -2   -1    0    0    0  501  0.00000000000E+00  0.00000000000E+00 -0.13548840268E+04  0.13548840268E+04  0.25500000920E-02 0.  1.
    10030    2    1    2    0    0  0.00000000000E+00  0.00000000000E+00 -0.34866962241E+03  0.23610984311E+04  0.23352120451E+04 0.  0.
        4    1    3    3  502    0  0.83374989196E+02  0.31683353776E+03 -0.13074575171E+04  0.13478804292E+04  0.12699999809E+01 0.  1.
       -4    1    3    3    0  502 -0.83374989196E+02 -0.31683353776E+03  0.95878789469E+03  0.10132180019E+04  0.12699999809E+01 0. -1.
</event>
<event>
 5   0  0.1270613E-04  0.1343201E+04  0.7818609E-02  0.8995991E-01
        2   -1    0    0  501    0  0.00000000000E+00  0.00000000000E+00  0.88797851540E+03  0.88797851540E+03  0.25500000920E-02 0.  1.
       -2   -1    0    0    0  501  0.00000000000E+00  0.00000000000E+00 -0.50794816405E+03  0.50794816406E+03  0.25500000920E-02 0. -1.
    10030    2    1    2    0    0  0.00000000000E+00  0.00000000000E+00  0.38003035135E+03  0.13959266795E+04  0.13432007395E+04 0.  0.
        2    1    3    3  502    0  0.67110460218E+03 -0.98548840150E+01  0.16523488899E+03  0.69121709640E+03  0.25500000920E-02 0.  1.
       -2    1    3    3    0  502 -0.67110460218E+03  0.98548840150E+01  0.21479546236E+03  0.70470958307E+03  0.25500000920E-02 0. -1.
</event>
<event>
 5   0  0.1237296E-04  0.1524453E+04  0.7818609E-02  0.8868353E-01
        2   -1    0    0  501    0  0.00000000000E+00  0.00000000000E+00  0.10345272966E+04  0.10345272966E+04  0.25500000920E-02 0. -1.
       -2   -1    0    0    0  501  0.00000000000E+00  0.00000000000E+00 -0.56159885840E+03  0.56159885841E+03  0.25500000920E-02 0.  1.
    10030    2    1    2    0    0  0.00000000000E+00  0.00000000000E+00  0.47292843823E+03  0.15961261551E+04  0.15244531463E+04 0.  0.
        1    1    3    3  502    0 -0.70997660540E+03  0.75674048306E+02  0.51583498070E+03  0.88083997930E+03  0.50400001928E-02 0. -1.
       -1    1    3    3    0  502  0.70997660540E+03 -0.75674048306E+02 -0.42906542462E+02  0.71528617575E+03  0.50400001928E-02 0.  1.
</event>
<event>
 5   0  0.1257524E-04  0.2230850E+04  0.7818609E-02  0.8505696E-01
        2   -1    0    0  501    0  0.00000000000E+00  0.00000000000E+00  0.98804448158E+03  0.98804448158E+03  0.25500000920E-02 0. -1.
       -2   -1    0    0    0  501  0.00000000000E+00  0.00000000000E+00 -0.12592280558E+04  0.12592280558E+04  0.25500000920E-02 0.  1.
    10030    2    1    2    0    0  0.00000000000E+00  0.00000000000E+00 -0.27118357423E+03  0.22472725374E+04  0.22308503595E+04 0.  0.
        3    1    3    3  502    0 -0.12577321518E+03 -0.48814970196E+03  0.86675269209E+03  0.10026810423E+04  0.10100000352E+00 0. -1.
       -3    1    3    3    0  502  0.12577321518E+03  0.48814970196E+03 -0.11379362663E+04  0.12445914951E+04  0.10100000352E+00 0.  1.
</event>
<event>
 5   0  0.1270613E-04  0.2273540E+04  0.7818609E-02  0.8488428E-01
        2   -1    0    0  501    0  0.00000000000E+00  0.00000000000E+00  0.10670680121E+04  0.10670680121E+04  0.25500000920E-02 0. -1.
       -2   -1    0    0    0  501  0.00000000000E+00  0.00000000000E+00 -0.12110250685E+04  0.12110250685E+04  0.25500000920E-02 0.  1.
    10030    2    1    2    0    0  0.00000000000E+00  0.00000000000E+00 -0.14395705638E+03  0.22780930806E+04  0.22735400699E+04 0.  0.
        2    1    3    3  502    0 -0.71253514402E+03  0.33284523559E+03 -0.89444741052E+03  0.11910199211E+04  0.25500000920E-02 0.  1.
       -2    1    3    3    0  502  0.71253514402E+03 -0.33284523559E+03  0.75049035414E+03  0.10870731594E+04  0.25500000920E-02 0. -1.
</event>
<event>
 5   0  0.5843670E-05  0.2329794E+04  0.7818609E-02  0.8466266E-01
       -1   -1    0    0    0  501  0.00000000000E+00  0.00000000000E+00  0.89017356964E+03  0.89017356966E+03  0.50400001928E-02 0. -1.
        1   -1    0    0  501    0  0.00000000000E+00  0.00000000000E+00 -0.15244049236E+04  0.15244049236E+04  0.50400001928E-02 0.  1.
    10030    2    1    2    0    0  0.00000000000E+00  0.00000000000E+00 -0.63423135393E+03  0.24145784932E+04  0.23297939586E+04 0.  0.
        2    1    3    3  502    0 -0.21164051743E+03  0.17125602516E+03 -0.14909700717E+04  0.15156226738E+04  0.25500000920E-02 0.  1.
       -2    1    3    3    0  502  0.21164051743E+03 -0.17125602516E+03  0.85673871775E+03  0.89895581942E+03  0.25500000920E-02 0. -1.
</event>
<event>
 5   0  0.5843670E-05  0.1676741E+04  0.7818609E-02  0.8774742E-01
       -1   -1    0    0    0  501  0.00000000000E+00  0.00000000000E+00  0.38969433006E+03  0.38969433010E+03  0.50400001928E-02 0.  1.
        1   -1    0    0  501    0  0.00000000000E+00  0.00000000000E+00 -0.18036325784E+04  0.18036325784E+04  0.50400001928E-02 0. -1.
    10030    2    1    2    0    0  0.00000000000E+00  0.00000000000E+00 -0.14139382483E+04  0.21933269085E+04  0.16767413508E+04 0.  0.
        2    1    3    3  502    0  0.74060099582E+03  0.13965799000E+03 -0.11873623814E+04  0.14063511702E+04  0.25500000920E-02 0. -1.
       -2    1    3    3    0  502 -0.74060099582E+03 -0.13965799000E+03 -0.22657586694E+03  0.78697573829E+03  0.25500000920E-02 0.  1.
</event>
<event>
 5   0  0.5632156E-05  0.2352161E+04  0.7818609E-02  0.8457634E-01
       -1   -1    0    0    0  501  0.00000000000E+00  0.00000000000E+00  0.91843978353E+03  0.91843978354E+03  0.50400001928E-02 0.  1.
        1   -1    0    0  501    0  0.00000000000E+00  0.00000000000E+00 -0.15059950481E+04  0.15059950481E+04  0.50400001928E-02 0. -1.
    10030    2    1    2    0    0  0.00000000000E+00  0.00000000000E+00 -0.58755526460E+03  0.24244348317E+04  0.23521613601E+04 0.  0.
        4    1    3    3  502    0 -0.77885015642E+03 -0.85480220336E+03 -0.51453069243E+03  0.12657163266E+04  0.12699999809E+01 0. -1.
       -4    1    3    3    0  502  0.77885015642E+03  0.85480220336E+03 -0.73024572172E+02  0.11587185051E+04  0.12699999809E+01 0.  1.
</event>
<event>
 5   0  0.5924654E-05  0.2280104E+04  0.7818609E-02  0.8485807E-01
       -1   -1    0    0    0  501  0.00000000000E+00  0.00000000000E+00  0.83707673687E+03  0.83707673689E+03  0.50400001928E-02 0. -1.
        1   -1    0    0  501    0  0.00000000000E+00  0.00000000000E+00 -0.15526871877E+04  0.15526871877E+04  0.50400001928E-02 0.  1.
    10030    2    1    2    0    0  0.00000000000E+00  0.00000000000E+00 -0.71561045083E+03  0.23897639246E+04  0.22801037911E+04 0.  0.
        5    1    3    3  502    0  0.32173060087E+03  0.94438581655E+03 -0.93598967307E+03  0.13680182412E+04  0.46999998093E+01 0. -1.
       -5    1    3    3    0  502 -0.32173060087E+03 -0.94438581655E+03  0.22037922224E+03  0.10217456834E+04  0.46999998093E+01 0.  1.
</event>
<event>
 5   0  0.5924654E-05  0.2182778E+04  0.7818609E-02  0.8525631E-01
        1   -1    0    0  501    0  0.00000000000E+00  0.00000000000E+00  0.55235673562E+03  0.55235673565E+03  0.50400001928E-02 0.  1.
       -1   -1    0    0    0  501  0.00000000000E+00  0.00000000000E+00 -0.21564495372E+04  0.21564495372E+04  0.50400001928E-02 0. -1.
    10030    2    1    2    0    0  0.00000000000E+00  0.00000000000E+00 -0.16040928015E+04  0.27088062728E+04  0.21827775213E+04 0.  0.
        5    1    3    3  502    0  0.10187444868E+03 -0.29929382109E+03 -0.20983631386E+04  0.21220521073E+04  0.46999998093E+01 0. -1.
       -5    1    3    3    0  502 -0.10187444868E+03  0.29929382109E+03  0.49427033707E+03  0.58675416551E+03  0.46999998093E+01 0.  1.
</event>
<event>
 5   0  0.1257524E-04  0.2269634E+04  0.7818609E-02  0.8489991E-01
        2   -1    0    0  501    0  0.00000000000E+00  0.00000000000E+00  0.17635040523E+04  0.17635040523E+04  0.25500000920E-02 0.  1.
       -2   -1    0    0    0  501  0.00000000000E+00  0.00000000000E+00 -0.73025638094E+03  0.73025638095E+03  0.25500000920E-02 0. -1.
    10030    2    1    2    0    0  0.00000000000E+00  0.00000000000E+00  0.10332476714E+04  0.24937604333E+04  0.22696344085E+04 0.  0.
        3    1    3    3  502    0 -0.63399493053E+03 -0.59796219750E+03 -0.28199552321E+03  0.91598572417E+03  0.10100000352E+00 0. -1.
       -3    1    3    3    0  502  0.63399493053E+03  0.59796219750E+03  0.13152431946E+04  0.15777747091E+04  0.10100000352E+00 0.  1.
</event>
<event>
 5   0  0.1257524E-04  0.2258051E+04  0.7818609E-02  0.8494647E-01
        2   -1    0    0  501    0  0.00000000000E+00  0.00000000000E+00  0.21380049914E+04  0.21380049914E+04  0.25500000920E-02 0.  1.
       -2   -1    0    0    0  501  0.00000000000E+00  0.00000000000E+00 -0.59620941954E+03  0.59620941955E+03  0.25500000920E-02 0. -1.
    10030    2    1    2    0    0  0.00000000000E+00  0.00000000000E+00  0.15417955718E+04  0.27342144109E+04  0.22580511198E+04 0.  0.
        3    1    3    3  502    0  0.91300996283E+03 -0.66105857601E+03  0.69324054974E+03  0.13233170834E+04  0.10100000352E+00 0.  1.
       -3    1    3    3    0  502 -0.91300996283E+03  0.66105857601E+03  0.84855502208E+03  0.14108973275E+04  0.10100000352E+00 0. -1.
</event>
<event>
 5   0  0.5924654E-05  0.2256577E+04  0.7818609E-02  0.8495242E-01
        1   -1    0    0  501    0  0.00000000000E+00  0.00000000000E+00  0.18818525019E+04  0.18818525019E+04  0.50400001928E-02 0. -1.
       -1   -1    0    0    0  501  0.00000000000E+00  0.00000000000E+00 -0.67647960884E+03  0.67647960886E+03  0.50400001928E-02 0.  1.
    10030    2    1    2    0    0  0.00000000000E+00  0.00000000000E+00  0.12053728931E+04  0.25583321108E+04  0.22565769160E+04 0.  0.
        5    1    3    3  502    0 -0.42153922607E+03 -0.79336248690E+03 -0.17115156656E+03  0.91456782333E+03  0.46999998093E+01 0.  1.
       -5    1    3    3    0  502  0.42153922607E+03  0.79336248690E+03  0.13765244596E+04  0.16437642874E+04  0.46999998093E+01 0. -1.
</event>
<event>
 5   0  0.1237296E-04  0.2282899E+04  0.7818609E-02  0.8484694E-01
       -2   -1    0    0    0  501  0.00000000000E+00  0.00000000000E+00  0.10203976271E+04  0.10203976271E+04  0.25500000920E-02 0.  1.
        2   -1    0    0  501    0  0.00000000000E+00  0.00000000000E+00 -0.12768623274E+04  0.12768623274E+04  0.25500000920E-02 0. -1.
    10030    2    1    2    0    0  0.00000000000E+00  0.00000000000E+00 -0.25646470025E+03  0.22972599545E+04  0.22828992874E+04 0.  0.
        1    1    3    3  502    0 -0.20029921815E+03  0.96180255279E+03  0.45656304120E+03  0.10833437764E+04  0.50400001928E-02 0.  1.
       -1    1    3    3    0  502  0.20029921815E+03 -0.96180255279E+03 -0.71302774146E+03  0.12139161781E+04  0.50400001928E-02 0. -1.
</event>
<event>
 5   0  0.5843670E-05  0.2114444E+04  0.7818609E-02  0.8554907E-01
        1   -1    0    0  501    0  0.00000000000E+00  0.00000000000E+00  0.22767430135E+04  0.22767430135E+04  0.50400001928E-02 0. -1.
       -1   -1    0    0    0  501  0.00000000000E+00  0.00000000000E+00 -0.49092883928E+03  0.49092883931E+03  0.50400001928E-02 0.  1.
    10030    2    1    2    0    0  0.00000000000E+00  0.00000000000E+00  0.17858141742E+04  0.27676718528E+04  0.21144444235E+04 0.  0.
        2    1    3    3  502    0  0.85730814578E+03 -0.20527902205E+03  0.12899749241E+03  0.89093046124E+03  0.25500000920E-02 0.  1.
       -2    1    3    3    0  502 -0.85730814578E+03  0.20527902205E+03  0.16568166818E+04  0.18767413916E+04  0.25500000920E-02 0. -1.
</event>
<event>
 5   0  0.1257524E-04  0.2235244E+04  0.7818609E-02  0.8503900E-01
        2   -1    0    0  501    0  0.00000000000E+00  0.00000000000E+00  0.10929821370E+04  0.10929821370E+04  0.25500000920E-02 0. -1.
       -2   -1    0    0    0  501  0.00000000000E+00  0.00000000000E+00 -0.11428171872E+04  0.11428171872E+04  0.25500000920E-02 0.  1.
    10030    2    1    2    0    0  0.00000000000E+00  0.00000000000E+00 -0.49835050244E+02  0.22357993242E+04  0.22352438538E+04 0.  0.
        3    1    3    3  502    0 -0.74593105565E+03  0.67099210762E+03 -0.51741698801E+03  0.11288772732E+04  0.10100000352E+00 0.  1.
       -3    1    3    3    0  502  0.74593105565E+03 -0.67099210762E+03  0.46758193777E+03  0.11069220510E+04  0.10100000352E+00 0. -1.
</event>
<event>
 5   0  0.1281432E-04  0.2299814E+04  0.7818609E-02  0.8477995E-01
        2   -1    0    0  501    0  0.00000000000E+00  0.00000000000E+00  0.25332797618E+04  0.25332797618E+04  0.25500000920E-02 0. -1.
       -2   -1    0    0    0  501  0.00000000000E+00  0.00000000000E+00 -0.52196586666E+03  0.52196586667E+03  0.25500000920E-02 0.  1.
    10030    2    1    2    0    0  0.00000000000E+00  0.00000000000E+00  0.20113138952E+04  0.30552456285E+04  0.22998135284E+04 0.  0.
        4    1    3    3  502    0  0.10903472497E+03  0.10400840862E+04  0.37045609954E+03  0.11094605952E+04  0.12699999809E+01 0.  1.
       -4    1    3    3    0  502 -0.10903472497E+03 -0.10400840862E+04  0.16408577956E+04  0.19457850333E+04  0.12699999809E+01 0. -1.
</event>
<event>
 5   0  0.1234988E-04  0.2276917E+04  0.7818609E-02  0.8487079E-01
        2   -1    0    0  501    0  0.00000000000E+00  0.00000000000E+00  0.88990604504E+03  0.88990604504E+03  0.25500000920E-02 0.  1.
       -2   -1    0    0    0  501  0.00000000000E+00  0.00000000000E+00 -0.14564317492E+04  0.14564317492E+04  0.25500000920E-02 0. -1.
    10030    2    1    2    0    0  0.00000000000E+00  0.00000000000E+00 -0.56652570414E+03  0.23463377942E+04  0.22769167027E+04 0.  0.
        5    1    3    3  502    0  0.50656722812E+03  0.58380957364E+03  0.57805672988E+03  0.96520238698E+03  0.46999998093E+01 0.  1.
       -5    1    3    3    0  502 -0.50656722812E+03 -0.58380957364E+03 -0.11445824340E+04  0.13811354072E+04  0.46999998093E+01 0. -1.
</event>
<event>
 5   0  0.5642466E-05  0.2095820E+04  0.7818609E-02  0.8563087E-01
       -1   -1    0    0    0  501  0.00000000000E+00  0.00000000000E+00  0.99218468678E+03  0.99218468679E+03  0.50400001928E-02 0. -1.
        1   -1    0    0  501    0  0.00000000000E+00  0.00000000000E+00 -0.11067655829E+04  0.11067655829E+04  0.50400001928E-02 0.  1.
    10030    2    1    2    0    0  0.00000000000E+00  0.00000000000E+00 -0.11458089615E+03  0.20989502697E+04  0.20958204725E+04 0.  0.
        1    1    3    3  502    0 -0.13350393710E+03 -0.35498233235E+03  0.92104098127E+03  0.99606839459E+03  0.50400001928E-02 0. -1.
       -1    1    3    3    0  502  0.13350393710E+03  0.35498233235E+03 -0.10356218774E+04  0.11028818751E+04  0.50400001928E-02 0.  1.
</event>
<event>
 5   0  0.5663790E-05  0.2290785E+04  0.7818609E-02  0.8481563E-01
       -1   -1    0    0    0  501  0.00000000000E+00  0.00000000000E+00  0.54083150887E+03  0.54083150889E+03  0.50400001928E-02 0. -1.
        1   -1    0    0  501    0  0.00000000000E+00  0.00000000000E+00 -0.24257528451E+04  0.24257528451E+04  0.50400001928E-02 0.  1.
    10030    2    1    2    0    0  0.00000000000E+00  0.00000000000E+00 -0.18849213362E+04  0.29665843540E+04  0.22907846441E+04 0.  0.
        3    1    3    3  502    0 -0.72639641314E+03 -0.78204910741E+03 -0.14805844033E+04  0.18252075884E+04  0.10100000352E+00 0.  1.
       -3    1    3    3    0  502  0.72639641314E+03  0.78204910741E+03 -0.40433693296E+03  0.11413767656E+04  0.10100000352E+00 0. -1.
</event>
<event>
 5   0  0.5632156E-05  0.2280614E+04  0.7818609E-02  0.8485604E-01
       -1   -1    0    0    0  501  0.00000000000E+00  0.00000000000E+00  0.10873341970E+04  0.10873341970E+04  0.50400001928E-02 0.  1.
        1   -1    0    0  501    0  0.00000000000E+00  0.00000000000E+00 -0.11958600660E+04  0.11958600660E+04  0.50400001928E-02 0. -1.
    10030    2    1    2    0    0  0.00000000000E+00  0.00000000000E+00 -0.10852586898E+03  0.22831942631E+04  0.22806135531E+04 0.  0.
        4    1    3    3  502    0 -0.11511900764E+03  0.78866831977E+03 -0.87069039373E+03  0.11804039475E+04  0.12699999809E+01 0.  1.
       -4    1    3    3    0  502  0.11511900764E+03 -0.78866831977E+03  0.76216452475E+03  0.11027903156E+04  0.12699999809E+01 0. -1.
</event>
<event>
 5   0  0.5924654E-05  0.1416415E+04  0.7818609E-02  0.8942021E-01
        1   -1    0    0  501    0  0.00000000000E+00  0.00000000000E+00  0.92469163522E+03  0.92469163524E+03  0.50400001928E-02 0.  1.
       -1   -1    0    0    0  501  0.00000000000E+00  0.00000000000E+00 -0.54240587482E+03  0.54240587485E+03  0.50400001928E-02 0. -1.
    10030    2    1    2    0    0  0.00000000000E+00  0.00000000000E+00  0.38228576040E+03  0.14670975101E+04  0.14164154410E+04 0.  0.
        5    1    3    3  502    0  0.14315125623E+03  0.18500333917E+03 -0.50121947649E+03  0.55313793151E+03  0.46999998093E+01 0. -1.
       -5    1    3    3    0  502 -0.14315125623E+03 -0.18500333917E+03  0.88350523689E+03  0.91395957857E+03  0.46999998093E+01 0.  1.
</event>
<event>
 5   0  0.1257524E-04  0.1912737E+04  0.7818609E-02  0.8648542E-01
        2   -1    0    0  501    0  0.00000000000E+00  0.00000000000E+00  0.11380665997E+04  0.11380665997E+04  0.25500000920E-02 0. -1.
       -2   -1    0    0    0  501  0.00000000000E+00  0.00000000000E+00 -0.80367936959E+03  0.80367936960E+03  0.25500000920E-02 0.  1.
    10030    2    1    2    0    0  0.00000000000E+00  0.00000000000E+00  0.33438723015E+03  0.19417459693E+04  0.19127369369E+04 0.  0.
        3    1    3    3  502    0  0.82941689960E+03 -0.35671939933E+03 -0.15296141840E+03  0.91573922539E+03  0.10100000352E+00 0.  1.
       -3    1    3    3    0  502 -0.82941689960E+03  0.35671939933E+03  0.48734864856E+03  0.10260067440E+04  0.10100000352E+00 0. -1.
</event>
<event>
 5   0  0.5843670E-05  0.2307062E+04  0.7818609E-02  0.8475142E-01
        1   -1    0    0  501    0  0.00000000000E+00  0.00000000000E+00  0.98384345129E+03  0.98384345130E+03  0.50400001928E-02 0.  1.
       -1   -1    0    0    0  501  0.00000000000E+00  0.00000000000E+00 -0.13524847945E+04  0.13524847945E+04  0.50400001928E-02 0. -1.
    10030    2    1    2    0    0  0.00000000000E+00  0.00000000000E+00 -0.36864134319E+03  0.23363282458E+04  0.23070616013E+04 0.  0.
        2    1    3    3  502    0 -0.27703814005E+03 -0.47242626414E+02 -0.13172852917E+04  0.13469307838E+04  0.25500000920E-02 0. -1.
       -2    1    3    3    0  502  0.27703814005E+03  0.47242626414E+02  0.94864394846E+03  0.98939746197E+03  0.25500000920E-02 0.  1.
</event>
<event>
 5   0  0.5632156E-05  0.2380133E+04  0.7818609E-02  0.8446979E-01
       -1   -1    0    0    0  501  0.00000000000E+00  0.00000000000E+00  0.88480003179E+03  0.88480003180E+03  0.50400001928E-02 0.  1.
        1   -1    0    0  501    0  0.00000000000E+00  0.00000000000E+00 -0.16006535414E+04  0.16006535414E+04  0.50400001928E-02 0. -1.
    10030    2    1    2    0    0  0.00000000000E+00  0.00000000000E+00 -0.71585350964E+03  0.24854535732E+04  0.23801330252E+04 0.  0.
        4    1    3    3  502    0  0.34706042794E+03 -0.22169605215E+03 -0.15238711715E+04  0.15785388942E+04  0.12699999809E+01 0. -1.
       -4    1    3    3    0  502 -0.34706042794E+03  0.22169605215E+03  0.80801766191E+03  0.90691467903E+03  0.12699999809E+01 0.  1.
</event>
<event>
 5   0  0.5663790E-05  0.2267787E+04  0.7818609E-02  0.8490731E-01
       -1   -1    0    0    0  501  0.00000000000E+00  0.00000000000E+00  0.12487760412E+04  0.12487760412E+04  0.50400001928E-02 0.  1.
        1   -1    0    0  501    0  0.00000000000E+00  0.00000000000E+00 -0.10295799764E+04  0.10295799764E+04  0.50400001928E-02 0. -1.
    10030    2    1    2    0    0  0.00000000000E+00  0.00000000000E+00  0.21919606480E+03  0.22783560176E+04  0.22677872978E+04 0.  0.
        3    1    3    3  502    0 -0.27730991059E+03  0.10883640812E+04  0.26613700428E+03  0.11542383094E+04  0.10100000352E+00 0.  1.
       -3    1    3    3    0  502  0.27730991059E+03 -0.10883640812E+04 -0.46940939485E+02  0.11241177081E+04  0.10100000352E+00 0. -1.
</event>
<event>
 5   0  0.5632156E-05  0.2367328E+04  0.7818609E-02  0.8451838E-01
       -1   -1    0    0    0  501  0.00000000000E+00  0.00000000000E+00  0.98803968813E+03  0.98803968814E+03  0.50400001928E-02 0.  1.
        1   -1    0    0  501    0  0.00000000000E+00  0.00000000000E+00 -0.14180208464E+04  0.14180208464E+04  0.50400001928E-02 0. -1.
    10030    2    1    2    0    0  0.00000000000E+00  0.00000000000E+00 -0.42998115826E+03  0.24060605345E+04  0.23673283463E+04 0.  0.
        4    1    3    3  502    0  0.96501128717E+03  0.35135144269E+03 -0.81314707927E+03  0.13099253437E+04  0.12699999809E+01 0. -1.
       -4    1    3    3    0  502 -0.96501128717E+03 -0.35135144269E+03  0.38316592101E+03  0.10961351908E+04  0.12699999809E+01 0.  1.
</event>
<event>
 5   0  0.1270613E-04  0.1405495E+04  0.7818609E-02  0.8949850E-01
        2   -1    0    0  501    0  0.00000000000E+00  0.00000000000E+00  0.51955257833E+03  0.51955257834E+03  0.25500000920E-02 0.  1.
       -2   -1    0    0    0  501  0.00000000000E+00  0.00000000000E+00 -0.95053764403E+03  0.95053764403E+03  0.25500000920E-02 0. -1.
    10030    2    1    2    0    0  0.00000000000E+00  0.00000000000E+00 -0.43098506569E+03  0.14700902224E+04  0.14054953344E+04 0.  0.
        2    1    3    3  502    0 -0.24941340872E+03  0.60240341246E+02 -0.89979131681E+03  0.93566038763E+03  0.25500000920E-02 0. -1.
       -2    1    3    3    0  502  0.24941340872E+03 -0.60240341246E+02  0.46880625112E+03  0.53442983474E+03  0.25500000920E-02 0.  1.
</event>
<event>
 5   0  0.1234988E-04  0.2246541E+04  0.7818609E-02  0.8499302E-01
       -2   -1    0    0    0  501  0.00000000000E+00  0.00000000000E+00  0.53379610630E+03  0.53379610630E+03  0.25500000920E-02 0.  1.
        2   -1    0    0  501    0  0.00000000000E+00  0.00000000000E+00 -0.23637059128E+04  0.23637059128E+04  0.25500000920E-02 0. -1.
    10030    2    1    2    0    0  0.00000000000E+00  0.00000000000E+00 -0.18299098065E+04  0.28975020191E+04  0.22465413530E+04 0.  0.
        5    1    3    3  502    0 -0.27376223746E+03  0.88849791249E+03 -0.17279554026E+04  0.19621993443E+04  0.46999998093E+01 0. -1.
       -5    1    3    3    0  502  0.27376223746E+03 -0.88849791249E+03 -0.10195440391E+03  0.93530267487E+03  0.46999998093E+01 0.  1.
</event>
<event>
 5   0  0.1257524E-04  0.1667043E+04  0.7818609E-02  0.8780387E-01
       -2   -1    0    0    0  501  0.00000000000E+00  0.00000000000E+00  0.80345289504E+03  0.80345289504E+03  0.25500000920E-02 0. -1.
        2   -1    0    0  501    0  0.00000000000E+00  0.00000000000E+00 -0.86471579599E+03  0.86471579600E+03  0.25500000920E-02 0.  1.
    10030    2    1    2    0    0  0.00000000000E+00  0.00000000000E+00 -0.61262900957E+02  0.16681686910E+04  0.16670433824E+04 0.  0.
        3    1    3    3  502    0  0.20355715314E+03  0.69839053208E+03 -0.43781342469E+03  0.84903795848E+03  0.10100000352E+00 0.  1.
       -3    1    3    3    0  502 -0.20355715314E+03 -0.69839053208E+03  0.37655052374E+03  0.81913073256E+03  0.10100000352E+00 0. -1.
</event>
<event>
 5   0  0.1234988E-04  0.2346982E+04  0.7818609E-02  0.8459624E-01
        2   -1    0    0  501    0  0.00000000000E+00  0.00000000000E+00  0.18772140376E+04  0.18772140376E+04  0.25500000920E-02 0. -1.
       -2   -1    0    0    0  501  0.00000000000E+00  0.00000000000E+00 -0.73357718606E+03  0.73357718606E+03  0.25500000920E-02 0.  1.
    10030    2    1    2    0    0  0.00000000000E+00  0.00000000000E+00  0.11436368515E+04  0.26107912236E+04  0.23469822252E+04 0.  0.
        5    1    3    3  502    0  0.44284235610E+03  0.90311791260E+03 -0.10054458666E+03  0.10108722077E+04  0.46999998093E+01 0. -1.
       -5    1    3    3    0  502 -0.44284235610E+03 -0.90311791260E+03  0.12441814382E+04  0.15999190159E+04  0.46999998093E+01 0.  1.
</event>
<event>
 5   0  0.5632156E-05  0.2280027E+04  0.7818609E-02  0.8485838E-01
        1   -1    0    0  501    0  0.00000000000E+00  0.00000000000E+00  0.10583008846E+04  0.10583008846E+04  0.50400001928E-02 0. -1.
       -1   -1    0    0    0  501  0.00000000000E+00  0.00000000000E+00 -0.12280351549E+04  0.12280351549E+04  0.50400001928E-02 0.  1.
    10030    2    1    2    0    0  0.00000000000E+00  0.00000000000E+00 -0.16973427027E+03  0.22863360395E+04  0.22800269215E+04 0.  0.
        4    1    3    3  502    0 -0.23634637428E+03  0.70062383649E+03  0.78522951806E+03  0.10785733067E+04  0.12699999809E+01 0. -1.
       -4    1    3    3    0  502  0.23634637428E+03 -0.70062383649E+03 -0.95496378833E+03  0.12077627328E+04  0.12699999809E+01 0.  1.
</event>
<event>
 5   0  0.5663790E-05  0.2292740E+04  0.7818609E-02  0.8480789E-01
       -1   -1    0    0    0  501  0.00000000000E+00  0.00000000000E+00  0.21535007241E+04  0.21535007241E+04  0.50400001928E-02 0. -1.
        1   -1    0    0  501    0  0.00000000000E+00  0.00000000000E+00 -0.61024565472E+03  0.61024565474E+03  0.50400001928E-02 0.  1.
    10030    2    1    2    0    0  0.00000000000E+00  0.00000000000E+00  0.15432550694E+04  0.27637463788E+04  0.22927402464E+04 0.  0.
        3    1    3    3  502    0 -0.63009404791E+03 -0.35203145486E+03 -0.30196653457E+03  0.78238638320E+03  0.10100000352E+00 0.  1.
       -3    1    3    3    0  502  0.63009404791E+03  0.35203145486E+03  0.18452216039E+04  0.19813599956E+04  0.10100000352E+00 0. -1.
</event>
<event>
 5   0  0.5663790E-05  0.2292796E+04  0.7818609E-02  0.8480767E-01
        1   -1    0    0  501    0  0.00000000000E+00  0.00000000000E+00  0.13336406718E+04  0.13336406718E+04  0.50400001928E-02 0. -1.
       -1   -1    0    0    0  501  0.00000000000E+00  0.00000000000E+00 -0.98544430300E+03  0.98544430301E+03  0.50400001928E-02 0.  1.
    10030    2    1    2    0    0  0.00000000000E+00  0.00000000000E+00  0.34819636884E+03  0.23190849749E+04  0.22927961988E+04 0.  0.
        3    1    3    3  502    0 -0.11947064229E+03  0.83491669486E+03 -0.61125110455E+03  0.10416271141E+04  0.10100000352E+00 0.  1.
       -3    1    3    3    0  502  0.11947064229E+03 -0.83491669486E+03  0.95944747339E+03  0.12774578608E+04  0.10100000352E+00 0. -1.
</event>
<event>
 5   0  0.5924654E-05  0.2234410E+04  0.7818609E-02  0.8504241E-01
       -1   -1    0    0    0  501  0.00000000000E+00  0.00000000000E+00  0.48639840110E+03  0.48639840113E+03  0.50400001928E-02 0.  1.
        1   -1    0    0  501    0  0.00000000000E+00  0.00000000000E+00 -0.25661002468E+04  0.25661002468E+04  0.50400001928E-02 0. -1.
    10030    2    1    2    0    0  0.00000000000E+00  0.00000000000E+00 -0.20797018457E+04  0.30524986480E+04  0.22344100404E+04 0.  0.
        5    1    3    3  502    0  0.24858712034E+03 -0.98385424294E+03 -0.40147075450E+03  0.10913136966E+04  0.46999998093E+01 0.  1.
       -5    1    3    3    0  502 -0.24858712034E+03  0.98385424294E+03 -0.16782310912E+04  0.19611849513E+04  0.46999998093E+01 0. -1.
</event>
<event>
 5   0  0.1270613E-04  0.2234463E+04  0.7818609E-02  0.8504219E-01
       -2   -1    0    0    0  501  0.00000000000E+00  0.00000000000E+00  0.64282531452E+03  0.64282531452E+03  0.25500000920E-02 0.  1.
        2   -1    0    0  501    0  0.00000000000E+00  0.00000000000E+00 -0.19417504129E+04  0.19417504129E+04  0.25500000920E-02 0. -1.
    10030    2    1    2    0    0  0.00000000000E+00  0.00000000000E+00 -0.12989250984E+04  0.25845757274E+04  0.22344630853E+04 0.  0.
        2    1    3    3  502    0 -0.36922682357E+03 -0.85586243659E+03  0.62983173596E+02  0.93423542952E+03  0.25500000920E-02 0.  1.
       -2    1    3    3    0  502  0.36922682357E+03  0.85586243659E+03 -0.13619082720E+04  0.16503402979E+04  0.25500000920E-02 0. -1.
</event>
<event>
 5   0  0.1257524E-04  0.2145544E+04  0.7818609E-02  0.8541442E-01
       -2   -1    0    0    0  501  0.00000000000E+00  0.00000000000E+00  0.70346050538E+03  0.70346050538E+03  0.25500000920E-02 0.  1.
        2   -1    0    0  501    0  0.00000000000E+00  0.00000000000E+00 -0.16359690424E+04  0.16359690424E+04  0.25500000920E-02 0. -1.
    10030    2    1    2    0    0  0.00000000000E+00  0.00000000000E+00 -0.93250853707E+03  0.23394295478E+04  0.21455438559E+04 0.  0.
        3    1    3    3  502    0 -0.34017730789E+03  0.87069762712E+03  0.10761913430E+03  0.94096591168E+03  0.10100000352E+00 0.  1.
       -3    1    3    3    0  502  0.34017730789E+03 -0.87069762712E+03 -0.10401276714E+04  0.13984636361E+04  0.10100000352E+00 0. -1.
</event>
<event>
 5   0  0.1257524E-04  0.2284494E+04  0.7818609E-02  0.8484060E-01
        2   -1    0    0  501    0  0.00000000000E+00  0.00000000000E+00  0.20113102422E+04  0.20113102422E+04  0.25500000920E-02 0. -1.
       -2   -1    0    0    0  501  0.00000000000E+00  0.00000000000E+00 -0.64869582602E+03  0.64869582602E+03  0.25500000920E-02 0.  1.
    10030    2    1    2    0    0  0.00000000000E+00  0.00000000000E+00  0.13626144162E+04  0.26600060682E+04  0.22844943064E+04 0.  0.
        3    1    3    3  502    0 -0.33306555030E+03 -0.10352446482E+04  0.27450147110E+03  0.11216127720E+04  0.10100000352E+00 0.  1.
       -3    1    3    3    0  502  0.33306555030E+03  0.10352446482E+04  0.10881129451E+04  0.15383932962E+04  0.10100000352E+00 0. -1.
</event>
<event>
 5   0  0.5843670E-05  0.2324973E+04  0.7818609E-02  0.8468139E-01
       -1   -1    0    0    0  501  0.00000000000E+00  0.00000000000E+00  0.97567013578E+03  0.97567013580E+03  0.50400001928E-02 0. -1.
        1   -1    0    0  501    0  0.00000000000E+00  0.00000000000E+00 -0.13850734151E+04  0.13850734151E+04  0.50400001928E-02 0.  1.
    10030    2    1    2    0    0  0.00000000000E+00  0.00000000000E+00 -0.40940327934E+03  0.23607435509E+04  0.23249729177E+04 0.  0.
        2    1    3    3  502    0 -0.30227548489E+03 -0.37712255447E+03  0.86881712426E+03  0.99420072685E+03  0.25500000920E-02 0. -1.
       -2    1    3    3    0  502  0.30227548489E+03  0.37712255447E+03 -0.12782204036E+04  0.13665428241E+04  0.25500000920E-02 0.  1.
</event>
<event>
 5   0  0.1281432E-04  0.2288031E+04  0.7818609E-02  0.8482655E-01
        2   -1    0    0  501    0  0.00000000000E+00  0.00000000000E+00  0.25861101702E+04  0.25861101702E+04  0.25500000920E-02 0.  1.
       -2   -1    0    0    0  501  0.00000000000E+00  0.00000000000E+00 -0.50607704497E+03  0.50607704497E+03  0.25500000920E-02 0. -1.
    10030    2    1    2    0    0  0.00000000000E+00  0.00000000000E+00  0.20800331253E+04  0.30921872152E+04  0.22880305880E+04 0.  0.
        4    1    3    3  502    0  0.16445086237E+03  0.78763890086E+03  0.21390722982E+04  0.22853995349E+04  0.12699999809E+01 0.  1.
       -4    1    3    3    0  502 -0.16445086237E+03 -0.78763890086E+03 -0.59039172922E+02  0.80678768032E+03  0.12699999809E+01 0. -1.
</event>
<event>
 5   0  0.1257524E-04  0.2037702E+04  0.7818609E-02  0.8589194E-01
       -2   -1    0    0    0  501  0.00000000000E+00  0.00000000000E+00  0.72458348573E+03  0.72458348573E+03  0.25500000920E-02 0.  1.
        2   -1    0    0  501    0  0.00000000000E+00  0.00000000000E+00 -0.14326256806E+04  0.14326256806E+04  0.25500000920E-02 0. -1.
    10030    2    1    2    0    0  0.00000000000E+00  0.00000000000E+00 -0.70804219491E+03  0.21572091664E+04  0.20377015576E+04 0.  0.
        3    1    3    3  502    0 -0.21251363259E+02 -0.10173369666E+04 -0.40832031158E+03  0.10964267468E+04  0.10100000352E+00 0.  1.
       -3    1    3    3    0  502  0.21251363259E+02  0.10173369666E+04 -0.29972188333E+03  0.10607824196E+04  0.10100000352E+00 0. -1.
</event>
<event>
 5   0  0.1257524E-04  0.2276338E+04  0.7818609E-02  0.8487310E-01
        2   -1    0    0  501    0  0.00000000000E+00  0.00000000000E+00  0.20219314564E+04  0.20219314564E+04  0.25500000920E-02 0. -1.
       -2   -1    0    0    0  501  0.00000000000E+00  0.00000000000E+00 -0.64068869028E+03  0.64068869029E+03  0.25500000920E-02 0.  1.
    10030    2    1    2    0    0  0.00000000000E+00  0.00000000000E+00  0.13812427661E+04  0.26626201466E+04  0.22763379508E+04 0.  0.
        3    1    3    3  502    0  0.10435389821E+04 -0.37992762895E+03  0.98213122738E+03  0.14825317428E+04  0.10100000352E+00 0. -1.
       -3    1    3    3    0  502 -0.10435389821E+04  0.37992762895E+03  0.39911153869E+03  0.11800884039E+04  0.10100000352E+00 0.  1.
</event>
<event>
 5   0  0.1257524E-04  0.2189392E+04  0.7818609E-02  0.8522856E-01
        2   -1    0    0  501    0  0.00000000000E+00  0.00000000000E+00  0.13141546484E+04  0.13141546484E+04  0.25500000920E-02 0.  1.
       -2   -1    0    0    0  501  0.00000000000E+00  0.00000000000E+00 -0.91188630959E+03  0.91188630959E+03  0.25500000920E-02 0. -1.
    10030    2    1    2    0    0  0.00000000000E+00  0.00000000000E+00  0.40226833883E+03  0.22260409580E+04  0.21893922742E+04 0.  0.
        3    1    3    3  502    0 -0.19093454503E+03 -0.82128592798E+03  0.91095580729E+03  0.12412924994E+04  0.10100000352E+00 0.  1.
       -3    1    3    3    0  502  0.19093454503E+03  0.82128592798E+03 -0.50868746847E+03  0.98474845862E+03  0.10100000352E+00 0. -1.
</event>
<event>
 5   0  0.1234988E-04  0.2563095E+04  0.7818609E-02  0.8380846E-01
       -2   -1    0    0    0  501  0.00000000000E+00  0.00000000000E+00  0.93839496100E+03  0.93839496101E+03  0.25500000920E-02 0.  1.
        2   -1    0    0  501    0  0.00000000000E+00  0.00000000000E+00 -0.17501842006E+04  0.17501842006E+04  0.25500000920E-02 0. -1.
    10030    2    1    2    0    0  0.00000000000E+00  0.00000000000E+00 -0.81178923963E+03  0.26885791616E+04  0.25630950312E+04 0.  0.
        5    1    3    3  502    0 -0.95274383156E+03 -0.10787045367E+03 -0.12978082348E+04  0.16135938608E+04  0.46999998093E+01 0. -1.
       -5    1    3    3    0  502  0.95274383156E+03  0.10787045367E+03  0.48601899517E+03  0.10749853008E+04  0.46999998093E+01 0.  1.
</event>
<event>
 5   0  0.5663790E-05  0.2223704E+04  0.7818609E-02  0.8508626E-01
        1   -1    0    0  501    0  0.00000000000E+00  0.00000000000E+00  0.11019468372E+04  0.11019468372E+04  0.50400001928E-02 0. -1.
       -1   -1    0    0    0  501  0.00000000000E+00  0.00000000000E+00 -0.11218460220E+04  0.11218460220E+04  0.50400001928E-02 0.  1.
    10030    2    1    2    0    0  0.00000000000E+00  0.00000000000E+00 -0.19899184796E+02  0.22237928592E+04  0.22237038254E+04 0.  0.
        3    1    3    3  502    0 -0.94749381109E+03  0.35253145706E+03  0.45287744601E+03  0.11077549104E+04  0.10100000352E+00 0. -1.
       -3    1    3    3    0  502  0.94749381109E+03 -0.35253145706E+03 -0.47277663081E+03  0.11160379488E+04  0.10100000352E+00 0.  1.
</event>
<event>
 5   0  0.5843670E-05  0.1454988E+04  0.7818609E-02  0.8914950E-01
        1   -1    0    0  501    0  0.00000000000E+00  0.00000000000E+00  0.97180439739E+03  0.97180439741E+03  0.50400001928E-02 0.  1.
       -1   -1    0    0    0  501  0.00000000000E+00  0.00000000000E+00 -0.54460313673E+03  0.54460313676E+03  0.50400001928E-02 0. -1.
    10030    2    1    2    0    0  0.00000000000E+00  0.00000000000E+00  0.42720126066E+03  0.15164075342E+04  0.14549882792E+04 0.  0.
        2    1    3    3  502    0 -0.21442387923E+03 -0.33506515837E+03  0.84841134687E+03  0.93704219427E+03  0.25500000920E-02 0.  1.
       -2    1    3    3    0  502  0.21442387923E+03  0.33506515837E+03 -0.42121008621E+03  0.57936533989E+03  0.25500000920E-02 0. -1.
</event>
<event>
 5   0  0.5632156E-05  0.2275654E+04  0.7818609E-02  0.8487583E-01
       -1   -1    0    0    0  501  0.00000000000E+00  0.00000000000E+00  0.17846462568E+04  0.17846462568E+04  0.50400001928E-02 0.  1.
        1   -1    0    0  501    0  0.00000000000E+00  0.00000000000E+00 -0.72543831024E+03  0.72543831026E+03  0.50400001928E-02 0. -1.
    10030    2    1    2    0    0  0.00000000000E+00  0.00000000000E+00  0.10592079465E+04  0.25100845671E+04  0.22756544245E+04 0.  0.
        4    1    3    3  502    0  0.88558295388E+03 -0.65130650741E+03  0.85343246745E+03  0.13916917490E+04  0.12699999809E+01 0.  1.
       -4    1    3    3    0  502 -0.88558295388E+03  0.65130650741E+03  0.20577547909E+03  0.11183928181E+04  0.12699999809E+01 0. -1.
</event>
<event>
 5   0  0.1257524E-04  0.2313866E+04  0.7818609E-02  0.8472474E-01
       -2   -1    0    0    0  501  0.00000000000E+00  0.00000000000E+00  0.96187453324E+03  0.96187453324E+03  0.25500000920E-02 0.  1.
        2   -1    0    0  501    0  0.00000000000E+00  0.00000000000E+00 -0.13915471342E+04  0.13915471342E+04  0.25500000920E-02 0. -1.
    10030    2    1    2    0    0  0.00000000000E+00  0.00000000000E+00 -0.42967260095E+03  0.23534216674E+04  0.23138658130E+04 0.  0.
        3    1    3    3  502    0 -0.92122644788E+03 -0.69086086312E+03 -0.10090875266E+03  0.11559106743E+04  0.10100000352E+00 0. -1.
       -3    1    3    3    0  502  0.92122644788E+03  0.69086086312E+03 -0.32876384829E+03  0.11975109931E+04  0.10100000352E+00 0.  1.
</event>
<event>
 5   0  0.1257524E-04  0.2316438E+04  0.7818609E-02  0.8471468E-01
        2   -1    0    0  501    0  0.00000000000E+00  0.00000000000E+00  0.12801559236E+04  0.12801559236E+04  0.25500000920E-02 0. -1.
       -2   -1    0    0    0  501  0.00000000000E+00  0.00000000000E+00 -0.10478969354E+04  0.10478969354E+04  0.25500000920E-02 0.  1.
    10030    2    1    2    0    0  0.00000000000E+00  0.00000000000E+00  0.23225898817E+03  0.23280528590E+04  0.23164381875E+04 0.  0.
        3    1    3    3  502    0 -0.29588088561E+01  0.58979100514E+03 -0.88566799614E+03  0.10640817609E+04  0.10100000352E+00 0.  1.
       -3    1    3    3    0  502  0.29588088561E+01 -0.58979100514E+03  0.11179269843E+04  0.12639710981E+04  0.10100000352E+00 0. -1.
</event>
<event>
 5   0  0.1237296E-04  0.2194993E+04  0.7818609E-02  0.8520515E-01
       -2   -1    0    0    0  501  0.00000000000E+00  0.00000000000E+00  0.10625851286E+04  0.10625851286E+04  0.25500000920E-02 0. -1.
        2   -1    0    0  501    0  0.00000000000E+00  0.00000000000E+00 -0.11335544648E+04  0.11335544648E+04  0.25500000920E-02 0.  1.
    10030    2    1    2    0    0  0.00000000000E+00  0.00000000000E+00 -0.70969336192E+02  0.21961395934E+04  0.21949925893E+04 0.  0.
        1    1    3    3  502    0  0.72222727712E+03 -0.63699065945E+03  0.49122064074E+03  0.10810490544E+04  0.50400001928E-02 0.  1.
       -1    1    3    3    0  502 -0.72222727712E+03  0.63699065945E+03 -0.56218997693E+03  0.11150905390E+04  0.50400001928E-02 0. -1.
</event>
<event>
 5   0  0.5642466E-05  0.2039418E+04  0.7818609E-02  0.8588410E-01
       -1   -1    0    0    0  501  0.00000000000E+00  0.00000000000E+00  0.87362909224E+03  0.87362909225E+03  0.50400001928E-02 0.  1.
        1   -1    0    0  501    0  0.00000000000E+00  0.00000000000E+00 -0.11902149101E+04  0.11902149101E+04  0.50400001928E-02 0. -1.
    10030    2    1    2    0    0  0.00000000000E+00  0.00000000000E+00 -0.31658581787E+03  0.20638440024E+04  0.20394179282E+04 0.  0.
        1    1    3    3  502    0  0.61249687040E+03 -0.81102784479E+03 -0.24227962307E+03  0.10448052436E+04  0.50400001928E-02 0.  1.
       -1    1    3    3    0  502 -0.61249687040E+03  0.81102784479E+03 -0.74306194802E+02  0.10190387588E+04  0.50400001928E-02 0. -1.
</event>
<event>
 5   0  0.1270613E-04  0.2239217E+04  0.7818609E-02  0.8502280E-01
        2   -1    0    0  501    0  0.00000000000E+00  0.00000000000E+00  0.19216021896E+04  0.19216021896E+04  0.25500000920E-02 0.  1.
       -2   -1    0    0    0  501  0.00000000000E+00  0.00000000000E+00 -0.65233236619E+03  0.65233236620E+03  0.25500000920E-02 0. -1.
    10030    2    1    2    0    0  0.00000000000E+00  0.00000000000E+00  0.12692698234E+04  0.25739345558E+04  0.22392170982E+04 0.  0.
        2    1    3    3  502    0  0.41813693526E+03 -0.34963104872E+03  0.17588019076E+04  0.18413214052E+04  0.25500000920E-02 0.  1.
       -2    1    3    3    0  502 -0.41813693526E+03  0.34963104872E+03 -0.48953208428E+03  0.73261315058E+03  0.25500000920E-02 0. -1.
</event>
<event>
 5   0  0.1257524E-04  0.2239429E+04  0.7818609E-02  0.8502194E-01
        2   -1    0    0  501    0  0.00000000000E+00  0.00000000000E+00  0.14603772233E+04  0.14603772233E+04  0.25500000920E-02 0.  1.
       -2   -1    0    0    0  501  0.00000000000E+00  0.00000000000E+00 -0.85851839095E+03  0.85851839096E+03  0.25500000920E-02 0. -1.
    10030    2    1    2    0    0  0.00000000000E+00  0.00000000000E+00  0.60185883235E+03  0.23188956143E+04  0.22394291272E+04 0.  0.
        3    1    3    3  502    0  0.44120577864E+03  0.10022321135E+04  0.54295166081E+03  0.12222635823E+04  0.10100000352E+00 0.  1.
       -3    1    3    3    0  502 -0.44120577864E+03 -0.10022321135E+04  0.58907171543E+02  0.10966320320E+04  0.10100000352E+00 0. -1.
</event>
<event>
 5   0  0.5642466E-05  0.2264850E+04  0.7818609E-02  0.8491910E-01
       -1   -1    0    0    0  501  0.00000000000E+00  0.00000000000E+00  0.63438654781E+03  0.63438654783E+03  0.50400001928E-02 0. -1.
        1   -1    0    0  501    0  0.00000000000E+00  0.00000000000E+00 -0.20214598408E+04  0.20214598408E+04  0.50400001928E-02 0.  1.
    10030    2    1    2    0    0  0.00000000000E+00  0.00000000000E+00 -0.13870732930E+04  0.26558463886E+04  0.22648504851E+04 0.  0.
        1    1    3    3  502    0  0.45886490577E+03 -0.10291032803E+04 -0.82608279042E+03  0.13971482885E+04  0.50400001928E-02 0. -1.
       -1    1    3    3    0  502 -0.45886490577E+03  0.10291032803E+04 -0.56099050257E+03  0.12586981002E+04  0.50400001928E-02 0.  1.
</event>
<event>
 5   0  0.1281432E-04  0.2340040E+04  0.7818609E-02  0.8462299E-01
        2   -1    0    0  501    0  0.00000000000E+00  0.00000000000E+00  0.10138717785E+04  0.10138717785E+04  0.25500000920E-02 0.  1.
       -2   -1    0    0    0  501  0.00000000000E+00  0.00000000000E+00 -0.13502164137E+04  0.13502164137E+04  0.25500000920E-02 0. -1.
    10030    2    1    2    0    0  0.00000000000E+00  0.00000000000E+00 -0.33634463524E+03  0.23640881922E+04  0.23400395866E+04 0.  0.
        4    1    3    3  502    0  0.89722010755E+03 -0.61293023310E+03 -0.60651765951E+03  0.12444085648E+04  0.12699999809E+01 0. -1.
       -4    1    3    3    0  502 -0.89722010755E+03  0.61293023310E+03  0.27017302427E+03  0.11196796274E+04  0.12699999809E+01 0.  1.
</event>
<event>
 5   0  0.5924654E-05  0.2202567E+04  0.7818609E-02  0.8517360E-01
       -1   -1    0    0    0  501  0.00000000000E+00  0.00000000000E+00  0.92490032645E+03  0.92490032646E+03  0.50400001928E-02 0.  1.
        1   -1    0    0  501    0  0.00000000000E+00  0.00000000000E+00 -0.13113039348E+04  0.13113039348E+04  0.50400001928E-02 0. -1.
    10030    2    1    2    0    0  0.00000000000E+00  0.00000000000E+00 -0.38640360839E+03  0.22362042613E+04  0.22025670818E+04 0.  0.
        5    1    3    3  502    0 -0.19409967951E+02 -0.23645236985E+03 -0.12850400774E+04  0.13067656869E+04  0.46999998093E+01 0. -1.
       -5    1    3    3    0  502  0.19409967951E+02  0.23645236985E+03  0.89863646901E+03  0.92943857436E+03  0.46999998093E+01 0.  1.
</event>
<event>
 5   0  0.1234988E-04  0.2324087E+04  0.7818609E-02  0.8468484E-01
       -2   -1    0    0    0  501  0.00000000000E+00  0.00000000000E+00  0.17078341365E+04  0.17078341365E+04  0.25500000920E-02 0.  1.
        2   -1    0    0  501    0  0.00000000000E+00  0.00000000000E+00 -0.79067700401E+03  0.79067700402E+03  0.25500000920E-02 0. -1.
    10030    2    1    2    0    0  0.00000000000E+00  0.00000000000E+00  0.91715713248E+03  0.24985111405E+04  0.23240870710E+04 0.  0.
        5    1    3    3  502    0  0.11255763023E+04  0.56135924385E+02  0.76312321085E+03  0.13610482649E+04  0.46999998093E+01 0.  1.
       -5    1    3    3    0  502 -0.11255763023E+04 -0.56135924385E+02  0.15403392163E+03  0.11374628756E+04  0.46999998093E+01 0. -1.
</event>
<event>
 5   0  0.1281432E-04  0.2260321E+04  0.7818609E-02  0.8493732E-01
       -2   -1    0    0    0  501  0.00000000000E+00  0.00000000000E+00  0.11603406926E+04  0.11603406927E+04  0.25500000920E-02 0.  1.
        2   -1    0    0  501    0  0.00000000000E+00  0.00000000000E+00 -0.11007649566E+04  0.11007649566E+04  0.25500000920E-02 0. -1.
    10030    2    1    2    0    0  0.00000000000E+00  0.00000000000E+00  0.59575736023E+02  0.22611056493E+04  0.22603206606E+04 0.  0.
        4    1    3    3  502    0  0.76030414632E+03  0.71696891785E+03  0.46023247781E+03  0.11418942029E+04  0.12699999809E+01 0.  1.
       -4    1    3    3    0  502 -0.76030414632E+03 -0.71696891785E+03 -0.40065674178E+03  0.11192114464E+04  0.12699999809E+01 0. -1.
</event>
<event>
 5   0  0.1257524E-04  0.2299214E+04  0.7818609E-02  0.8478231E-01
        2   -1    0    0  501    0  0.00000000000E+00  0.00000000000E+00  0.20864734631E+04  0.20864734631E+04  0.25500000920E-02 0.  1.
       -2   -1    0    0    0  501  0.00000000000E+00  0.00000000000E+00 -0.63341154349E+03  0.63341154349E+03  0.25500000920E-02 0. -1.
    10030    2    1    2    0    0  0.00000000000E+00  0.00000000000E+00  0.14530619196E+04  0.27198850066E+04  0.22992141063E+04 0.  0.
        3    1    3    3  502    0  0.82859387806E+02 -0.21870240632E+03  0.20580343803E+04  0.20712802663E+04  0.10100000352E+00 0.  1.
       -3    1    3    3    0  502 -0.82859387806E+02  0.21870240632E+03 -0.60497246074E+03  0.64860474029E+03  0.10100000352E+00 0. -1.
</event>
<event>
 5   0  0.1257524E-04  0.2208509E+04  0.7818609E-02  0.8514895E-01
       -2   -1    0    0    0  501  0.00000000000E+00  0.00000000000E+00  0.81980214314E+03  0.81980214314E+03  0.25500000920E-02 0.  1.
        2   -1    0    0  501    0  0.00000000000E+00  0.00000000000E+00 -0.14874053374E+04  0.14874053374E+04  0.25500000920E-02 0. -1.
    10030    2    1    2    0    0  0.00000000000E+00  0.00000000000E+00 -0.66760319423E+03  0.23072074805E+04  0.22085090747E+04 0.  0.
        3    1    3    3  502    0  0.60795762729E+03  0.14934045189E+03 -0.12841038559E+04  0.14285789338E+04  0.10100000352E+00 0. -1.
       -3    1    3    3    0  502 -0.60795762729E+03 -0.14934045189E+03  0.61650066164E+03  0.87862854674E+03  0.10100000352E+00 0.  1.
</event>
<event>
 5   0  0.1281432E-04  0.2442955E+04  0.7818609E-02  0.8423595E-01
        2   -1    0    0  501    0  0.00000000000E+00  0.00000000000E+00  0.82429749384E+03  0.82429749385E+03  0.25500000920E-02 0.  1.
       -2   -1    0    0    0  501  0.00000000000E+00  0.00000000000E+00 -0.18100353768E+04  0.18100353768E+04  0.25500000920E-02 0. -1.
    10030    2    1    2    0    0  0.00000000000E+00  0.00000000000E+00 -0.98573788294E+03  0.26343328706E+04  0.24429552799E+04 0.  0.
        4    1    3    3  502    0  0.11679898917E+04 -0.35697430800E+03 -0.51374999401E+03  0.13249798915E+04  0.12699999809E+01 0.  1.
       -4    1    3    3    0  502 -0.11679898917E+04  0.35697430800E+03 -0.47198788893E+03  0.13093529791E+04  0.12699999809E+01 0. -1.
</event>
<event>
 5   0  0.1257524E-04  0.1441768E+04  0.7818609E-02  0.8924128E-01
        2   -1    0    0  501    0  0.00000000000E+00  0.00000000000E+00  0.92174450264E+03  0.92174450264E+03  0.25500000920E-02 0.  1.
       -2   -1    0    0    0  501  0.00000000000E+00  0.00000000000E+00 -0.56379361970E+03  0.56379361970E+03  0.25500000920E-02 0. -1.
    10030    2    1    2    0    0  0.00000000000E+00  0.00000000000E+00  0.35795088294E+03  0.14855381223E+04  0.14417679003E+04 0.  0.
        3    1    3    3  502    0 -0.14896322589E+03 -0.42686356462E+03 -0.39956075998E+03  0.60336668501E+03  0.10100000352E+00 0. -1.
       -3    1    3    3    0  502  0.14896322589E+03  0.42686356462E+03  0.75751164292E+03  0.88217143733E+03  0.10100000352E+00 0.  1.
</event>
<event>
 5   0  0.5924654E-05  0.2269127E+04  0.7818609E-02  0.8490194E-01
        1   -1    0    0  501    0  0.00000000000E+00  0.00000000000E+00  0.64227286496E+03  0.64227286498E+03  0.50400001928E-02 0. -1.
       -1   -1    0    0    0  501  0.00000000000E+00  0.00000000000E+00 -0.20041859572E+04  0.20041859572E+04  0.50400001928E-02 0.  1.
    10030    2    1    2    0    0  0.00000000000E+00  0.00000000000E+00 -0.13619130922E+04  0.26464588221E+04  0.22691269305E+04 0.  0.
        5    1    3    3  502    0  0.98695261482E+03  0.46898447737E+03 -0.32492242696E+03  0.11400081480E+04  0.46999998093E+01 0. -1.
       -5    1    3    3    0  502 -0.98695261482E+03 -0.46898447737E+03 -0.10369906652E+04  0.15064506742E+04  0.46999998093E+01 0.  1.
</event>
<event>
 5   0  0.1237296E-04  0.2127932E+04  0.7818609E-02  0.8549038E-01
        2   -1    0    0  501    0  0.00000000000E+00  0.00000000000E+00  0.93122541458E+03  0.93122541458E+03  0.25500000920E-02 0.  1.
       -2   -1    0    0    0  501  0.00000000000E+00  0.00000000000E+00 -0.12156279666E+04  0.12156279666E+04  0.25500000920E-02 0. -1.
    10030    2    1    2    0    0  0.00000000000E+00  0.00000000000E+00 -0.28440255201E+03  0.21468533812E+04  0.21279320075E+04 0.  0.
        1    1    3    3  502    0 -0.16677343437E+03 -0.52025284919E+03  0.77890501877E+03  0.95140392778E+03  0.50400001928E-02 0.  1.
       -1    1    3    3    0  502  0.16677343437E+03  0.52025284919E+03 -0.10633075708E+04  0.11954494534E+04  0.50400001928E-02 0. -1.
</event>
<event>
 5   0  0.5642466E-05  0.1165703E+04  0.7818609E-02  0.9143418E-01
        1   -1    0    0  501    0  0.00000000000E+00  0.00000000000E+00  0.27418404509E+04  0.27418404509E+04  0.50400001928E-02 0. -1.
       -1   -1    0    0    0  501  0.00000000000E+00  0.00000000000E+00 -0.12390058060E+03  0.12390058070E+03  0.50400001928E-02 0.  1.
    10030    2    1    2    0    0  0.00000000000E+00  0.00000000000E+00  0.26179398703E+04  0.28657410316E+04  0.11657025760E+04 0.  0.
        1    1    3    3  502    0  0.42568785127E+03  0.16242545939E+03  0.41537821901E+03  0.61654784196E+03  0.50400001928E-02 0.  1.
       -1    1    3    3    0  502 -0.42568785127E+03 -0.16242545939E+03  0.22025616513E+04  0.22491931896E+04  0.50400001928E-02 0. -1.
</event>
<event>
 5   0  0.1281432E-04  0.2263671E+04  0.7818609E-02  0.8492384E-01
        2   -1    0    0  501    0  0.00000000000E+00  0.00000000000E+00  0.16446109050E+04  0.16446109050E+04  0.25500000920E-02 0. -1.
       -2   -1    0    0    0  501  0.00000000000E+00  0.00000000000E+00 -0.77893915115E+03  0.77893915116E+03  0.25500000920E-02 0.  1.
    10030    2    1    2    0    0  0.00000000000E+00  0.00000000000E+00  0.86567175383E+03  0.24235500561E+04  0.22636711972E+04 0.  0.
        4    1    3    3  502    0 -0.58003451100E+03  0.69621300183E+03  0.11588904006E+04  0.14711156145E+04  0.12699999809E+01 0. -1.
       -4    1    3    3    0  502  0.58003451100E+03 -0.69621300183E+03 -0.29321864675E+03  0.95243444161E+03  0.12699999809E+01 0.  1.
</event>
<event>
 5   0  0.1281432E-04  0.2305338E+04  0.7818609E-02  0.8475819E-01
        2   -1    0    0  501    0  0.00000000000E+00  0.00000000000E+00  0.18638106033E+04  0.18638106033E+04  0.25500000920E-02 0.  1.
       -2   -1    0    0    0  501  0.00000000000E+00  0.00000000000E+00 -0.71286542041E+03  0.71286542042E+03  0.25500000920E-02 0. -1.
    10030    2    1    2    0    0  0.00000000000E+00  0.00000000000E+00  0.11509451829E+04  0.25766760237E+04  0.23053382653E+04 0.  0.
        4    1    3    3  502    0 -0.20030361229E+03 -0.71329742984E+03  0.15624272728E+04  0.17291892193E+04  0.12699999809E+01 0.  1.
       -4    1    3    3    0  502  0.20030361229E+03  0.71329742984E+03 -0.41148208987E+03  0.84748680444E+03  0.12699999809E+01 0. -1.
</event>
<event>
 5   0  0.4489500E-05  0.2461779E+04  0.7818609E-02  0.8416730E-01
        3   -1    0    0  501    0  0.00000000000E+00  0.00000000000E+00  0.85066527069E+03  0.85066527668E+03  0.10100000352E+00 0.  1.
       -3   -1    0    0    0  501  0.00000000000E+00  0.00000000000E+00 -0.17810631584E+04  0.17810631612E+04  0.10100000352E+00 0. -1.
    10030    2    1    2    0    0  0.00000000000E+00  0.00000000000E+00 -0.93039788768E+03  0.26317284379E+04  0.24617786947E+04 0.  0.
        4    1    3    3  502    0 -0.20322092094E+03 -0.26320933448E+03 -0.17321339601E+04  0.17637651672E+04  0.12699999809E+01 0. -1.
       -4    1    3    3    0  502  0.20322092094E+03  0.26320933448E+03  0.80173607245E+03  0.86796327067E+03  0.12699999809E+01 0.  1.
</event>
<event>
 5   0  0.1281432E-04  0.2340292E+04  0.7818609E-02  0.8462202E-01
       -2   -1    0    0    0  501  0.00000000000E+00  0.00000000000E+00  0.56874454769E+03  0.56874454769E+03  0.25500000920E-02 0.  1.
        2   -1    0    0  501    0  0.00000000000E+00  0.00000000000E+00 -0.24074809486E+04  0.24074809486E+04  0.25500000920E-02 0. -1.
    10030    2    1    2    0    0  0.00000000000E+00  0.00000000000E+00 -0.18387364009E+04  0.29762254963E+04  0.23402920016E+04 0.  0.
        4    1    3    3  502    0  0.58237121808E+03 -0.70245807266E+02 -0.22069930604E+04  0.22836178951E+04  0.12699999809E+01 0. -1.
       -4    1    3    3    0  502 -0.58237121808E+03  0.70245807266E+02  0.36825665951E+03  0.69260760121E+03  0.12699999809E+01 0.  1.
</event>
<event>
 5   0  0.1237296E-04  0.2302529E+04  0.7818609E-02  0.8476925E-01
        2   -1    0    0  501    0  0.00000000000E+00  0.00000000000E+00  0.15513157720E+04  0.15513157720E+04  0.25500000920E-02 0.  1.
       -2   -1    0    0    0  501  0.00000000000E+00  0.00000000000E+00 -0.85437785587E+03  0.85437785588E+03  0.25500000920E-02 0. -1.
    10030    2    1    2    0    0  0.00000000000E+00  0.00000000000E+00  0.69693791611E+03  0.24056936279E+04  0.23025289080E+04 0.  0.
        1    1    3    3  502    0  0.85131288012E+03  0.52563906907E+03 -0.24659291109E+03  0.10304552948E+04  0.50400001928E-02 0. -1.
       -1    1    3    3    0  502 -0.85131288012E+03 -0.52563906907E+03  0.94353082721E+03  0.13752383331E+04  0.50400001928E-02 0.  1.
</event>
<event>
 5   0  0.5632156E-05  0.2298572E+04  0.7818609E-02  0.8478484E-01
        1   -1    0    0  501    0  0.00000000000E+00  0.00000000000E+00  0.16416026726E+04  0.16416026726E+04  0.50400001928E-02 0. -1.
       -1   -1    0    0    0  501  0.00000000000E+00  0.00000000000E+00 -0.80461524338E+03  0.80461524340E+03  0.50400001928E-02 0.  1.
    10030    2    1    2    0    0  0.00000000000E+00  0.00000000000E+00  0.83698742924E+03  0.24462179160E+04  0.22985721951E+04 0.  0.
        4    1    3    3  502    0  0.84745803247E+03  0.12254548574E+03 -0.39733313237E+03  0.94396914349E+03  0.12699999809E+01 0.  1.
       -4    1    3    3    0  502 -0.84745803247E+03 -0.12254548574E+03  0.12343205616E+04  0.15022487725E+04  0.12699999809E+01 0. -1.
</event>
<event>
 5   0  0.4489500E-05  0.2310893E+04  0.7818609E-02  0.8473638E-01
        3   -1    0    0  501    0  0.00000000000E+00  0.00000000000E+00  0.11360285307E+04  0.11360285352E+04  0.10100000352E+00 0.  1.
       -3   -1    0    0    0  501  0.00000000000E+00  0.00000000000E+00 -0.11751965385E+04  0.11751965428E+04  0.10100000352E+00 0. -1.
    10030    2    1    2    0    0  0.00000000000E+00  0.00000000000E+00 -0.39168007784E+02  0.23112250780E+04  0.23108931668E+04 0.  0.
        1    1    3    3  502    0 -0.72113450802E+02  0.91296391448E+03 -0.72420868397E+03  0.11675537148E+04  0.50400001928E-02 0. -1.
       -1    1    3    3    0  502  0.72113450802E+02 -0.91296391448E+03  0.68504067619E+03  0.11436713632E+04  0.50400001928E-02 0.  1.
</event>
<event>
 5   0  0.5663790E-05  0.2308301E+04  0.7818609E-02  0.8474655E-01
       -1   -1    0    0    0  501  0.00000000000E+00  0.00000000000E+00  0.54103747564E+03  0.54103747566E+03  0.50400001928E-02 0. -1.
        1   -1    0    0  501    0  0.00000000000E+00  0.00000000000E+00 -0.24620547826E+04  0.24620547827E+04  0.50400001928E-02 0.  1.
    10030    2    1    2    0    0  0.00000000000E+00  0.00000000000E+00 -0.19210173070E+04  0.30030922583E+04  0.23083014574E+04 0.  0.
        3    1    3    3  502    0  0.79056438476E+03 -0.36725905367E+03  0.23609584831E+02  0.87202561983E+03  0.10100000352E+00 0. -1.
       -3    1    3    3    0  502 -0.79056438476E+03  0.36725905367E+03 -0.19446268918E+04  0.21310666385E+04  0.10100000352E+00 0.  1.
</event>
<event>
 5   0  0.1281432E-04  0.2623814E+04  0.7818609E-02  0.8360157E-01
        2   -1    0    0  501    0  0.00000000000E+00  0.00000000000E+00  0.92049016157E+03  0.92049016158E+03  0.25500000920E-02 0.  1.
       -2   -1    0    0    0  501  0.00000000000E+00  0.00000000000E+00 -0.18697651741E+04  0.18697651741E+04  0.25500000920E-02 0. -1.
    10030    2    1    2    0    0  0.00000000000E+00  0.00000000000E+00 -0.94927501257E+03  0.27902553357E+04  0.26238143587E+04 0.  0.
        4    1    3    3  502    0 -0.46621407175E+03 -0.89253231758E+03 -0.13688902271E+04  0.16993621055E+04  0.12699999809E+01 0.  1.
       -4    1    3    3    0  502  0.46621407175E+03  0.89253231758E+03  0.41961521457E+03  0.10908932303E+04  0.12699999809E+01 0. -1.
</event>
<event>
 5   0  0.1237296E-04  0.2339912E+04  0.7818609E-02  0.8462349E-01
       -2   -1    0    0    0  501  0.00000000000E+00  0.00000000000E+00  0.15116569033E+04  0.15116569033E+04  0.25500000920E-02 0. -1.
        2   -1    0    0  501    0  0.00000000000E+00  0.00000000000E+00 -0.90549458616E+03  0.90549458616E+03  0.25500000920E-02 0.  1.
    10030    2    1    2    0    0  0.00000000000E+00  0.00000000000E+00  0.60616231715E+03  0.24171514895E+04  0.23399120856E+04 0.  0.
        1    1    3    3  502    0 -0.61002318478E+03  0.56090736513E+03 -0.55004449943E+03  0.99463275112E+03  0.50400001928E-02 0.  1.
       -1    1    3    3    0  502  0.61002318478E+03 -0.56090736513E+03  0.11562068166E+04  0.14225187384E+04  0.50400001928E-02 0. -1.
</event>
<event>
 5   0  0.1270613E-04  0.2296073E+04  0.7818609E-02  0.8479471E-01
        2   -1    0    0  501    0  0.00000000000E+00  0.00000000000E+00  0.10696229799E+04  0.10696229799E+04  0.25500000920E-02 0.  1.
       -2   -1    0    0    0  501  0.00000000000E+00  0.00000000000E+00 -0.12321984607E+04  0.12321984607E+04  0.25500000920E-02 0. -1.
    10030    2    1    2    0    0  0.00000000000E+00  0.00000000000E+00 -0.16257548077E+03  0.23018214407E+04  0.22960729862E+04 0.  0.
        2    1    3    3  502    0  0.11462822326E+04  0.22661994353E+02 -0.14069203485E+03  0.11551063897E+04  0.25500000920E-02 0. -1.
       -2    1    3    3    0  502 -0.11462822326E+04 -0.22661994353E+02 -0.21883445921E+02  0.11467150510E+04  0.25500000920E-02 0.  1.
</event>
<event>
 5   0  0.1234988E-04  0.2287776E+04  0.7818609E-02  0.8482757E-01
        2   -1    0    0  501    0  0.00000000000E+00  0.00000000000E+00  0.12732573911E+04  0.12732573911E+04  0.25500000920E-02 0. -1.
       -2   -1    0    0    0  501  0.00000000000E+00  0.00000000000E+00 -0.10276627753E+04  0.10276627753E+04  0.25500000920E-02 0.  1.
    10030    2    1    2    0    0  0.00000000000E+00  0.00000000000E+00  0.24559461579E+03  0.23009201664E+04  0.22877755346E+04 0.  0.
        5    1    3    3  502    0  0.75896055620E+02 -0.59806144297E+03  0.11005038222E+04  0.12548180958E+04  0.46999998093E+01 0. -1.
       -5    1    3    3    0  502 -0.75896055620E+02  0.59806144297E+03 -0.85490920645E+03  0.10461020706E+04  0.46999998093E+01 0.  1.
</event>
<event>
 5   0  0.1270613E-04  0.2330305E+04  0.7818609E-02  0.8466067E-01
        2   -1    0    0  501    0  0.00000000000E+00  0.00000000000E+00  0.10179223321E+04  0.10179223321E+04  0.25500000920E-02 0.  1.
       -2   -1    0    0    0  501  0.00000000000E+00  0.00000000000E+00 -0.13336775961E+04  0.13336775961E+04  0.25500000920E-02 0. -1.
    10030    2    1    2    0    0  0.00000000000E+00  0.00000000000E+00 -0.31575526400E+03  0.23515999282E+04  0.23303048804E+04 0.  0.
        2    1    3    3  502    0 -0.11026793673E+04 -0.35380884126E+03 -0.28749486115E+03  0.11932039969E+04  0.25500000920E-02 0. -1.
       -2    1    3    3    0  502  0.11026793673E+04  0.35380884126E+03 -0.28260402850E+02  0.11583959312E+04  0.25500000920E-02 0.  1.
</event>
<event>
 5   0  0.5663790E-05  0.2248353E+04  0.7818609E-02  0.8498568E-01
       -1   -1    0    0    0  501  0.00000000000E+00  0.00000000000E+00  0.55726861947E+03  0.55726861949E+03  0.50400001928E-02 0. -1.
        1   -1    0    0  501    0  0.00000000000E+00  0.00000000000E+00 -0.22677982630E+04  0.22677982630E+04  0.50400001928E-02 0.  1.
    10030    2    1    2    0    0  0.00000000000E+00  0.00000000000E+00 -0.17105296435E+04  0.28250668825E+04  0.22483530037E+04 0.  0.
        3    1    3    3  502    0 -0.63978641278E+03  0.72400272267E+03 -0.13316655857E+03  0.97531530231E+03  0.10100000352E+00 0. -1.
       -3    1    3    3    0  502  0.63978641278E+03 -0.72400272267E+03 -0.15773630850E+04  0.18497515802E+04  0.10100000352E+00 0.  1.
</event>
<event>
 5   0  0.1237296E-04  0.2304899E+04  0.7818609E-02  0.8475992E-01
       -2   -1    0    0    0  501  0.00000000000E+00  0.00000000000E+00  0.15088740740E+04  0.15088740740E+04  0.25500000920E-02 0.  1.
        2   -1    0    0  501    0  0.00000000000E+00  0.00000000000E+00 -0.88021921895E+03  0.88021921895E+03  0.25500000920E-02 0. -1.
    10030    2    1    2    0    0  0.00000000000E+00  0.00000000000E+00  0.62865485509E+03  0.23890932930E+04  0.23048990945E+04 0.  0.
        1    1    3    3  502    0  0.29376488805E+02 -0.94266982707E+03  0.10008274326E+04  0.13751890527E+04  0.50400001928E-02 0.  1.
       -1    1    3    3    0  502 -0.29376488805E+02  0.94266982707E+03 -0.37217257747E+03  0.10139042403E+04  0.50400001928E-02 0. -1.
</event>
<event>
 5   0  0.5843670E-05  0.1143341E+04  0.7818609E-02  0.9163949E-01
        1   -1    0    0  501    0  0.00000000000E+00  0.00000000000E+00  0.13657199073E+04  0.13657199073E+04  0.50400001928E-02 0.  1.
       -1   -1    0    0    0  501  0.00000000000E+00  0.00000000000E+00 -0.23929288868E+03  0.23929288873E+03  0.50400001928E-02 0. -1.
    10030    2    1    2    0    0  0.00000000000E+00  0.00000000000E+00  0.11264270186E+04  0.16050127960E+04  0.11433408272E+04 0.  0.
        2    1    3    3  502    0 -0.33752145099E+03  0.34383375212E+03  0.13130000865E+03  0.49938168895E+03  0.25500000920E-02 0. -1.
       -2    1    3    3    0  502  0.33752145099E+03 -0.34383375212E+03  0.99512700995E+03  0.11056311071E+04  0.25500000920E-02 0.  1.
</event>
<event>
 5   0  0.5632156E-05  0.1838007E+04  0.7818609E-02  0.8686345E-01
       -1   -1    0    0    0  501  0.00000000000E+00  0.00000000000E+00  0.78152544832E+03  0.78152544833E+03  0.50400001928E-02 0.  1.
        1   -1    0    0  501    0  0.00000000000E+00  0.00000000000E+00 -0.10806652175E+04  0.10806652176E+04  0.50400001928E-02 0. -1.
    10030    2    1    2    0    0  0.00000000000E+00  0.00000000000E+00 -0.29913976922E+03  0.18621906659E+04  0.18380069300E+04 0.  0.
        4    1    3    3  502    0 -0.32907453465E+02  0.57590721159E+03 -0.87439456180E+03  0.10475301807E+04  0.12699999809E+01 0. -1.
       -4    1    3    3    0  502  0.32907453465E+02 -0.57590721159E+03  0.57525479258E+03  0.81466048519E+03  0.12699999809E+01 0.  1.
</event>
<event>
 5   0  0.1257524E-04  0.2294913E+04  0.7818609E-02  0.8479929E-01
       -2   -1    0    0    0  501  0.00000000000E+00  0.00000000000E+00  0.74578632958E+03  0.74578632958E+03  0.25500000920E-02 0. -1.
        2   -1    0    0  501    0  0.00000000000E+00  0.00000000000E+00 -0.17654609037E+04  0.17654609037E+04  0.25500000920E-02 0.  1.
    10030    2    1    2    0    0  0.00000000000E+00  0.00000000000E+00 -0.10196745741E+04  0.25112472333E+04  0.22949131638E+04 0.  0.
        3    1    3    3  502    0 -0.84436916648E+03 -0.28686922187E+03  0.28031377075E+03  0.93478824341E+03  0.10100000352E+00 0. -1.
       -3    1    3    3    0  502  0.84436916648E+03  0.28686922187E+03 -0.12999883449E+04  0.15764589899E+04  0.10100000352E+00 0.  1.
</event>
<event>
 5   0  0.1234988E-04  0.2325686E+04  0.7818609E-02  0.8467862E-01
       -2   -1    0    0    0  501  0.00000000000E+00  0.00000000000E+00  0.84259592692E+03  0.84259592692E+03  0.25500000920E-02 0.  1.
        2   -1    0    0  501    0  0.00000000000E+00  0.00000000000E+00 -0.16048070808E+04  0.16048070808E+04  0.25500000920E-02 0. -1.
    10030    2    1    2    0    0  0.00000000000E+00  0.00000000000E+00 -0.76221115388E+03  0.24474030077E+04  0.23256860577E+04 0.  0.
        5    1    3    3  502    0 -0.68357110286E+03  0.88569040594E+03 -0.47555137156E+02  0.11198216505E+04  0.46999998093E+01 0.  1.
       -5    1    3    3    0  502  0.68357110286E+03 -0.88569040594E+03 -0.71465601672E+03  0.13275813572E+04  0.46999998093E+01 0. -1.
</event>
<event>
 5   0  0.4489500E-05  0.2283404E+04  0.7818609E-02  0.8484493E-01
       -3   -1    0    0    0  501  0.00000000000E+00  0.00000000000E+00  0.98166063128E+03  0.98166063648E+03  0.10100000352E+00 0.  1.
        3   -1    0    0  501    0  0.00000000000E+00  0.00000000000E+00 -0.13278353887E+04  0.13278353926E+04  0.10100000352E+00 0. -1.
    10030    2    1    2    0    0  0.00000000000E+00  0.00000000000E+00 -0.34617475743E+03  0.23094960290E+04  0.22834042449E+04 0.  0.
        4    1    3    3  502    0  0.25737657501E+03 -0.15673703669E+03 -0.12868849233E+04  0.13216972493E+04  0.12699999809E+01 0. -1.
       -4    1    3    3    0  502 -0.25737657501E+03  0.15673703669E+03  0.94071016592E+03  0.98779877971E+03  0.12699999809E+01 0.  1.
</event>
<event>
 5   0  0.1234988E-04  0.2253434E+04  0.7818609E-02  0.8496511E-01
       -2   -1    0    0    0  501  0.00000000000E+00  0.00000000000E+00  0.88287483608E+03  0.88287483608E+03  0.25500000920E-02 0. -1.
        2   -1    0    0  501    0  0.00000000000E+00  0.00000000000E+00 -0.14379062564E+04  0.14379062564E+04  0.25500000920E-02 0.  1.
    10030    2    1    2    0    0  0.00000000000E+00  0.00000000000E+00 -0.55503142036E+03  0.23207810925E+04  0.22534340465E+04 0.  0.
        5    1    3    3  502    0  0.81902917548E+00 -0.79578565610E+03 -0.10989711329E+04  0.13568474941E+04  0.46999998093E+01 0.  1.
       -5    1    3    3    0  502 -0.81902917548E+00  0.79578565610E+03  0.54393971256E+03  0.96393359842E+03  0.46999998093E+01 0. -1.
</event>
<event>
 5   0  0.1237296E-04  0.2249310E+04  0.7818609E-02  0.8498180E-01
       -2   -1    0    0    0  501  0.00000000000E+00  0.00000000000E+00  0.80045745275E+03  0.80045745276E+03  0.25500000920E-02 0.  1.
        2   -1    0    0  501    0  0.00000000000E+00  0.00000000000E+00 -0.15801577925E+04  0.15801577925E+04  0.25500000920E-02 0. -1.
    10030    2    1    2    0    0  0.00000000000E+00  0.00000000000E+00 -0.77970033977E+03  0.23806152453E+04  0.22493101890E+04 0.  0.
        1    1    3    3  502    0 -0.40712637113E+03  0.16327864937E+03  0.70618833501E+03  0.83133252309E+03  0.50400001928E-02 0.  1.
       -1    1    3    3    0  502  0.40712637113E+03 -0.16327864937E+03 -0.14858886748E+04  0.15492827222E+04  0.50400001928E-02 0. -1.
</event>
<event>
 5   0  0.5632156E-05  0.2462206E+04  0.7818609E-02  0.8416575E-01
        1   -1    0    0  501    0  0.00000000000E+00  0.00000000000E+00  0.72234243206E+03  0.72234243208E+03  0.50400001928E-02 0. -1.
       -1   -1    0    0    0  501  0.00000000000E+00  0.00000000000E+00 -0.20981940774E+04  0.20981940774E+04  0.50400001928E-02 0.  1.
    10030    2    1    2    0    0  0.00000000000E+00  0.00000000000E+00 -0.13758516454E+04  0.28205365095E+04  0.24622060132E+04 0.  0.
        4    1    3    3  502    0  0.29108173872E+03  0.44636721694E+03  0.58337801830E+03  0.79012897435E+03  0.12699999809E+01 0. -1.
       -4    1    3    3    0  502 -0.29108173872E+03 -0.44636721694E+03 -0.19592296637E+04  0.20304075352E+04  0.12699999809E+01 0.  1.
</event>
<event>
 5   0  0.5924654E-05  0.1921606E+04  0.7818609E-02  0.8644176E-01
       -1   -1    0    0    0  501  0.00000000000E+00  0.00000000000E+00  0.92116523547E+03  0.92116523548E+03  0.50400001928E-02 0. -1.
        1   -1    0    0  501    0  0.00000000000E+00  0.00000000000E+00 -0.10021458912E+04  0.10021458912E+04  0.50400001928E-02 0.  1.
    10030    2    1    2    0    0  0.00000000000E+00  0.00000000000E+00 -0.80980655715E+02  0.19233111267E+04  0.19216055327E+04 0.  0.
        5    1    3    3  502    0 -0.14278626348E+03  0.55759698362E+03 -0.81046993746E+03  0.99407541097E+03  0.46999998093E+01 0.  1.
       -5    1    3    3    0  502  0.14278626348E+03 -0.55759698362E+03  0.72948928174E+03  0.92923571571E+03  0.46999998093E+01 0. -1.
</event>
<event>
 5   0  0.1234988E-04  0.2303805E+04  0.7818609E-02  0.8476422E-01
        2   -1    0    0  501    0  0.00000000000E+00  0.00000000000E+00  0.83695990965E+03  0.83695990965E+03  0.25500000920E-02 0.  1.
       -2   -1    0    0    0  501  0.00000000000E+00  0.00000000000E+00 -0.15853555341E+04  0.15853555341E+04  0.25500000920E-02 0. -1.
    10030    2    1    2    0    0  0.00000000000E+00  0.00000000000E+00 -0.74839562444E+03  0.24223154437E+04  0.23038047006E+04 0.  0.
        5    1    3    3  502    0 -0.92579463050E+03  0.67743547220E+03 -0.48368116929E+03  0.12449835663E+04  0.46999998093E+01 0. -1.
       -5    1    3    3    0  502  0.92579463050E+03 -0.67743547220E+03 -0.26471445515E+03  0.11773318774E+04  0.46999998093E+01 0.  1.
</event>
<event>
 5   0  0.1270613E-04  0.2268607E+04  0.7818609E-02  0.8490403E-01
       -2   -1    0    0    0  501  0.00000000000E+00  0.00000000000E+00  0.10220908143E+04  0.10220908143E+04  0.25500000920E-02 0.  1.
        2   -1    0    0  501    0  0.00000000000E+00  0.00000000000E+00 -0.12588353756E+04  0.12588353756E+04  0.25500000920E-02 0. -1.
    10030    2    1    2    0    0  0.00000000000E+00  0.00000000000E+00 -0.23674456132E+03  0.22809261898E+04  0.22686066861E+04 0.  0.
        2    1    3    3  502    0 -0.44358119236E+02  0.11303642205E+04 -0.20221071266E+03  0.11491649516E+04  0.25500000920E-02 0.  1.
       -2    1    3    3    0  502  0.44358119236E+02 -0.11303642205E+04 -0.34533848665E+02  0.11317612382E+04  0.25500000920E-02 0. -1.
</event>
<event>
 5   0  0.1257524E-04  0.1307637E+04  0.7818609E-02  0.9023531E-01
        2   -1    0    0  501    0  0.00000000000E+00  0.00000000000E+00  0.14201509787E+04  0.14201509787E+04  0.25500000920E-02 0.  1.
       -2   -1    0    0    0  501  0.00000000000E+00  0.00000000000E+00 -0.30100932254E+03  0.30100932255E+03  0.25500000920E-02 0. -1.
    10030    2    1    2    0    0  0.00000000000E+00  0.00000000000E+00  0.11191416562E+04  0.17211603012E+04  0.13076370812E+04 0.  0.
        3    1    3    3  502    0  0.22740178596E+03 -0.32625341527E+03  0.12426532046E+04  0.13047374680E+04  0.10100000352E+00 0.  1.
       -3    1    3    3    0  502 -0.22740178596E+03  0.32625341527E+03 -0.12351154848E+03  0.41642283324E+03  0.10100000352E+00 0. -1.
</event>
<event>
 5   0  0.5642466E-05  0.2263753E+04  0.7818609E-02  0.8492351E-01
        1   -1    0    0  501    0  0.00000000000E+00  0.00000000000E+00  0.19932047925E+04  0.19932047925E+04  0.50400001928E-02 0.  1.
       -1   -1    0    0    0  501  0.00000000000E+00  0.00000000000E+00 -0.64275624969E+03  0.64275624971E+03  0.50400001928E-02 0. -1.
    10030    2    1    2    0    0  0.00000000000E+00  0.00000000000E+00  0.13504485428E+04  0.26359610422E+04  0.22637533765E+04 0.  0.
        1    1    3    3  502    0 -0.29292153932E+03  0.10358156428E+04  0.10826512975E+04  0.15267124503E+04  0.50400001928E-02 0.  1.
       -1    1    3    3    0  502  0.29292153932E+03 -0.10358156428E+04  0.26779724538E+03  0.11092485919E+04  0.50400001928E-02 0. -1.
</event>
<event>
 5   0  0.1257524E-04  0.2259995E+04  0.7818609E-02  0.8493864E-01
       -2   -1    0    0    0  501  0.00000000000E+00  0.00000000000E+00  0.74658202986E+03  0.74658202987E+03  0.25500000920E-02 0.  1.
        2   -1    0    0  501    0  0.00000000000E+00  0.00000000000E+00 -0.17103200227E+04  0.17103200227E+04  0.25500000920E-02 0. -1.
    10030    2    1    2    0    0  0.00000000000E+00  0.00000000000E+00 -0.96373799286E+03  0.24569020526E+04  0.22599948622E+04 0.  0.
        3    1    3    3  502    0 -0.13982203113E+03  0.40927189228E+03  0.65304215443E+03  0.78327373750E+03  0.10100000352E+00 0.  1.
       -3    1    3    3    0  502  0.13982203113E+03 -0.40927189228E+03 -0.16167801473E+04  0.16736283151E+04  0.10100000352E+00 0. -1.
</event>
<event>
 5   0  0.1234988E-04  0.2086348E+04  0.7818609E-02  0.8567281E-01
        2   -1    0    0  501    0  0.00000000000E+00  0.00000000000E+00  0.98607697320E+03  0.98607697320E+03  0.25500000920E-02 0. -1.
       -2   -1    0    0    0  501  0.00000000000E+00  0.00000000000E+00 -0.11035766358E+04  0.11035766358E+04  0.25500000920E-02 0.  1.
    10030    2    1    2    0    0  0.00000000000E+00  0.00000000000E+00 -0.11749966261E+03  0.20896536090E+04  0.20863475346E+04 0.  0.
        5    1    3    3  502    0 -0.48759360282E+03  0.92216467356E+03 -0.51375278862E+02  0.10444121389E+04  0.46999998093E+01 0.  1.
       -5    1    3    3    0  502  0.48759360282E+03 -0.92216467356E+03 -0.66124383748E+02  0.10452414701E+04  0.46999998093E+01 0. -1.
</event>
<event>
 5   0  0.5642466E-05  0.1323060E+04  0.7818609E-02  0.9011476E-01
        1   -1    0    0  501    0  0.00000000000E+00  0.00000000000E+00  0.84770442771E+03  0.84770442772E+03  0.50400001928E-02 0.  1.
       -1   -1    0    0    0  501  0.00000000000E+00  0.00000000000E+00 -0.51624343128E+03  0.51624343131E+03  0.50400001928E-02 0. -1.
    10030    2    1    2    0    0  0.00000000000E+00  0.00000000000E+00  0.33146099643E+03  0.13639478590E+04  0.13230598513E+04 0.  0.
        1    1    3    3  502    0 -0.36974890538E+03 -0.40714161202E+02 -0.39821264210E+03  0.54492678803E+03  0.50400001928E-02 0. -1.
       -1    1    3    3    0  502  0.36974890538E+03  0.40714161202E+02  0.72967363853E+03  0.81902107100E+03  0.50400001928E-02 0.  1.
</event>
<event>
 5   0  0.5843670E-05  0.2275025E+04  0.7818609E-02  0.8487834E-01
        1   -1    0    0  501    0  0.00000000000E+00  0.00000000000E+00  0.12607358639E+04  0.12607358639E+04  0.50400001928E-02 0. -1.
       -1   -1    0    0    0  501  0.00000000000E+00  0.00000000000E+00 -0.10263328043E+04  0.10263328043E+04  0.50400001928E-02 0.  1.
    10030    2    1    2    0    0  0.00000000000E+00  0.00000000000E+00  0.23440305958E+03  0.22870686682E+04  0.22750249006E+04 0.  0.
        2    1    3    3  502    0 -0.61479465076E+03  0.92489755598E+03  0.36452553535E+03  0.11688827219E+04  0.25500000920E-02 0.  1.
       -2    1    3    3    0  502  0.61479465076E+03 -0.92489755598E+03 -0.13012247577E+03  0.11181859462E+04  0.25500000920E-02 0. -1.
</event>
<event>
 5   0  0.1281432E-04  0.2421765E+04  0.7818609E-02  0.8431400E-01
        2   -1    0    0  501    0  0.00000000000E+00  0.00000000000E+00  0.12101122454E+04  0.12101122454E+04  0.25500000920E-02 0.  1.
       -2   -1    0    0    0  501  0.00000000000E+00  0.00000000000E+00 -0.12116533631E+04  0.12116533631E+04  0.25500000920E-02 0. -1.
    10030    2    1    2    0    0  0.00000000000E+00  0.00000000000E+00 -0.15411176522E+01  0.24217656085E+04  0.24217651182E+04 0.  0.
        4    1    3    3  502    0  0.88996101219E+03 -0.63569630594E+03  0.51893577341E+03  0.12105520833E+04  0.12699999809E+01 0.  1.
       -4    1    3    3    0  502 -0.88996101219E+03  0.63569630594E+03 -0.52047689106E+03  0.12112135252E+04  0.12699999809E+01 0. -1.
</event>
<event>
 5   0  0.1281432E-04  0.2326735E+04  0.7818609E-02  0.8467454E-01
        2   -1    0    0  501    0  0.00000000000E+00  0.00000000000E+00  0.17006334776E+04  0.17006334776E+04  0.25500000920E-02 0. -1.
       -2   -1    0    0    0  501  0.00000000000E+00  0.00000000000E+00 -0.79583531823E+03  0.79583531824E+03  0.25500000920E-02 0.  1.
    10030    2    1    2    0    0  0.00000000000E+00  0.00000000000E+00  0.90479815935E+03  0.24964687958E+04  0.23267352104E+04 0.  0.
        4    1    3    3  502    0  0.73801276439E+03  0.42615707126E+03 -0.39729942208E+03  0.94027715780E+03  0.12699999809E+01 0.  1.
       -4    1    3    3    0  502 -0.73801276439E+03 -0.42615707126E+03  0.13020975814E+04  0.15561916380E+04  0.12699999809E+01 0. -1.
</event>
<event>
 5   0  0.1270613E-04  0.1590366E+04  0.7818609E-02  0.8826489E-01
        2   -1    0    0  501    0  0.00000000000E+00  0.00000000000E+00  0.79344219683E+03  0.79344219683E+03  0.25500000920E-02 0.  1.
       -2   -1    0    0    0  501  0.00000000000E+00  0.00000000000E+00 -0.79692733491E+03  0.79692733491E+03  0.25500000920E-02 0. -1.
    10030    2    1    2    0    0  0.00000000000E+00  0.00000000000E+00 -0.34851380792E+01  0.15903695317E+04  0.15903657131E+04 0.  0.
        2    1    3    3  502    0  0.50608626612E+03  0.53459382919E+03  0.29892724735E+03  0.79452587760E+03  0.25500000920E-02 0.  1.
       -2    1    3    3    0  502 -0.50608626612E+03 -0.53459382919E+03 -0.30241238543E+03  0.79584365414E+03  0.25500000920E-02 0. -1.
</event>
<event>
 5   0  0.1237296E-04  0.2218667E+04  0.7818609E-02  0.8510698E-01
       -2   -1    0    0    0  501  0.00000000000E+00  0.00000000000E+00  0.12773547316E+04  0.12773547316E+04  0.25500000920E-02 0.  1.
        2   -1    0    0  501    0  0.00000000000E+00  0.00000000000E+00 -0.96341386432E+03  0.96341386433E+03  0.25500000920E-02 0. -1.
    10030    2    1    2    0    0  0.00000000000E+00  0.00000000000E+00  0.31394086728E+03  0.22407685959E+04  0.22186674001E+04 0.  0.
        1    1    3    3  502    0 -0.48897113752E+03  0.97732502912E+03 -0.35623346365E+02  0.10934011198E+04  0.50400001928E-02 0. -1.
       -1    1    3    3    0  502  0.48897113752E+03 -0.97732502912E+03  0.34956421365E+03  0.11473674762E+04  0.50400001928E-02 0.  1.
</event>
<event>
 5   0  0.1281432E-04  0.2301103E+04  0.7818609E-02  0.8477486E-01
       -2   -1    0    0    0  501  0.00000000000E+00  0.00000000000E+00  0.58518385933E+03  0.58518385933E+03  0.25500000920E-02 0. -1.
        2   -1    0    0  501    0  0.00000000000E+00  0.00000000000E+00 -0.22621421993E+04  0.22621421993E+04  0.25500000920E-02 0.  1.
    10030    2    1    2    0    0  0.00000000000E+00  0.00000000000E+00 -0.16769583400E+04  0.28473260587E+04  0.23011033028E+04 0.  0.
        4    1    3    3  502    0  0.38215816484E+02  0.62170547449E+03  0.35850976217E+03  0.71868561145E+03  0.12699999809E+01 0. -1.
       -4    1    3    3    0  502 -0.38215816484E+02 -0.62170547449E+03 -0.20354681022E+04  0.21286404472E+04  0.12699999809E+01 0.  1.
</event>
<event>
 5   0  0.1257524E-04  0.2292905E+04  0.7818609E-02  0.8480724E-01
        2   -1    0    0  501    0  0.00000000000E+00  0.00000000000E+00  0.13292855846E+04  0.13292855846E+04  0.25500000920E-02 0.  1.
       -2   -1    0    0    0  501  0.00000000000E+00  0.00000000000E+00 -0.98876653249E+03  0.98876653249E+03  0.25500000920E-02 0. -1.
    10030    2    1    2    0    0  0.00000000000E+00  0.00000000000E+00  0.34051905216E+03  0.23180521171E+04  0.22929047937E+04 0.  0.
        3    1    3    3  502    0  0.78712982906E+02 -0.83739287581E+03 -0.61734220923E+03  0.10433283163E+04  0.10100000352E+00 0. -1.
       -3    1    3    3    0  502 -0.78712982906E+02  0.83739287581E+03  0.95786126139E+03  0.12747238008E+04  0.10100000352E+00 0.  1.
</event>
<event>
 5   0  0.5642466E-05  0.2237024E+04  0.7818609E-02  0.8503174E-01
        1   -1    0    0  501    0  0.00000000000E+00  0.00000000000E+00  0.11159748902E+04  0.11159748902E+04  0.50400001928E-02 0.  1.
       -1   -1    0    0    0  501  0.00000000000E+00  0.00000000000E+00 -0.11210547557E+04  0.11210547557E+04  0.50400001928E-02 0. -1.
    10030    2    1    2    0    0  0.00000000000E+00  0.00000000000E+00 -0.50798654838E+01  0.22370296459E+04  0.22370238782E+04 0.  0.
        1    1    3    3  502    0  0.87469815822E+03  0.69332266708E+03 -0.75174610281E+02  0.11186797624E+04  0.50400001928E-02 0. -1.
       -1    1    3    3    0  502 -0.87469815822E+03 -0.69332266708E+03  0.70094744797E+02  0.11183498835E+04  0.50400001928E-02 0.  1.
</event>
<event>
 5   0  0.5642466E-05  0.2251816E+04  0.7818609E-02  0.8497166E-01
       -1   -1    0    0    0  501  0.00000000000E+00  0.00000000000E+00  0.62457826043E+03  0.62457826045E+03  0.50400001928E-02 0.  1.
        1   -1    0    0  501    0  0.00000000000E+00  0.00000000000E+00 -0.20296388324E+04  0.20296388324E+04  0.50400001928E-02 0. -1.
    10030    2    1    2    0    0  0.00000000000E+00  0.00000000000E+00 -0.14050605720E+04  0.26542170928E+04  0.22518155264E+04 0.  0.
        1    1    3    3  502    0 -0.73078683242E+03 -0.56320329040E+03  0.58093527136E+02  0.92445778632E+03  0.50400001928E-02 0.  1.
       -1    1    3    3    0  502  0.73078683242E+03  0.56320329040E+03 -0.14631540991E+04  0.17297593065E+04  0.50400001928E-02 0. -1.
</event>
<event>
 5   0  0.5632156E-05  0.2292343E+04  0.7818609E-02  0.8480946E-01
       -1   -1    0    0    0  501  0.00000000000E+00  0.00000000000E+00  0.60421161602E+03  0.60421161604E+03  0.50400001928E-02 0. -1.
        1   -1    0    0  501    0  0.00000000000E+00  0.00000000000E+00 -0.21742530543E+04  0.21742530543E+04  0.50400001928E-02 0.  1.
    10030    2    1    2    0    0  0.00000000000E+00  0.00000000000E+00 -0.15700414382E+04  0.27784646703E+04  0.22923428640E+04 0.  0.
        4    1    3    3  502    0  0.64703610117E+03 -0.67312954936E+03 -0.15907905525E+04  0.18445528730E+04  0.12699999809E+01 0.  1.
       -4    1    3    3    0  502 -0.64703610117E+03  0.67312954936E+03  0.20749114304E+02  0.93391179728E+03  0.12699999809E+01 0. -1.
</event>
<event>
 5   0  0.5642466E-05  0.2289668E+04  0.7818609E-02  0.8482006E-01
        1   -1    0    0  501    0  0.00000000000E+00  0.00000000000E+00  0.96628671433E+03  0.96628671434E+03  0.50400001928E-02 0. -1.
       -1   -1    0    0    0  501  0.00000000000E+00  0.00000000000E+00 -0.13563723569E+04  0.13563723569E+04  0.50400001928E-02 0.  1.
    10030    2    1    2    0    0  0.00000000000E+00  0.00000000000E+00 -0.39008564258E+03  0.23226590713E+04  0.22896677385E+04 0.  0.
        1    1    3    3  502    0  0.95350258250E+03  0.13790420511E+03 -0.82238707400E+03  0.12666906663E+04  0.50400001928E-02 0.  1.
       -1    1    3    3    0  502 -0.95350258250E+03 -0.13790420511E+03  0.43230143142E+03  0.10559684049E+04  0.50400001928E-02 0. -1.
</event>
<event>
 5   0  0.1237296E-04  0.2229923E+04  0.7818609E-02  0.8506076E-01
       -2   -1    0    0    0  501  0.00000000000E+00  0.00000000000E+00  0.64297629439E+03  0.64297629440E+03  0.25500000920E-02 0.  1.
        2   -1    0    0  501    0  0.00000000000E+00  0.00000000000E+00 -0.19334131684E+04  0.19334131684E+04  0.25500000920E-02 0. -1.
    10030    2    1    2    0    0  0.00000000000E+00  0.00000000000E+00 -0.12904368740E+04  0.25763894628E+04  0.22299227202E+04 0.  0.
        1    1    3    3  502    0  0.29166378070E+02 -0.74723524656E+03  0.31027295872E+03  0.80961750243E+03  0.50400001928E-02 0.  1.
       -1    1    3    3    0  502 -0.29166378070E+02  0.74723524656E+03 -0.16007098327E+04  0.17667719604E+04  0.50400001928E-02 0. -1.
</event>
<event>
 5   0  0.1281432E-04  0.2184756E+04  0.7818609E-02  0.8524800E-01
       -2   -1    0    0    0  501  0.00000000000E+00  0.00000000000E+00  0.55051402322E+03  0.55051402323E+03  0.25500000920E-02 0. -1.
        2   -1    0    0  501    0  0.00000000000E+00  0.00000000000E+00 -0.21675925040E+04  0.21675925040E+04  0.25500000920E-02 0.  1.
    10030    2    1    2    0    0  0.00000000000E+00  0.00000000000E+00 -0.16170784808E+04  0.27181065272E+04  0.21847563435E+04 0.  0.
        4    1    3    3  502    0  0.49858791861E+03  0.96795731908E+03 -0.69896330069E+03  0.12938634367E+04  0.12699999809E+01 0.  1.
       -4    1    3    3    0  502 -0.49858791861E+03 -0.96795731908E+03 -0.91811518008E+03  0.14242430905E+04  0.12699999809E+01 0. -1.
</event>
<event>
 5   0  0.1270613E-04  0.2226860E+04  0.7818609E-02  0.8507331E-01
        2   -1    0    0  501    0  0.00000000000E+00  0.00000000000E+00  0.16364727973E+04  0.16364727973E+04  0.25500000920E-02 0. -1.
       -2   -1    0    0    0  501  0.00000000000E+00  0.00000000000E+00 -0.75756009024E+03  0.75756009025E+03  0.25500000920E-02 0.  1.
    10030    2    1    2    0    0  0.00000000000E+00  0.00000000000E+00  0.87891270703E+03  0.23940328875E+04  0.22268601034E+04 0.  0.
        2    1    3    3  502    0 -0.69532959726E+03 -0.37302118020E+02  0.13735018274E+04  0.15399292083E+04  0.25500000920E-02 0. -1.
       -2    1    3    3    0  502  0.69532959726E+03  0.37302118020E+02 -0.49458912035E+03  0.85410367919E+03  0.25500000920E-02 0.  1.
</event>
<event>
 5   0  0.5924654E-05  0.1470059E+04  0.7818609E-02  0.8904611E-01
       -1   -1    0    0    0  501  0.00000000000E+00  0.00000000000E+00  0.60442680775E+03  0.60442680777E+03  0.50400001928E-02 0. -1.
        1   -1    0    0  501    0  0.00000000000E+00  0.00000000000E+00 -0.89385293025E+03  0.89385293026E+03  0.50400001928E-02 0.  1.
    10030    2    1    2    0    0  0.00000000000E+00  0.00000000000E+00 -0.28942612250E+03  0.14982797380E+04  0.14700594182E+04 0.  0.
        5    1    3    3  502    0 -0.39045587599E+03  0.37443873800E+03  0.36241942390E+03  0.65117592740E+03  0.46999998093E+01 0. -1.
       -5    1    3    3    0  502  0.39045587599E+03 -0.37443873800E+03 -0.65184554640E+03  0.84710381063E+03  0.46999998093E+01 0.  1.
</event>
<event>
 5   0  0.5663790E-05  0.2177097E+04  0.7818609E-02  0.8528022E-01
        1   -1    0    0  501    0  0.00000000000E+00  0.00000000000E+00  0.11205825090E+04  0.11205825090E+04  0.50400001928E-02 0.  1.
       -1   -1    0    0    0  501  0.00000000000E+00  0.00000000000E+00 -0.10574298768E+04  0.10574298768E+04  0.50400001928E-02 0. -1.
    10030    2    1    2    0    0  0.00000000000E+00  0.00000000000E+00  0.63152632180E+02  0.21780123858E+04  0.21770966212E+04 0.  0.
        3    1    3    3  502    0  0.72250413359E+03  0.42534164701E+03 -0.66298488410E+03  0.10688670200E+04  0.10100000352E+00 0. -1.
       -3    1    3    3    0  502 -0.72250413359E+03 -0.42534164701E+03  0.72613751628E+03  0.11091453658E+04  0.10100000352E+00 0.  1.
</event>
<event>
 5   0  0.1237296E-04  0.2296498E+04  0.7818609E-02  0.8479303E-01
        2   -1    0    0  501    0  0.00000000000E+00  0.00000000000E+00  0.12875750142E+04  0.12875750142E+04  0.25500000920E-02 0.  1.
       -2   -1    0    0    0  501  0.00000000000E+00  0.00000000000E+00 -0.10239990488E+04  0.10239990488E+04  0.25500000920E-02 0. -1.
    10030    2    1    2    0    0  0.00000000000E+00  0.00000000000E+00  0.26357596534E+03  0.23115740630E+04  0.22964978466E+04 0.  0.
        1    1    3    3  502    0  0.17840370314E+03  0.82378283923E+03  0.91666951527E+03  0.12452827180E+04  0.50400001928E-02 0.  1.
       -1    1    3    3    0  502 -0.17840370314E+03 -0.82378283923E+03 -0.65309354992E+03  0.10662913450E+04  0.50400001928E-02 0. -1.
</event>
<event>
 5   0  0.5632156E-05  0.2266189E+04  0.7818609E-02  0.8491373E-01
       -1   -1    0    0    0  501  0.00000000000E+00  0.00000000000E+00  0.84449577614E+03  0.84449577615E+03  0.50400001928E-02 0. -1.
        1   -1    0    0  501    0  0.00000000000E+00  0.00000000000E+00 -0.15203189052E+04  0.15203189052E+04  0.50400001928E-02 0.  1.
    10030    2    1    2    0    0  0.00000000000E+00  0.00000000000E+00 -0.67582312905E+03  0.23648146813E+04  0.22661887775E+04 0.  0.
        4    1    3    3  502    0  0.87955976413E+03  0.61892395661E+03  0.34274418381E+02  0.10760430249E+04  0.12699999809E+01 0. -1.
       -4    1    3    3    0  502 -0.87955976413E+03 -0.61892395661E+03 -0.71009754743E+03  0.12887716565E+04  0.12699999809E+01 0.  1.
</event>
<event>
 5   0  0.5663790E-05  0.1449071E+04  0.7818609E-02  0.8919045E-01
        1   -1    0    0  501    0  0.00000000000E+00  0.00000000000E+00  0.10441653037E+04  0.10441653037E+04  0.50400001928E-02 0.  1.
       -1   -1    0    0    0  501  0.00000000000E+00  0.00000000000E+00 -0.50274791093E+03  0.50274791095E+03  0.50400001928E-02 0. -1.
    10030    2    1    2    0    0  0.00000000000E+00  0.00000000000E+00  0.54141739274E+03  0.15469132146E+04  0.14490713235E+04 0.  0.
        3    1    3    3  502    0 -0.66687897019E+03  0.25440239762E+03  0.40363009537E+03  0.81997890515E+03  0.10100000352E+00 0.  1.
       -3    1    3    3    0  502  0.66687897019E+03 -0.25440239762E+03  0.13778729737E+03  0.72693430949E+03  0.10100000352E+00 0. -1.
</event>
<event>
 5   0  0.5642466E-05  0.2344837E+04  0.7818609E-02  0.8460450E-01
       -1   -1    0    0    0  501  0.00000000000E+00  0.00000000000E+00  0.20442585908E+04  0.20442585909E+04  0.50400001928E-02 0. -1.
        1   -1    0    0  501    0  0.00000000000E+00  0.00000000000E+00 -0.67240255592E+03  0.67240255594E+03  0.50400001928E-02 0.  1.
    10030    2    1    2    0    0  0.00000000000E+00  0.00000000000E+00  0.13718560349E+04  0.27166611468E+04  0.23448366267E+04 0.  0.
        1    1    3    3  502    0  0.11104739776E+04 -0.30770636824E+03  0.93637528644E+03  0.14848011116E+04  0.50400001928E-02 0.  1.
       -1    1    3    3    0  502 -0.11104739776E+04  0.30770636824E+03  0.43548074849E+03  0.12318600352E+04  0.50400001928E-02 0. -1.
</event>
<event>
 5   0  0.5924654E-05  0.2325757E+04  0.7818609E-02  0.8467834E-01
       -1   -1    0    0    0  501  0.00000000000E+00  0.00000000000E+00  0.19141921968E+04  0.19141921968E+04  0.50400001928E-02 0. -1.
        1   -1    0    0  501    0  0.00000000000E+00  0.00000000000E+00 -0.70645286833E+03  0.70645286835E+03  0.50400001928E-02 0.  1.
    10030    2    1    2    0    0  0.00000000000E+00  0.00000000000E+00  0.12077393284E+04  0.26206450651E+04  0.23257571395E+04 0.  0.
        5    1    3    3  502    0 -0.43135461892E+03 -0.73927708822E+03  0.14908684936E+04  0.17191010370E+04  0.46999998093E+01 0. -1.
       -5    1    3    3    0  502  0.43135461892E+03  0.73927708822E+03 -0.28312916513E+03  0.90154402809E+03  0.46999998093E+01 0.  1.
</event>
<event>
 5   0  0.5663790E-05  0.2300035E+04  0.7818609E-02  0.8477907E-01
        1   -1    0    0  501    0  0.00000000000E+00  0.00000000000E+00  0.10955394414E+04  0.10955394414E+04  0.50400001928E-02 0. -1.
       -1   -1    0    0    0  501  0.00000000000E+00  0.00000000000E+00 -0.12072050474E+04  0.12072050474E+04  0.50400001928E-02 0.  1.
    10030    2    1    2    0    0  0.00000000000E+00  0.00000000000E+00 -0.11166560595E+03  0.23027444888E+04  0.23000354287E+04 0.  0.
        3    1    3    3  502    0  0.11187231798E+04  0.25880356470E+03  0.76445175054E+01  0.11482940768E+04  0.10100000352E+00 0. -1.
       -3    1    3    3    0  502 -0.11187231798E+04 -0.25880356470E+03 -0.11931012346E+03  0.11544504120E+04  0.10100000352E+00 0.  1.
</event>
<event>
 5   0  0.1281432E-04  0.1391416E+04  0.7818609E-02  0.8960055E-01
        2   -1    0    0  501    0  0.00000000000E+00  0.00000000000E+00  0.74343861068E+03  0.74343861068E+03  0.25500000920E-02 0.  1.
       -2   -1    0    0    0  501  0.00000000000E+00  0.00000000000E+00 -0.65104205053E+03  0.65104205053E+03  0.25500000920E-02 0. -1.
    10030    2    1    2    0    0  0.00000000000E+00  0.00000000000E+00  0.92396560153E+02  0.13944806612E+04  0.13914162534E+04 0.  0.
        4    1    3    3  502    0  0.60286865699E+03  0.18088938468E+03 -0.25082683719E+03  0.67755981450E+03  0.12699999809E+01 0. -1.
       -4    1    3    3    0  502 -0.60286865699E+03 -0.18088938468E+03  0.34322339734E+03  0.71692084672E+03  0.12699999809E+01 0.  1.
</event>
<event>
 5   0  0.1237296E-04  0.2049815E+04  0.7818609E-02  0.8583678E-01
       -2   -1    0    0    0  501  0.00000000000E+00  0.00000000000E+00  0.11194336086E+04  0.11194336086E+04  0.25500000920E-02 0.  1.
        2   -1    0    0  501    0  0.00000000000E+00  0.00000000000E+00 -0.93836359878E+03  0.93836359878E+03  0.25500000920E-02 0. -1.
    10030    2    1    2    0    0  0.00000000000E+00  0.00000000000E+00  0.18107000978E+03  0.20577972073E+04  0.20498153571E+04 0.  0.
        1    1    3    3  502    0  0.33209946319E+03 -0.96112613926E+03  0.21902652860E+03  0.10402048497E+04  0.50400001928E-02 0.  1.
       -1    1    3    3    0  502 -0.33209946319E+03  0.96112613926E+03 -0.37956518825E+02  0.10175923577E+04  0.50400001928E-02 0. -1.
</event>
<event>
 5   0  0.5632156E-05  0.2340966E+04  0.7818609E-02  0.8461942E-01
       -1   -1    0    0    0  501  0.00000000000E+00  0.00000000000E+00  0.86523567009E+03  0.86523567010E+03  0.50400001928E-02 0. -1.
        1   -1    0    0  501    0  0.00000000000E+00  0.00000000000E+00 -0.15834183192E+04  0.15834183192E+04  0.50400001928E-02 0.  1.
    10030    2    1    2    0    0  0.00000000000E+00  0.00000000000E+00 -0.71818264915E+03  0.24486539893E+04  0.23409656217E+04 0.  0.
        4    1    3    3  502    0  0.87205896419E+03  0.46902485235E+03  0.29376562241E+03  0.10328460693E+04  0.12699999809E+01 0. -1.
       -4    1    3    3    0  502 -0.87205896419E+03 -0.46902485235E+03 -0.10119482716E+04  0.14158079200E+04  0.12699999809E+01 0.  1.
</event>
<event>
 5   0  0.1234988E-04  0.2477236E+04  0.7818609E-02  0.8411140E-01
        2   -1    0    0  501    0  0.00000000000E+00  0.00000000000E+00  0.10138940574E+04  0.10138940574E+04  0.25500000920E-02 0. -1.
       -2   -1    0    0    0  501  0.00000000000E+00  0.00000000000E+00 -0.15131511968E+04  0.15131511968E+04  0.25500000920E-02 0.  1.
    10030    2    1    2    0    0  0.00000000000E+00  0.00000000000E+00 -0.49925713947E+03  0.25270452542E+04  0.24772363685E+04 0.  0.
        5    1    3    3  502    0  0.35799129236E+03  0.11771393313E+04 -0.39510788489E+03  0.12922643311E+04  0.46999998093E+01 0.  1.
       -5    1    3    3    0  502 -0.35799129236E+03 -0.11771393313E+04 -0.10414925458E+03  0.12347809231E+04  0.46999998093E+01 0. -1.
</event>
<event>
 5   0  0.5632156E-05  0.1331514E+04  0.7818609E-02  0.9004941E-01
       -1   -1    0    0    0  501  0.00000000000E+00  0.00000000000E+00  0.36931367204E+03  0.36931367207E+03  0.50400001928E-02 0.  1.
        1   -1    0    0  501    0  0.00000000000E+00  0.00000000000E+00 -0.12001523988E+04  0.12001523988E+04  0.50400001928E-02 0. -1.
    10030    2    1    2    0    0  0.00000000000E+00  0.00000000000E+00 -0.83083872672E+03  0.15694660708E+04  0.13315144602E+04 0.  0.
        4    1    3    3  502    0 -0.49045478216E+03  0.89737345766E+02  0.10459292222E+03  0.50945066184E+03  0.12699999809E+01 0.  1.
       -4    1    3    3    0  502  0.49045478216E+03 -0.89737345766E+02 -0.93543164894E+03  0.10600154090E+04  0.12699999809E+01 0. -1.
</event>
<event>
 5   0  0.5642466E-05  0.2266699E+04  0.7818609E-02  0.8491168E-01
       -1   -1    0    0    0  501  0.00000000000E+00  0.00000000000E+00  0.15514567023E+04  0.15514567024E+04  0.50400001928E-02 0. -1.
        1   -1    0    0  501    0  0.00000000000E+00  0.00000000000E+00 -0.82791914145E+03  0.82791914147E+03  0.50400001928E-02 0.  1.
    10030    2    1    2    0    0  0.00000000000E+00  0.00000000000E+00  0.72353756090E+03  0.23793758438E+04  0.22666986576E+04 0.  0.
        1    1    3    3  502    0 -0.67748480142E+03  0.10125420434E+03  0.13095600451E+04  0.14778990432E+04  0.50400001928E-02 0. -1.
       -1    1    3    3    0  502  0.67748480142E+03 -0.10125420434E+03 -0.58602248422E+03  0.90147680064E+03  0.50400001928E-02 0.  1.
</event>
<event>
 5   0  0.5642466E-05  0.2166146E+04  0.7818609E-02  0.8532652E-01
        1   -1    0    0  501    0  0.00000000000E+00  0.00000000000E+00  0.11609666889E+04  0.11609666889E+04  0.50400001928E-02 0. -1.
       -1   -1    0    0    0  501  0.00000000000E+00  0.00000000000E+00 -0.10104055519E+04  0.10104055519E+04  0.50400001928E-02 0.  1.
    10030    2    1    2    0    0  0.00000000000E+00  0.00000000000E+00  0.15056113697E+03  0.21713722408E+04  0.21661460598E+04 0.  0.
        1    1    3    3  502    0 -0.10767996718E+04 -0.98596379646E+02  0.13730398645E+03  0.10899867724E+04  0.50400001928E-02 0. -1.
       -1    1    3    3    0  502  0.10767996718E+04  0.98596379646E+02  0.13257150518E+02  0.10813854684E+04  0.50400001928E-02 0.  1.
</event>
<event>
 5   0  0.5663790E-05  0.1440807E+04  0.7818609E-02  0.8924799E-01
       -1   -1    0    0    0  501  0.00000000000E+00  0.00000000000E+00  0.76199395886E+03  0.76199395888E+03  0.50400001928E-02 0.  1.
        1   -1    0    0  501    0  0.00000000000E+00  0.00000000000E+00 -0.68108291173E+03  0.68108291174E+03  0.50400001928E-02 0. -1.
    10030    2    1    2    0    0  0.00000000000E+00  0.00000000000E+00  0.80911047137E+02  0.14430768706E+04  0.14408068077E+04 0.  0.
        3    1    3    3  502    0  0.50199258063E+03 -0.21199712937E+03  0.51241097376E+03  0.74800023402E+03  0.10100000352E+00 0.  1.
       -3    1    3    3    0  502 -0.50199258063E+03  0.21199712937E+03 -0.43149992663E+03  0.69507663660E+03  0.10100000352E+00 0. -1.
</event>
<event>
 5   0  0.1234988E-04  0.1628201E+04  0.7818609E-02  0.8803408E-01
        2   -1    0    0  501    0  0.00000000000E+00  0.00000000000E+00  0.48767270689E+03  0.48767270690E+03  0.25500000920E-02 0.  1.
       -2   -1    0    0    0  501  0.00000000000E+00  0.00000000000E+00 -0.13590247712E+04  0.13590247712E+04  0.25500000920E-02 0. -1.
    10030    2    1    2    0    0  0.00000000000E+00  0.00000000000E+00 -0.87135206431E+03  0.18466974781E+04  0.16282005883E+04 0.  0.
        5    1    3    3  502    0  0.15615029735E+03  0.77604079860E+03 -0.65121779611E+03  0.10250507033E+04  0.46999998093E+01 0. -1.
       -5    1    3    3    0  502 -0.15615029735E+03 -0.77604079860E+03 -0.22013426821E+03  0.82164677477E+03  0.46999998093E+01 0.  1.
</event>
<event>
 5   0  0.1237296E-04  0.2313873E+04  0.7818609E-02  0.8472471E-01
       -2   -1    0    0    0  501  0.00000000000E+00  0.00000000000E+00  0.13199472478E+04  0.13199472478E+04  0.25500000920E-02 0. -1.
        2   -1    0    0  501    0  0.00000000000E+00  0.00000000000E+00 -0.10140574246E+04  0.10140574246E+04  0.25500000920E-02 0.  1.
    10030    2    1    2    0    0  0.00000000000E+00  0.00000000000E+00  0.30588982318E+03  0.23340046724E+04  0.23138732089E+04 0.  0.
        1    1    3    3  502    0  0.92269026464E+03 -0.33891771062E+03  0.76840072826E+03  0.12476627021E+04  0.50400001928E-02 0. -1.
       -1    1    3    3    0  502 -0.92269026464E+03  0.33891771062E+03 -0.46251090507E+03  0.10863419703E+04  0.50400001928E-02 0.  1.
</event>
<event>
 5   0  0.5632156E-05  0.2313767E+04  0.7818609E-02  0.8472513E-01
        1   -1    0    0  501    0  0.00000000000E+00  0.00000000000E+00  0.15920437372E+04  0.15920437372E+04  0.50400001928E-02 0.  1.
       -1   -1    0    0    0  501  0.00000000000E+00  0.00000000000E+00 -0.84066772565E+03  0.84066772567E+03  0.50400001928E-02 0. -1.
    10030    2    1    2    0    0  0.00000000000E+00  0.00000000000E+00  0.75137601152E+03  0.24327114629E+04  0.23137673070E+04 0.  0.
        4    1    3    3  502    0 -0.36400058438E+03 -0.97795647486E+03  0.90084759259E+03  0.13785584101E+04  0.12699999809E+01 0.  1.
       -4    1    3    3    0  502  0.36400058438E+03  0.97795647486E+03 -0.14947158106E+03  0.10541530527E+04  0.12699999809E+01 0. -1.
</event>
<event>
 5   0  0.5663790E-05  0.2338067E+04  0.7818609E-02  0.8463061E-01
       -1   -1    0    0    0  501  0.00000000000E+00  0.00000000000E+00  0.98846315487E+03  0.98846315488E+03  0.50400001928E-02 0.  1.
        1   -1    0    0  501    0  0.00000000000E+00  0.00000000000E+00 -0.13825900826E+04  0.13825900826E+04  0.50400001928E-02 0. -1.
    10030    2    1    2    0    0  0.00000000000E+00  0.00000000000E+00 -0.39412692772E+03  0.23710532375E+04  0.23380670264E+04 0.  0.
        3    1    3    3  502    0 -0.73359694892E+03 -0.71754978755E+03  0.37083463035E+03  0.10911280926E+04  0.10100000352E+00 0.  1.
       -3    1    3    3    0  502  0.73359694892E+03  0.71754978755E+03 -0.76496155807E+03  0.12799251449E+04  0.10100000352E+00 0. -1.
</event>
<event>
 5   0  0.1234988E-04  0.2298906E+04  0.7818609E-02  0.8478353E-01
        2   -1    0    0  501    0  0.00000000000E+00  0.00000000000E+00  0.13006690755E+04  0.13006690755E+04  0.25500000920E-02 0.  1.
       -2   -1    0    0    0  501  0.00000000000E+00  0.00000000000E+00 -0.10158171763E+04  0.10158171763E+04  0.25500000920E-02 0. -1.
    10030    2    1    2    0    0  0.00000000000E+00  0.00000000000E+00  0.28485189918E+03  0.23164862518E+04  0.22989058159E+04 0.  0.
        5    1    3    3  502    0 -0.59228361949E+03 -0.76855787931E+03 -0.47851604685E+03  0.10818876082E+04  0.46999998093E+01 0. -1.
       -5    1    3    3    0  502  0.59228361949E+03  0.76855787931E+03  0.76336794603E+03  0.12345986436E+04  0.46999998093E+01 0.  1.
</event>
<event>
 5   0  0.5663790E-05  0.2269984E+04  0.7818609E-02  0.8489851E-01
       -1   -1    0    0    0  501  0.00000000000E+00  0.00000000000E+00  0.85534665437E+03  0.85534665438E+03  0.50400001928E-02 0.  1.
        1   -1    0    0  501    0  0.00000000000E+00  0.00000000000E+00 -0.15060638006E+04  0.15060638006E+04  0.50400001928E-02 0. -1.
    10030    2    1    2    0    0  0.00000000000E+00  0.00000000000E+00 -0.65071714622E+03  0.23614104550E+04  0.22699838177E+04 0.  0.
        3    1    3    3  502    0  0.21824494512E+03 -0.51371024887E+03  0.70271530011E+03  0.89740619514E+03  0.10100000352E+00 0.  1.
       -3    1    3    3    0  502 -0.21824494512E+03  0.51371024887E+03 -0.13534324463E+04  0.14640042598E+04  0.10100000352E+00 0. -1.
</event>
<event>
 5   0  0.5642466E-05  0.1807999E+04  0.7818609E-02  0.8702057E-01
       -1   -1    0    0    0  501  0.00000000000E+00  0.00000000000E+00  0.73907234531E+03  0.73907234532E+03  0.50400001928E-02 0. -1.
        1   -1    0    0  501    0  0.00000000000E+00  0.00000000000E+00 -0.11057307222E+04  0.11057307223E+04  0.50400001928E-02 0.  1.
    10030    2    1    2    0    0  0.00000000000E+00  0.00000000000E+00 -0.36665837694E+03  0.18448030676E+04  0.18079988918E+04 0.  0.
        1    1    3    3  502    0  0.46844079903E+03 -0.47617730332E+03 -0.80485382804E+03  0.10459308251E+04  0.50400001928E-02 0.  1.
       -1    1    3    3    0  502 -0.46844079903E+03  0.47617730332E+03  0.43819545110E+03  0.79887224246E+03  0.50400001928E-02 0. -1.
</event>
<event>
 5   0  0.1281432E-04  0.2124942E+04  0.7818609E-02  0.8550335E-01
        2   -1    0    0  501    0  0.00000000000E+00  0.00000000000E+00  0.86841845681E+03  0.86841845681E+03  0.25500000920E-02 0. -1.
       -2   -1    0    0    0  501  0.00000000000E+00  0.00000000000E+00 -0.12998853268E+04  0.12998853268E+04  0.25500000920E-02 0.  1.
    10030    2    1    2    0    0  0.00000000000E+00  0.00000000000E+00 -0.43146687001E+03  0.21683037836E+04  0.21249417964E+04 0.  0.
        4    1    3    3  502    0 -0.23490912963E+03  0.44376949293E+03  0.73971182041E+03  0.89402955890E+03  0.12699999809E+01 0. -1.
       -4    1    3    3    0  502  0.23490912963E+03 -0.44376949293E+03 -0.11711786904E+04  0.12742742247E+04  0.12699999809E+01 0.  1.
</event>
<event>
 5   0  0.1270613E-04  0.2292442E+04  0.7818609E-02  0.8480907E-01
        2   -1    0    0  501    0  0.00000000000E+00  0.00000000000E+00  0.91907239058E+03  0.91907239058E+03  0.25500000920E-02 0. -1.
       -2   -1    0    0    0  501  0.00000000000E+00  0.00000000000E+00 -0.14295093313E+04  0.14295093313E+04  0.25500000920E-02 0.  1.
    10030    2    1    2    0    0  0.00000000000E+00  0.00000000000E+00 -0.51043694073E+03  0.23485817219E+04  0.22924419805E+04 0.  0.
        2    1    3    3  502    0 -0.17950656224E+03  0.11201315727E+04 -0.42326344795E+03  0.12108134837E+04  0.25500000920E-02 0.  1.
       -2    1    3    3    0  502  0.17950656224E+03 -0.11201315727E+04 -0.87173492774E+02  0.11377682382E+04  0.25500000920E-02 0. -1.
</event>
<event>
 5   0  0.5843670E-05  0.2285505E+04  0.7818609E-02  0.8483658E-01
       -1   -1    0    0    0  501  0.00000000000E+00  0.00000000000E+00  0.10626456304E+04  0.10626456304E+04  0.50400001928E-02 0. -1.
        1   -1    0    0  501    0  0.00000000000E+00  0.00000000000E+00 -0.12288978399E+04  0.12288978399E+04  0.50400001928E-02 0.  1.
    10030    2    1    2    0    0  0.00000000000E+00  0.00000000000E+00 -0.16625220948E+03  0.22915434703E+04  0.22855046881E+04 0.  0.
        2    1    3    3  502    0  0.10418738900E+04 -0.29036874153E+03 -0.45297431644E+03  0.11726043409E+04  0.25500000920E-02 0.  1.
       -2    1    3    3    0  502 -0.10418738900E+04  0.29036874153E+03  0.28672210696E+03  0.11189391295E+04  0.25500000920E-02 0. -1.
</event>
<event>
 5   0  0.1270613E-04  0.2367148E+04  0.7818609E-02  0.8451906E-01
        2   -1    0    0  501    0  0.00000000000E+00  0.00000000000E+00  0.14099463488E+04  0.14099463488E+04  0.25500000920E-02 0. -1.
       -2   -1    0    0    0  501  0.00000000000E+00  0.00000000000E+00 -0.99354666749E+03  0.99354666749E+03  0.25500000920E-02 0.  1.
    10030    2    1    2    0    0  0.00000000000E+00  0.00000000000E+00  0.41639968135E+03  0.24034930163E+04  0.23671480699E+04 0.  0.
        2    1    3    3  502    0 -0.18126616362E+03  0.31789502893E+03  0.13510630018E+04  0.13997449433E+04  0.25500000920E-02 0. -1.
       -2    1    3    3    0  502  0.18126616362E+03 -0.31789502893E+03 -0.93466332045E+03  0.10037480730E+04  0.25500000920E-02 0.  1.
</event>
<event>
 5   0  0.5843670E-05  0.2388918E+04  0.7818609E-02  0.8443664E-01
        1   -1    0    0  501    0  0.00000000000E+00  0.00000000000E+00  0.12104990005E+04  0.12104990005E+04  0.50400001928E-02 0.  1.
       -1   -1    0    0    0  501  0.00000000000E+00  0.00000000000E+00 -0.11786312218E+04  0.11786312219E+04  0.50400001928E-02 0. -1.
    10030    2    1    2    0    0  0.00000000000E+00  0.00000000000E+00  0.31867778647E+02  0.23891302224E+04  0.23889176763E+04 0.  0.
        2    1    3    3  502    0  0.11866016289E+04 -0.67680783435E+02 -0.10293711561E+03  0.11929795321E+04  0.25500000920E-02 0. -1.
       -2    1    3    3    0  502 -0.11866016289E+04  0.67680783435E+02  0.13480489426E+03  0.11961506902E+04  0.25500000920E-02 0.  1.
</event>
<event>
 5   0  0.4489500E-05  0.2385949E+04  0.7818609E-02  0.8444783E-01
       -3   -1    0    0    0  501  0.00000000000E+00  0.00000000000E+00  0.17121136731E+04  0.17121136761E+04  0.10100000352E+00 0.  1.
        3   -1    0    0  501    0  0.00000000000E+00  0.00000000000E+00 -0.83124649619E+03  0.83124650233E+03  0.10100000352E+00 0. -1.
    10030    2    1    2    0    0  0.00000000000E+00  0.00000000000E+00  0.88086717692E+03  0.25433601784E+04  0.23859492899E+04 0.  0.
        4    1    3    3  502    0 -0.11070225900E+04 -0.44414378867E+03  0.46238776061E+03  0.12792836956E+04  0.12699999809E+01 0.  1.
       -4    1    3    3    0  502  0.11070225900E+04  0.44414378867E+03  0.41847941630E+03  0.12640764828E+04  0.12699999809E+01 0. -1.
</event>
<event>
 5   0  0.5642466E-05  0.2241199E+04  0.7818609E-02  0.8501473E-01
       -1   -1    0    0    0  501  0.00000000000E+00  0.00000000000E+00  0.19838355263E+04  0.19838355263E+04  0.50400001928E-02 0.  1.
        1   -1    0    0  501    0  0.00000000000E+00  0.00000000000E+00 -0.63298753582E+03  0.63298753584E+03  0.50400001928E-02 0. -1.
    10030    2    1    2    0    0  0.00000000000E+00  0.00000000000E+00  0.13508479905E+04  0.26168230622E+04  0.22411989303E+04 0.  0.
        1    1    3    3  502    0 -0.91409437410E+03  0.17542752178E+03 -0.53180465696E+02  0.93229367804E+03  0.50400001928E-02 0. -1.
       -1    1    3    3    0  502  0.91409437410E+03 -0.17542752178E+03  0.14040284562E+04  0.16845293841E+04  0.50400001928E-02 0.  1.
</event>
<event>
 5   0  0.1270613E-04  0.2310232E+04  0.7818609E-02  0.8473898E-01
        2   -1    0    0  501    0  0.00000000000E+00  0.00000000000E+00  0.91806649040E+03  0.91806649040E+03  0.25500000920E-02 0.  1.
       -2   -1    0    0    0  501  0.00000000000E+00  0.00000000000E+00 -0.14533732029E+04  0.14533732029E+04  0.25500000920E-02 0. -1.
    10030    2    1    2    0    0  0.00000000000E+00  0.00000000000E+00 -0.53530671251E+03  0.23714396933E+04  0.23102322270E+04 0.  0.
        2    1    3    3  502    0  0.45813736708E+03  0.73834082646E+03  0.51359982205E+03  0.10093670295E+04  0.25500000920E-02 0.  1.
       -2    1    3    3    0  502 -0.45813736708E+03 -0.73834082646E+03 -0.10489065346E+04  0.13620726638E+04  0.25500000920E-02 0. -1.
</event>
<event>
 5   0  0.1281432E-04  0.2344163E+04  0.7818609E-02  0.8460709E-01
        2   -1    0    0  501    0  0.00000000000E+00  0.00000000000E+00  0.13880747318E+04  0.13880747318E+04  0.25500000920E-02 0.  1.
       -2   -1    0    0    0  501  0.00000000000E+00  0.00000000000E+00 -0.98969837274E+03  0.98969837274E+03  0.25500000920E-02 0. -1.
    10030    2    1    2    0    0  0.00000000000E+00  0.00000000000E+00  0.39837635902E+03  0.23777731045E+04  0.23441632224E+04 0.  0.
        4    1    3    3  502    0  0.43881255076E+03 -0.10537975326E+04 -0.70572246259E+02  0.11436904080E+04  0.12699999809E+01 0.  1.
       -4    1    3    3    0  502 -0.43881255076E+03  0.10537975326E+04  0.46894860528E+03  0.12340826965E+04  0.12699999809E+01 0. -1.
</event>
<event>
 5   0  0.1237296E-04  0.2372336E+04  0.7818609E-02  0.8449934E-01
        2   -1    0    0  501    0  0.00000000000E+00  0.00000000000E+00  0.22746585081E+04  0.22746585081E+04  0.25500000920E-02 0. -1.
       -2   -1    0    0    0  501  0.00000000000E+00  0.00000000000E+00 -0.61855198122E+03  0.61855198123E+03  0.25500000920E-02 0.  1.
    10030    2    1    2    0    0  0.00000000000E+00  0.00000000000E+00  0.16561065269E+04  0.28932104893E+04  0.23723360022E+04 0.  0.
        1    1    3    3  502    0  0.67345696241E+03  0.88102060923E+03  0.31460044048E+03  0.11526990203E+04  0.50400001928E-02 0. -1.
       -1    1    3    3    0  502 -0.67345696241E+03 -0.88102060923E+03  0.13415060864E+04  0.17405114691E+04  0.50400001928E-02 0.  1.
</event>
<event>
 5   0  0.1237296E-04  0.2227410E+04  0.7818609E-02  0.8507105E-01
        2   -1    0    0  501    0  0.00000000000E+00  0.00000000000E+00  0.11949141358E+04  0.11949141358E+04  0.25500000920E-02 0. -1.
       -2   -1    0    0    0  501  0.00000000000E+00  0.00000000000E+00 -0.10380148812E+04  0.10380148812E+04  0.25500000920E-02 0.  1.
    10030    2    1    2    0    0  0.00000000000E+00  0.00000000000E+00  0.15689925456E+03  0.22329290170E+04  0.22274098452E+04 0.  0.
        1    1    3    3  502    0 -0.91816445182E+03 -0.57083994255E+03  0.34642163811E+03  0.11352938615E+04  0.50400001928E-02 0. -1.
       -1    1    3    3    0  502  0.91816445182E+03  0.57083994255E+03 -0.18952238355E+03  0.10976351555E+04  0.50400001928E-02 0.  1.
</event>
<event>
 5   0  0.5843670E-05  0.2532596E+04  0.7818609E-02  0.8391464E-01
        1   -1    0    0  501    0  0.00000000000E+00  0.00000000000E+00  0.72206532833E+03  0.72206532834E+03  0.50400001928E-02 0.  1.
       -1   -1    0    0    0  501  0.00000000000E+00  0.00000000000E+00 -0.22207274060E+04  0.22207274060E+04  0.50400001928E-02 0. -1.
    10030    2    1    2    0    0  0.00000000000E+00  0.00000000000E+00 -0.14986620776E+04  0.29427927343E+04  0.25325957147E+04 0.  0.
        2    1    3    3  502    0 -0.49182347635E+03  0.59380883625E+03  0.41785949677E+03  0.87698678721E+03  0.25500000920E-02 0.  1.
       -2    1    3    3    0  502  0.49182347635E+03 -0.59380883625E+03 -0.19165215744E+04  0.20658059471E+04  0.25500000920E-02 0. -1.
</event>
<event>
 5   0  0.1234988E-04  0.2207026E+04  0.7818609E-02  0.8515509E-01
        2   -1    0    0  501    0  0.00000000000E+00  0.00000000000E+00  0.94755009846E+03  0.94755009846E+03  0.25500000920E-02 0. -1.
       -2   -1    0    0    0  501  0.00000000000E+00  0.00000000000E+00 -0.12851467976E+04  0.12851467976E+04  0.25500000920E-02 0.  1.
    10030    2    1    2    0    0  0.00000000000E+00  0.00000000000E+00 -0.33759669918E+03  0.22326968961E+04  0.22070260303E+04 0.  0.
        5    1    3    3  502    0 -0.54405981549E+03 -0.90496544333E+03 -0.49308161001E+03  0.11653819548E+04  0.46999998093E+01 0.  1.
       -5    1    3    3    0  502  0.54405981549E+03  0.90496544333E+03  0.15548491082E+03  0.10673149413E+04  0.46999998093E+01 0. -1.
</event>
<event>
 5   0  0.1237296E-04  0.1438926E+04  0.7818609E-02  0.8926114E-01
        2   -1    0    0  501    0  0.00000000000E+00  0.00000000000E+00  0.61124152350E+03  0.61124152351E+03  0.25500000920E-02 0. -1.
       -2   -1    0    0    0  501  0.00000000000E+00  0.00000000000E+00 -0.84684558964E+03  0.84684558964E+03  0.25500000920E-02 0.  1.
    10030    2    1    2    0    0  0.00000000000E+00  0.00000000000E+00 -0.23560406614E+03  0.14580871132E+04  0.14389262502E+04 0.  0.
        1    1    3    3  502    0 -0.67437062268E+03 -0.50870072909E+02 -0.36655758741E+03  0.76923856245E+03  0.50400001928E-02 0.  1.
       -1    1    3    3    0  502  0.67437062268E+03  0.50870072909E+02  0.13095352128E+03  0.68884855070E+03  0.50400001928E-02 0. -1.
</event>
<event>
 5   0  0.1234988E-04  0.2396538E+04  0.7818609E-02  0.8440801E-01
        2   -1    0    0  501    0  0.00000000000E+00  0.00000000000E+00  0.86389635100E+03  0.86389635100E+03  0.25500000920E-02 0.  1.
       -2   -1    0    0    0  501  0.00000000000E+00  0.00000000000E+00 -0.16620605063E+04  0.16620605063E+04  0.25500000920E-02 0. -1.
    10030    2    1    2    0    0  0.00000000000E+00  0.00000000000E+00 -0.79816415526E+03  0.25259568573E+04  0.23965375077E+04 0.  0.
        5    1    3    3  502    0  0.38864455233E+03  0.51300922030E+03 -0.14644086261E+04  0.15996055021E+04  0.46999998093E+01 0. -1.
       -5    1    3    3    0  502 -0.38864455233E+03 -0.51300922030E+03  0.66624447088E+03  0.92635135513E+03  0.46999998093E+01 0.  1.
</event>
<event>
 5   0  0.1281432E-04  0.2308176E+04  0.7818609E-02  0.8474704E-01
       -2   -1    0    0    0  501  0.00000000000E+00  0.00000000000E+00  0.11159034653E+04  0.11159034653E+04  0.25500000920E-02 0. -1.
        2   -1    0    0  501    0  0.00000000000E+00  0.00000000000E+00 -0.11935794160E+04  0.11935794160E+04  0.25500000920E-02 0.  1.
    10030    2    1    2    0    0  0.00000000000E+00  0.00000000000E+00 -0.77675950688E+02  0.23094828812E+04  0.23081762553E+04 0.  0.
        4    1    3    3  502    0 -0.84692151615E+03 -0.58266716863E+03  0.48599752673E+03  0.11370893953E+04  0.12699999809E+01 0. -1.
       -4    1    3    3    0  502  0.84692151615E+03  0.58266716863E+03 -0.56367347742E+03  0.11723934860E+04  0.12699999809E+01 0.  1.
</event>
<event>
 5   0  0.5642466E-05  0.2289823E+04  0.7818609E-02  0.8481945E-01
        1   -1    0    0  501    0  0.00000000000E+00  0.00000000000E+00  0.16326260139E+04  0.16326260139E+04  0.50400001928E-02 0.  1.
       -1   -1    0    0    0  501  0.00000000000E+00  0.00000000000E+00 -0.80289178273E+03  0.80289178275E+03  0.50400001928E-02 0. -1.
    10030    2    1    2    0    0  0.00000000000E+00  0.00000000000E+00  0.82973423113E+03  0.24355177966E+04  0.22898227100E+04 0.  0.
        1    1    3    3  502    0 -0.63369328677E+03  0.13941156806E+03 -0.58845490935E+03  0.87594631535E+03  0.50400001928E-02 0. -1.
       -1    1    3    3    0  502  0.63369328677E+03 -0.13941156806E+03  0.14181891405E+04  0.15595714813E+04  0.50400001928E-02 0.  1.
</event>
<event>
 5   0  0.1257524E-04  0.2239751E+04  0.7818609E-02  0.8502063E-01
       -2   -1    0    0    0  501  0.00000000000E+00  0.00000000000E+00  0.92030776376E+03  0.92030776377E+03  0.25500000920E-02 0.  1.
        2   -1    0    0  501    0  0.00000000000E+00  0.00000000000E+00 -0.13627192318E+04  0.13627192318E+04  0.25500000920E-02 0. -1.
    10030    2    1    2    0    0  0.00000000000E+00  0.00000000000E+00 -0.44241146805E+03  0.22830269956E+04  0.22397509584E+04 0.  0.
        3    1    3    3  502    0  0.73066108147E+02  0.42339493678E+03  0.83295199735E+03  0.93723581277E+03  0.10100000352E+00 0.  1.
       -3    1    3    3    0  502 -0.73066108147E+02 -0.42339493678E+03 -0.12753634654E+04  0.13457911828E+04  0.10100000352E+00 0. -1.
</event>
<event>
 5   0  0.1237296E-04  0.1147088E+04  0.7818609E-02  0.9160475E-01
        2   -1    0    0  501    0  0.00000000000E+00  0.00000000000E+00  0.27290617477E+03  0.27290617478E+03  0.25500000920E-02 0. -1.
       -2   -1    0    0    0  501  0.00000000000E+00  0.00000000000E+00 -0.12053683098E+04  0.12053683098E+04  0.25500000920E-02 0.  1.
    10030    2    1    2    0    0  0.00000000000E+00  0.00000000000E+00 -0.93246213506E+03  0.14782744846E+04  0.11470875374E+04 0.  0.
        1    1    3    3  502    0 -0.14683584227E+02  0.45197020012E+03 -0.92087672056E+03  0.10259174450E+04  0.50400001928E-02 0.  1.
       -1    1    3    3    0  502  0.14683584227E+02 -0.45197020012E+03 -0.11585414500E+02  0.45235703962E+03  0.50400001928E-02 0. -1.
</event>
<event>
 5   0  0.5632156E-05  0.2318028E+04  0.7818609E-02  0.8470847E-01
       -1   -1    0    0    0  501  0.00000000000E+00  0.00000000000E+00  0.21466112309E+04  0.21466112309E+04  0.50400001928E-02 0.  1.
        1   -1    0    0  501    0  0.00000000000E+00  0.00000000000E+00 -0.62578341971E+03  0.62578341973E+03  0.50400001928E-02 0. -1.
    10030    2    1    2    0    0  0.00000000000E+00  0.00000000000E+00  0.15208278112E+04  0.27723946507E+04  0.23180282284E+04 0.  0.
        4    1    3    3  502    0 -0.30914588705E+03 -0.11866805444E+03 -0.56800138352E+03  0.65748039606E+03  0.12699999809E+01 0. -1.
       -4    1    3    3    0  502  0.30914588705E+03  0.11866805444E+03  0.20888291948E+04  0.21149142546E+04  0.12699999809E+01 0.  1.
</event>
<event>
 5   0  0.1257524E-04  0.2238629E+04  0.7818609E-02  0.8502520E-01
        2   -1    0    0  501    0  0.00000000000E+00  0.00000000000E+00  0.80965836648E+03  0.80965836649E+03  0.25500000920E-02 0.  1.
       -2   -1    0    0    0  501  0.00000000000E+00  0.00000000000E+00 -0.15473997042E+04  0.15473997042E+04  0.25500000920E-02 0. -1.
    10030    2    1    2    0    0  0.00000000000E+00  0.00000000000E+00 -0.73774133767E+03  0.23570580706E+04  0.22386291491E+04 0.  0.
        3    1    3    3  502    0  0.46794966912E+03 -0.95580043934E+03 -0.73411360416E+03  0.12928473099E+04  0.10100000352E+00 0. -1.
       -3    1    3    3    0  502 -0.46794966912E+03  0.95580043934E+03 -0.36277335172E+01  0.10642107608E+04  0.10100000352E+00 0.  1.
</event>
<event>
 5   0  0.1237296E-04  0.2251646E+04  0.7818609E-02  0.8497234E-01
        2   -1    0    0  501    0  0.00000000000E+00  0.00000000000E+00  0.95420000888E+03  0.95420000889E+03  0.25500000920E-02 0. -1.
       -2   -1    0    0    0  501  0.00000000000E+00  0.00000000000E+00 -0.13283137650E+04  0.13283137650E+04  0.25500000920E-02 0.  1.
    10030    2    1    2    0    0  0.00000000000E+00  0.00000000000E+00 -0.37411375611E+03  0.22825137739E+04  0.22516456261E+04 0.  0.
        1    1    3    3  502    0 -0.37987033846E+03  0.47275787322E+03  0.77445868861E+03  0.98366037895E+03  0.50400001928E-02 0. -1.
       -1    1    3    3    0  502  0.37987033846E+03 -0.47275787322E+03 -0.11485724447E+04  0.12988533949E+04  0.50400001928E-02 0.  1.
</event>
<event>
 5   0  0.5843670E-05  0.2328735E+04  0.7818609E-02  0.8466677E-01
        1   -1    0    0  501    0  0.00000000000E+00  0.00000000000E+00  0.11754936598E+04  0.11754936598E+04  0.50400001928E-02 0. -1.
       -1   -1    0    0    0  501  0.00000000000E+00  0.00000000000E+00 -0.11533466101E+04  0.11533466102E+04  0.50400001928E-02 0.  1.
    10030    2    1    2    0    0  0.00000000000E+00  0.00000000000E+00  0.22147049671E+02  0.23288402700E+04  0.23287349594E+04 0.  0.
        2    1    3    3  502    0 -0.40178527162E+03 -0.10598120155E+04  0.27776650852E+03  0.11669563599E+04  0.25500000920E-02 0. -1.
       -2    1    3    3    0  502  0.40178527162E+03  0.10598120155E+04 -0.25561945885E+03  0.11618839101E+04  0.25500000920E-02 0.  1.
</event>
<event>
 5   0  0.1234988E-04  0.1750216E+04  0.7818609E-02  0.8733232E-01
        2   -1    0    0  501    0  0.00000000000E+00  0.00000000000E+00  0.17662517485E+04  0.17662517485E+04  0.25500000920E-02 0. -1.
       -2   -1    0    0    0  501  0.00000000000E+00  0.00000000000E+00 -0.43358130395E+03  0.43358130395E+03  0.25500000920E-02 0.  1.
    10030    2    1    2    0    0  0.00000000000E+00  0.00000000000E+00  0.13326704445E+04  0.21998330524E+04  0.17502156852E+04 0.  0.
        5    1    3    3  502    0 -0.44952268708E+03  0.62468940937E+03  0.14282153298E+03  0.78276917713E+03  0.46999998093E+01 0.  1.
       -5    1    3    3    0  502  0.44952268708E+03 -0.62468940937E+03  0.11898489115E+04  0.14170638753E+04  0.46999998093E+01 0. -1.
</event>
<event>
 5   0  0.5642466E-05  0.1954845E+04  0.7818609E-02  0.8628028E-01
       -1   -1    0    0    0  501  0.00000000000E+00  0.00000000000E+00  0.98111879008E+03  0.98111879009E+03  0.50400001928E-02 0.  1.
        1   -1    0    0  501    0  0.00000000000E+00  0.00000000000E+00 -0.97374017491E+03  0.97374017493E+03  0.50400001928E-02 0. -1.
    10030    2    1    2    0    0  0.00000000000E+00  0.00000000000E+00  0.73786151662E+01  0.19548589650E+04  0.19548450397E+04 0.  0.
        1    1    3    3  502    0  0.16701196924E+03  0.53634024770E+02  0.96524967927E+03  0.98105889213E+03  0.50400001928E-02 0.  1.
       -1    1    3    3    0  502 -0.16701196924E+03 -0.53634024770E+02 -0.95787106410E+03  0.97380007289E+03  0.50400001928E-02 0. -1.
</event>
<event>
 5   0  0.1237296E-04  0.2292300E+04  0.7818609E-02  0.8480963E-01
        2   -1    0    0  501    0  0.00000000000E+00  0.00000000000E+00  0.25862581471E+04  0.25862581471E+04  0.25500000920E-02 0.  1.
       -2   -1    0    0    0  501  0.00000000000E+00  0.00000000000E+00 -0.50793828684E+03  0.50793828684E+03  0.25500000920E-02 0. -1.
    10030    2    1    2    0    0  0.00000000000E+00  0.00000000000E+00  0.20783198603E+04  0.30941964339E+04  0.22922997470E+04 0.  0.
        1    1    3    3  502    0  0.96718265039E+03  0.57953502899E+03  0.76135751743E+03  0.13605029946E+04  0.50400001928E-02 0. -1.
       -1    1    3    3    0  502 -0.96718265039E+03 -0.57953502899E+03  0.13169623428E+04  0.17336934393E+04  0.50400001928E-02 0.  1.
</event>
<event>
 5   0  0.1270613E-04  0.2298250E+04  0.7818609E-02  0.8478611E-01
       -2   -1    0    0    0  501  0.00000000000E+00  0.00000000000E+00  0.86676122412E+03  0.86676122413E+03  0.25500000920E-02 0.  1.
        2   -1    0    0  501    0  0.00000000000E+00  0.00000000000E+00 -0.15234738974E+04  0.15234738974E+04  0.25500000920E-02 0. -1.
    10030    2    1    2    0    0  0.00000000000E+00  0.00000000000E+00 -0.65671267330E+03  0.23902351216E+04  0.22982498561E+04 0.  0.
        2    1    3    3  502    0 -0.10502504234E+04  0.36579361564E+03 -0.27544452225E+02  0.11124700526E+04  0.25500000920E-02 0.  1.
       -2    1    3    3    0  502  0.10502504234E+04 -0.36579361564E+03 -0.62916822108E+03  0.12777650690E+04  0.25500000920E-02 0. -1.
</event>
<event>
 5   0  0.5924654E-05  0.1884955E+04  0.7818609E-02  0.8662382E-01
        1   -1    0    0  501    0  0.00000000000E+00  0.00000000000E+00  0.16669103197E+04  0.16669103197E+04  0.50400001928E-02 0. -1.
       -1   -1    0    0    0  501  0.00000000000E+00  0.00000000000E+00 -0.53288044720E+03  0.53288044723E+03  0.50400001928E-02 0.  1.
    10030    2    1    2    0    0  0.00000000000E+00  0.00000000000E+00  0.11340298725E+04  0.21997907669E+04  0.18849550834E+04 0.  0.
        5    1    3    3  502    0 -0.37853161629E+03  0.69484295052E+03 -0.30507754706E+02  0.79186218720E+03  0.46999998093E+01 0.  1.
       -5    1    3    3    0  502  0.37853161629E+03 -0.69484295052E+03  0.11645376272E+04  0.14079285797E+04  0.46999998093E+01 0. -1.
</event>
<event>
 5   0  0.5663790E-05  0.2253693E+04  0.7818609E-02  0.8496406E-01
       -1   -1    0    0    0  501  0.00000000000E+00  0.00000000000E+00  0.69219537423E+03  0.69219537424E+03  0.50400001928E-02 0.  1.
        1   -1    0    0  501    0  0.00000000000E+00  0.00000000000E+00 -0.18344285844E+04  0.18344285844E+04  0.50400001928E-02 0. -1.
    10030    2    1    2    0    0  0.00000000000E+00  0.00000000000E+00 -0.11422332102E+04  0.25266239587E+04  0.22536929520E+04 0.  0.
        3    1    3    3  502    0  0.32761829680E+02  0.96961380818E+03  0.71500596327E+02  0.97279834497E+03  0.10100000352E+00 0.  1.
       -3    1    3    3    0  502 -0.32761829680E+02 -0.96961380818E+03 -0.12137338065E+04  0.15538256137E+04  0.10100000352E+00 0. -1.
</event>
<event>
 5   0  0.1257524E-04  0.2277667E+04  0.7818609E-02  0.8486779E-01
        2   -1    0    0  501    0  0.00000000000E+00  0.00000000000E+00  0.73785122111E+03  0.73785122112E+03  0.25500000920E-02 0. -1.
       -2   -1    0    0    0  501  0.00000000000E+00  0.00000000000E+00 -0.17577283763E+04  0.17577283763E+04  0.25500000920E-02 0.  1.
    10030    2    1    2    0    0  0.00000000000E+00  0.00000000000E+00 -0.10198771551E+04  0.24955795974E+04  0.22776672530E+04 0.  0.
        3    1    3    3  502    0  0.69468523425E+03  0.88287086451E+03 -0.30526899951E+03  0.11641467735E+04  0.10100000352E+00 0. -1.
       -3    1    3    3    0  502 -0.69468523425E+03 -0.88287086451E+03 -0.71460815564E+03  0.13314328238E+04  0.10100000352E+00 0.  1.
</event>
<event>
 5   0  0.1234988E-04  0.2304323E+04  0.7818609E-02  0.8476219E-01
       -2   -1    0    0    0  501  0.00000000000E+00  0.00000000000E+00  0.13909304192E+04  0.13909304192E+04  0.25500000920E-02 0.  1.
        2   -1    0    0  501    0  0.00000000000E+00  0.00000000000E+00 -0.95438003454E+03  0.95438003455E+03  0.25500000920E-02 0. -1.
    10030    2    1    2    0    0  0.00000000000E+00  0.00000000000E+00  0.43655038463E+03  0.23453104537E+04  0.23043230863E+04 0.  0.
        5    1    3    3  502    0 -0.29422402726E+03  0.96878804195E+03  0.77790644476E+03  0.12768236273E+04  0.46999998093E+01 0.  1.
       -5    1    3    3    0  502  0.29422402726E+03 -0.96878804195E+03 -0.34135606013E+03  0.10684868264E+04  0.46999998093E+01 0. -1.
</event>
<event>
 5   0  0.5924654E-05  0.1831079E+04  0.7818609E-02  0.8689945E-01
        1   -1    0    0  501    0  0.00000000000E+00  0.00000000000E+00  0.14927303808E+04  0.14927303808E+04  0.50400001928E-02 0. -1.
       -1   -1    0    0    0  501  0.00000000000E+00  0.00000000000E+00 -0.56152970091E+03  0.56152970093E+03  0.50400001928E-02 0.  1.
    10030    2    1    2    0    0  0.00000000000E+00  0.00000000000E+00  0.93120067993E+03  0.20542600818E+04  0.18310788561E+04 0.  0.
        5    1    3    3  502    0  0.77663262630E+03  0.39510915051E+03  0.15043073209E+03  0.88426295422E+03  0.46999998093E+01 0.  1.
       -5    1    3    3    0  502 -0.77663262630E+03 -0.39510915051E+03  0.78076994784E+03  0.11699971276E+04  0.46999998093E+01 0. -1.
</event>
<event>
 5   0  0.1237296E-04  0.2274882E+04  0.7818609E-02  0.8487891E-01
        2   -1    0    0  501    0  0.00000000000E+00  0.00000000000E+00  0.74420207272E+03  0.74420207273E+03  0.25500000920E-02 0. -1.
       -2   -1    0    0    0  501  0.00000000000E+00  0.00000000000E+00 -0.17384682310E+04  0.17384682310E+04  0.25500000920E-02 0.  1.
    10030    2    1    2    0    0  0.00000000000E+00  0.00000000000E+00 -0.99426615828E+03  0.24826703037E+04  0.22748816768E+04 0.  0.
        1    1    3    3  502    0  0.83382457905E+03 -0.75973374776E+03 -0.33780909754E+03  0.11775286759E+04  0.50400001928E-02 0. -1.
       -1    1    3    3    0  502 -0.83382457905E+03  0.75973374776E+03 -0.65645706073E+03  0.13051416278E+04  0.50400001928E-02 0.  1.
</event>
<event>
 5   0  0.5642466E-05  0.2265018E+04  0.7818609E-02  0.8491843E-01
       -1   -1    0    0    0  501  0.00000000000E+00  0.00000000000E+00  0.61357102584E+03  0.61357102586E+03  0.50400001928E-02 0.  1.
        1   -1    0    0  501    0  0.00000000000E+00  0.00000000000E+00 -0.20903468864E+04  0.20903468864E+04  0.50400001928E-02 0. -1.
    10030    2    1    2    0    0  0.00000000000E+00  0.00000000000E+00 -0.14767758606E+04  0.27039179123E+04  0.22650176895E+04 0.  0.
        1    1    3    3  502    0  0.32289327319E+03  0.47143783196E+03 -0.19056411128E+04  0.19894677042E+04  0.50400001928E-02 0. -1.
       -1    1    3    3    0  502 -0.32289327319E+03 -0.47143783196E+03  0.42886525220E+03  0.71445020809E+03  0.50400001928E-02 0.  1.
</event>
<event>
 5   0  0.1257524E-04  0.2300066E+04  0.7818609E-02  0.8477895E-01
       -2   -1    0    0    0  501  0.00000000000E+00  0.00000000000E+00  0.76608104576E+03  0.76608104576E+03  0.25500000920E-02 0.  1.
        2   -1    0    0  501    0  0.00000000000E+00  0.00000000000E+00 -0.17264176630E+04  0.17264176630E+04  0.25500000920E-02 0. -1.
    10030    2    1    2    0    0  0.00000000000E+00  0.00000000000E+00 -0.96033661720E+03  0.24924987087E+04  0.23000659544E+04 0.  0.
        3    1    3    3  502    0  0.29170869144E+03 -0.52447121935E+03  0.58293415855E+03  0.83664584144E+03  0.10100000352E+00 0.  1.
       -3    1    3    3    0  502 -0.29170869144E+03  0.52447121935E+03 -0.15432707757E+04  0.16558528673E+04  0.10100000352E+00 0. -1.
</event>
<event>
 5   0  0.1281432E-04  0.2304020E+04  0.7818609E-02  0.8476338E-01
        2   -1    0    0  501    0  0.00000000000E+00  0.00000000000E+00  0.85597860723E+03  0.85597860723E+03  0.25500000920E-02 0. -1.
       -2   -1    0    0    0  501  0.00000000000E+00  0.00000000000E+00 -0.15504205893E+04  0.15504205893E+04  0.25500000920E-02 0.  1.
    10030    2    1    2    0    0  0.00000000000E+00  0.00000000000E+00 -0.69444198210E+03  0.24063991966E+04  0.23040198408E+04 0.  0.
        4    1    3    3  502    0 -0.66379434207E+03  0.77574332382E+03  0.21008532271E+03  0.10423713775E+04  0.12699999809E+01 0. -1.
       -4    1    3    3    0  502  0.66379434207E+03 -0.77574332382E+03 -0.90452730481E+03  0.13640278190E+04  0.12699999809E+01 0.  1.
</event>
<event>
 5   0  0.1270613E-04  0.1234883E+04  0.7818609E-02  0.9082860E-01
        2   -1    0    0  501    0  0.00000000000E+00  0.00000000000E+00  0.13639261452E+04  0.13639261452E+04  0.25500000920E-02 0.  1.
       -2   -1    0    0    0  501  0.00000000000E+00  0.00000000000E+00 -0.27951228576E+03  0.27951228577E+03  0.25500000920E-02 0. -1.
    10030    2    1    2    0    0  0.00000000000E+00  0.00000000000E+00  0.10844138595E+04  0.16434384310E+04  0.12348831758E+04 0.  0.
        2    1    3    3  502    0 -0.33423083205E+03  0.73591770629E+02  0.12261476145E+04  0.12730137354E+04  0.25500000920E-02 0.  1.
       -2    1    3    3    0  502  0.33423083205E+03 -0.73591770629E+02 -0.14173375507E+03  0.37042469563E+03  0.25500000920E-02 0. -1.
</event>
<event>
 5   0  0.1270613E-04  0.1178389E+04  0.7818609E-02  0.9131986E-01
        2   -1    0    0  501    0  0.00000000000E+00  0.00000000000E+00  0.64096439166E+03  0.64096439166E+03  0.25500000920E-02 0.  1.
       -2   -1    0    0    0  501  0.00000000000E+00  0.00000000000E+00 -0.54160554969E+03  0.54160554970E+03  0.25500000920E-02 0. -1.
    10030    2    1    2    0    0  0.00000000000E+00  0.00000000000E+00  0.99358841962E+02  0.11825699414E+04  0.11783885126E+04 0.  0.
        2    1    3    3  502    0 -0.26824201009E+03  0.31705881328E+03 -0.36973876052E+03  0.55604569784E+03  0.25500000920E-02 0. -1.
       -2    1    3    3    0  502  0.26824201009E+03 -0.31705881328E+03  0.46909760248E+03  0.62652424352E+03  0.25500000920E-02 0.  1.
</event>
<event>
 5   0  0.1237296E-04  0.2291122E+04  0.7818609E-02  0.8481430E-01
        2   -1    0    0  501    0  0.00000000000E+00  0.00000000000E+00  0.21878603049E+04  0.21878603049E+04  0.25500000920E-02 0. -1.
       -2   -1    0    0    0  501  0.00000000000E+00  0.00000000000E+00 -0.59981427450E+03  0.59981427450E+03  0.25500000920E-02 0.  1.
    10030    2    1    2    0    0  0.00000000000E+00  0.00000000000E+00  0.15880460304E+04  0.27876745794E+04  0.22911218575E+04 0.  0.
        1    1    3    3  502    0  0.21056762378E+03  0.10941960092E+04  0.11175590572E+04  0.15781450748E+04  0.50400001928E-02 0. -1.
       -1    1    3    3    0  502 -0.21056762378E+03 -0.10941960092E+04  0.47048697321E+03  0.12095295047E+04  0.50400001928E-02 0.  1.
</event>
<event>
 5   0  0.5924654E-05  0.2126582E+04  0.7818609E-02  0.8549623E-01
        1   -1    0    0  501    0  0.00000000000E+00  0.00000000000E+00  0.12100975309E+04  0.12100975309E+04  0.50400001928E-02 0.  1.
       -1   -1    0    0    0  501  0.00000000000E+00  0.00000000000E+00 -0.93429455346E+03  0.93429455347E+03  0.50400001928E-02 0. -1.
    10030    2    1    2    0    0  0.00000000000E+00  0.00000000000E+00  0.27580297744E+03  0.21443920844E+04  0.21265817946E+04 0.  0.
        5    1    3    3  502    0 -0.55408824224E+03 -0.41583251179E+03  0.95127646950E+03  0.11768090200E+04  0.46999998093E+01 0.  1.
       -5    1    3    3    0  502  0.55408824224E+03  0.41583251179E+03 -0.67547349206E+03  0.96758306441E+03  0.46999998093E+01 0. -1.
</event>
<event>
 5   0  0.5642466E-05  0.2209179E+04  0.7818609E-02  0.8514617E-01
       -1   -1    0    0    0  501  0.00000000000E+00  0.00000000000E+00  0.15358453032E+04  0.15358453032E+04  0.50400001928E-02 0. -1.
        1   -1    0    0  501    0  0.00000000000E+00  0.00000000000E+00 -0.79442740770E+03  0.79442740771E+03  0.50400001928E-02 0.  1.
    10030    2    1    2    0    0  0.00000000000E+00  0.00000000000E+00  0.74141789549E+03  0.23302727109E+04  0.22091786735E+04 0.  0.
        1    1    3    3  502    0  0.45078415733E+03  0.43656272045E+03 -0.58814211294E+03  0.86006075972E+03  0.50400001928E-02 0.  1.
       -1    1    3    3    0  502 -0.45078415733E+03 -0.43656272045E+03  0.13295600084E+04  0.14702119512E+04  0.50400001928E-02 0. -1.
</event>
<event>
 5   0  0.1237296E-04  0.2217345E+04  0.7818609E-02  0.8511243E-01
        2   -1    0    0  501    0  0.00000000000E+00  0.00000000000E+00  0.12027434991E+04  0.12027434991E+04  0.25500000920E-02 0. -1.
       -2   -1    0    0    0  501  0.00000000000E+00  0.00000000000E+00 -0.10219589278E+04  0.10219589278E+04  0.25500000920E-02 0.  1.
    10030    2    1    2    0    0  0.00000000000E+00  0.00000000000E+00  0.18078457129E+03  0.22247024269E+04  0.22173447695E+04 0.  0.
        1    1    3    3  502    0 -0.49741759683E+03 -0.93640433929E+03 -0.23452966137E+03  0.10859472889E+04  0.50400001928E-02 0.  1.
       -1    1    3    3    0  502  0.49741759683E+03  0.93640433929E+03  0.41531423266E+03  0.11387551379E+04  0.50400001928E-02 0. -1.
</event>
<event>
 5   0  0.5843670E-05  0.2235000E+04  0.7818609E-02  0.8504000E-01
       -1   -1    0    0    0  501  0.00000000000E+00  0.00000000000E+00  0.86913330246E+03  0.86913330247E+03  0.50400001928E-02 0. -1.
        1   -1    0    0  501    0  0.00000000000E+00  0.00000000000E+00 -0.14368406242E+04  0.14368406242E+04  0.50400001928E-02 0.  1.
    10030    2    1    2    0    0  0.00000000000E+00  0.00000000000E+00 -0.56770732170E+03  0.23059739266E+04  0.22349998092E+04 0.  0.
        2    1    3    3  502    0 -0.10443022707E+04  0.27149981171E+03 -0.58382084562E+03  0.12268358326E+04  0.25500000920E-02 0. -1.
       -2    1    3    3    0  502  0.10443022707E+04 -0.27149981171E+03  0.16113523918E+02  0.10791380940E+04  0.25500000920E-02 0.  1.
</event>
<event>
 5   0  0.5663790E-05  0.2360177E+04  0.7818609E-02  0.8454565E-01
        1   -1    0    0  501    0  0.00000000000E+00  0.00000000000E+00  0.89726012446E+03  0.89726012447E+03  0.50400001928E-02 0.  1.
       -1   -1    0    0    0  501  0.00000000000E+00  0.00000000000E+00 -0.15520687302E+04  0.15520687302E+04  0.50400001928E-02 0. -1.
    10030    2    1    2    0    0  0.00000000000E+00  0.00000000000E+00 -0.65480860574E+03  0.24493288547E+04  0.23601774357E+04 0.  0.
        3    1    3    3  502    0  0.78286256889E+03  0.19341935596E+03  0.56672298368E+03  0.98562660245E+03  0.10100000352E+00 0.  1.
       -3    1    3    3    0  502 -0.78286256889E+03 -0.19341935596E+03 -0.12215315894E+04  0.14637022522E+04  0.10100000352E+00 0. -1.
</event>
<event>
 5   0  0.5632156E-05  0.2293356E+04  0.7818609E-02  0.8480545E-01
        1   -1    0    0  501    0  0.00000000000E+00  0.00000000000E+00  0.15555636808E+04  0.15555636808E+04  0.50400001928E-02 0. -1.
       -1   -1    0    0    0  501  0.00000000000E+00  0.00000000000E+00 -0.84526940419E+03  0.84526940421E+03  0.50400001928E-02 0.  1.
    10030    2    1    2    0    0  0.00000000000E+00  0.00000000000E+00  0.71029427664E+03  0.24008330851E+04  0.22933559564E+04 0.  0.
        4    1    3    3  502    0  0.75081559303E+03 -0.86543876816E+03  0.30648812745E+03  0.11860206159E+04  0.12699999809E+01 0.  1.
       -4    1    3    3    0  502 -0.75081559303E+03  0.86543876816E+03  0.40380614919E+03  0.12148124691E+04  0.12699999809E+01 0. -1.
</event>
<event>
 5   0  0.1237296E-04  0.2301647E+04  0.7818609E-02  0.8477272E-01
       -2   -1    0    0    0  501  0.00000000000E+00  0.00000000000E+00  0.62968676090E+03  0.62968676091E+03  0.25500000920E-02 0. -1.
        2   -1    0    0  501    0  0.00000000000E+00  0.00000000000E+00 -0.21032588945E+04  0.21032588945E+04  0.25500000920E-02 0.  1.
    10030    2    1    2    0    0  0.00000000000E+00  0.00000000000E+00 -0.14735721336E+04  0.27329456554E+04  0.23016466111E+04 0.  0.
        1    1    3    3  502    0  0.28774101029E+03  0.20998777339E+02  0.58604980961E+03  0.65321529148E+03  0.50400001928E-02 0. -1.
       -1    1    3    3    0  502 -0.28774101029E+03 -0.20998777339E+02 -0.20596219432E+04  0.20797303640E+04  0.50400001928E-02 0.  1.
</event>
<event>
 5   0  0.5843670E-05  0.2433056E+04  0.7818609E-02  0.8427231E-01
       -1   -1    0    0    0  501  0.00000000000E+00  0.00000000000E+00  0.12515561815E+04  0.12515561815E+04  0.50400001928E-02 0. -1.
        1   -1    0    0  501    0  0.00000000000E+00  0.00000000000E+00 -0.11824801577E+04  0.11824801577E+04  0.50400001928E-02 0.  1.
    10030    2    1    2    0    0  0.00000000000E+00  0.00000000000E+00  0.69076023867E+02  0.24340363392E+04  0.24330559804E+04 0.  0.
        2    1    3    3  502    0 -0.37177839126E+03  0.69670842023E+03 -0.89120967135E+03  0.11907461834E+04  0.25500000920E-02 0.  1.
       -2    1    3    3    0  502  0.37177839126E+03 -0.69670842023E+03  0.96028569522E+03  0.12432901558E+04  0.25500000920E-02 0. -1.
</event>
<event>
 5   0  0.5663790E-05  0.2303983E+04  0.7818609E-02  0.8476352E-01
        1   -1    0    0  501    0  0.00000000000E+00  0.00000000000E+00  0.12657274959E+04  0.12657274959E+04  0.50400001928E-02 0.  1.
       -1   -1    0    0    0  501  0.00000000000E+00  0.00000000000E+00 -0.10484757647E+04  0.10484757647E+04  0.50400001928E-02 0. -1.
    10030    2    1    2    0    0  0.00000000000E+00  0.00000000000E+00  0.21725173117E+03  0.23142032605E+04  0.23039831632E+04 0.  0.
        3    1    3    3  502    0 -0.93260604053E+03 -0.66961581512E+03  0.13627116100E+02  0.11481833805E+04  0.10100000352E+00 0. -1.
       -3    1    3    3    0  502  0.93260604053E+03  0.66961581512E+03  0.20362461507E+03  0.11660198801E+04  0.10100000352E+00 0.  1.
</event>
<event>
 5   0  0.5924654E-05  0.2173888E+04  0.7818609E-02  0.8529376E-01
        1   -1    0    0  501    0  0.00000000000E+00  0.00000000000E+00  0.24566755644E+04  0.24566755644E+04  0.50400001928E-02 0.  1.
       -1   -1    0    0    0  501  0.00000000000E+00  0.00000000000E+00 -0.48091302634E+03  0.48091302637E+03  0.50400001928E-02 0. -1.
    10030    2    1    2    0    0  0.00000000000E+00  0.00000000000E+00  0.19757625380E+04  0.29375885907E+04  0.21738880196E+04 0.  0.
        5    1    3    3  502    0  0.31873212913E+03  0.17122331623E+03  0.23728994338E+04  0.24003294372E+04  0.46999998093E+01 0.  1.
       -5    1    3    3    0  502 -0.31873212913E+03 -0.17122331623E+03 -0.39713689573E+03  0.53725915358E+03  0.46999998093E+01 0. -1.
</event>
<event>
 5   0  0.1237296E-04  0.1133310E+04  0.7818609E-02  0.9173321E-01
        2   -1    0    0  501    0  0.00000000000E+00  0.00000000000E+00  0.14374442049E+04  0.14374442049E+04  0.25500000920E-02 0. -1.
       -2   -1    0    0    0  501  0.00000000000E+00  0.00000000000E+00 -0.22338101866E+03  0.22338101867E+03  0.25500000920E-02 0.  1.
    10030    2    1    2    0    0  0.00000000000E+00  0.00000000000E+00  0.12140631862E+04  0.16608252235E+04  0.11333097560E+04 0.  0.
        1    1    3    3  502    0 -0.47736806408E+03 -0.23843794521E+03  0.32757389595E+03  0.62612904393E+03  0.50400001928E-02 0.  1.
       -1    1    3    3    0  502  0.47736806408E+03  0.23843794521E+03  0.88648929024E+03  0.10346961796E+04  0.50400001928E-02 0. -1.
</event>
<event>
 5   0  0.4489500E-05  0.2278483E+04  0.7818609E-02  0.8486454E-01
        3   -1    0    0  501    0  0.00000000000E+00  0.00000000000E+00  0.25457740179E+04  0.25457740199E+04  0.10100000352E+00 0.  1.
       -3   -1    0    0    0  501  0.00000000000E+00  0.00000000000E+00 -0.50981390955E+03  0.50981391956E+03  0.10100000352E+00 0. -1.
    10030    2    1    2    0    0  0.00000000000E+00  0.00000000000E+00  0.20359601084E+04  0.30555879395E+04  0.22784828490E+04 0.  0.
        5    1    3    3  502    0 -0.57447269701E+03  0.19677982451E+03 -0.27467326511E+03  0.66648981350E+03  0.46999998093E+01 0. -1.
       -5    1    3    3    0  502  0.57447269701E+03 -0.19677982451E+03  0.23106333735E+04  0.23890981260E+04  0.46999998093E+01 0.  1.
</event>
<event>
 5   0  0.5924654E-05  0.2308960E+04  0.7818609E-02  0.8474397E-01
        1   -1    0    0  501    0  0.00000000000E+00  0.00000000000E+00  0.13134968589E+04  0.13134968589E+04  0.50400001928E-02 0.  1.
       -1   -1    0    0    0  501  0.00000000000E+00  0.00000000000E+00 -0.10147139279E+04  0.10147139279E+04  0.50400001928E-02 0. -1.
    10030    2    1    2    0    0  0.00000000000E+00  0.00000000000E+00  0.29878293104E+03  0.23282107868E+04  0.23089595553E+04 0.  0.
        5    1    3    3  502    0 -0.28342057241E+03 -0.53484992077E+02 -0.97779001101E+03  0.10194524319E+04  0.46999998093E+01 0. -1.
       -5    1    3    3    0  502  0.28342057241E+03  0.53484992077E+02  0.12765729420E+04  0.13087583549E+04  0.46999998093E+01 0.  1.
</event>
<event>
 5   0  0.1270613E-04  0.2285527E+04  0.7818609E-02  0.8483649E-01
       -2   -1    0    0    0  501  0.00000000000E+00  0.00000000000E+00  0.55088535602E+03  0.55088535602E+03  0.25500000920E-02 0. -1.
        2   -1    0    0  501    0  0.00000000000E+00  0.00000000000E+00 -0.23705637751E+04  0.23705637751E+04  0.25500000920E-02 0.  1.
    10030    2    1    2    0    0  0.00000000000E+00  0.00000000000E+00 -0.18196784191E+04  0.29214491312E+04  0.22855273958E+04 0.  0.
        2    1    3    3  502    0 -0.60716622118E+03 -0.53603500472E+03  0.12064978817E+03  0.81886550656E+03  0.25500000920E-02 0. -1.
       -2    1    3    3    0  502  0.60716622118E+03  0.53603500472E+03 -0.19403282073E+04  0.21025836246E+04  0.25500000920E-02 0.  1.
</event>
<event>
 5   0  0.5843670E-05  0.2373988E+04  0.7818609E-02  0.8449307E-01
        1   -1    0    0  501    0  0.00000000000E+00  0.00000000000E+00  0.96122612205E+03  0.96122612206E+03  0.50400001928E-02 0.  1.
       -1   -1    0    0    0  501  0.00000000000E+00  0.00000000000E+00 -0.14657887308E+04  0.14657887308E+04  0.50400001928E-02 0. -1.
    10030    2    1    2    0    0  0.00000000000E+00  0.00000000000E+00 -0.50456260874E+03  0.24270148529E+04  0.23739877148E+04 0.  0.
        2    1    3    3  502    0 -0.81356815987E+02 -0.12767328048E+03  0.95131561805E+03  0.96328645958E+03  0.25500000920E-02 0.  1.
       -2    1    3    3    0  502  0.81356815987E+02  0.12767328048E+03 -0.14558782268E+04  0.14637283933E+04  0.25500000920E-02 0. -1.
</event>
<event>
 5   0  0.1234988E-04  0.2344966E+04  0.7818609E-02  0.8460400E-01
        2   -1    0    0  501    0  0.00000000000E+00  0.00000000000E+00  0.19601318120E+04  0.19601318120E+04  0.25500000920E-02 0.  1.
       -2   -1    0    0    0  501  0.00000000000E+00  0.00000000000E+00 -0.70133888411E+03  0.70133888411E+03  0.25500000920E-02 0. -1.
    10030    2    1    2    0    0  0.00000000000E+00  0.00000000000E+00  0.12587929279E+04  0.26614706961E+04  0.23449662324E+04 0.  0.
        5    1    3    3  502    0 -0.11947320247E+03  0.10352128601E+04  0.12392841910E+04  0.16191932893E+04  0.46999998093E+01 0.  1.
       -5    1    3    3    0  502  0.11947320247E+03 -0.10352128601E+04  0.19508736846E+02  0.10422774068E+04  0.46999998093E+01 0. -1.
</event>
<event>
 5   0  0.1281432E-04  0.2126105E+04  0.7818609E-02  0.8549830E-01
       -2   -1    0    0    0  501  0.00000000000E+00  0.00000000000E+00  0.45650115114E+03  0.45650115115E+03  0.25500000920E-02 0.  1.
        2   -1    0    0  501    0  0.00000000000E+00  0.00000000000E+00 -0.24755273193E+04  0.24755273193E+04  0.25500000920E-02 0. -1.
    10030    2    1    2    0    0  0.00000000000E+00  0.00000000000E+00 -0.20190261681E+04  0.29320284704E+04  0.21261054263E+04 0.  0.
        4    1    3    3  502    0 -0.15860056728E+03 -0.16050617558E+03 -0.24421196186E+04  0.24525224193E+04  0.12699999809E+01 0. -1.
       -4    1    3    3    0  502  0.15860056728E+03  0.16050617558E+03  0.42309345050E+03  0.47950605116E+03  0.12699999809E+01 0.  1.
</event>
<event>
 5   0  0.1281432E-04  0.1638466E+04  0.7818609E-02  0.8797259E-01
       -2   -1    0    0    0  501  0.00000000000E+00  0.00000000000E+00  0.72567857108E+03  0.72567857108E+03  0.25500000920E-02 0. -1.
        2   -1    0    0  501    0  0.00000000000E+00  0.00000000000E+00 -0.92484821868E+03  0.92484821868E+03  0.25500000920E-02 0.  1.
    10030    2    1    2    0    0  0.00000000000E+00  0.00000000000E+00 -0.19916964760E+03  0.16505267898E+04  0.16384657870E+04 0.  0.
        4    1    3    3  502    0  0.79542640961E+03 -0.12573833863E+03 -0.25111691603E+03  0.84354882569E+03  0.12699999809E+01 0.  1.
       -4    1    3    3    0  502 -0.79542640961E+03  0.12573833863E+03  0.51947268431E+02  0.80697796407E+03  0.12699999809E+01 0. -1.
</event>
<event>
 5   0  0.5924654E-05  0.1193165E+04  0.7818609E-02  0.9118860E-01
       -1   -1    0    0    0  501  0.00000000000E+00  0.00000000000E+00  0.40656116197E+03  0.40656116200E+03  0.50400001928E-02 0.  1.
        1   -1    0    0  501    0  0.00000000000E+00  0.00000000000E+00 -0.87541802443E+03  0.87541802445E+03  0.50400001928E-02 0. -1.
    10030    2    1    2    0    0  0.00000000000E+00  0.00000000000E+00 -0.46885686247E+03  0.12819791864E+04  0.11931654860E+04 0.  0.
        5    1    3    3  502    0 -0.15834699669E+03 -0.39624640150E+03  0.21350146250E+03  0.47716867725E+03  0.46999998093E+01 0.  1.
       -5    1    3    3    0  502  0.15834699669E+03  0.39624640150E+03 -0.68235832497E+03  0.80481050920E+03  0.46999998093E+01 0. -1.
</event>
<event>
 5   0  0.5924654E-05  0.2261996E+04  0.7818609E-02  0.8493058E-01
       -1   -1    0    0    0  501  0.00000000000E+00  0.00000000000E+00  0.88467198158E+03  0.88467198160E+03  0.50400001928E-02 0.  1.
        1   -1    0    0  501    0  0.00000000000E+00  0.00000000000E+00 -0.14459110047E+04  0.14459110047E+04  0.50400001928E-02 0. -1.
    10030    2    1    2    0    0  0.00000000000E+00  0.00000000000E+00 -0.56123902311E+03  0.23305829863E+04  0.22619964224E+04 0.  0.
        5    1    3    3  502    0 -0.32359013961E+03 -0.92774069137E+03 -0.85771116868E+03  0.13042637416E+04  0.46999998093E+01 0.  1.
       -5    1    3    3    0  502  0.32359013961E+03  0.92774069137E+03  0.29647214557E+03  0.10263192447E+04  0.46999998093E+01 0. -1.
</event>
<event>
 5   0  0.5924654E-05  0.2140061E+04  0.7818609E-02  0.8543799E-01
       -1   -1    0    0    0  501  0.00000000000E+00  0.00000000000E+00  0.10295118691E+04  0.10295118691E+04  0.50400001928E-02 0. -1.
        1   -1    0    0  501    0  0.00000000000E+00  0.00000000000E+00 -0.11121436127E+04  0.11121436127E+04  0.50400001928E-02 0.  1.
    10030    2    1    2    0    0  0.00000000000E+00  0.00000000000E+00 -0.82631743558E+02  0.21416554818E+04  0.21400607930E+04 0.  0.
        5    1    3    3  502    0 -0.10648703252E+04  0.84070605698E+02 -0.10402262403E+03  0.10732471628E+04  0.46999998093E+01 0.  1.
       -5    1    3    3    0  502  0.10648703252E+04 -0.84070605698E+02  0.21390880469E+02  0.10684083190E+04  0.46999998093E+01 0. -1.
</event>
<event>
 5   0  0.1281432E-04  0.2259554E+04  0.7818609E-02  0.8494041E-01
       -2   -1    0    0    0  501  0.00000000000E+00  0.00000000000E+00  0.93413532391E+03  0.93413532391E+03  0.25500000920E-02 0. -1.
        2   -1    0    0  501    0  0.00000000000E+00  0.00000000000E+00 -0.13663933842E+04  0.13663933842E+04  0.25500000920E-02 0.  1.
    10030    2    1    2    0    0  0.00000000000E+00  0.00000000000E+00 -0.43225806033E+03  0.23005287081E+04  0.22595542273E+04 0.  0.
        4    1    3    3  502    0  0.41577097972E+03  0.91214918113E+03  0.31438914222E+03  0.10505825916E+04  0.12699999809E+01 0. -1.
       -4    1    3    3    0  502 -0.41577097972E+03 -0.91214918113E+03 -0.74664720254E+03  0.12499461165E+04  0.12699999809E+01 0.  1.
</event>
<event>
 5   0  0.1234988E-04  0.2269416E+04  0.7818609E-02  0.8490079E-01
       -2   -1    0    0    0  501  0.00000000000E+00  0.00000000000E+00  0.19843330470E+04  0.19843330470E+04  0.25500000920E-02 0. -1.
        2   -1    0    0  501    0  0.00000000000E+00  0.00000000000E+00 -0.64886393448E+03  0.64886393449E+03  0.25500000920E-02 0.  1.
    10030    2    1    2    0    0  0.00000000000E+00  0.00000000000E+00  0.13354691125E+04  0.26331969815E+04  0.22694159144E+04 0.  0.
        5    1    3    3  502    0 -0.22470575361E+03  0.37372919235E+03 -0.54774192683E+03  0.70014962210E+03  0.46999998093E+01 0.  1.
       -5    1    3    3    0  502  0.22470575361E+03 -0.37372919235E+03  0.18832110393E+04  0.19330473594E+04  0.46999998093E+01 0. -1.
</event>
<event>
 5   0  0.5663790E-05  0.1198977E+04  0.7818609E-02  0.9113752E-01
       -1   -1    0    0    0  501  0.00000000000E+00  0.00000000000E+00  0.62831081446E+03  0.62831081448E+03  0.50400001928E-02 0. -1.
        1   -1    0    0  501    0  0.00000000000E+00  0.00000000000E+00 -0.57198831303E+03  0.57198831305E+03  0.50400001928E-02 0.  1.
    10030    2    1    2    0    0  0.00000000000E+00  0.00000000000E+00  0.56322501431E+02  0.12002991275E+04  0.11989769687E+04 0.  0.
        3    1    3    3  502    0  0.43868330815E+03  0.35693424803E+02 -0.37931261211E+03  0.58102937389E+03  0.10100000352E+00 0.  1.
       -3    1    3    3    0  502 -0.43868330815E+03 -0.35693424803E+02  0.43563511354E+03  0.61926975364E+03  0.10100000352E+00 0. -1.
</event>
<event>
 5   0  0.1281432E-04  0.2234954E+04  0.7818609E-02  0.8504019E-01
        2   -1    0    0  501    0  0.00000000000E+00  0.00000000000E+00  0.11482937483E+04  0.11482937483E+04  0.25500000920E-02 0. -1.
       -2   -1    0    0    0  501  0.00000000000E+00  0.00000000000E+00 -0.10874871742E+04  0.10874871743E+04  0.25500000920E-02 0.  1.
    10030    2    1    2    0    0  0.00000000000E+00  0.00000000000E+00  0.60806574035E+02  0.22357809225E+04  0.22349538908E+04 0.  0.
        4    1    3    3  502    0 -0.24891316139E+03 -0.60137935753E+03 -0.87830403950E+03  0.10931763317E+04  0.12699999809E+01 0.  1.
       -4    1    3    3    0  502  0.24891316139E+03  0.60137935753E+03  0.93911061353E+03  0.11426045908E+04  0.12699999809E+01 0. -1.
</event>
<event>
 5   0  0.1237296E-04  0.2293956E+04  0.7818609E-02  0.8480308E-01
       -2   -1    0    0    0  501  0.00000000000E+00  0.00000000000E+00  0.12975560225E+04  0.12975560225E+04  0.25500000920E-02 0.  1.
        2   -1    0    0  501    0  0.00000000000E+00  0.00000000000E+00 -0.10138740406E+04  0.10138740406E+04  0.25500000920E-02 0. -1.
    10030    2    1    2    0    0  0.00000000000E+00  0.00000000000E+00  0.28368198189E+03  0.23114300631E+04  0.22939558561E+04 0.  0.
        1    1    3    3  502    0  0.55459118479E+03  0.89331650741E+02 -0.86577995502E+03  0.10320496386E+04  0.50400001928E-02 0. -1.
       -1    1    3    3    0  502 -0.55459118479E+03 -0.89331650741E+02  0.11494619369E+04  0.12793804245E+04  0.50400001928E-02 0.  1.
</event>
<event>
 5   0  0.5642466E-05  0.2336829E+04  0.7818609E-02  0.8463540E-01
        1   -1    0    0  501    0  0.00000000000E+00  0.00000000000E+00  0.25236265670E+04  0.25236265670E+04  0.50400001928E-02 0. -1.
       -1   -1    0    0    0  501  0.00000000000E+00  0.00000000000E+00 -0.54096460650E+03  0.54096460652E+03  0.50400001928E-02 0.  1.
    10030    2    1    2    0    0  0.00000000000E+00  0.00000000000E+00  0.19826619605E+04  0.30645911735E+04  0.23368291789E+04 0.  0.
        1    1    3    3  502    0  0.33682466630E+03  0.83395470434E+03  0.19694349500E+04  0.21650878336E+04  0.50400001928E-02 0. -1.
       -1    1    3    3    0  502 -0.33682466630E+03 -0.83395470434E+03  0.13227010476E+02  0.89950333994E+03  0.50400001928E-02 0.  1.
</event>
<event>
 5   0  0.1257524E-04  0.2439926E+04  0.7818609E-02  0.8424705E-01
       -2   -1    0    0    0  501  0.00000000000E+00  0.00000000000E+00  0.90789439360E+03  0.90789439360E+03  0.25500000920E-02 0.  1.
        2   -1    0    0  501    0  0.00000000000E+00  0.00000000000E+00 -0.16392984191E+04  0.16392984191E+04  0.25500000920E-02 0. -1.
    10030    2    1    2    0    0  0.00000000000E+00  0.00000000000E+00 -0.73140402554E+03  0.25471928127E+04  0.24399261007E+04 0.  0.
        3    1    3    3  502    0  0.43821843381E+03  0.46530415790E+03 -0.14505029911E+04  0.15850874715E+04  0.10100000352E+00 0. -1.
       -3    1    3    3    0  502 -0.43821843381E+03 -0.46530415790E+03  0.71909896555E+03  0.96210534119E+03  0.10100000352E+00 0.  1.
</event>
<event>
 5   0  0.5663790E-05  0.2274535E+04  0.7818609E-02  0.8488030E-01
       -1   -1    0    0    0  501  0.00000000000E+00  0.00000000000E+00  0.14397765894E+04  0.14397765894E+04  0.50400001928E-02 0. -1.
        1   -1    0    0  501    0  0.00000000000E+00  0.00000000000E+00 -0.89831793381E+03  0.89831793383E+03  0.50400001928E-02 0.  1.
    10030    2    1    2    0    0  0.00000000000E+00  0.00000000000E+00  0.54145865562E+03  0.23380945233E+04  0.22745347929E+04 0.  0.
        3    1    3    3  502    0  0.73451781557E+03  0.80661007081E+03  0.60101927571E+03  0.12455361928E+04  0.10100000352E+00 0. -1.
       -3    1    3    3    0  502 -0.73451781557E+03 -0.80661007081E+03 -0.59560620081E+02  0.10925583304E+04  0.10100000352E+00 0.  1.
</event>
<event>
 5   0  0.5924654E-05  0.1449696E+04  0.7818609E-02  0.8918612E-01
       -1   -1    0    0    0  501  0.00000000000E+00  0.00000000000E+00  0.13434103842E+04  0.13434103842E+04  0.50400001928E-02 0. -1.
        1   -1    0    0  501    0  0.00000000000E+00  0.00000000000E+00 -0.39109742960E+03  0.39109742963E+03  0.50400001928E-02 0.  1.
    10030    2    1    2    0    0  0.00000000000E+00  0.00000000000E+00  0.95231295463E+03  0.17345078139E+04  0.14496956208E+04 0.  0.
        5    1    3    3  502    0  0.71985386208E+03 -0.64505617334E+02  0.41027814425E+03  0.83108411312E+03  0.46999998093E+01 0. -1.
       -5    1    3    3    0  502 -0.71985386208E+03  0.64505617334E+02  0.54203481038E+03  0.90342370076E+03  0.46999998093E+01 0.  1.
</event>
<event>
 5   0  0.5642466E-05  0.2514514E+04  0.7818609E-02  0.8397833E-01
       -1   -1    0    0    0  501  0.00000000000E+00  0.00000000000E+00  0.68915611736E+03  0.68915611737E+03  0.50400001928E-02 0. -1.
        1   -1    0    0  501    0  0.00000000000E+00  0.00000000000E+00 -0.22936670741E+04  0.22936670741E+04  0.50400001928E-02 0.  1.
    10030    2    1    2    0    0  0.00000000000E+00  0.00000000000E+00 -0.16045109568E+04  0.29828231915E+04  0.25145136272E+04 0.  0.
        1    1    3    3  502    0 -0.55371323280E+03 -0.11278181617E+04 -0.85690696809E+03  0.15208095548E+04  0.50400001928E-02 0.  1.
       -1    1    3    3    0  502  0.55371323280E+03  0.11278181617E+04 -0.74760398870E+03  0.14620136367E+04  0.50400001928E-02 0. -1.
</event>
<event>
 5   0  0.5642466E-05  0.2466050E+04  0.7818609E-02  0.8415181E-01
       -1   -1    0    0    0  501  0.00000000000E+00  0.00000000000E+00  0.97920425410E+03  0.97920425411E+03  0.50400001928E-02 0. -1.
        1   -1    0    0  501    0  0.00000000000E+00  0.00000000000E+00 -0.15526393963E+04  0.15526393963E+04  0.50400001928E-02 0.  1.
    10030    2    1    2    0    0  0.00000000000E+00  0.00000000000E+00 -0.57343514216E+03  0.25318436504E+04  0.24660503660E+04 0.  0.
        1    1    3    3  502    0  0.11900332318E+04 -0.24255724242E+02  0.43713277583E+02  0.11910828198E+04  0.50400001928E-02 0. -1.
       -1    1    3    3    0  502 -0.11900332318E+04  0.24255724242E+02 -0.61714841975E+03  0.13407608306E+04  0.50400001928E-02 0.  1.
</event>
<event>
 5   0  0.1257524E-04  0.2259824E+04  0.7818609E-02  0.8493932E-01
        2   -1    0    0  501    0  0.00000000000E+00  0.00000000000E+00  0.26041432936E+04  0.26041432936E+04  0.25500000920E-02 0.  1.
       -2   -1    0    0    0  501  0.00000000000E+00  0.00000000000E+00 -0.49025779292E+03  0.49025779292E+03  0.25500000920E-02 0. -1.
    10030    2    1    2    0    0  0.00000000000E+00  0.00000000000E+00  0.21138855007E+04  0.30944010866E+04  0.22598243680E+04 0.  0.
        3    1    3    3  502    0 -0.32361420684E+03  0.15400040677E+03 -0.41036730736E+03  0.54483356844E+03  0.10100000352E+00 0. -1.
       -3    1    3    3    0  502  0.32361420684E+03 -0.15400040677E+03  0.25242528081E+04  0.25495675181E+04  0.10100000352E+00 0.  1.
</event>
<event>
 5   0  0.5642466E-05  0.2288384E+04  0.7818609E-02  0.8482515E-01
        1   -1    0    0  501    0  0.00000000000E+00  0.00000000000E+00  0.13492136241E+04  0.13492136241E+04  0.50400001928E-02 0. -1.
       -1   -1    0    0    0  501  0.00000000000E+00  0.00000000000E+00 -0.97032456064E+03  0.97032456066E+03  0.50400001928E-02 0.  1.
    10030    2    1    2    0    0  0.00000000000E+00  0.00000000000E+00  0.37888906342E+03  0.23195381847E+04  0.22883838113E+04 0.  0.
        1    1    3    3  502    0  0.25157038435E+03  0.90569916449E+02  0.13171031521E+04  0.13439684823E+04  0.50400001928E-02 0. -1.
       -1    1    3    3    0  502 -0.25157038435E+03 -0.90569916449E+02 -0.93821408870E+03  0.97556970244E+03  0.50400001928E-02 0.  1.
</event>
<event>
 5   0  0.5843670E-05  0.2240817E+04  0.7818609E-02  0.8501629E-01
       -1   -1    0    0    0  501  0.00000000000E+00  0.00000000000E+00  0.72077425431E+03  0.72077425432E+03  0.50400001928E-02 0.  1.
        1   -1    0    0  501    0  0.00000000000E+00  0.00000000000E+00 -0.17416203342E+04  0.17416203342E+04  0.50400001928E-02 0. -1.
    10030    2    1    2    0    0  0.00000000000E+00  0.00000000000E+00 -0.10208460799E+04  0.24623945886E+04  0.22408169026E+04 0.  0.
        2    1    3    3  502    0 -0.11182380955E+04  0.50646706134E+02 -0.45779619482E+03  0.12093795447E+04  0.25500000920E-02 0. -1.
       -2    1    3    3    0  502  0.11182380955E+04 -0.50646706134E+02 -0.56304988511E+03  0.12530150439E+04  0.25500000920E-02 0.  1.
</event>
<event>
 5   0  0.5663790E-05  0.1413445E+04  0.7818609E-02  0.8944143E-01
        1   -1    0    0  501    0  0.00000000000E+00  0.00000000000E+00  0.53770541665E+03  0.53770541667E+03  0.50400001928E-02 0. -1.
       -1   -1    0    0    0  501  0.00000000000E+00  0.00000000000E+00 -0.92886675437E+03  0.92886675439E+03  0.50400001928E-02 0.  1.
    10030    2    1    2    0    0  0.00000000000E+00  0.00000000000E+00 -0.39116133773E+03  0.14665721711E+04  0.14134449904E+04 0.  0.
        3    1    3    3  502    0  0.33416456108E+03 -0.53053581271E+03 -0.53390798427E+03  0.82352410306E+03  0.10100000352E+00 0.  1.
       -3    1    3    3    0  502 -0.33416456108E+03  0.53053581271E+03  0.14274664654E+03  0.64304806800E+03  0.10100000352E+00 0. -1.
</event>
<event>
 5   0  0.1281432E-04  0.2251229E+04  0.7818609E-02  0.8497403E-01
        2   -1    0    0  501    0  0.00000000000E+00  0.00000000000E+00  0.11167855936E+04  0.11167855936E+04  0.25500000920E-02 0.  1.
       -2   -1    0    0    0  501  0.00000000000E+00  0.00000000000E+00 -0.11345135631E+04  0.11345135631E+04  0.25500000920E-02 0. -1.
    10030    2    1    2    0    0  0.00000000000E+00  0.00000000000E+00 -0.17727969526E+02  0.22512991568E+04  0.22512293558E+04 0.  0.
        4    1    3    3  502    0  0.12070609340E+03 -0.65619616948E+03 -0.91544789199E+03  0.11327885194E+04  0.12699999809E+01 0. -1.
       -4    1    3    3    0  502 -0.12070609340E+03  0.65619616948E+03  0.89771992246E+03  0.11185106374E+04  0.12699999809E+01 0.  1.
</event>
<event>
 5   0  0.1257524E-04  0.1272543E+04  0.7818609E-02  0.9051626E-01
       -2   -1    0    0    0  501  0.00000000000E+00  0.00000000000E+00  0.26839662777E+03  0.26839662779E+03  0.25500000920E-02 0.  1.
        2   -1    0    0  501    0  0.00000000000E+00  0.00000000000E+00 -0.15083708256E+04  0.15083708256E+04  0.25500000920E-02 0. -1.
    10030    2    1    2    0    0  0.00000000000E+00  0.00000000000E+00 -0.12399741978E+04  0.17767674534E+04  0.12725433478E+04 0.  0.
        3    1    3    3  502    0 -0.16647043529E+02  0.60810739293E+03 -0.88033841204E+03  0.10700782473E+04  0.10100000352E+00 0. -1.
       -3    1    3    3    0  502  0.16647043529E+02 -0.60810739293E+03 -0.35963578578E+03  0.70668920610E+03  0.10100000352E+00 0.  1.
</event>
<event>
 5   0  0.5632156E-05  0.2300449E+04  0.7818609E-02  0.8477744E-01
       -1   -1    0    0    0  501  0.00000000000E+00  0.00000000000E+00  0.16810248980E+04  0.16810248980E+04  0.50400001928E-02 0.  1.
        1   -1    0    0  501    0  0.00000000000E+00  0.00000000000E+00 -0.78702972710E+03  0.78702972712E+03  0.50400001928E-02 0. -1.
    10030    2    1    2    0    0  0.00000000000E+00  0.00000000000E+00  0.89399517085E+03  0.24680546251E+04  0.23004491446E+04 0.  0.
        4    1    3    3  502    0  0.47343588705E+03  0.82253125654E+03 -0.25020785654E+03  0.98148091755E+03  0.12699999809E+01 0.  1.
       -4    1    3    3    0  502 -0.47343588705E+03 -0.82253125654E+03  0.11442030274E+04  0.14865737075E+04  0.12699999809E+01 0. -1.
</event>
<event>
 5   0  0.5843670E-05  0.2296560E+04  0.7818609E-02  0.8479279E-01
       -1   -1    0    0    0  501  0.00000000000E+00  0.00000000000E+00  0.65103477890E+03  0.65103477892E+03  0.50400001928E-02 0.  1.
        1   -1    0    0  501    0  0.00000000000E+00  0.00000000000E+00 -0.20253090834E+04  0.20253090834E+04  0.50400001928E-02 0. -1.
    10030    2    1    2    0    0  0.00000000000E+00  0.00000000000E+00 -0.13742743045E+04  0.26763438623E+04  0.22965597326E+04 0.  0.
        2    1    3    3  502    0 -0.41463715092E+03  0.47219797549E+03  0.43286355323E+03  0.76306339888E+03  0.25500000920E-02 0.  1.
       -2    1    3    3    0  502  0.41463715092E+03 -0.47219797549E+03 -0.18071378577E+04  0.19132804634E+04  0.25500000920E-02 0. -1.
</event>
<event>
 5   0  0.5632156E-05  0.2170058E+04  0.7818609E-02  0.8530995E-01
        1   -1    0    0  501    0  0.00000000000E+00  0.00000000000E+00  0.14941876386E+04  0.14941876386E+04  0.50400001928E-02 0. -1.
       -1   -1    0    0    0  501  0.00000000000E+00  0.00000000000E+00 -0.78791167261E+03  0.78791167263E+03  0.50400001928E-02 0.  1.
    10030    2    1    2    0    0  0.00000000000E+00  0.00000000000E+00  0.70627596597E+03  0.22820993112E+04  0.21700579546E+04 0.  0.
        4    1    3    3  502    0  0.23825474230E+02  0.65385928175E+03 -0.55710685321E+03  0.85934234875E+03  0.12699999809E+01 0.  1.
       -4    1    3    3    0  502 -0.23825474230E+02 -0.65385928175E+03  0.12633828192E+04  0.14227569625E+04  0.12699999809E+01 0. -1.
</event>
<event>
 5   0  0.5642466E-05  0.2281418E+04  0.7818609E-02  0.8485284E-01
        1   -1    0    0  501    0  0.00000000000E+00  0.00000000000E+00  0.16648007720E+04  0.16648007720E+04  0.50400001928E-02 0.  1.
       -1   -1    0    0    0  501  0.00000000000E+00  0.00000000000E+00 -0.78160520618E+03  0.78160520620E+03  0.50400001928E-02 0. -1.
    10030    2    1    2    0    0  0.00000000000E+00  0.00000000000E+00  0.88319556579E+03  0.24464059782E+04  0.22814179369E+04 0.  0.
        1    1    3    3  502    0  0.64448272824E+03  0.71454805794E+03  0.10985010302E+04  0.14603566097E+04  0.50400001928E-02 0.  1.
       -1    1    3    3    0  502 -0.64448272824E+03 -0.71454805794E+03 -0.21530546438E+03  0.98604936850E+03  0.50400001928E-02 0. -1.
</event>
<event>
 5   0  0.4489500E-05  0.2301941E+04  0.7818609E-02  0.8477156E-01
       -3   -1    0    0    0  501  0.00000000000E+00  0.00000000000E+00  0.99600325164E+03  0.99600325676E+03  0.10100000352E+00 0.  1.
        3   -1    0    0  501    0  0.00000000000E+00  0.00000000000E+00 -0.13300487286E+04  0.13300487325E+04  0.10100000352E+00 0. -1.
    10030    2    1    2    0    0  0.00000000000E+00  0.00000000000E+00 -0.33404547699E+03  0.23260519892E+04  0.23019408063E+04 0.  0.
        4    1    3    3  502    0 -0.87623216456E+03  0.52561358650E+03 -0.70236320992E+03  0.12399065046E+04  0.12699999809E+01 0. -1.
       -4    1    3    3    0  502  0.87623216456E+03 -0.52561358650E+03  0.36831773293E+03  0.10861454846E+04  0.12699999809E+01 0.  1.
</event>
<event>
 5   0  0.5632156E-05  0.2332802E+04  0.7818609E-02  0.8465099E-01
        1   -1    0    0  501    0  0.00000000000E+00  0.00000000000E+00  0.11335503190E+04  0.11335503190E+04  0.50400001928E-02 0.  1.
       -1   -1    0    0    0  501  0.00000000000E+00  0.00000000000E+00 -0.12002041917E+04  0.12002041917E+04  0.50400001928E-02 0. -1.
    10030    2    1    2    0    0  0.00000000000E+00  0.00000000000E+00 -0.66653872718E+02  0.23337545107E+04  0.23328024728E+04 0.  0.
        4    1    3    3  502    0  0.33679422059E+03 -0.39013117314E+03 -0.10801083735E+04  0.11967741602E+04  0.12699999809E+01 0. -1.
       -4    1    3    3    0  502 -0.33679422059E+03  0.39013117314E+03  0.10134545007E+04  0.11369803504E+04  0.12699999809E+01 0.  1.
</event>
<event>
 5   0  0.1281432E-04  0.2369433E+04  0.7818609E-02  0.8451037E-01
       -2   -1    0    0    0  501  0.00000000000E+00  0.00000000000E+00  0.11901409744E+04  0.11901409744E+04  0.25500000920E-02 0.  1.
        2   -1    0    0  501    0  0.00000000000E+00  0.00000000000E+00 -0.11793166470E+04  0.11793166470E+04  0.25500000920E-02 0. -1.
    10030    2    1    2    0    0  0.00000000000E+00  0.00000000000E+00  0.10824327431E+02  0.23694576214E+04  0.23694328970E+04 0.  0.
        4    1    3    3  502    0 -0.66446772220E+03 -0.58668765236E+02 -0.97367520623E+03  0.11802560731E+04  0.12699999809E+01 0. -1.
       -4    1    3    3    0  502  0.66446772220E+03  0.58668765236E+02  0.98449953367E+03  0.11892015483E+04  0.12699999809E+01 0.  1.
</event>
<event>
 5   0  0.1281432E-04  0.2347695E+04  0.7818609E-02  0.8459349E-01
        2   -1    0    0  501    0  0.00000000000E+00  0.00000000000E+00  0.15497374535E+04  0.15497374535E+04  0.25500000920E-02 0.  1.
       -2   -1    0    0    0  501  0.00000000000E+00  0.00000000000E+00 -0.88913007091E+03  0.88913007092E+03  0.25500000920E-02 0. -1.
    10030    2    1    2    0    0  0.00000000000E+00  0.00000000000E+00  0.66060738258E+03  0.24388675244E+04  0.23476951863E+04 0.  0.
        4    1    3    3  502    0 -0.12537921790E+02  0.71795901863E+03 -0.63435623055E+03  0.95813975601E+03  0.12699999809E+01 0. -1.
       -4    1    3    3    0  502  0.12537921790E+02 -0.71795901863E+03  0.12949636131E+04  0.14807277684E+04  0.12699999809E+01 0.  1.
</event>
<event>
 5   0  0.5642466E-05  0.1598956E+04  0.7818609E-02  0.8821189E-01
        1   -1    0    0  501    0  0.00000000000E+00  0.00000000000E+00  0.15673476989E+04  0.15673476989E+04  0.50400001928E-02 0.  1.
       -1   -1    0    0    0  501  0.00000000000E+00  0.00000000000E+00 -0.40780058765E+03  0.40780058769E+03  0.50400001928E-02 0. -1.
    10030    2    1    2    0    0  0.00000000000E+00  0.00000000000E+00  0.11595471113E+04  0.19751482866E+04  0.15989563005E+04 0.  0.
        1    1    3    3  502    0  0.21338323899E+03 -0.34127258021E+03  0.14330658548E+04  0.14885150738E+04  0.50400001928E-02 0.  1.
       -1    1    3    3    0  502 -0.21338323899E+03  0.34127258021E+03 -0.27351874357E+03  0.48663321279E+03  0.50400001928E-02 0. -1.
</event>
<event>
 5   0  0.5632156E-05  0.2383764E+04  0.7818609E-02  0.8445607E-01
        1   -1    0    0  501    0  0.00000000000E+00  0.00000000000E+00  0.11210750014E+04  0.11210750014E+04  0.50400001928E-02 0. -1.
       -1   -1    0    0    0  501  0.00000000000E+00  0.00000000000E+00 -0.12671608212E+04  0.12671608212E+04  0.50400001928E-02 0.  1.
    10030    2    1    2    0    0  0.00000000000E+00  0.00000000000E+00 -0.14608581981E+03  0.23882358227E+04  0.23837636791E+04 0.  0.
        4    1    3    3  502    0  0.38286762105E+03  0.28186523576E+02 -0.12035208400E+04  0.12632680319E+04  0.12699999809E+01 0.  1.
       -4    1    3    3    0  502 -0.38286762105E+03 -0.28186523576E+02  0.10574350202E+04  0.11249677907E+04  0.12699999809E+01 0. -1.
</event>
<event>
 5   0  0.1281432E-04  0.2324487E+04  0.7818609E-02  0.8468328E-01
       -2   -1    0    0    0  501  0.00000000000E+00  0.00000000000E+00  0.10663874450E+04  0.10663874450E+04  0.25500000920E-02 0.  1.
        2   -1    0    0  501    0  0.00000000000E+00  0.00000000000E+00 -0.12667164227E+04  0.12667164227E+04  0.25500000920E-02 0. -1.
    10030    2    1    2    0    0  0.00000000000E+00  0.00000000000E+00 -0.20032897765E+03  0.23331038677E+04  0.23244874614E+04 0.  0.
        4    1    3    3  502    0 -0.39854234899E+03  0.11069057211E+03 -0.11903400029E+04  0.12601584592E+04  0.12699999809E+01 0. -1.
       -4    1    3    3    0  502  0.39854234899E+03 -0.11069057211E+03  0.99001102529E+03  0.10729454086E+04  0.12699999809E+01 0.  1.
</event>
<event>
 5   0  0.1281432E-04  0.2342258E+04  0.7818609E-02  0.8461443E-01
       -2   -1    0    0    0  501  0.00000000000E+00  0.00000000000E+00  0.94513345618E+03  0.94513345618E+03  0.25500000920E-02 0.  1.
        2   -1    0    0  501    0  0.00000000000E+00  0.00000000000E+00 -0.14511640727E+04  0.14511640727E+04  0.25500000920E-02 0. -1.
    10030    2    1    2    0    0  0.00000000000E+00  0.00000000000E+00 -0.50603061649E+03  0.23962975289E+04  0.23422584960E+04 0.  0.
        4    1    3    3  502    0  0.59845397477E+03 -0.79263920558E+03 -0.88791167829E+03  0.13322210145E+04  0.12699999809E+01 0. -1.
       -4    1    3    3    0  502 -0.59845397477E+03  0.79263920558E+03  0.38188106180E+03  0.10640765144E+04  0.12699999809E+01 0.  1.
</event>
<event>
 5   0  0.1234988E-04  0.2270533E+04  0.7818609E-02  0.8489631E-01
       -2   -1    0    0    0  501  0.00000000000E+00  0.00000000000E+00  0.12570498006E+04  0.12570498006E+04  0.25500000920E-02 0.  1.
        2   -1    0    0  501    0  0.00000000000E+00  0.00000000000E+00 -0.10252817812E+04  0.10252817812E+04  0.25500000920E-02 0. -1.
    10030    2    1    2    0    0  0.00000000000E+00  0.00000000000E+00  0.23176801935E+03  0.22823315818E+04  0.22705332049E+04 0.  0.
        5    1    3    3  502    0  0.62618727455E+03  0.36311242061E+03  0.99498379961E+03  0.12304373143E+04  0.46999998093E+01 0.  1.
       -5    1    3    3    0  502 -0.62618727455E+03 -0.36311242061E+03 -0.76321578026E+03  0.10518942675E+04  0.46999998093E+01 0. -1.
</event>
<event>
 5   0  0.1237296E-04  0.2339860E+04  0.7818609E-02  0.8462369E-01
        2   -1    0    0  501    0  0.00000000000E+00  0.00000000000E+00  0.18958912821E+04  0.18958912821E+04  0.25500000920E-02 0. -1.
       -2   -1    0    0    0  501  0.00000000000E+00  0.00000000000E+00 -0.72194848159E+03  0.72194848159E+03  0.25500000920E-02 0.  1.
    10030    2    1    2    0    0  0.00000000000E+00  0.00000000000E+00  0.11739428005E+04  0.26178397637E+04  0.23398596816E+04 0.  0.
        1    1    3    3  502    0 -0.56268015980E+03 -0.73381472335E+02 -0.55767956112E+03  0.79561315702E+03  0.50400001928E-02 0.  1.
       -1    1    3    3    0  502  0.56268015980E+03  0.73381472335E+02  0.17316223616E+04  0.18222266066E+04  0.50400001928E-02 0. -1.
</event>
<event>
 5   0  0.5924654E-05  0.1278417E+04  0.7818609E-02  0.9046858E-01
       -1   -1    0    0    0  501  0.00000000000E+00  0.00000000000E+00  0.14716151231E+04  0.14716151231E+04  0.50400001928E-02 0.  1.
        1   -1    0    0  501    0  0.00000000000E+00  0.00000000000E+00 -0.27764583358E+03  0.27764583363E+03  0.50400001928E-02 0. -1.
    10030    2    1    2    0    0  0.00000000000E+00  0.00000000000E+00  0.11939692895E+04  0.17492609567E+04  0.12784174711E+04 0.  0.
        5    1    3    3  502    0  0.25757954691E+03  0.53371468833E+03  0.26925671656E+03  0.65093767823E+03  0.46999998093E+01 0. -1.
       -5    1    3    3    0  502 -0.25757954691E+03 -0.53371468833E+03  0.92471257293E+03  0.10983232785E+04  0.46999998093E+01 0.  1.
</event>
<event>
 5   0  0.1234988E-04  0.2347230E+04  0.7818609E-02  0.8459528E-01
       -2   -1    0    0    0  501  0.00000000000E+00  0.00000000000E+00  0.95613096269E+03  0.95613096269E+03  0.25500000920E-02 0.  1.
        2   -1    0    0  501    0  0.00000000000E+00  0.00000000000E+00 -0.14405682701E+04  0.14405682701E+04  0.25500000920E-02 0. -1.
    10030    2    1    2    0    0  0.00000000000E+00  0.00000000000E+00 -0.48443730738E+03  0.23966992328E+04  0.23472297944E+04 0.  0.
        5    1    3    3  502    0  0.48322854703E+03 -0.37442008596E+03  0.78071858113E+03  0.99158651783E+03  0.46999998093E+01 0.  1.
       -5    1    3    3    0  502 -0.48322854703E+03  0.37442008596E+03 -0.12651558885E+04  0.14051127149E+04  0.46999998093E+01 0. -1.
</event>
<event>
 5   0  0.5843670E-05  0.2334215E+04  0.7818609E-02  0.8464551E-01
       -1   -1    0    0    0  501  0.00000000000E+00  0.00000000000E+00  0.11583462698E+04  0.11583462698E+04  0.50400001928E-02 0.  1.
        1   -1    0    0  501    0  0.00000000000E+00  0.00000000000E+00 -0.11759354616E+04  0.11759354616E+04  0.50400001928E-02 0. -1.
    10030    2    1    2    0    0  0.00000000000E+00  0.00000000000E+00 -0.17589191866E+02  0.23342817314E+04  0.23342154618E+04 0.  0.
        2    1    3    3  502    0  0.63013500022E+03 -0.88207221261E+03  0.42367455672E+03  0.11638821404E+04  0.25500000920E-02 0.  1.
       -2    1    3    3    0  502 -0.63013500022E+03  0.88207221261E+03 -0.44126374859E+03  0.11703995910E+04  0.25500000920E-02 0. -1.
</event>
<event>
 5   0  0.1234988E-04  0.2269511E+04  0.7818609E-02  0.8490040E-01
        2   -1    0    0  501    0  0.00000000000E+00  0.00000000000E+00  0.17960864644E+04  0.17960864644E+04  0.25500000920E-02 0. -1.
       -2   -1    0    0    0  501  0.00000000000E+00  0.00000000000E+00 -0.71693122356E+03  0.71693122356E+03  0.25500000920E-02 0.  1.
    10030    2    1    2    0    0  0.00000000000E+00  0.00000000000E+00  0.10791552409E+04  0.25130176880E+04  0.22695113717E+04 0.  0.
        5    1    3    3  502    0  0.28509406078E+03 -0.15813418495E+02  0.17556470912E+04  0.17787207444E+04  0.46999998093E+01 0. -1.
       -5    1    3    3    0  502 -0.28509406078E+03  0.15813418495E+02 -0.67649185037E+03  0.73429694356E+03  0.46999998093E+01 0.  1.
</event>
<event>
 5   0  0.5663790E-05  0.2215530E+04  0.7818609E-02  0.8511992E-01
       -1   -1    0    0    0  501  0.00000000000E+00  0.00000000000E+00  0.89422609219E+03  0.89422609220E+03  0.50400001928E-02 0.  1.
        1   -1    0    0  501    0  0.00000000000E+00  0.00000000000E+00 -0.13722964683E+04  0.13722964683E+04  0.50400001928E-02 0. -1.
    10030    2    1    2    0    0  0.00000000000E+00  0.00000000000E+00 -0.47807037615E+03  0.22665225605E+04  0.22155300117E+04 0.  0.
        3    1    3    3  502    0  0.28451035567E+03 -0.88786058540E+02 -0.13305094122E+04  0.13634824578E+04  0.10100000352E+00 0. -1.
       -3    1    3    3    0  502 -0.28451035567E+03  0.88786058540E+02  0.85243903606E+03  0.90304010270E+03  0.10100000352E+00 0.  1.
</event>
<event>
 5   0  0.5632156E-05  0.2283582E+04  0.7818609E-02  0.8484423E-01
       -1   -1    0    0    0  501  0.00000000000E+00  0.00000000000E+00  0.98757037586E+03  0.98757037587E+03  0.50400001928E-02 0.  1.
        1   -1    0    0  501    0  0.00000000000E+00  0.00000000000E+00 -0.13200954113E+04  0.13200954113E+04  0.50400001928E-02 0. -1.
    10030    2    1    2    0    0  0.00000000000E+00  0.00000000000E+00 -0.33252503544E+03  0.23076657872E+04  0.22835823800E+04 0.  0.
        4    1    3    3  502    0  0.10045731587E+04 -0.18070207466E+02  0.38185220686E+03  0.10748518430E+04  0.12699999809E+01 0.  1.
       -4    1    3    3    0  502 -0.10045731587E+04  0.18070207466E+02 -0.71437724230E+03  0.12328139441E+04  0.12699999809E+01 0. -1.
</event>
<event>
 5   0  0.5663790E-05  0.1167057E+04  0.7818609E-02  0.9142190E-01
        1   -1    0    0  501    0  0.00000000000E+00  0.00000000000E+00  0.57880734707E+03  0.57880734710E+03  0.50400001928E-02 0.  1.
       -1   -1    0    0    0  501  0.00000000000E+00  0.00000000000E+00 -0.58828839845E+03  0.58828839847E+03  0.50400001928E-02 0. -1.
    10030    2    1    2    0    0  0.00000000000E+00  0.00000000000E+00 -0.94810513717E+01  0.11670957456E+04  0.11670572347E+04 0.  0.
        3    1    3    3  502    0  0.73483022714E+01  0.39099442482E+03  0.42837306077E+03  0.58002941924E+03  0.10100000352E+00 0.  1.
       -3    1    3    3    0  502 -0.73483022714E+01 -0.39099442482E+03 -0.43785411215E+03  0.58706632633E+03  0.10100000352E+00 0. -1.
</event>
<event>
 5   0  0.5663790E-05  0.2331774E+04  0.7818609E-02  0.8465497E-01
       -1   -1    0    0    0  501  0.00000000000E+00  0.00000000000E+00  0.11323124218E+04  0.11323124218E+04  0.50400001928E-02 0.  1.
        1   -1    0    0  501    0  0.00000000000E+00  0.00000000000E+00 -0.12004571230E+04  0.12004571230E+04  0.50400001928E-02 0. -1.
    10030    2    1    2    0    0  0.00000000000E+00  0.00000000000E+00 -0.68144701204E+02  0.23327695449E+04  0.23317740133E+04 0.  0.
        3    1    3    3  502    0 -0.32705650624E+03  0.77108364084E+03  0.77729583336E+03  0.11426831417E+04  0.10100000352E+00 0.  1.
       -3    1    3    3    0  502  0.32705650624E+03 -0.77108364084E+03 -0.84544053457E+03  0.11900864032E+04  0.10100000352E+00 0. -1.
</event>
<event>
 5   0  0.1270613E-04  0.2280417E+04  0.7818609E-02  0.8485683E-01
       -2   -1    0    0    0  501  0.00000000000E+00  0.00000000000E+00  0.63004384289E+03  0.63004384290E+03  0.25500000920E-02 0.  1.
        2   -1    0    0  501    0  0.00000000000E+00  0.00000000000E+00 -0.20634682089E+04  0.20634682089E+04  0.25500000920E-02 0. -1.
    10030    2    1    2    0    0  0.00000000000E+00  0.00000000000E+00 -0.14334243660E+04  0.26935120518E+04  0.22804170145E+04 0.  0.
        2    1    3    3  502    0 -0.33490099939E+03 -0.30559498328E+03  0.51900242597E+03  0.68913749816E+03  0.25500000920E-02 0.  1.
       -2    1    3    3    0  502  0.33490099939E+03  0.30559498328E+03 -0.19524267919E+04  0.20043745536E+04  0.25500000920E-02 0. -1.
</event>
<event>
 5   0  0.5924654E-05  0.2317696E+04  0.7818609E-02  0.8470976E-01
        1   -1    0    0  501    0  0.00000000000E+00  0.00000000000E+00  0.17170363891E+04  0.17170363891E+04  0.50400001928E-02 0. -1.
       -1   -1    0    0    0  501  0.00000000000E+00  0.00000000000E+00 -0.78212018865E+03  0.78212018866E+03  0.50400001928E-02 0.  1.
    10030    2    1    2    0    0  0.00000000000E+00  0.00000000000E+00  0.93491620049E+03  0.24991565778E+04  0.23176961187E+04 0.  0.
        5    1    3    3  502    0  0.30658392553E+03  0.10801159424E+04  0.15818785273E+03  0.11338825509E+04  0.46999998093E+01 0.  1.
       -5    1    3    3    0  502 -0.30658392553E+03 -0.10801159424E+04  0.77672834776E+03  0.13652740269E+04  0.46999998093E+01 0. -1.
</event>
<event>
 5   0  0.5843670E-05  0.1331008E+04  0.7818609E-02  0.9005331E-01
        1   -1    0    0  501    0  0.00000000000E+00  0.00000000000E+00  0.62196618020E+03  0.62196618022E+03  0.50400001928E-02 0. -1.
       -1   -1    0    0    0  501  0.00000000000E+00  0.00000000000E+00 -0.71208940194E+03  0.71208940196E+03  0.50400001928E-02 0.  1.
    10030    2    1    2    0    0  0.00000000000E+00  0.00000000000E+00 -0.90123221745E+02  0.13340555822E+04  0.13310079268E+04 0.  0.
        2    1    3    3  502    0  0.50201094581E+03  0.16278397290E+03  0.36130713499E+03  0.63957521633E+03  0.25500000920E-02 0. -1.
       -2    1    3    3    0  502 -0.50201094581E+03 -0.16278397290E+03 -0.45143035674E+03  0.69448036584E+03  0.25500000920E-02 0.  1.
</event>
<event>
 5   0  0.5663790E-05  0.2441582E+04  0.7818609E-02  0.8424098E-01
       -1   -1    0    0    0  501  0.00000000000E+00  0.00000000000E+00  0.83919105209E+03  0.83919105211E+03  0.50400001928E-02 0. -1.
        1   -1    0    0  501    0  0.00000000000E+00  0.00000000000E+00 -0.17759140397E+04  0.17759140397E+04  0.50400001928E-02 0.  1.
    10030    2    1    2    0    0  0.00000000000E+00  0.00000000000E+00 -0.93672298758E+03  0.26151050918E+04  0.24415824143E+04 0.  0.
        3    1    3    3  502    0 -0.30300892087E+03  0.15818923610E+03  0.78689064699E+03  0.85792490409E+03  0.10100000352E+00 0. -1.
       -3    1    3    3    0  502  0.30300892087E+03 -0.15818923610E+03 -0.17236136346E+04  0.17571801877E+04  0.10100000352E+00 0.  1.
</event>
<event>
 5   0  0.1237296E-04  0.2269949E+04  0.7818609E-02  0.8489865E-01
       -2   -1    0    0    0  501  0.00000000000E+00  0.00000000000E+00  0.85743737248E+03  0.85743737248E+03  0.25500000920E-02 0.  1.
        2   -1    0    0  501    0  0.00000000000E+00  0.00000000000E+00 -0.15023455644E+04  0.15023455644E+04  0.25500000920E-02 0. -1.
    10030    2    1    2    0    0  0.00000000000E+00  0.00000000000E+00 -0.64490819193E+03  0.23597829369E+04  0.22699491037E+04 0.  0.
        1    1    3    3  502    0 -0.88339297223E+03 -0.66045417924E+03 -0.44313083335E+02  0.11038779442E+04  0.50400001928E-02 0.  1.
       -1    1    3    3    0  502  0.88339297223E+03  0.66045417924E+03 -0.60059510859E+03  0.12559049927E+04  0.50400001928E-02 0. -1.
</event>
<event>
 5   0  0.1270613E-04  0.2294531E+04  0.7818609E-02  0.8480081E-01
        2   -1    0    0  501    0  0.00000000000E+00  0.00000000000E+00  0.17892307188E+04  0.17892307188E+04  0.25500000920E-02 0.  1.
       -2   -1    0    0    0  501  0.00000000000E+00  0.00000000000E+00 -0.73563346531E+03  0.73563346531E+03  0.25500000920E-02 0. -1.
    10030    2    1    2    0    0  0.00000000000E+00  0.00000000000E+00  0.10535972535E+04  0.25248641841E+04  0.22945308836E+04 0.  0.
        2    1    3    3  502    0 -0.19765421626E+03 -0.56742826888E+03  0.16022376893E+04  0.17112006435E+04  0.25500000920E-02 0.  1.
       -2    1    3    3    0  502  0.19765421626E+03  0.56742826888E+03 -0.54864043576E+03  0.81366354059E+03  0.25500000920E-02 0. -1.
</event>
<event>
 5   0  0.5663790E-05  0.2036723E+04  0.7818609E-02  0.8589641E-01
        1   -1    0    0  501    0  0.00000000000E+00  0.00000000000E+00  0.92505075877E+03  0.92505075879E+03  0.50400001928E-02 0.  1.
       -1   -1    0    0    0  501  0.00000000000E+00  0.00000000000E+00 -0.11210849343E+04  0.11210849343E+04  0.50400001928E-02 0. -1.
    10030    2    1    2    0    0  0.00000000000E+00  0.00000000000E+00 -0.19603417554E+03  0.20461356931E+04  0.20367233186E+04 0.  0.
        3    1    3    3  502    0  0.80176389282E+02  0.26789156287E+03 -0.10817595710E+04  0.11173172882E+04  0.10100000352E+00 0. -1.
       -3    1    3    3    0  502 -0.80176389282E+02 -0.26789156287E+03  0.88572539548E+03  0.92881840489E+03  0.10100000352E+00 0.  1.
</event>
<event>
 5   0  0.1237296E-04  0.2256493E+04  0.7818609E-02  0.8495276E-01
        2   -1    0    0  501    0  0.00000000000E+00  0.00000000000E+00  0.10964994558E+04  0.10964994558E+04  0.25500000920E-02 0. -1.
       -2   -1    0    0    0  501  0.00000000000E+00  0.00000000000E+00 -0.11609122066E+04  0.11609122066E+04  0.25500000920E-02 0.  1.
    10030    2    1    2    0    0  0.00000000000E+00  0.00000000000E+00 -0.64412750771E+02  0.22574116624E+04  0.22564925019E+04 0.  0.
        1    1    3    3  502    0  0.89395248211E+03 -0.68807933428E+03 -0.50527550745E+02  0.11292286057E+04  0.50400001928E-02 0.  1.
       -1    1    3    3    0  502 -0.89395248211E+03  0.68807933428E+03 -0.13885200026E+02  0.11281830567E+04  0.50400001928E-02 0. -1.
</event>
<event>
 5   0  0.5642466E-05  0.2195832E+04  0.7818609E-02  0.8520165E-01
       -1   -1    0    0    0  501  0.00000000000E+00  0.00000000000E+00  0.10411735003E+04  0.10411735003E+04  0.50400001928E-02 0. -1.
        1   -1    0    0  501    0  0.00000000000E+00  0.00000000000E+00 -0.11577510473E+04  0.11577510473E+04  0.50400001928E-02 0.  1.
    10030    2    1    2    0    0  0.00000000000E+00  0.00000000000E+00 -0.11657754697E+03  0.21989245476E+04  0.21958321524E+04 0.  0.
        1    1    3    3  502    0  0.72281469236E+03  0.82623252326E+03 -0.75588761954E+02  0.11003794450E+04  0.50400001928E-02 0.  1.
       -1    1    3    3    0  502 -0.72281469236E+03 -0.82623252326E+03 -0.40988785013E+02  0.10985451026E+04  0.50400001928E-02 0. -1.
</event>
<event>
 5   0  0.5663790E-05  0.1606363E+04  0.7818609E-02  0.8816648E-01
       -1   -1    0    0    0  501  0.00000000000E+00  0.00000000000E+00  0.59332640725E+03  0.59332640727E+03  0.50400001928E-02 0. -1.
        1   -1    0    0  501    0  0.00000000000E+00  0.00000000000E+00 -0.10872608806E+04  0.10872608806E+04  0.50400001928E-02 0.  1.
    10030    2    1    2    0    0  0.00000000000E+00  0.00000000000E+00 -0.49393447337E+03  0.16805872879E+04  0.16063630873E+04 0.  0.
        3    1    3    3  502    0  0.47481325364E+03 -0.53945807201E+03 -0.62220099595E+03  0.95057704940E+03  0.10100000352E+00 0.  1.
       -3    1    3    3    0  502 -0.47481325364E+03  0.53945807201E+03  0.12826652258E+03  0.73001023850E+03  0.10100000352E+00 0. -1.
</event>
<event>
 5   0  0.1281432E-04  0.2198627E+04  0.7818609E-02  0.8519000E-01
        2   -1    0    0  501    0  0.00000000000E+00  0.00000000000E+00  0.15007717635E+04  0.15007717635E+04  0.25500000920E-02 0. -1.
       -2   -1    0    0    0  501  0.00000000000E+00  0.00000000000E+00 -0.80524569544E+03  0.80524569545E+03  0.25500000920E-02 0.  1.
    10030    2    1    2    0    0  0.00000000000E+00  0.00000000000E+00  0.69552606805E+03  0.23060174589E+04  0.21986268464E+04 0.  0.
        4    1    3    3  502    0 -0.44548742766E+03 -0.80828996016E+03 -0.27864973063E+03  0.96407416374E+03  0.12699999809E+01 0.  1.
       -4    1    3    3    0  502  0.44548742766E+03  0.80828996016E+03  0.97417579868E+03  0.13419432952E+04  0.12699999809E+01 0. -1.
</event>
<event>
 5   0  0.1234988E-04  0.2300848E+04  0.7818609E-02  0.8477587E-01
        2   -1    0    0  501    0  0.00000000000E+00  0.00000000000E+00  0.13131832481E+04  0.13131832481E+04  0.25500000920E-02 0. -1.
       -2   -1    0    0    0  501  0.00000000000E+00  0.00000000000E+00 -0.10078377829E+04  0.10078377829E+04  0.25500000920E-02 0.  1.
    10030    2    1    2    0    0  0.00000000000E+00  0.00000000000E+00  0.30534546515E+03  0.23210210310E+04  0.23008482726E+04 0.  0.
        5    1    3    3  502    0  0.17363882319E+03  0.78322772923E+03 -0.67909111017E+03  0.10510865534E+04  0.46999998093E+01 0.  1.
       -5    1    3    3    0  502 -0.17363882319E+03 -0.78322772923E+03  0.98443657532E+03  0.12699344777E+04  0.46999998093E+01 0. -1.
</event>
<event>
 5   0  0.4489500E-05  0.2313274E+04  0.7818609E-02  0.8472706E-01
        3   -1    0    0  501    0  0.00000000000E+00  0.00000000000E+00  0.17312463929E+04  0.17312463959E+04  0.10100000352E+00 0.  1.
       -3   -1    0    0    0  501  0.00000000000E+00  0.00000000000E+00 -0.77274333819E+03  0.77274334479E+03  0.10100000352E+00 0. -1.
    10030    2    1    2    0    0  0.00000000000E+00  0.00000000000E+00  0.95850305473E+03  0.25039897407E+04  0.23132739819E+04 0.  0.
        3    1    3    3  502    0 -0.53489292485E+03 -0.10208185110E+04  0.37303819352E+03  0.12113374334E+04  0.10100000352E+00 0. -1.
       -3    1    3    3    0  502  0.53489292485E+03  0.10208185110E+04  0.58546486121E+03  0.12926523073E+04  0.10100000352E+00 0.  1.
</event>
<event>
 5   0  0.1237296E-04  0.2161414E+04  0.7818609E-02  0.8534662E-01
        2   -1    0    0  501    0  0.00000000000E+00  0.00000000000E+00  0.20239727007E+04  0.20239727007E+04  0.25500000920E-02 0.  1.
       -2   -1    0    0    0  501  0.00000000000E+00  0.00000000000E+00 -0.57704711056E+03  0.57704711056E+03  0.25500000920E-02 0. -1.
    10030    2    1    2    0    0  0.00000000000E+00  0.00000000000E+00  0.14469255901E+04  0.26010198113E+04  0.21614139805E+04 0.  0.
        1    1    3    3  502    0 -0.83472534201E+03 -0.57422296321E+03  0.11760218220E+04  0.15522647113E+04  0.50400001928E-02 0.  1.
       -1    1    3    3    0  502  0.83472534201E+03  0.57422296321E+03  0.27090376811E+03  0.10487551000E+04  0.50400001928E-02 0. -1.
</event>
<event>
 5   0  0.1234988E-04  0.2271489E+04  0.7818609E-02  0.8489248E-01
        2   -1    0    0  501    0  0.00000000000E+00  0.00000000000E+00  0.12618798010E+04  0.12618798010E+04  0.25500000920E-02 0.  1.
       -2   -1    0    0    0  501  0.00000000000E+00  0.00000000000E+00 -0.10222178929E+04  0.10222178929E+04  0.25500000920E-02 0. -1.
    10030    2    1    2    0    0  0.00000000000E+00  0.00000000000E+00  0.23966190810E+03  0.22840976938E+04  0.22714894771E+04 0.  0.
        5    1    3    3  502    0 -0.82373839368E+03 -0.65134259232E+03 -0.31512276990E+03  0.10964107642E+04  0.46999998093E+01 0. -1.
       -5    1    3    3    0  502  0.82373839368E+03  0.65134259232E+03  0.55478467800E+03  0.11876869296E+04  0.46999998093E+01 0.  1.
</event>
<event>
 5   0  0.1281432E-04  0.2311578E+04  0.7818609E-02  0.8473370E-01
       -2   -1    0    0    0  501  0.00000000000E+00  0.00000000000E+00  0.59184959716E+03  0.59184959717E+03  0.25500000920E-02 0.  1.
        2   -1    0    0  501    0  0.00000000000E+00  0.00000000000E+00 -0.22570731175E+04  0.22570731175E+04  0.25500000920E-02 0. -1.
    10030    2    1    2    0    0  0.00000000000E+00  0.00000000000E+00 -0.16652235203E+04  0.28489227146E+04  0.23115776564E+04 0.  0.
        4    1    3    3  502    0  0.55322768394E+03 -0.90683936340E+03 -0.27129817017E+03  0.10963680091E+04  0.12699999809E+01 0.  1.
       -4    1    3    3    0  502 -0.55322768394E+03  0.90683936340E+03 -0.13939253501E+04  0.17525547055E+04  0.12699999809E+01 0. -1.
</event>
<event>
 5   0  0.5663790E-05  0.2297418E+04  0.7818609E-02  0.8478940E-01
        1   -1    0    0  501    0  0.00000000000E+00  0.00000000000E+00  0.16923012650E+04  0.16923012650E+04  0.50400001928E-02 0. -1.
       -1   -1    0    0    0  501  0.00000000000E+00  0.00000000000E+00 -0.77972655692E+03  0.77972655694E+03  0.50400001928E-02 0.  1.
    10030    2    1    2    0    0  0.00000000000E+00  0.00000000000E+00  0.91257470807E+03  0.24720278219E+04  0.22974178885E+04 0.  0.
        3    1    3    3  502    0 -0.43784345794E+02 -0.13372607625E+03 -0.77041823689E+03  0.78316281982E+03  0.10100000352E+00 0.  1.
       -3    1    3    3    0  502  0.43784345794E+02  0.13372607625E+03  0.16829929450E+04  0.16888650021E+04  0.10100000352E+00 0. -1.
</event>
<event>
 5   0  0.5663790E-05  0.2182000E+04  0.7818609E-02  0.8525958E-01
       -1   -1    0    0    0  501  0.00000000000E+00  0.00000000000E+00  0.47100765067E+03  0.47100765070E+03  0.50400001928E-02 0. -1.
        1   -1    0    0  501    0  0.00000000000E+00  0.00000000000E+00 -0.25270937595E+04  0.25270937595E+04  0.50400001928E-02 0.  1.
    10030    2    1    2    0    0  0.00000000000E+00  0.00000000000E+00 -0.20560861089E+04  0.29981014102E+04  0.21819995369E+04 0.  0.
        3    1    3    3  502    0 -0.51968886467E+03 -0.46100014705E+03  0.12783227627E+03  0.70635596741E+03  0.10100000352E+00 0. -1.
       -3    1    3    3    0  502  0.51968886467E+03  0.46100014705E+03 -0.21839183851E+04  0.22917454428E+04  0.10100000352E+00 0.  1.
</event>
<event>
 5   0  0.1257524E-04  0.2283337E+04  0.7818609E-02  0.8484520E-01
        2   -1    0    0  501    0  0.00000000000E+00  0.00000000000E+00  0.17673149873E+04  0.17673149873E+04  0.25500000920E-02 0.  1.
       -2   -1    0    0    0  501  0.00000000000E+00  0.00000000000E+00 -0.73750690722E+03  0.73750690722E+03  0.25500000920E-02 0. -1.
    10030    2    1    2    0    0  0.00000000000E+00  0.00000000000E+00  0.10298080801E+04  0.25048218946E+04  0.22833370407E+04 0.  0.
        3    1    3    3  502    0 -0.19254704047E+03  0.10559401544E+04  0.88167983053E+02  0.10769668406E+04  0.10100000352E+00 0. -1.
       -3    1    3    3    0  502  0.19254704047E+03 -0.10559401544E+04  0.94164009707E+03  0.14278550539E+04  0.10100000352E+00 0.  1.
</event>
<event>
 5   0  0.1281432E-04  0.2266866E+04  0.7818609E-02  0.8491101E-01
        2   -1    0    0  501    0  0.00000000000E+00  0.00000000000E+00  0.14462696416E+04  0.14462696416E+04  0.25500000920E-02 0. -1.
       -2   -1    0    0    0  501  0.00000000000E+00  0.00000000000E+00 -0.88826506420E+03  0.88826506420E+03  0.25500000920E-02 0.  1.
    10030    2    1    2    0    0  0.00000000000E+00  0.00000000000E+00  0.55800457743E+03  0.23345347058E+04  0.22668663799E+04 0.  0.
        4    1    3    3  502    0  0.66707733839E+03  0.65682901079E+03  0.93702203117E+03  0.13245483852E+04  0.12699999809E+01 0. -1.
       -4    1    3    3    0  502 -0.66707733839E+03 -0.65682901079E+03 -0.37901745375E+03  0.10099863207E+04  0.12699999809E+01 0.  1.
</event>
<event>
 5   0  0.5843670E-05  0.1768595E+04  0.7818609E-02  0.8723181E-01
        1   -1    0    0  501    0  0.00000000000E+00  0.00000000000E+00  0.16782564867E+04  0.16782564867E+04  0.50400001928E-02 0. -1.
       -1   -1    0    0    0  501  0.00000000000E+00  0.00000000000E+00 -0.46594910579E+03  0.46594910582E+03  0.50400001928E-02 0.  1.
    10030    2    1    2    0    0  0.00000000000E+00  0.00000000000E+00  0.12123073810E+04  0.21442055926E+04  0.17685950462E+04 0.  0.
        2    1    3    3  502    0 -0.63471498623E+03 -0.50798142834E+03  0.18429867030E+03  0.83359117388E+03  0.25500000920E-02 0.  1.
       -2    1    3    3    0  502  0.63471498623E+03  0.50798142834E+03  0.10280087107E+04  0.13106144187E+04  0.25500000920E-02 0. -1.
</event>
<event>
 5   0  0.5642466E-05  0.2283601E+04  0.7818609E-02  0.8484415E-01
       -1   -1    0    0    0  501  0.00000000000E+00  0.00000000000E+00  0.76099339700E+03  0.76099339702E+03  0.50400001928E-02 0.  1.
        1   -1    0    0  501    0  0.00000000000E+00  0.00000000000E+00 -0.17131668752E+04  0.17131668752E+04  0.50400001928E-02 0. -1.
    10030    2    1    2    0    0  0.00000000000E+00  0.00000000000E+00 -0.95217347821E+03  0.24741602722E+04  0.22836012612E+04 0.  0.
        1    1    3    3  502    0 -0.48349786836E+03 -0.43889397062E+03 -0.14908955677E+04  0.16276264006E+04  0.50400001928E-02 0. -1.
       -1    1    3    3    0  502  0.48349786836E+03  0.43889397062E+03  0.53872208946E+03  0.84653387165E+03  0.50400001928E-02 0.  1.
</event>
<event>
 5   0  0.5843670E-05  0.2382403E+04  0.7818609E-02  0.8446121E-01
        1   -1    0    0  501    0  0.00000000000E+00  0.00000000000E+00  0.11623906678E+04  0.11623906679E+04  0.50400001928E-02 0. -1.
       -1   -1    0    0    0  501  0.00000000000E+00  0.00000000000E+00 -0.12207262020E+04  0.12207262020E+04  0.50400001928E-02 0.  1.
    10030    2    1    2    0    0  0.00000000000E+00  0.00000000000E+00 -0.58335534182E+02  0.23831168699E+04  0.23824027747E+04 0.  0.
        2    1    3    3  502    0 -0.89604787757E+03  0.51535260894E+03 -0.62135081700E+03  0.12060542891E+04  0.25500000920E-02 0.  1.
       -2    1    3    3    0  502  0.89604787757E+03 -0.51535260894E+03  0.56301528282E+03  0.11770625808E+04  0.25500000920E-02 0. -1.
</event>
<event>
 5   0  0.1281432E-04  0.1882853E+04  0.7818609E-02  0.8663439E-01
        2   -1    0    0  501    0  0.00000000000E+00  0.00000000000E+00  0.13542127480E+04  0.13542127480E+04  0.25500000920E-02 0. -1.
       -2   -1    0    0    0  501  0.00000000000E+00  0.00000000000E+00 -0.65446413898E+03  0.65446413898E+03  0.25500000920E-02 0.  1.
    10030    2    1    2    0    0  0.00000000000E+00  0.00000000000E+00  0.69974860898E+03  0.20086768869E+04  0.18828528143E+04 0.  0.
        4    1    3    3  502    0 -0.58115231284E+03  0.71869871328E+03  0.15898626784E+03  0.93784012361E+03  0.12699999809E+01 0.  1.
       -4    1    3    3    0  502  0.58115231284E+03 -0.71869871328E+03  0.54076234114E+03  0.10708367633E+04  0.12699999809E+01 0. -1.
</event>
<event>
 5   0  0.1281432E-04  0.2319089E+04  0.7818609E-02  0.8470433E-01
        2   -1    0    0  501    0  0.00000000000E+00  0.00000000000E+00  0.23675328003E+04  0.23675328003E+04  0.25500000920E-02 0.  1.
       -2   -1    0    0    0  501  0.00000000000E+00  0.00000000000E+00 -0.56790888629E+03  0.56790888629E+03  0.25500000920E-02 0. -1.
    10030    2    1    2    0    0  0.00000000000E+00  0.00000000000E+00  0.17996239140E+04  0.29354416866E+04  0.23190885415E+04 0.  0.
        4    1    3    3  502    0 -0.47924431404E+03 -0.79696090766E+03  0.23114363476E+02  0.93024603605E+03  0.12699999809E+01 0. -1.
       -4    1    3    3    0  502  0.47924431404E+03  0.79696090766E+03  0.17765095505E+04  0.20051956505E+04  0.12699999809E+01 0.  1.
</event>
<event>
 5   0  0.1234988E-04  0.2283237E+04  0.7818609E-02  0.8484560E-01
        2   -1    0    0  501    0  0.00000000000E+00  0.00000000000E+00  0.19113567040E+04  0.19113567040E+04  0.25500000920E-02 0. -1.
       -2   -1    0    0    0  501  0.00000000000E+00  0.00000000000E+00 -0.68186782369E+03  0.68186782369E+03  0.25500000920E-02 0.  1.
    10030    2    1    2    0    0  0.00000000000E+00  0.00000000000E+00  0.12294888803E+04  0.25932245277E+04  0.22832368568E+04 0.  0.
        5    1    3    3  502    0 -0.46631229935E+03 -0.34819791872E+03  0.17302163540E+04  0.18254751909E+04  0.46999998093E+01 0. -1.
       -5    1    3    3    0  502  0.46631229935E+03  0.34819791872E+03 -0.50072747370E+03  0.76774933673E+03  0.46999998093E+01 0.  1.
</event>
<event>
 5   0  0.5663790E-05  0.2257654E+04  0.7818609E-02  0.8494807E-01
       -1   -1    0    0    0  501  0.00000000000E+00  0.00000000000E+00  0.86083080377E+03  0.86083080379E+03  0.50400001928E-02 0. -1.
        1   -1    0    0  501    0  0.00000000000E+00  0.00000000000E+00 -0.14802571591E+04  0.14802571591E+04  0.50400001928E-02 0.  1.
    10030    2    1    2    0    0  0.00000000000E+00  0.00000000000E+00 -0.61942635530E+03  0.23410879629E+04  0.22576544998E+04 0.  0.
        3    1    3    3  502    0 -0.32066932246E+03 -0.81776568865E+03 -0.10449151536E+04  0.13650704100E+04  0.10100000352E+00 0.  1.
       -3    1    3    3    0  502  0.32066932246E+03  0.81776568865E+03  0.42548879826E+03  0.97601755288E+03  0.10100000352E+00 0. -1.
</event>
<event>
 5   0  0.5843670E-05  0.1200736E+04  0.7818609E-02  0.9112213E-01
        1   -1    0    0  501    0  0.00000000000E+00  0.00000000000E+00  0.19932197073E+04  0.19932197074E+04  0.50400001928E-02 0. -1.
       -1   -1    0    0    0  501  0.00000000000E+00  0.00000000000E+00 -0.18083390160E+03  0.18083390167E+03  0.50400001928E-02 0.  1.
    10030    2    1    2    0    0  0.00000000000E+00  0.00000000000E+00  0.18123858057E+04  0.21740536090E+04  0.12007359352E+04 0.  0.
        2    1    3    3  502    0 -0.59468635310E+03  0.70745590377E+02  0.98268729723E+03  0.11507958643E+04  0.25500000920E-02 0.  1.
       -2    1    3    3    0  502  0.59468635310E+03 -0.70745590377E+02  0.82969850851E+03  0.10232577447E+04  0.25500000920E-02 0. -1.
</event>
<event>
 5   0  0.1237296E-04  0.2167951E+04  0.7818609E-02  0.8531887E-01
       -2   -1    0    0    0  501  0.00000000000E+00  0.00000000000E+00  0.10987080916E+04  0.10987080916E+04  0.25500000920E-02 0.  1.
        2   -1    0    0  501    0  0.00000000000E+00  0.00000000000E+00 -0.10694399853E+04  0.10694399853E+04  0.25500000920E-02 0. -1.
    10030    2    1    2    0    0  0.00000000000E+00  0.00000000000E+00  0.29268106249E+02  0.21681480769E+04  0.21679505209E+04 0.  0.
        1    1    3    3  502    0 -0.19352587766E+03  0.90527158679E+03  0.57862999175E+03  0.10916874912E+04  0.50400001928E-02 0.  1.
       -1    1    3    3    0  502  0.19352587766E+03 -0.90527158679E+03 -0.54936188550E+03  0.10764605856E+04  0.50400001928E-02 0. -1.
</event>
<event>
 5   0  0.5632156E-05  0.2285379E+04  0.7818609E-02  0.8483708E-01
        1   -1    0    0  501    0  0.00000000000E+00  0.00000000000E+00  0.13270338086E+04  0.13270338086E+04  0.50400001928E-02 0.  1.
       -1   -1    0    0    0  501  0.00000000000E+00  0.00000000000E+00 -0.98395365078E+03  0.98395365079E+03  0.50400001928E-02 0. -1.
    10030    2    1    2    0    0  0.00000000000E+00  0.00000000000E+00  0.34308015777E+03  0.23109874594E+04  0.22853794089E+04 0.  0.
        4    1    3    3  502    0  0.98037406519E+02 -0.26942359334E+03  0.12900709214E+04  0.13215464429E+04  0.12699999809E+01 0.  1.
       -4    1    3    3    0  502 -0.98037406519E+02  0.26942359334E+03 -0.94699076361E+03  0.98944101642E+03  0.12699999809E+01 0. -1.
</event>
<event>
 5   0  0.1281432E-04  0.2192010E+04  0.7818609E-02  0.8521761E-01
        2   -1    0    0  501    0  0.00000000000E+00  0.00000000000E+00  0.14837398464E+04  0.14837398464E+04  0.25500000920E-02 0. -1.
       -2   -1    0    0    0  501  0.00000000000E+00  0.00000000000E+00 -0.80959393313E+03  0.80959393313E+03  0.25500000920E-02 0.  1.
    10030    2    1    2    0    0  0.00000000000E+00  0.00000000000E+00  0.67414591323E+03  0.22933337795E+04  0.21920098339E+04 0.  0.
        4    1    3    3  502    0  0.22964381504E+03  0.58291554047E+03  0.12779178888E+04  0.14232366467E+04  0.12699999809E+01 0. -1.
       -4    1    3    3    0  502 -0.22964381504E+03 -0.58291554047E+03 -0.60377197557E+03  0.87009713279E+03  0.12699999809E+01 0.  1.
</event>
<event>
 5   0  0.4489500E-05  0.2288207E+04  0.7818609E-02  0.8482585E-01
       -3   -1    0    0    0  501  0.00000000000E+00  0.00000000000E+00  0.86323001750E+03  0.86323002341E+03  0.10100000352E+00 0.  1.
        3   -1    0    0  501    0  0.00000000000E+00  0.00000000000E+00 -0.15163664370E+04  0.15163664404E+04  0.10100000352E+00 0. -1.
    10030    2    1    2    0    0  0.00000000000E+00  0.00000000000E+00 -0.65313641953E+03  0.23795964638E+04  0.22882071908E+04 0.  0.
        4    1    3    3  502    0  0.45896830720E+03 -0.97926191258E+03 -0.71479526713E+03  0.12963563118E+04  0.12699999809E+01 0. -1.
       -4    1    3    3    0  502 -0.45896830720E+03  0.97926191258E+03  0.61658847603E+02  0.10832401520E+04  0.12699999809E+01 0.  1.
</event>
<event>
 5   0  0.1270613E-04  0.2272225E+04  0.7818609E-02  0.8488953E-01
        2   -1    0    0  501    0  0.00000000000E+00  0.00000000000E+00  0.88430700904E+03  0.88430700904E+03  0.25500000920E-02 0. -1.
       -2   -1    0    0    0  501  0.00000000000E+00  0.00000000000E+00 -0.14596198798E+04  0.14596198798E+04  0.25500000920E-02 0.  1.
    10030    2    1    2    0    0  0.00000000000E+00  0.00000000000E+00 -0.57531287074E+03  0.23439268888E+04  0.22722254204E+04 0.  0.
        2    1    3    3  502    0  0.26047252595E+03 -0.51262328749E+03  0.72312254271E+03  0.92386946233E+03  0.25500000920E-02 0. -1.
       -2    1    3    3    0  502 -0.26047252595E+03  0.51262328749E+03 -0.12984354134E+04  0.14200574265E+04  0.25500000920E-02 0.  1.
</event>
<event>
 5   0  0.5632156E-05  0.2284608E+04  0.7818609E-02  0.8484015E-01
       -1   -1    0    0    0  501  0.00000000000E+00  0.00000000000E+00  0.89551588579E+03  0.89551588580E+03  0.50400001928E-02 0.  1.
        1   -1    0    0  501    0  0.00000000000E+00  0.00000000000E+00 -0.14571030029E+04  0.14571030029E+04  0.50400001928E-02 0. -1.
    10030    2    1    2    0    0  0.00000000000E+00  0.00000000000E+00 -0.56158711714E+03  0.23526188887E+04  0.22846084009E+04 0.  0.
        4    1    3    3  502    0 -0.67393930247E+03  0.86684176453E+03  0.43621994121E+02  0.10988691093E+04  0.12699999809E+01 0.  1.
       -4    1    3    3    0  502  0.67393930247E+03 -0.86684176453E+03 -0.60520911126E+03  0.12537497794E+04  0.12699999809E+01 0. -1.
</event>
<event>
 5   0  0.1281432E-04  0.2272248E+04  0.7818609E-02  0.8488944E-01
        2   -1    0    0  501    0  0.00000000000E+00  0.00000000000E+00  0.22877937374E+04  0.22877937374E+04  0.25500000920E-02 0. -1.
       -2   -1    0    0    0  501  0.00000000000E+00  0.00000000000E+00 -0.56420186464E+03  0.56420186464E+03  0.25500000920E-02 0.  1.
    10030    2    1    2    0    0  0.00000000000E+00  0.00000000000E+00  0.17235918728E+04  0.28519956021E+04  0.22722477792E+04 0.  0.
        4    1    3    3  502    0 -0.36775632983E+03 -0.88170827110E+03  0.89988503383E+02  0.95955913685E+03  0.12699999809E+01 0.  1.
       -4    1    3    3    0  502  0.36775632983E+03  0.88170827110E+03  0.16336033694E+04  0.18924364652E+04  0.12699999809E+01 0. -1.
</event>
<event>
 5   0  0.5663790E-05  0.2293836E+04  0.7818609E-02  0.8480356E-01
        1   -1    0    0  501    0  0.00000000000E+00  0.00000000000E+00  0.15980582951E+04  0.15980582951E+04  0.50400001928E-02 0.  1.
       -1   -1    0    0    0  501  0.00000000000E+00  0.00000000000E+00 -0.82313671610E+03  0.82313671611E+03  0.50400001928E-02 0. -1.
    10030    2    1    2    0    0  0.00000000000E+00  0.00000000000E+00  0.77492157896E+03  0.24211950112E+04  0.22938356150E+04 0.  0.
        3    1    3    3  502    0 -0.46562485588E+03 -0.15298016514E+03 -0.70703559241E+03  0.86029574943E+03  0.10100000352E+00 0. -1.
       -3    1    3    3    0  502  0.46562485588E+03  0.15298016514E+03  0.14819571714E+04  0.15608992617E+04  0.10100000352E+00 0.  1.
</event>
<event>
 5   0  0.1234988E-04  0.2570443E+04  0.7818609E-02  0.8378311E-01
       -2   -1    0    0    0  501  0.00000000000E+00  0.00000000000E+00  0.87948759885E+03  0.87948759886E+03  0.25500000920E-02 0. -1.
        2   -1    0    0  501    0  0.00000000000E+00  0.00000000000E+00 -0.18781331468E+04  0.18781331469E+04  0.25500000920E-02 0.  1.
    10030    2    1    2    0    0  0.00000000000E+00  0.00000000000E+00 -0.99864554799E+03  0.27576207457E+04  0.25704433949E+04 0.  0.
        5    1    3    3  502    0 -0.31164898758E+03 -0.10662281954E+04 -0.11927698858E+04  0.16299355038E+04  0.46999998093E+01 0.  1.
       -5    1    3    3    0  502  0.31164898758E+03  0.10662281954E+04  0.19412433779E+03  0.11276852419E+04  0.46999998093E+01 0. -1.
</event>
<event>
 5   0  0.1234988E-04  0.1350252E+04  0.7818609E-02  0.8990637E-01
       -2   -1    0    0    0  501  0.00000000000E+00  0.00000000000E+00  0.86119877071E+03  0.86119877071E+03  0.25500000920E-02 0.  1.
        2   -1    0    0  501    0  0.00000000000E+00  0.00000000000E+00 -0.52925653279E+03  0.52925653280E+03  0.25500000920E-02 0. -1.
    10030    2    1    2    0    0  0.00000000000E+00  0.00000000000E+00  0.33194223792E+03  0.13904553035E+04  0.13502519401E+04 0.  0.
        5    1    3    3  502    0 -0.21674537747E+03 -0.60719263638E+03 -0.40270748334E+02  0.64599170235E+03  0.46999998093E+01 0. -1.
       -5    1    3    3    0  502  0.21674537747E+03  0.60719263638E+03  0.37221298625E+03  0.74446360117E+03  0.46999998093E+01 0.  1.
</event>
<event>
 5   0  0.1237296E-04  0.2270342E+04  0.7818609E-02  0.8489707E-01
       -2   -1    0    0    0  501  0.00000000000E+00  0.00000000000E+00  0.52532475977E+03  0.52532475977E+03  0.25500000920E-02 0.  1.
        2   -1    0    0  501    0  0.00000000000E+00  0.00000000000E+00 -0.24529850086E+04  0.24529850086E+04  0.25500000920E-02 0. -1.
    10030    2    1    2    0    0  0.00000000000E+00  0.00000000000E+00 -0.19276602488E+04  0.29783097683E+04  0.22703424943E+04 0.  0.
        1    1    3    3  502    0  0.96571362416E+03  0.33554611766E+03 -0.31660345805E+03  0.10702484528E+04  0.50400001928E-02 0.  1.
       -1    1    3    3    0  502 -0.96571362416E+03 -0.33554611766E+03 -0.16110567907E+04  0.19080613156E+04  0.50400001928E-02 0. -1.
</event>
<event>
 5   0  0.5843670E-05  0.1160701E+04  0.7818609E-02  0.9147968E-01
        1   -1    0    0  501    0  0.00000000000E+00  0.00000000000E+00  0.17326213128E+04  0.17326213129E+04  0.50400001928E-02 0. -1.
       -1   -1    0    0    0  501  0.00000000000E+00  0.00000000000E+00 -0.19439135401E+03  0.19439135408E+03  0.50400001928E-02 0.  1.
    10030    2    1    2    0    0  0.00000000000E+00  0.00000000000E+00  0.15382299588E+04  0.19270126669E+04  0.11607008281E+04 0.  0.
        2    1    3    3  502    0 -0.40436893349E+03 -0.19677036515E+03  0.16007679751E+03  0.47734410238E+03  0.25500000920E-02 0.  1.
       -2    1    3    3    0  502  0.40436893349E+03  0.19677036515E+03  0.13781531613E+04  0.14496685645E+04  0.25500000920E-02 0. -1.
</event>
<event>
 5   0  0.5663790E-05  0.2056332E+04  0.7818609E-02  0.8580727E-01
        1   -1    0    0  501    0  0.00000000000E+00  0.00000000000E+00  0.10619736336E+04  0.10619736336E+04  0.50400001928E-02 0. -1.
       -1   -1    0    0    0  501  0.00000000000E+00  0.00000000000E+00 -0.99543489052E+03  0.99543489054E+03  0.50400001928E-02 0.  1.
    10030    2    1    2    0    0  0.00000000000E+00  0.00000000000E+00  0.66538743038E+02  0.20574085241E+04  0.20563322763E+04 0.  0.
        3    1    3    3  502    0  0.80394981280E+03  0.57805642763E+03  0.31025548776E+03  0.10376622827E+04  0.10100000352E+00 0.  1.
       -3    1    3    3    0  502 -0.80394981280E+03 -0.57805642763E+03 -0.24371674472E+03  0.10197462414E+04  0.10100000352E+00 0. -1.
</event>
<event>
 5   0  0.5642466E-05  0.2270184E+04  0.7818609E-02  0.8489771E-01
        1   -1    0    0  501    0  0.00000000000E+00  0.00000000000E+00  0.96671408242E+03  0.96671408243E+03  0.50400001928E-02 0.  1.
       -1   -1    0    0    0  501  0.00000000000E+00  0.00000000000E+00 -0.13327967825E+04  0.13327967825E+04  0.50400001928E-02 0. -1.
    10030    2    1    2    0    0  0.00000000000E+00  0.00000000000E+00 -0.36608270005E+03  0.22995108649E+04  0.22701836213E+04 0.  0.
        1    1    3    3  502    0  0.34152116620E+03 -0.65520553603E+03 -0.10558587907E+04  0.12887081855E+04  0.50400001928E-02 0. -1.
       -1    1    3    3    0  502 -0.34152116620E+03  0.65520553603E+03  0.68977609068E+03  0.10108026794E+04  0.50400001928E-02 0.  1.
</event>
<event>
 5   0  0.1281432E-04  0.2364614E+04  0.7818609E-02  0.8452872E-01
       -2   -1    0    0    0  501  0.00000000000E+00  0.00000000000E+00  0.11284045140E+04  0.11284045140E+04  0.25500000920E-02 0. -1.
        2   -1    0    0  501    0  0.00000000000E+00  0.00000000000E+00 -0.12387840972E+04  0.12387840972E+04  0.25500000920E-02 0.  1.
    10030    2    1    2    0    0  0.00000000000E+00  0.00000000000E+00 -0.11037958321E+03  0.23671886112E+04  0.23646137674E+04 0.  0.
        4    1    3    3  502    0  0.19296574295E+03 -0.59764292662E+03 -0.10579966488E+04  0.12303541635E+04  0.12699999809E+01 0. -1.
       -4    1    3    3    0  502 -0.19296574295E+03  0.59764292662E+03  0.94761706563E+03  0.11368344478E+04  0.12699999809E+01 0.  1.
</event>
<event>
 5   0  0.5924654E-05  0.2316508E+04  0.7818609E-02  0.8471441E-01
        1   -1    0    0  501    0  0.00000000000E+00  0.00000000000E+00  0.10990537517E+04  0.10990537517E+04  0.50400001928E-02 0.  1.
       -1   -1    0    0    0  501  0.00000000000E+00  0.00000000000E+00 -0.12206431637E+04  0.12206431638E+04  0.50400001928E-02 0. -1.
    10030    2    1    2    0    0  0.00000000000E+00  0.00000000000E+00 -0.12158941204E+03  0.23196969155E+04  0.23165081037E+04 0.  0.
        5    1    3    3  502    0 -0.11892615093E+03 -0.10411341122E+04  0.43326736867E+03  0.11339516620E+04  0.46999998093E+01 0. -1.
       -5    1    3    3    0  502  0.11892615093E+03  0.10411341122E+04 -0.55485678071E+03  0.11857452535E+04  0.46999998093E+01 0.  1.
</event>
<event>
 5   0  0.5632156E-05  0.1600134E+04  0.7818609E-02  0.8820466E-01
        1   -1    0    0  501    0  0.00000000000E+00  0.00000000000E+00  0.19996314750E+04  0.19996314750E+04  0.50400001928E-02 0.  1.
       -1   -1    0    0    0  501  0.00000000000E+00  0.00000000000E+00 -0.32011254072E+03  0.32011254076E+03  0.50400001928E-02 0. -1.
    10030    2    1    2    0    0  0.00000000000E+00  0.00000000000E+00  0.16795189343E+04  0.23197440158E+04  0.16001338844E+04 0.  0.
        4    1    3    3  502    0  0.57705634720E+02  0.79733017671E+03  0.79300411377E+03  0.11260206429E+04  0.12699999809E+01 0. -1.
       -4    1    3    3    0  502 -0.57705634720E+02 -0.79733017671E+03  0.88651482054E+03  0.11937233729E+04  0.12699999809E+01 0.  1.
</event>
<event>
 5   0  0.5843670E-05  0.2293029E+04  0.7818609E-02  0.8480675E-01
        1   -1    0    0  501    0  0.00000000000E+00  0.00000000000E+00  0.11645585940E+04  0.11645585940E+04  0.50400001928E-02 0. -1.
       -1   -1    0    0    0  501  0.00000000000E+00  0.00000000000E+00 -0.11287502440E+04  0.11287502440E+04  0.50400001928E-02 0.  1.
    10030    2    1    2    0    0  0.00000000000E+00  0.00000000000E+00  0.35808350031E+02  0.22933088380E+04  0.22930292603E+04 0.  0.
        2    1    3    3  502    0 -0.12596989044E+03 -0.10056528537E+04 -0.51815531939E+03  0.11382842398E+04  0.25500000920E-02 0.  1.
       -2    1    3    3    0  502  0.12596989044E+03  0.10056528537E+04  0.55396366942E+03  0.11550245982E+04  0.25500000920E-02 0. -1.
</event>
<event>
 5   0  0.1257524E-04  0.2349345E+04  0.7818609E-02  0.8458715E-01
       -2   -1    0    0    0  501  0.00000000000E+00  0.00000000000E+00  0.20988520830E+04  0.20988520830E+04  0.25500000920E-02 0. -1.
        2   -1    0    0  501    0  0.00000000000E+00  0.00000000000E+00 -0.65743346946E+03  0.65743346946E+03  0.25500000920E-02 0.  1.
    10030    2    1    2    0    0  0.00000000000E+00  0.00000000000E+00  0.14414186135E+04  0.27562855524E+04  0.23493451060E+04 0.  0.
        3    1    3    3  502    0 -0.11353088536E+04 -0.18150929898E+03  0.10032172384E+04  0.15258822551E+04  0.10100000352E+00 0. -1.
       -3    1    3    3    0  502  0.11353088536E+04  0.18150929898E+03  0.43820137509E+03  0.12304032973E+04  0.10100000352E+00 0.  1.
</event>
<event>
 5   0  0.1281432E-04  0.2290290E+04  0.7818609E-02  0.8481759E-01
        2   -1    0    0  501    0  0.00000000000E+00  0.00000000000E+00  0.11442526989E+04  0.11442526989E+04  0.25500000920E-02 0.  1.
       -2   -1    0    0    0  501  0.00000000000E+00  0.00000000000E+00 -0.11460382203E+04  0.11460382203E+04  0.25500000920E-02 0. -1.
    10030    2    1    2    0    0  0.00000000000E+00  0.00000000000E+00 -0.17855213864E+01  0.22902909192E+04  0.22902902232E+04 0.  0.
        4    1    3    3  502    0  0.87302054350E+02 -0.11018191314E+04 -0.30044028823E+03  0.11453789882E+04  0.12699999809E+01 0. -1.
       -4    1    3    3    0  502 -0.87302054350E+02  0.11018191314E+04  0.29865476685E+03  0.11449119309E+04  0.12699999809E+01 0.  1.
</event>
<event>
 5   0  0.1237296E-04  0.2126103E+04  0.7818609E-02  0.8549831E-01
        2   -1    0    0  501    0  0.00000000000E+00  0.00000000000E+00  0.21633850483E+04  0.21633850483E+04  0.25500000920E-02 0.  1.
       -2   -1    0    0    0  501  0.00000000000E+00  0.00000000000E+00 -0.52236573405E+03  0.52236573405E+03  0.25500000920E-02 0. -1.
    10030    2    1    2    0    0  0.00000000000E+00  0.00000000000E+00  0.16410193142E+04  0.26857507823E+04  0.21261027433E+04 0.  0.
        1    1    3    3  502    0  0.34235733847E+03  0.95211409155E+03  0.40855729173E+03  0.10911685714E+04  0.50400001928E-02 0. -1.
       -1    1    3    3    0  502 -0.34235733847E+03 -0.95211409155E+03  0.12324620225E+04  0.15945822109E+04  0.50400001928E-02 0.  1.
</event>
<event>
 5   0  0.1257524E-04  0.2296014E+04  0.7818609E-02  0.8479494E-01
        2   -1    0    0  501    0  0.00000000000E+00  0.00000000000E+00  0.11430530035E+04  0.11430530035E+04  0.25500000920E-02 0. -1.
       -2   -1    0    0    0  501  0.00000000000E+00  0.00000000000E+00 -0.11529826089E+04  0.11529826089E+04  0.25500000920E-02 0.  1.
    10030    2    1    2    0    0  0.00000000000E+00  0.00000000000E+00 -0.99296054318E+01  0.22960356124E+04  0.22960141411E+04 0.  0.
        3    1    3    3  502    0  0.49733212990E+03 -0.25793297237E+03  0.99706829909E+03  0.11436843397E+04  0.10100000352E+00 0. -1.
       -3    1    3    3    0  502 -0.49733212990E+03  0.25793297237E+03 -0.10069979045E+04  0.11523512726E+04  0.10100000352E+00 0.  1.
</event>
<event>
 5   0  0.5924654E-05  0.2274676E+04  0.7818609E-02  0.8487973E-01
        1   -1    0    0  501    0  0.00000000000E+00  0.00000000000E+00  0.88152324992E+03  0.88152324993E+03  0.50400001928E-02 0. -1.
       -1   -1    0    0    0  501  0.00000000000E+00  0.00000000000E+00 -0.14673895343E+04  0.14673895343E+04  0.50400001928E-02 0.  1.
    10030    2    1    2    0    0  0.00000000000E+00  0.00000000000E+00 -0.58586628435E+03  0.23489127842E+04  0.22746762329E+04 0.  0.
        5    1    3    3  502    0 -0.10921011367E+03  0.79951427766E+03  0.53470131834E+03  0.96802764369E+03  0.46999998093E+01 0.  1.
       -5    1    3    3    0  502  0.10921011367E+03 -0.79951427766E+03 -0.11205676027E+04  0.13808851405E+04  0.46999998093E+01 0. -1.
</event>
<event>
 5   0  0.5632156E-05  0.1484867E+04  0.7818609E-02  0.8894579E-01
       -1   -1    0    0    0  501  0.00000000000E+00  0.00000000000E+00  0.23320740838E+03  0.23320740843E+03  0.50400001928E-02 0. -1.
        1   -1    0    0  501    0  0.00000000000E+00  0.00000000000E+00 -0.23635924966E+04  0.23635924966E+04  0.50400001928E-02 0.  1.
    10030    2    1    2    0    0  0.00000000000E+00  0.00000000000E+00 -0.21303850882E+04  0.25967999050E+04  0.14848667020E+04 0.  0.
        4    1    3    3  502    0 -0.70183104817E+03 -0.13619230891E+03 -0.71502832321E+03  0.10111292109E+04  0.12699999809E+01 0. -1.
       -4    1    3    3    0  502  0.70183104817E+03  0.13619230891E+03 -0.14153567650E+04  0.15856706942E+04  0.12699999809E+01 0.  1.
</event>
<event>
 5   0  0.5924654E-05  0.2284785E+04  0.7818609E-02  0.8483945E-01
       -1   -1    0    0    0  501  0.00000000000E+00  0.00000000000E+00  0.10616681749E+04  0.10616681749E+04  0.50400001928E-02 0.  1.
        1   -1    0    0  501    0  0.00000000000E+00  0.00000000000E+00 -0.12292544698E+04  0.12292544698E+04  0.50400001928E-02 0. -1.
    10030    2    1    2    0    0  0.00000000000E+00  0.00000000000E+00 -0.16758629488E+03  0.22909226447E+04  0.22847847597E+04 0.  0.
        5    1    3    3  502    0 -0.23649962431E+03 -0.80625726156E+03 -0.85985910096E+03  0.12022323434E+04  0.46999998093E+01 0. -1.
       -5    1    3    3    0  502  0.23649962431E+03  0.80625726156E+03  0.69227280608E+03  0.10886903013E+04  0.46999998093E+01 0.  1.
</event>
<event>
 5   0  0.5642466E-05  0.2118227E+04  0.7818609E-02  0.8553256E-01
       -1   -1    0    0    0  501  0.00000000000E+00  0.00000000000E+00  0.97877201209E+03  0.97877201211E+03  0.50400001928E-02 0.  1.
        1   -1    0    0  501    0  0.00000000000E+00  0.00000000000E+00 -0.11460501560E+04  0.11460501560E+04  0.50400001928E-02 0. -1.
    10030    2    1    2    0    0  0.00000000000E+00  0.00000000000E+00 -0.16727814387E+03  0.21248221681E+04  0.21182273883E+04 0.  0.
        1    1    3    3  502    0  0.92262296903E+03  0.28234054745E+03 -0.52177400659E+03  0.10969035699E+04  0.50400001928E-02 0. -1.
       -1    1    3    3    0  502 -0.92262296903E+03 -0.28234054745E+03  0.35449586272E+03  0.10279185982E+04  0.50400001928E-02 0.  1.
</event>
<event>
 5   0  0.1281432E-04  0.2267204E+04  0.7818609E-02  0.8490965E-01
       -2   -1    0    0    0  501  0.00000000000E+00  0.00000000000E+00  0.90764963287E+03  0.90764963288E+03  0.25500000920E-02 0. -1.
        2   -1    0    0  501    0  0.00000000000E+00  0.00000000000E+00 -0.14158039190E+04  0.14158039190E+04  0.25500000920E-02 0.  1.
    10030    2    1    2    0    0  0.00000000000E+00  0.00000000000E+00 -0.50815428615E+03  0.23234535519E+04  0.22672043643E+04 0.  0.
        4    1    3    3  502    0 -0.45105843483E+03 -0.25125507825E+03  0.78015333785E+03  0.93553389539E+03  0.12699999809E+01 0. -1.
       -4    1    3    3    0  502  0.45105843483E+03  0.25125507825E+03 -0.12883076240E+04  0.13879196565E+04  0.12699999809E+01 0.  1.
</event>
<event>
 5   0  0.1237296E-04  0.2070238E+04  0.7818609E-02  0.8574468E-01
        2   -1    0    0  501    0  0.00000000000E+00  0.00000000000E+00  0.11706963212E+04  0.11706963212E+04  0.25500000920E-02 0.  1.
       -2   -1    0    0    0  501  0.00000000000E+00  0.00000000000E+00 -0.91524255585E+03  0.91524255585E+03  0.25500000920E-02 0. -1.
    10030    2    1    2    0    0  0.00000000000E+00  0.00000000000E+00  0.25545376539E+03  0.20859388771E+04  0.20702377575E+04 0.  0.
        1    1    3    3  502    0  0.27375984874E+03  0.41538534180E+03 -0.78689191931E+03  0.93096097107E+03  0.50400001928E-02 0. -1.
       -1    1    3    3    0  502 -0.27375984874E+03 -0.41538534180E+03  0.10423456847E+04  0.11549779060E+04  0.50400001928E-02 0.  1.
</event>
<event>
 5   0  0.1270613E-04  0.2270652E+04  0.7818609E-02  0.8489583E-01
       -2   -1    0    0    0  501  0.00000000000E+00  0.00000000000E+00  0.98014833041E+03  0.98014833041E+03  0.25500000920E-02 0.  1.
        2   -1    0    0  501    0  0.00000000000E+00  0.00000000000E+00 -0.13150709752E+04  0.13150709752E+04  0.25500000920E-02 0. -1.
    10030    2    1    2    0    0  0.00000000000E+00  0.00000000000E+00 -0.33492264480E+03  0.22952193056E+04  0.22706515547E+04 0.  0.
        2    1    3    3  502    0 -0.12920901586E+03  0.11262032158E+04 -0.10404523372E+03  0.11383558599E+04  0.25500000920E-02 0.  1.
       -2    1    3    3    0  502  0.12920901586E+03 -0.11262032158E+04 -0.23087741107E+03  0.11568634457E+04  0.25500000920E-02 0. -1.
</event>
<event>
 5   0  0.5663790E-05  0.2203014E+04  0.7818609E-02  0.8517175E-01
        1   -1    0    0  501    0  0.00000000000E+00  0.00000000000E+00  0.16308225826E+04  0.16308225826E+04  0.50400001928E-02 0. -1.
       -1   -1    0    0    0  501  0.00000000000E+00  0.00000000000E+00 -0.74399139997E+03  0.74399139999E+03  0.50400001928E-02 0.  1.
    10030    2    1    2    0    0  0.00000000000E+00  0.00000000000E+00  0.88683118260E+03  0.23748139826E+04  0.22030142772E+04 0.  0.
        3    1    3    3  502    0 -0.46381365268E+03  0.50612248609E+03  0.13720065458E+04  0.15341724308E+04  0.10100000352E+00 0. -1.
       -3    1    3    3    0  502  0.46381365268E+03 -0.50612248609E+03 -0.48517536322E+03  0.84064155180E+03  0.10100000352E+00 0.  1.
</event>
<event>
 5   0  0.1257524E-04  0.2277869E+04  0.7818609E-02  0.8486698E-01
        2   -1    0    0  501    0  0.00000000000E+00  0.00000000000E+00  0.17043967743E+04  0.17043967743E+04  0.25500000920E-02 0.  1.
       -2   -1    0    0    0  501  0.00000000000E+00  0.00000000000E+00 -0.76107388419E+03  0.76107388419E+03  0.25500000920E-02 0. -1.
    10030    2    1    2    0    0  0.00000000000E+00  0.00000000000E+00  0.94332289013E+03  0.24654706585E+04  0.22778690684E+04 0.  0.
        3    1    3    3  502    0 -0.30660539479E+03  0.40535715910E+03 -0.63152171044E+03  0.81064232280E+03  0.10100000352E+00 0. -1.
       -3    1    3    3    0  502  0.30660539479E+03 -0.40535715910E+03  0.15748446006E+04  0.16548283357E+04  0.10100000352E+00 0.  1.
</event>
<event>
 5   0  0.1234988E-04  0.2396569E+04  0.7818609E-02  0.8440789E-01
       -2   -1    0    0    0  501  0.00000000000E+00  0.00000000000E+00  0.14083082678E+04  0.14083082678E+04  0.25500000920E-02 0.  1.
        2   -1    0    0  501    0  0.00000000000E+00  0.00000000000E+00 -0.10195821338E+04  0.10195821338E+04  0.25500000920E-02 0. -1.
    10030    2    1    2    0    0  0.00000000000E+00  0.00000000000E+00  0.38872613395E+03  0.24278904016E+04  0.23965691717E+04 0.  0.
        5    1    3    3  502    0 -0.10471099043E+04 -0.54846475790E+03 -0.47021073681E+01  0.11820731543E+04  0.46999998093E+01 0. -1.
       -5    1    3    3    0  502  0.10471099043E+04  0.54846475790E+03  0.39342824132E+03  0.12458172472E+04  0.46999998093E+01 0.  1.
</event>
<event>
 5   0  0.1237296E-04  0.2295805E+04  0.7818609E-02  0.8479577E-01
        2   -1    0    0  501    0  0.00000000000E+00  0.00000000000E+00  0.14827080970E+04  0.14827080970E+04  0.25500000920E-02 0. -1.
       -2   -1    0    0    0  501  0.00000000000E+00  0.00000000000E+00 -0.88869838934E+03  0.88869838934E+03  0.25500000920E-02 0.  1.
    10030    2    1    2    0    0  0.00000000000E+00  0.00000000000E+00  0.59400970768E+03  0.23714064864E+04  0.22958051291E+04 0.  0.
        1    1    3    3  502    0  0.26115039521E+03 -0.68374761377E+03 -0.61640568687E+03  0.95690454022E+03  0.50400001928E-02 0.  1.
       -1    1    3    3    0  502 -0.26115039521E+03  0.68374761377E+03  0.12104153946E+04  0.14145019461E+04  0.50400001928E-02 0. -1.
</event>
<event>
 5   0  0.5663790E-05  0.1325163E+04  0.7818609E-02  0.9009845E-01
       -1   -1    0    0    0  501  0.00000000000E+00  0.00000000000E+00  0.86837973204E+03  0.86837973205E+03  0.50400001928E-02 0. -1.
        1   -1    0    0  501    0  0.00000000000E+00  0.00000000000E+00 -0.50555594650E+03  0.50555594652E+03  0.50400001928E-02 0.  1.
    10030    2    1    2    0    0  0.00000000000E+00  0.00000000000E+00  0.36282378554E+03  0.13739356786E+04  0.13251634426E+04 0.  0.
        3    1    3    3  502    0  0.29234342818E+03  0.16227755232E+03  0.77449303688E+03  0.84358648541E+03  0.10100000352E+00 0. -1.
       -3    1    3    3    0  502 -0.29234342818E+03 -0.16227755232E+03 -0.41166925134E+03  0.53034919317E+03  0.10100000352E+00 0.  1.
</event>
<event>
 5   0  0.5632156E-05  0.2109005E+04  0.7818609E-02  0.8557287E-01
        1   -1    0    0  501    0  0.00000000000E+00  0.00000000000E+00  0.65722651403E+03  0.65722651405E+03  0.50400001928E-02 0. -1.
       -1   -1    0    0    0  501  0.00000000000E+00  0.00000000000E+00 -0.16919212245E+04  0.16919212245E+04  0.50400001928E-02 0.  1.
    10030    2    1    2    0    0  0.00000000000E+00  0.00000000000E+00 -0.10346947105E+04  0.23491477385E+04  0.21090049677E+04 0.  0.
        4    1    3    3  502    0  0.62119145938E+03  0.66548754862E+03 -0.11101303502E+04  0.14356683161E+04  0.12699999809E+01 0.  1.
       -4    1    3    3    0  502 -0.62119145938E+03 -0.66548754862E+03  0.75435639720E+02  0.91347942244E+03  0.12699999809E+01 0. -1.
</event>
<event>
 5   0  0.5663790E-05  0.2334636E+04  0.7818609E-02  0.8464388E-01
       -1   -1    0    0    0  501  0.00000000000E+00  0.00000000000E+00  0.81655435123E+03  0.81655435124E+03  0.50400001928E-02 0.  1.
        1   -1    0    0  501    0  0.00000000000E+00  0.00000000000E+00 -0.16687581662E+04  0.16687581663E+04  0.50400001928E-02 0. -1.
    10030    2    1    2    0    0  0.00000000000E+00  0.00000000000E+00 -0.85220381502E+03  0.24853125175E+04  0.23346363672E+04 0.  0.
        3    1    3    3  502    0  0.22415946627E+03 -0.11384698436E+04 -0.56189091656E+03  0.12892177719E+04  0.10100000352E+00 0. -1.
       -3    1    3    3    0  502 -0.22415946627E+03  0.11384698436E+04 -0.29031289846E+03  0.11960947456E+04  0.10100000352E+00 0.  1.
</event>
<event>
 5   0  0.1281432E-04  0.2268128E+04  0.7818609E-02  0.8490595E-01
       -2   -1    0    0    0  501  0.00000000000E+00  0.00000000000E+00  0.23136313366E+04  0.23136313366E+04  0.25500000920E-02 0. -1.
        2   -1    0    0  501    0  0.00000000000E+00  0.00000000000E+00 -0.55587980263E+03  0.55587980264E+03  0.25500000920E-02 0.  1.
    10030    2    1    2    0    0  0.00000000000E+00  0.00000000000E+00  0.17577515339E+04  0.28695111392E+04  0.22681278013E+04 0.  0.
        4    1    3    3  502    0 -0.32755172048E+03 -0.63690805175E+03  0.19913099606E+04  0.21161897287E+04  0.12699999809E+01 0. -1.
       -4    1    3    3    0  502  0.32755172048E+03  0.63690805175E+03 -0.23355842663E+03  0.75332141050E+03  0.12699999809E+01 0.  1.
</event>
<event>
 5   0  0.1234988E-04  0.1606950E+04  0.7818609E-02  0.8816290E-01
        2   -1    0    0  501    0  0.00000000000E+00  0.00000000000E+00  0.47563081182E+03  0.47563081183E+03  0.25500000920E-02 0. -1.
       -2   -1    0    0    0  501  0.00000000000E+00  0.00000000000E+00 -0.13572966190E+04  0.13572966190E+04  0.25500000920E-02 0.  1.
    10030    2    1    2    0    0  0.00000000000E+00  0.00000000000E+00 -0.88166580722E+03  0.18329274309E+04  0.16069500214E+04 0.  0.
        5    1    3    3  502    0 -0.17733721718E+03  0.65695022921E+03  0.46466236689E+02  0.68206546123E+03  0.46999998093E+01 0. -1.
       -5    1    3    3    0  502  0.17733721718E+03 -0.65695022921E+03 -0.92813204390E+03  0.11508619696E+04  0.46999998093E+01 0.  1.
</event>
<event>
 5   0  0.1270613E-04  0.2225040E+04  0.7818609E-02  0.8508077E-01
        2   -1    0    0  501    0  0.00000000000E+00  0.00000000000E+00  0.95287098638E+03  0.95287098638E+03  0.25500000920E-02 0. -1.
       -2   -1    0    0    0  501  0.00000000000E+00  0.00000000000E+00 -0.12989180294E+04  0.12989180294E+04  0.25500000920E-02 0.  1.
    10030    2    1    2    0    0  0.00000000000E+00  0.00000000000E+00 -0.34604704299E+03  0.22517890158E+04  0.22250404975E+04 0.  0.
        2    1    3    3  502    0  0.90379645110E+03  0.30504081494E+03  0.40640049213E+03  0.10368506565E+04  0.25500000920E-02 0. -1.
       -2    1    3    3    0  502 -0.90379645110E+03 -0.30504081494E+03 -0.75244753512E+03  0.12149383593E+04  0.25500000920E-02 0.  1.
</event>
<event>
 5   0  0.1257524E-04  0.2262671E+04  0.7818609E-02  0.8492787E-01
        2   -1    0    0  501    0  0.00000000000E+00  0.00000000000E+00  0.23052061619E+04  0.23052061619E+04  0.25500000920E-02 0. -1.
       -2   -1    0    0    0  501  0.00000000000E+00  0.00000000000E+00 -0.55523009717E+03  0.55523009718E+03  0.25500000920E-02 0.  1.
    10030    2    1    2    0    0  0.00000000000E+00  0.00000000000E+00  0.17499760647E+04  0.28604362591E+04  0.22626708477E+04 0.  0.
        3    1    3    3  502    0  0.33434519355E+03 -0.74323929057E+03  0.18669739661E+04  0.20371016548E+04  0.10100000352E+00 0. -1.
       -3    1    3    3    0  502 -0.33434519355E+03  0.74323929057E+03 -0.11699790140E+03  0.82333460430E+03  0.10100000352E+00 0.  1.
</event>
<event>
 5   0  0.1270613E-04  0.2314139E+04  0.7818609E-02  0.8472367E-01
        2   -1    0    0  501    0  0.00000000000E+00  0.00000000000E+00  0.12057401473E+04  0.12057401473E+04  0.25500000920E-02 0. -1.
       -2   -1    0    0    0  501  0.00000000000E+00  0.00000000000E+00 -0.11103630645E+04  0.11103630645E+04  0.25500000920E-02 0.  1.
    10030    2    1    2    0    0  0.00000000000E+00  0.00000000000E+00  0.95377082742E+02  0.23161032118E+04  0.23141385654E+04 0.  0.
        2    1    3    3  502    0 -0.63837793930E+03 -0.86614672597E+03 -0.37819919474E+03  0.11405135577E+04  0.25500000920E-02 0.  1.
       -2    1    3    3    0  502  0.63837793930E+03  0.86614672597E+03  0.47357627748E+03  0.11755896541E+04  0.25500000920E-02 0. -1.
</event>
<event>
 5   0  0.1257524E-04  0.2260887E+04  0.7818609E-02  0.8493504E-01
        2   -1    0    0  501    0  0.00000000000E+00  0.00000000000E+00  0.15779640859E+04  0.15779640860E+04  0.25500000920E-02 0.  1.
       -2   -1    0    0    0  501  0.00000000000E+00  0.00000000000E+00 -0.80984274834E+03  0.80984274834E+03  0.25500000920E-02 0. -1.
    10030    2    1    2    0    0  0.00000000000E+00  0.00000000000E+00  0.76812133761E+03  0.23878068343E+04  0.22608872348E+04 0.  0.
        3    1    3    3  502    0  0.22295771198E+03  0.51639224420E+01  0.15544997546E+04  0.15704159655E+04  0.10100000352E+00 0.  1.
       -3    1    3    3    0  502 -0.22295771198E+03 -0.51639224420E+01 -0.78637841701E+03  0.81739086878E+03  0.10100000352E+00 0. -1.
</event>
<event>
 5   0  0.1257524E-04  0.2336893E+04  0.7818609E-02  0.8463515E-01
        2   -1    0    0  501    0  0.00000000000E+00  0.00000000000E+00  0.25146552494E+04  0.25146552494E+04  0.25500000920E-02 0. -1.
       -2   -1    0    0    0  501  0.00000000000E+00  0.00000000000E+00 -0.54292430343E+03  0.54292430344E+03  0.25500000920E-02 0.  1.
    10030    2    1    2    0    0  0.00000000000E+00  0.00000000000E+00  0.19717309460E+04  0.30575795529E+04  0.23368931937E+04 0.  0.
        3    1    3    3  502    0  0.96981613862E+03 -0.17839640896E+03  0.18059889852E+04  0.20576600415E+04  0.10100000352E+00 0. -1.
       -3    1    3    3    0  502 -0.96981613862E+03  0.17839640896E+03  0.16574196077E+03  0.99991951136E+03  0.10100000352E+00 0.  1.
</event>
<event>
 5   0  0.1281432E-04  0.2307870E+04  0.7818609E-02  0.8474824E-01
        2   -1    0    0  501    0  0.00000000000E+00  0.00000000000E+00  0.18320615928E+04  0.18320615928E+04  0.25500000920E-02 0. -1.
       -2   -1    0    0    0  501  0.00000000000E+00  0.00000000000E+00 -0.72681296839E+03  0.72681296839E+03  0.25500000920E-02 0.  1.
    10030    2    1    2    0    0  0.00000000000E+00  0.00000000000E+00  0.11052486244E+04  0.25588745612E+04  0.23078701216E+04 0.  0.
        4    1    3    3  502    0 -0.35944538467E+03  0.63942895686E+03 -0.43504029915E+03  0.85283764588E+03  0.12699999809E+01 0.  1.
       -4    1    3    3    0  502  0.35944538467E+03 -0.63942895686E+03  0.15402889235E+04  0.17060369153E+04  0.12699999809E+01 0. -1.
</event>
<event>
 5   0  0.5663790E-05  0.2283087E+04  0.7818609E-02  0.8484620E-01
       -1   -1    0    0    0  501  0.00000000000E+00  0.00000000000E+00  0.93909707749E+03  0.93909707750E+03  0.50400001928E-02 0. -1.
        1   -1    0    0  501    0  0.00000000000E+00  0.00000000000E+00 -0.13876328895E+04  0.13876328895E+04  0.50400001928E-02 0.  1.
    10030    2    1    2    0    0  0.00000000000E+00  0.00000000000E+00 -0.44853581204E+03  0.23267299670E+04  0.22830873757E+04 0.  0.
        3    1    3    3  502    0 -0.12601427082E+03  0.11239293666E+04 -0.66304450197E+02  0.11329135483E+04  0.10100000352E+00 0. -1.
       -3    1    3    3    0  502  0.12601427082E+03 -0.11239293666E+04 -0.38223136185E+03  0.11938164188E+04  0.10100000352E+00 0.  1.
</event>
<event>
 5   0  0.5843670E-05  0.2309537E+04  0.7818609E-02  0.8474170E-01
        1   -1    0    0  501    0  0.00000000000E+00  0.00000000000E+00  0.14234013684E+04  0.14234013684E+04  0.50400001928E-02 0. -1.
       -1   -1    0    0    0  501  0.00000000000E+00  0.00000000000E+00 -0.93683362306E+03  0.93683362307E+03  0.50400001928E-02 0.  1.
    10030    2    1    2    0    0  0.00000000000E+00  0.00000000000E+00  0.48656774538E+03  0.23602349915E+04  0.23095369762E+04 0.  0.
        2    1    3    3  502    0  0.71673542686E+03 -0.30567669562E+03 -0.62768173741E+03  0.10005659788E+04  0.25500000920E-02 0.  1.
       -2    1    3    3    0  502 -0.71673542686E+03  0.30567669562E+03  0.11142494828E+04  0.13596690128E+04  0.25500000920E-02 0. -1.
</event>
<event>
 5   0  0.5843670E-05  0.2308064E+04  0.7818609E-02  0.8474748E-01
       -1   -1    0    0    0  501  0.00000000000E+00  0.00000000000E+00  0.13611550657E+04  0.13611550657E+04  0.50400001928E-02 0. -1.
        1   -1    0    0  501    0  0.00000000000E+00  0.00000000000E+00 -0.97842645003E+03  0.97842645004E+03  0.50400001928E-02 0.  1.
    10030    2    1    2    0    0  0.00000000000E+00  0.00000000000E+00  0.38272861567E+03  0.23395815157E+04  0.23080642269E+04 0.  0.
        2    1    3    3  502    0 -0.48774853323E+03 -0.89817724844E+03 -0.35183493823E+03  0.10809296115E+04  0.25500000920E-02 0.  1.
       -2    1    3    3    0  502  0.48774853323E+03  0.89817724844E+03  0.73456355390E+03  0.12586519042E+04  0.25500000920E-02 0. -1.
</event>
<event>
 5   0  0.5663790E-05  0.2387041E+04  0.7818609E-02  0.8444371E-01
       -1   -1    0    0    0  501  0.00000000000E+00  0.00000000000E+00  0.83590525428E+03  0.83590525429E+03  0.50400001928E-02 0. -1.
        1   -1    0    0  501    0  0.00000000000E+00  0.00000000000E+00 -0.17041292498E+04  0.17041292498E+04  0.50400001928E-02 0.  1.
    10030    2    1    2    0    0  0.00000000000E+00  0.00000000000E+00 -0.86822399549E+03  0.25400345041E+04  0.23870405056E+04 0.  0.
        3    1    3    3  502    0 -0.19843202999E+03  0.71467771294E+03  0.56088725116E+03  0.92991076056E+03  0.10100000352E+00 0. -1.
       -3    1    3    3    0  502  0.19843202999E+03 -0.71467771294E+03 -0.14291112466E+04  0.16101237435E+04  0.10100000352E+00 0.  1.
</event>
<event>
 5   0  0.1237296E-04  0.2304994E+04  0.7818609E-02  0.8475955E-01
       -2   -1    0    0    0  501  0.00000000000E+00  0.00000000000E+00  0.10251918299E+04  0.10251918299E+04  0.25500000920E-02 0. -1.
        2   -1    0    0  501    0  0.00000000000E+00  0.00000000000E+00 -0.12956100416E+04  0.12956100416E+04  0.25500000920E-02 0.  1.
    10030    2    1    2    0    0  0.00000000000E+00  0.00000000000E+00 -0.27041821172E+03  0.23208018715E+04  0.23049935613E+04 0.  0.
        1    1    3    3  502    0 -0.35888538834E+01 -0.71326866477E+03  0.77625280688E+03  0.10541980308E+04  0.50400001928E-02 0. -1.
       -1    1    3    3    0  502  0.35888538834E+01  0.71326866477E+03 -0.10466710186E+04  0.12666038407E+04  0.50400001928E-02 0.  1.
</event>
<event>
 5   0  0.5663790E-05  0.2323255E+04  0.7818609E-02  0.8468808E-01
       -1   -1    0    0    0  501  0.00000000000E+00  0.00000000000E+00  0.87469647765E+03  0.87469647766E+03  0.50400001928E-02 0.  1.
        1   -1    0    0  501    0  0.00000000000E+00  0.00000000000E+00 -0.15426815226E+04  0.15426815226E+04  0.50400001928E-02 0. -1.
    10030    2    1    2    0    0  0.00000000000E+00  0.00000000000E+00 -0.66798504491E+03  0.24173780002E+04  0.23232546946E+04 0.  0.
        3    1    3    3  502    0 -0.11425376268E+04 -0.11197269853E+03 -0.51851277869E+03  0.12596767942E+04  0.10100000352E+00 0. -1.
       -3    1    3    3    0  502  0.11425376268E+04  0.11197269853E+03 -0.14947226622E+03  0.11577012061E+04  0.10100000352E+00 0.  1.
</event>
<event>
 5   0  0.1257524E-04  0.2280885E+04  0.7818609E-02  0.8485496E-01
        2   -1    0    0  501    0  0.00000000000E+00  0.00000000000E+00  0.24808797752E+04  0.24808797752E+04  0.25500000920E-02 0. -1.
       -2   -1    0    0    0  501  0.00000000000E+00  0.00000000000E+00 -0.52425306999E+03  0.52425307000E+03  0.25500000920E-02 0.  1.
    10030    2    1    2    0    0  0.00000000000E+00  0.00000000000E+00  0.19566267052E+04  0.30051328452E+04  0.22808847743E+04 0.  0.
        3    1    3    3  502    0 -0.23606413005E+03 -0.96623170442E+03  0.24323245932E+03  0.10239589931E+04  0.10100000352E+00 0.  1.
       -3    1    3    3    0  502  0.23606413005E+03  0.96623170442E+03  0.17133942459E+04  0.19811738521E+04  0.10100000352E+00 0. -1.
</event>
<event>
 5   0  0.5642466E-05  0.2343205E+04  0.7818609E-02  0.8461078E-01
        1   -1    0    0  501    0  0.00000000000E+00  0.00000000000E+00  0.99253553614E+03  0.99253553615E+03  0.50400001928E-02 0. -1.
       -1   -1    0    0    0  501  0.00000000000E+00  0.00000000000E+00 -0.13829757808E+04  0.13829757808E+04  0.50400001928E-02 0.  1.
    10030    2    1    2    0    0  0.00000000000E+00  0.00000000000E+00 -0.39044024468E+03  0.23755113170E+04  0.23432051623E+04 0.  0.
        1    1    3    3  502    0 -0.65999345599E+03  0.27851026311E+03  0.74465040453E+03  0.10332780621E+04  0.50400001928E-02 0. -1.
       -1    1    3    3    0  502  0.65999345599E+03 -0.27851026311E+03 -0.11350906492E+04  0.13422332549E+04  0.50400001928E-02 0.  1.
</event>
<event>
 5   0  0.1281432E-04  0.2328911E+04  0.7818609E-02  0.8466608E-01
       -2   -1    0    0    0  501  0.00000000000E+00  0.00000000000E+00  0.61735232378E+03  0.61735232378E+03  0.25500000920E-02 0. -1.
        2   -1    0    0  501    0  0.00000000000E+00  0.00000000000E+00 -0.21964061567E+04  0.21964061567E+04  0.25500000920E-02 0.  1.
    10030    2    1    2    0    0  0.00000000000E+00  0.00000000000E+00 -0.15790538329E+04  0.28137584805E+04  0.23289108569E+04 0.  0.
        4    1    3    3  502    0  0.10154152524E+04  0.45286270722E+03 -0.12077096569E+04  0.16415593180E+04  0.12699999809E+01 0.  1.
       -4    1    3    3    0  502 -0.10154152524E+04 -0.45286270722E+03 -0.37134417599E+03  0.11721991624E+04  0.12699999809E+01 0. -1.
</event>
<event>
 5   0  0.1281432E-04  0.2565243E+04  0.7818609E-02  0.8380104E-01
        2   -1    0    0  501    0  0.00000000000E+00  0.00000000000E+00  0.13780574757E+04  0.13780574757E+04  0.25500000920E-02 0.  1.
       -2   -1    0    0    0  501  0.00000000000E+00  0.00000000000E+00 -0.11937950540E+04  0.11937950540E+04  0.25500000920E-02 0. -1.
    10030    2    1    2    0    0  0.00000000000E+00  0.00000000000E+00  0.18426242170E+03  0.25718525297E+04  0.25652432233E+04 0.  0.
        4    1    3    3  502    0 -0.10891100423E+04 -0.64587393284E+03  0.29711523480E+03  0.13006125084E+04  0.12699999809E+01 0. -1.
       -4    1    3    3    0  502  0.10891100423E+04  0.64587393284E+03 -0.11285281310E+03  0.12712400213E+04  0.12699999809E+01 0.  1.
</event>
<event>
 5   0  0.5924654E-05  0.2347697E+04  0.7818609E-02  0.8459349E-01
        1   -1    0    0  501    0  0.00000000000E+00  0.00000000000E+00  0.17851155374E+04  0.17851155374E+04  0.50400001928E-02 0.  1.
       -1   -1    0    0    0  501  0.00000000000E+00  0.00000000000E+00 -0.77189396198E+03  0.77189396199E+03  0.50400001928E-02 0. -1.
    10030    2    1    2    0    0  0.00000000000E+00  0.00000000000E+00  0.10132215754E+04  0.25570094994E+04  0.23476966625E+04 0.  0.
        5    1    3    3  502    0 -0.53844741245E+03 -0.80664187513E+03 -0.21363484883E+03  0.99310556807E+03  0.46999998093E+01 0. -1.
       -5    1    3    3    0  502  0.53844741245E+03  0.80664187513E+03  0.12268564242E+04  0.15639039313E+04  0.46999998093E+01 0.  1.
</event>
<event>
 5   0  0.5663790E-05  0.2394307E+04  0.7818609E-02  0.8441638E-01
       -1   -1    0    0    0  501  0.00000000000E+00  0.00000000000E+00  0.86605667073E+03  0.86605667074E+03  0.50400001928E-02 0.  1.
        1   -1    0    0  501    0  0.00000000000E+00  0.00000000000E+00 -0.16548298584E+04  0.16548298584E+04  0.50400001928E-02 0. -1.
    10030    2    1    2    0    0  0.00000000000E+00  0.00000000000E+00 -0.78877318771E+03  0.25208865292E+04  0.23943069459E+04 0.  0.
        3    1    3    3  502    0  0.72294411844E+03 -0.64341959144E+02  0.60798933169E+03  0.94680469145E+03  0.10100000352E+00 0.  1.
       -3    1    3    3    0  502 -0.72294411844E+03  0.64341959144E+02 -0.13967625194E+04  0.15740818377E+04  0.10100000352E+00 0. -1.
</event>
<event>
 5   0  0.5843670E-05  0.2297853E+04  0.7818609E-02  0.8478768E-01
        1   -1    0    0  501    0  0.00000000000E+00  0.00000000000E+00  0.11249972332E+04  0.11249972332E+04  0.50400001928E-02 0.  1.
       -1   -1    0    0    0  501  0.00000000000E+00  0.00000000000E+00 -0.11733642507E+04  0.11733642507E+04  0.50400001928E-02 0. -1.
    10030    2    1    2    0    0  0.00000000000E+00  0.00000000000E+00 -0.48367017486E+02  0.22983614839E+04  0.22978525066E+04 0.  0.
        2    1    3    3  502    0  0.31078827074E+03  0.16509117244E+02 -0.11303984800E+04  0.11724600734E+04  0.25500000920E-02 0. -1.
       -2    1    3    3    0  502 -0.31078827074E+03 -0.16509117244E+02  0.10820314625E+04  0.11259014105E+04  0.25500000920E-02 0.  1.
</event>
<event>
 5   0  0.1281432E-04  0.1770876E+04  0.7818609E-02  0.8721943E-01
       -2   -1    0    0    0  501  0.00000000000E+00  0.00000000000E+00  0.44093864342E+03  0.44093864342E+03  0.25500000920E-02 0.  1.
        2   -1    0    0  501    0  0.00000000000E+00  0.00000000000E+00 -0.17780254085E+04  0.17780254085E+04  0.25500000920E-02 0. -1.
    10030    2    1    2    0    0  0.00000000000E+00  0.00000000000E+00 -0.13370867651E+04  0.22189640520E+04  0.17708756157E+04 0.  0.
        4    1    3    3  502    0 -0.70723129809E+03 -0.20323926118E+03 -0.51476016430E+02  0.73765418690E+03  0.12699999809E+01 0.  1.
       -4    1    3    3    0  502  0.70723129809E+03  0.20323926118E+03 -0.12856107487E+04  0.14813098651E+04  0.12699999809E+01 0. -1.
</event>
<event>
 5   0  0.5663790E-05  0.2107744E+04  0.7818609E-02  0.8557840E-01
       -1   -1    0    0    0  501  0.00000000000E+00  0.00000000000E+00  0.17289715182E+04  0.17289715182E+04  0.50400001928E-02 0.  1.
        1   -1    0    0  501    0  0.00000000000E+00  0.00000000000E+00 -0.64237371730E+03  0.64237371732E+03  0.50400001928E-02 0. -1.
    10030    2    1    2    0    0  0.00000000000E+00  0.00000000000E+00  0.10865978009E+04  0.23713452356E+04  0.21077436858E+04 0.  0.
        3    1    3    3  502    0 -0.89972368264E+03 -0.54780340520E+03  0.50676333976E+03  0.11689312934E+04  0.10100000352E+00 0. -1.
       -3    1    3    3    0  502  0.89972368264E+03  0.54780340520E+03  0.57983446118E+03  0.12024139422E+04  0.10100000352E+00 0.  1.
</event>
<event>
 5   0  0.1270613E-04  0.2208341E+04  0.7818609E-02  0.8514964E-01
        2   -1    0    0  501    0  0.00000000000E+00  0.00000000000E+00  0.11335403251E+04  0.11335403251E+04  0.25500000920E-02 0.  1.
       -2   -1    0    0    0  501  0.00000000000E+00  0.00000000000E+00 -0.10755618476E+04  0.10755618476E+04  0.25500000920E-02 0. -1.
    10030    2    1    2    0    0  0.00000000000E+00  0.00000000000E+00  0.57978477519E+02  0.22091021727E+04  0.22083412113E+04 0.  0.
        2    1    3    3  502    0  0.45572899618E+03  0.23475819361E+03 -0.94930091736E+03  0.10788755995E+04  0.25500000920E-02 0. -1.
       -2    1    3    3    0  502 -0.45572899618E+03 -0.23475819361E+03  0.10072793949E+04  0.11302265732E+04  0.25500000920E-02 0.  1.
</event>
<event>
 5   0  0.1281432E-04  0.2265145E+04  0.7818609E-02  0.8491792E-01
        2   -1    0    0  501    0  0.00000000000E+00  0.00000000000E+00  0.15468134307E+04  0.15468134307E+04  0.25500000920E-02 0.  1.
       -2   -1    0    0    0  501  0.00000000000E+00  0.00000000000E+00 -0.82926668008E+03  0.82926668008E+03  0.25500000920E-02 0. -1.
    10030    2    1    2    0    0  0.00000000000E+00  0.00000000000E+00  0.71754675057E+03  0.23760801107E+04  0.22651453272E+04 0.  0.
        4    1    3    3  502    0  0.83419197089E+03  0.59612073777E+02  0.11599108435E+04  0.14299736436E+04  0.12699999809E+01 0. -1.
       -4    1    3    3    0  502 -0.83419197089E+03 -0.59612073777E+02 -0.44236409289E+03  0.94610646716E+03  0.12699999809E+01 0.  1.
</event>
<event>
 5   0  0.5924654E-05  0.2336639E+04  0.7818609E-02  0.8463613E-01
       -1   -1    0    0    0  501  0.00000000000E+00  0.00000000000E+00  0.81943382195E+03  0.81943382197E+03  0.50400001928E-02 0. -1.
        1   -1    0    0  501    0  0.00000000000E+00  0.00000000000E+00 -0.16657478881E+04  0.16657478881E+04  0.50400001928E-02 0.  1.
    10030    2    1    2    0    0  0.00000000000E+00  0.00000000000E+00 -0.84631406617E+03  0.24851817101E+04  0.23366387469E+04 0.  0.
        5    1    3    3  502    0 -0.14003830627E+02  0.39718639652E+03 -0.15916316894E+04  0.16405080510E+04  0.46999998093E+01 0.  1.
       -5    1    3    3    0  502  0.14003830627E+02 -0.39718639652E+03  0.74531762321E+03  0.84467365907E+03  0.46999998093E+01 0. -1.
</event>
<event>
 5   0  0.4489500E-05  0.1272772E+04  0.7818609E-02  0.9051441E-01
       -4   -1    0    0    0  501  0.00000000000E+00  0.00000000000E+00  0.91429224010E+03  0.91429312215E+03  0.12699999809E+01 0.  1.
        4   -1    0    0  501    0  0.00000000000E+00  0.00000000000E+00 -0.44294922962E+03  0.44295105026E+03  0.12699999809E+01 0. -1.
    10030    2    1    2    0    0  0.00000000000E+00  0.00000000000E+00  0.47134301048E+03  0.13572441724E+04  0.12727715860E+04 0.  0.
        1    1    3    3  502    0  0.51424542296E+03 -0.35837822289E+03  0.35298940776E+03  0.71936418293E+03  0.50400001928E-02 0.  1.
       -1    1    3    3    0  502 -0.51424542296E+03  0.35837822289E+03  0.11835360273E+03  0.63787998948E+03  0.50400001928E-02 0. -1.
</event>
<event>
 5   0  0.1270613E-04  0.2322775E+04  0.7818609E-02  0.8468995E-01
       -2   -1    0    0    0  501  0.00000000000E+00  0.00000000000E+00  0.78964605843E+03  0.78964605844E+03  0.25500000920E-02 0. -1.
        2   -1    0    0  501    0  0.00000000000E+00  0.00000000000E+00 -0.17081337421E+04  0.17081337422E+04  0.25500000920E-02 0.  1.
    10030    2    1    2    0    0  0.00000000000E+00  0.00000000000E+00 -0.91848768372E+03  0.24977798006E+04  0.23227751305E+04 0.  0.
        2    1    3    3  502    0  0.71744743175E+03  0.68418143806E+03 -0.11097916672E+04  0.14881104133E+04  0.25500000920E-02 0.  1.
       -2    1    3    3    0  502 -0.71744743175E+03 -0.68418143806E+03  0.19130398352E+03  0.10096693873E+04  0.25500000920E-02 0. -1.
</event>
<event>
 5   0  0.1257524E-04  0.2263456E+04  0.7818609E-02  0.8492471E-01
       -2   -1    0    0    0  501  0.00000000000E+00  0.00000000000E+00  0.90910862837E+03  0.90910862837E+03  0.25500000920E-02 0.  1.
        2   -1    0    0  501    0  0.00000000000E+00  0.00000000000E+00 -0.14088611674E+04  0.14088611674E+04  0.25500000920E-02 0. -1.
    10030    2    1    2    0    0  0.00000000000E+00  0.00000000000E+00 -0.49975253905E+03  0.23179697958E+04  0.22634556267E+04 0.  0.
        3    1    3    3  502    0  0.59013407915E+03 -0.54315852229E+03 -0.10675603887E+04  0.13352769770E+04  0.10100000352E+00 0. -1.
       -3    1    3    3    0  502 -0.59013407915E+03  0.54315852229E+03  0.56780784964E+03  0.98269281875E+03  0.10100000352E+00 0.  1.
</event>
<event>
 5   0  0.1234988E-04  0.2335498E+04  0.7818609E-02  0.8464055E-01
        2   -1    0    0  501    0  0.00000000000E+00  0.00000000000E+00  0.11475206732E+04  0.11475206732E+04  0.25500000920E-02 0. -1.
       -2   -1    0    0    0  501  0.00000000000E+00  0.00000000000E+00 -0.11883341968E+04  0.11883341968E+04  0.25500000920E-02 0.  1.
    10030    2    1    2    0    0  0.00000000000E+00  0.00000000000E+00 -0.40813523669E+02  0.23358548700E+04  0.23354982830E+04 0.  0.
        5    1    3    3  502    0 -0.10890867227E+04 -0.31951212419E+03  0.25425869297E+03  0.11631283076E+04  0.46999998093E+01 0. -1.
       -5    1    3    3    0  502  0.10890867227E+04  0.31951212419E+03 -0.29507221664E+03  0.11727265624E+04  0.46999998093E+01 0.  1.
</event>
<event>
 5   0  0.5843670E-05  0.2329471E+04  0.7818609E-02  0.8466391E-01
        1   -1    0    0  501    0  0.00000000000E+00  0.00000000000E+00  0.15668658358E+04  0.15668658358E+04  0.50400001928E-02 0.  1.
       -1   -1    0    0    0  501  0.00000000000E+00  0.00000000000E+00 -0.86581058108E+03  0.86581058109E+03  0.50400001928E-02 0. -1.
    10030    2    1    2    0    0  0.00000000000E+00  0.00000000000E+00  0.70105525473E+03  0.24326764169E+04  0.23294712016E+04 0.  0.
        2    1    3    3  502    0  0.51537234981E+03  0.92088476262E+03 -0.16423234538E+03  0.10679932904E+04  0.25500000920E-02 0. -1.
       -2    1    3    3    0  502 -0.51537234981E+03 -0.92088476262E+03  0.86528760011E+03  0.13646831265E+04  0.25500000920E-02 0.  1.
</event>
<event>
 5   0  0.1270613E-04  0.2380043E+04  0.7818609E-02  0.8447013E-01
       -2   -1    0    0    0  501  0.00000000000E+00  0.00000000000E+00  0.18156090655E+04  0.18156090655E+04  0.25500000920E-02 0.  1.
        2   -1    0    0  501    0  0.00000000000E+00  0.00000000000E+00 -0.77998655882E+03  0.77998655882E+03  0.25500000920E-02 0. -1.
    10030    2    1    2    0    0  0.00000000000E+00  0.00000000000E+00  0.10356225067E+04  0.25955956243E+04  0.23800425771E+04 0.  0.
        2    1    3    3  502    0  0.11404826906E+04  0.42489164365E+02  0.15016795570E+03  0.11511109901E+04  0.25500000920E-02 0. -1.
       -2    1    3    3    0  502 -0.11404826906E+04 -0.42489164365E+02  0.88545455099E+03  0.14444846342E+04  0.25500000920E-02 0.  1.
</event>
<event>
 5   0  0.5843670E-05  0.2381296E+04  0.7818609E-02  0.8446540E-01
        1   -1    0    0  501    0  0.00000000000E+00  0.00000000000E+00  0.16074292881E+04  0.16074292881E+04  0.50400001928E-02 0.  1.
       -1   -1    0    0    0  501  0.00000000000E+00  0.00000000000E+00 -0.88193123765E+03  0.88193123767E+03  0.50400001928E-02 0. -1.
    10030    2    1    2    0    0  0.00000000000E+00  0.00000000000E+00  0.72549805043E+03  0.24893605258E+04  0.23812955310E+04 0.  0.
        2    1    3    3  502    0  0.48327823172E+03 -0.85757249103E+03  0.10629619395E+04  0.14487499824E+04  0.25500000920E-02 0.  1.
       -2    1    3    3    0  502 -0.48327823172E+03  0.85757249103E+03 -0.33746388904E+03  0.10406105434E+04  0.25500000920E-02 0. -1.
</event>
<event>
 5   0  0.1234988E-04  0.2058734E+04  0.7818609E-02  0.8579642E-01
       -2   -1    0    0    0  501  0.00000000000E+00  0.00000000000E+00  0.56246213484E+03  0.56246213485E+03  0.25500000920E-02 0. -1.
        2   -1    0    0  501    0  0.00000000000E+00  0.00000000000E+00 -0.18838538413E+04  0.18838538413E+04  0.25500000920E-02 0.  1.
    10030    2    1    2    0    0  0.00000000000E+00  0.00000000000E+00 -0.13213917064E+04  0.24463159761E+04  0.20587340317E+04 0.  0.
        5    1    3    3  502    0 -0.75746045099E+03 -0.54063352785E+03 -0.11834548431E+04  0.15055292763E+04  0.46999998093E+01 0.  1.
       -5    1    3    3    0  502  0.75746045099E+03  0.54063352785E+03 -0.13793686335E+03  0.94078669980E+03  0.46999998093E+01 0. -1.
</event>
<event>
 5   0  0.5632156E-05  0.1697129E+04  0.7818609E-02  0.8763004E-01
        1   -1    0    0  501    0  0.00000000000E+00  0.00000000000E+00  0.81380668261E+03  0.81380668263E+03  0.50400001928E-02 0. -1.
       -1   -1    0    0    0  501  0.00000000000E+00  0.00000000000E+00 -0.88480648295E+03  0.88480648296E+03  0.50400001928E-02 0.  1.
    10030    2    1    2    0    0  0.00000000000E+00  0.00000000000E+00 -0.70999800334E+02  0.16986131656E+04  0.16971286677E+04 0.  0.
        4    1    3    3  502    0  0.69290184029E+03  0.46063184721E+03  0.13127465145E+03  0.84233562548E+03  0.12699999809E+01 0. -1.
       -4    1    3    3    0  502 -0.69290184029E+03 -0.46063184721E+03 -0.20227445178E+03  0.85627754011E+03  0.12699999809E+01 0.  1.
</event>
<event>
 5   0  0.5843670E-05  0.2318369E+04  0.7818609E-02  0.8470713E-01
       -1   -1    0    0    0  501  0.00000000000E+00  0.00000000000E+00  0.74118784207E+03  0.74118784209E+03  0.50400001928E-02 0. -1.
        1   -1    0    0  501    0  0.00000000000E+00  0.00000000000E+00 -0.18129129077E+04  0.18129129077E+04  0.50400001928E-02 0.  1.
    10030    2    1    2    0    0  0.00000000000E+00  0.00000000000E+00 -0.10717250656E+04  0.25541007498E+04  0.23183692596E+04 0.  0.
        2    1    3    3  502    0 -0.85627080529E+03  0.19682776187E+03 -0.13689016463E+04  0.16266015422E+04  0.25500000920E-02 0.  1.
       -2    1    3    3    0  502  0.85627080529E+03 -0.19682776187E+03  0.29717658074E+03  0.92749920753E+03  0.25500000920E-02 0. -1.
</event>
<event>
 5   0  0.5642466E-05  0.2240967E+04  0.7818609E-02  0.8501568E-01
       -1   -1    0    0    0  501  0.00000000000E+00  0.00000000000E+00  0.87311867098E+03  0.87311867100E+03  0.50400001928E-02 0. -1.
        1   -1    0    0  501    0  0.00000000000E+00  0.00000000000E+00 -0.14379293022E+04  0.14379293022E+04  0.50400001928E-02 0.  1.
    10030    2    1    2    0    0  0.00000000000E+00  0.00000000000E+00 -0.56481063123E+03  0.23110479732E+04  0.22409666855E+04 0.  0.
        1    1    3    3  502    0 -0.10724677347E+04  0.32439767922E+03 -0.29052720408E+03  0.11575089428E+04  0.50400001928E-02 0.  1.
       -1    1    3    3    0  502  0.10724677347E+04 -0.32439767922E+03 -0.27428342715E+03  0.11535390304E+04  0.50400001928E-02 0. -1.
</event>
<event>
 5   0  0.1234988E-04  0.2176158E+04  0.7818609E-02  0.8528418E-01
        2   -1    0    0  501    0  0.00000000000E+00  0.00000000000E+00  0.16418006155E+04  0.16418006155E+04  0.25500000920E-02 0.  1.
       -2   -1    0    0    0  501  0.00000000000E+00  0.00000000000E+00 -0.72110804052E+03  0.72110804053E+03  0.25500000920E-02 0. -1.
    10030    2    1    2    0    0  0.00000000000E+00  0.00000000000E+00  0.92069257499E+03  0.23629086560E+04  0.21761577377E+04 0.  0.
        5    1    3    3  502    0 -0.27813378741E+02  0.12188015125E+03  0.16339656820E+04  0.16387477827E+04  0.46999998093E+01 0.  1.
       -5    1    3    3    0  502  0.27813378741E+02 -0.12188015125E+03 -0.71327310701E+03  0.72416087335E+03  0.46999998093E+01 0. -1.
</event>
<event>
 5   0  0.5924654E-05  0.2404228E+04  0.7818609E-02  0.8437922E-01
        1   -1    0    0  501    0  0.00000000000E+00  0.00000000000E+00  0.15590115106E+04  0.15590115106E+04  0.50400001928E-02 0. -1.
       -1   -1    0    0    0  501  0.00000000000E+00  0.00000000000E+00 -0.92691966753E+03  0.92691966754E+03  0.50400001928E-02 0.  1.
    10030    2    1    2    0    0  0.00000000000E+00  0.00000000000E+00  0.63209184306E+03  0.24859311781E+04  0.24042283012E+04 0.  0.
        5    1    3    3  502    0 -0.33465458432E+03  0.72908178522E+03 -0.60964458513E+03  0.10075924526E+04  0.46999998093E+01 0.  1.
       -5    1    3    3    0  502  0.33465458432E+03 -0.72908178522E+03  0.12417364282E+04  0.14783387255E+04  0.46999998093E+01 0. -1.
</event>
<event>
 5   0  0.5663790E-05  0.2227618E+04  0.7818609E-02  0.8507020E-01
       -1   -1    0    0    0  501  0.00000000000E+00  0.00000000000E+00  0.74253770759E+03  0.74253770761E+03  0.50400001928E-02 0. -1.
        1   -1    0    0  501    0  0.00000000000E+00  0.00000000000E+00 -0.16707165894E+04  0.16707165894E+04  0.50400001928E-02 0.  1.
    10030    2    1    2    0    0  0.00000000000E+00  0.00000000000E+00 -0.92817888183E+03  0.24132542970E+04  0.22276176210E+04 0.  0.
        3    1    3    3  502    0  0.40751938551E+03  0.51364213799E+03  0.51131433006E+03  0.83147017373E+03  0.10100000352E+00 0. -1.
       -3    1    3    3    0  502 -0.40751938551E+03 -0.51364213799E+03 -0.14394932119E+04  0.15817841233E+04  0.10100000352E+00 0.  1.
</event>
<event>
 5   0  0.1237296E-04  0.2490756E+04  0.7818609E-02  0.8406286E-01
       -2   -1    0    0    0  501  0.00000000000E+00  0.00000000000E+00  0.10630579575E+04  0.10630579575E+04  0.25500000920E-02 0.  1.
        2   -1    0    0  501    0  0.00000000000E+00  0.00000000000E+00 -0.14589666390E+04  0.14589666390E+04  0.25500000920E-02 0. -1.
    10030    2    1    2    0    0  0.00000000000E+00  0.00000000000E+00 -0.39590868152E+03  0.25220245965E+04  0.24907557852E+04 0.  0.
        1    1    3    3  502    0 -0.10546217272E+04  0.53837520433E+03  0.19275406425E+03  0.11996786976E+04  0.50400001928E-02 0.  1.
       -1    1    3    3    0  502  0.10546217272E+04 -0.53837520433E+03 -0.58866274577E+03  0.13223458989E+04  0.50400001928E-02 0. -1.
</event>
<event>
 5   0  0.5642466E-05  0.2300716E+04  0.7818609E-02  0.8477639E-01
        1   -1    0    0  501    0  0.00000000000E+00  0.00000000000E+00  0.16508397206E+04  0.16508397206E+04  0.50400001928E-02 0. -1.
       -1   -1    0    0    0  501  0.00000000000E+00  0.00000000000E+00 -0.80160612459E+03  0.80160612460E+03  0.50400001928E-02 0.  1.
    10030    2    1    2    0    0  0.00000000000E+00  0.00000000000E+00  0.84923359603E+03  0.24524458452E+04  0.23007157415E+04 0.  0.
        1    1    3    3  502    0 -0.85929262222E+03 -0.56435097248E+03 -0.12561059201E+03  0.10356900364E+04  0.50400001928E-02 0.  1.
       -1    1    3    3    0  502  0.85929262222E+03  0.56435097248E+03  0.97484418804E+03  0.14167558088E+04  0.50400001928E-02 0. -1.
</event>
<event>
 5   0  0.1257524E-04  0.2328708E+04  0.7818609E-02  0.8466687E-01
        2   -1    0    0  501    0  0.00000000000E+00  0.00000000000E+00  0.98444965185E+03  0.98444965185E+03  0.25500000920E-02 0.  1.
       -2   -1    0    0    0  501  0.00000000000E+00  0.00000000000E+00 -0.13771350906E+04  0.13771350906E+04  0.25500000920E-02 0. -1.
    10030    2    1    2    0    0  0.00000000000E+00  0.00000000000E+00 -0.39268543876E+03  0.23615847425E+04  0.23287079340E+04 0.  0.
        3    1    3    3  502    0 -0.10591535433E+04 -0.42205962932E+03  0.43168673098E+02  0.11409663025E+04  0.10100000352E+00 0.  1.
       -3    1    3    3    0  502  0.10591535433E+04  0.42205962932E+03 -0.43585411186E+03  0.12206184400E+04  0.10100000352E+00 0. -1.
</event>
<event>
 5   0  0.5642466E-05  0.2416705E+04  0.7818609E-02  0.8433276E-01
        1   -1    0    0  501    0  0.00000000000E+00  0.00000000000E+00  0.13059981445E+04  0.13059981445E+04  0.50400001928E-02 0. -1.
       -1   -1    0    0    0  501  0.00000000000E+00  0.00000000000E+00 -0.11180077939E+04  0.11180077939E+04  0.50400001928E-02 0.  1.
    10030    2    1    2    0    0  0.00000000000E+00  0.00000000000E+00  0.18799035063E+03  0.24240059384E+04  0.24167052815E+04 0.  0.
        1    1    3    3  502    0  0.81377943312E+03 -0.25993136993E+03 -0.76317104060E+03  0.11455266562E+04  0.50400001928E-02 0.  1.
       -1    1    3    3    0  502 -0.81377943312E+03  0.25993136993E+03  0.95116139123E+03  0.12784792822E+04  0.50400001928E-02 0. -1.
</event>
<event>
 5   0  0.5632156E-05  0.1932805E+04  0.7818609E-02  0.8638697E-01
        1   -1    0    0  501    0  0.00000000000E+00  0.00000000000E+00  0.13278298868E+04  0.13278298868E+04  0.50400001928E-02 0.  1.
       -1   -1    0    0    0  501  0.00000000000E+00  0.00000000000E+00 -0.70335373859E+03  0.70335373861E+03  0.50400001928E-02 0. -1.
    10030    2    1    2    0    0  0.00000000000E+00  0.00000000000E+00  0.62447614821E+03  0.20311836254E+04  0.19328053344E+04 0.  0.
        4    1    3    3  502    0 -0.60482432145E+03 -0.18847153305E+03  0.10791774758E+04  0.12513830812E+04  0.12699999809E+01 0.  1.
       -4    1    3    3    0  502  0.60482432145E+03  0.18847153305E+03 -0.45470132761E+03  0.77980054426E+03  0.12699999809E+01 0. -1.
</event>
<event>
 5   0  0.1237296E-04  0.2322347E+04  0.7818609E-02  0.8469162E-01
       -2   -1    0    0    0  501  0.00000000000E+00  0.00000000000E+00  0.21034270408E+04  0.21034270408E+04  0.25500000920E-02 0. -1.
        2   -1    0    0  501    0  0.00000000000E+00  0.00000000000E+00 -0.64101276112E+03  0.64101276112E+03  0.25500000920E-02 0.  1.
    10030    2    1    2    0    0  0.00000000000E+00  0.00000000000E+00  0.14624142797E+04  0.27444398019E+04  0.23223467228E+04 0.  0.
        1    1    3    3  502    0  0.13521479768E+03  0.44051923991E+03  0.19907490684E+04  0.20433849602E+04  0.50400001928E-02 0. -1.
       -1    1    3    3    0  502 -0.13521479768E+03 -0.44051923991E+03 -0.52833478866E+03  0.70105484177E+03  0.50400001928E-02 0.  1.
</event>
<event>
 5   0  0.5642466E-05  0.2316694E+04  0.7818609E-02  0.8471368E-01
       -1   -1    0    0    0  501  0.00000000000E+00  0.00000000000E+00  0.12884017065E+04  0.12884017065E+04  0.50400001928E-02 0.  1.
        1   -1    0    0  501    0  0.00000000000E+00  0.00000000000E+00 -0.10414200193E+04  0.10414200193E+04  0.50400001928E-02 0. -1.
    10030    2    1    2    0    0  0.00000000000E+00  0.00000000000E+00  0.24698168721E+03  0.23298217258E+04  0.23166936181E+04 0.  0.
        1    1    3    3  502    0 -0.56930770978E+03 -0.35733905943E+03 -0.82523453354E+03  0.10643375908E+04  0.50400001928E-02 0. -1.
       -1    1    3    3    0  502  0.56930770978E+03  0.35733905943E+03  0.10722162207E+04  0.12654841350E+04  0.50400001928E-02 0.  1.
</event>
<event>
 5   0  0.5642466E-05  0.2281476E+04  0.7818609E-02  0.8485261E-01
        1   -1    0    0  501    0  0.00000000000E+00  0.00000000000E+00  0.83852132316E+03  0.83852132317E+03  0.50400001928E-02 0. -1.
       -1   -1    0    0    0  501  0.00000000000E+00  0.00000000000E+00 -0.15518786480E+04  0.15518786480E+04  0.50400001928E-02 0.  1.
    10030    2    1    2    0    0  0.00000000000E+00  0.00000000000E+00 -0.71335732486E+03  0.23903999712E+04  0.22814761339E+04 0.  0.
        1    1    3    3  502    0  0.27870315292E+03  0.57206026552E+03 -0.13486397900E+04  0.14912269036E+04  0.50400001928E-02 0.  1.
       -1    1    3    3    0  502 -0.27870315292E+03 -0.57206026552E+03  0.63528246518E+03  0.89917306756E+03  0.50400001928E-02 0. -1.
</event>
<event>
 5   0  0.1257524E-04  0.2264064E+04  0.7818609E-02  0.8492226E-01
        2   -1    0    0  501    0  0.00000000000E+00  0.00000000000E+00  0.12493914241E+04  0.12493914242E+04  0.25500000920E-02 0.  1.
       -2   -1    0    0    0  501  0.00000000000E+00  0.00000000000E+00 -0.10256967397E+04  0.10256967397E+04  0.25500000920E-02 0. -1.
    10030    2    1    2    0    0  0.00000000000E+00  0.00000000000E+00  0.22369468447E+03  0.22750881638E+04  0.22640642308E+04 0.  0.
        3    1    3    3  502    0 -0.88534873386E+02 -0.10710991514E+04 -0.24541843359E+03  0.11024164520E+04  0.10100000352E+00 0. -1.
       -3    1    3    3    0  502  0.88534873386E+02  0.10710991514E+04  0.46911311806E+03  0.11726717118E+04  0.10100000352E+00 0.  1.
</event>
<event>
 5   0  0.1234988E-04  0.2355068E+04  0.7818609E-02  0.8456520E-01
       -2   -1    0    0    0  501  0.00000000000E+00  0.00000000000E+00  0.83421948187E+03  0.83421948188E+03  0.25500000920E-02 0.  1.
        2   -1    0    0  501    0  0.00000000000E+00  0.00000000000E+00 -0.16621359983E+04  0.16621359983E+04  0.25500000920E-02 0. -1.
    10030    2    1    2    0    0  0.00000000000E+00  0.00000000000E+00 -0.82791651644E+03  0.24963554802E+04  0.23550679237E+04 0.  0.
        5    1    3    3  502    0 -0.19533573077E+03  0.10669068580E+04  0.71927830959E+02  0.10870335755E+04  0.46999998093E+01 0.  1.
       -5    1    3    3    0  502  0.19533573077E+03 -0.10669068580E+04 -0.89984434740E+03  0.14093219047E+04  0.46999998093E+01 0. -1.
</event>
<event>
 5   0  0.1270613E-04  0.2268359E+04  0.7818609E-02  0.8490502E-01
        2   -1    0    0  501    0  0.00000000000E+00  0.00000000000E+00  0.19871730624E+04  0.19871730624E+04  0.25500000920E-02 0.  1.
       -2   -1    0    0    0  501  0.00000000000E+00  0.00000000000E+00 -0.64733313448E+03  0.64733313449E+03  0.25500000920E-02 0. -1.
    10030    2    1    2    0    0  0.00000000000E+00  0.00000000000E+00  0.13398399279E+04  0.26345061969E+04  0.22683588492E+04 0.  0.
        2    1    3    3  502    0 -0.18236422064E+03  0.81883175177E+03  0.15564234845E+04  0.17681052598E+04  0.25500000920E-02 0.  1.
       -2    1    3    3    0  502  0.18236422064E+03 -0.81883175177E+03 -0.21658355663E+03  0.86640093703E+03  0.25500000920E-02 0. -1.
</event>
<event>
 5   0  0.1270613E-04  0.2262402E+04  0.7818609E-02  0.8492895E-01
       -2   -1    0    0    0  501  0.00000000000E+00  0.00000000000E+00  0.12590591592E+04  0.12590591592E+04  0.25500000920E-02 0.  1.
        2   -1    0    0  501    0  0.00000000000E+00  0.00000000000E+00 -0.10163272224E+04  0.10163272224E+04  0.25500000920E-02 0. -1.
    10030    2    1    2    0    0  0.00000000000E+00  0.00000000000E+00  0.24273193679E+03  0.22753863817E+04  0.22624023499E+04 0.  0.
        2    1    3    3  502    0  0.11791902330E+02 -0.36882722136E+02  0.12583924205E+04  0.12589880334E+04  0.25500000920E-02 0.  1.
       -2    1    3    3    0  502 -0.11791902330E+02  0.36882722136E+02 -0.10156604837E+04  0.10163983483E+04  0.25500000920E-02 0. -1.
</event>
<event>
 5   0  0.1257524E-04  0.2308771E+04  0.7818609E-02  0.8474471E-01
       -2   -1    0    0    0  501  0.00000000000E+00  0.00000000000E+00  0.14332503385E+04  0.14332503385E+04  0.25500000920E-02 0. -1.
        2   -1    0    0  501    0  0.00000000000E+00  0.00000000000E+00 -0.92977902092E+03  0.92977902092E+03  0.25500000920E-02 0.  1.
    10030    2    1    2    0    0  0.00000000000E+00  0.00000000000E+00  0.50347131760E+03  0.23630293594E+04  0.23087711853E+04 0.  0.
        3    1    3    3  502    0 -0.11052151353E+04  0.75628516822E+02 -0.80525454939E+02  0.11107225247E+04  0.10100000352E+00 0.  1.
       -3    1    3    3    0  502  0.11052151353E+04 -0.75628516822E+02  0.58399677254E+03  0.12523068347E+04  0.10100000352E+00 0. -1.
</event>
<event>
 5   0  0.5843670E-05  0.2364196E+04  0.7818609E-02  0.8453031E-01
       -1   -1    0    0    0  501  0.00000000000E+00  0.00000000000E+00  0.86152902154E+03  0.86152902155E+03  0.50400001928E-02 0.  1.
        1   -1    0    0  501    0  0.00000000000E+00  0.00000000000E+00 -0.16219479786E+04  0.16219479786E+04  0.50400001928E-02 0. -1.
    10030    2    1    2    0    0  0.00000000000E+00  0.00000000000E+00 -0.76041895708E+03  0.24834770002E+04  0.23641956391E+04 0.  0.
        2    1    3    3  502    0 -0.33779031884E+03 -0.53056156765E+03 -0.14315853485E+04  0.15636606046E+04  0.25500000920E-02 0. -1.
       -2    1    3    3    0  502  0.33779031884E+03  0.53056156765E+03  0.67116639138E+03  0.91981639554E+03  0.25500000920E-02 0.  1.
</event>
<event>
 5   0  0.1237296E-04  0.2308694E+04  0.7818609E-02  0.8474501E-01
       -2   -1    0    0    0  501  0.00000000000E+00  0.00000000000E+00  0.14849956776E+04  0.14849956776E+04  0.25500000920E-02 0. -1.
        2   -1    0    0  501    0  0.00000000000E+00  0.00000000000E+00 -0.89732010064E+03  0.89732010064E+03  0.25500000920E-02 0.  1.
    10030    2    1    2    0    0  0.00000000000E+00  0.00000000000E+00  0.58767557696E+03  0.23823157782E+04  0.23086935447E+04 0.  0.
        1    1    3    3  502    0 -0.90349863563E+03 -0.60649405004E+03  0.69131158847E+03  0.12892077139E+04  0.50400001928E-02 0.  1.
       -1    1    3    3    0  502  0.90349863563E+03  0.60649405004E+03 -0.10363601150E+03  0.10931080643E+04  0.50400001928E-02 0. -1.
</event>
<event>
 5   0  0.5642466E-05  0.1967883E+04  0.7818609E-02  0.8621785E-01
       -1   -1    0    0    0  501  0.00000000000E+00  0.00000000000E+00  0.98495161009E+03  0.98495161010E+03  0.50400001928E-02 0.  1.
        1   -1    0    0  501    0  0.00000000000E+00  0.00000000000E+00 -0.98293291624E+03  0.98293291626E+03  0.50400001928E-02 0. -1.
    10030    2    1    2    0    0  0.00000000000E+00  0.00000000000E+00  0.20186938484E+01  0.19678845264E+04  0.19678834910E+04 0.  0.
        1    1    3    3  502    0  0.85118890977E+03 -0.39423368956E+01  0.49457141261E+03  0.98444856865E+03  0.50400001928E-02 0.  1.
       -1    1    3    3    0  502 -0.85118890977E+03  0.39423368956E+01 -0.49255271876E+03  0.98343595771E+03  0.50400001928E-02 0. -1.
</event>
<event>
 5   0  0.5663790E-05  0.2085416E+04  0.7818609E-02  0.8567695E-01
        1   -1    0    0  501    0  0.00000000000E+00  0.00000000000E+00  0.13312001915E+04  0.13312001916E+04  0.50400001928E-02 0. -1.
       -1   -1    0    0    0  501  0.00000000000E+00  0.00000000000E+00 -0.81673674495E+03  0.81673674497E+03  0.50400001928E-02 0.  1.
    10030    2    1    2    0    0  0.00000000000E+00  0.00000000000E+00  0.51446344659E+03  0.21479369365E+04  0.20854161324E+04 0.  0.
        3    1    3    3  502    0 -0.86835117888E+03  0.50682713285E+03 -0.27334790226E+02  0.10058104759E+04  0.10100000352E+00 0.  1.
       -3    1    3    3    0  502  0.86835117888E+03 -0.50682713285E+03  0.54179823682E+03  0.11421264606E+04  0.10100000352E+00 0. -1.
</event>
<event>
 5   0  0.5632156E-05  0.2295604E+04  0.7818609E-02  0.8479656E-01
        1   -1    0    0  501    0  0.00000000000E+00  0.00000000000E+00  0.12584631537E+04  0.12584631538E+04  0.50400001928E-02 0.  1.
       -1   -1    0    0    0  501  0.00000000000E+00  0.00000000000E+00 -0.10468721304E+04  0.10468721304E+04  0.50400001928E-02 0. -1.
    10030    2    1    2    0    0  0.00000000000E+00  0.00000000000E+00  0.21159102334E+03  0.23053352842E+04  0.22956044980E+04 0.  0.
        4    1    3    3  502    0 -0.39329680748E+03  0.59665899743E+01 -0.97707504682E+03  0.10532783293E+04  0.12699999809E+01 0. -1.
       -4    1    3    3    0  502  0.39329680748E+03 -0.59665899743E+01  0.11886660702E+04  0.12520569549E+04  0.12699999809E+01 0.  1.
</event>
<event>
 5   0  0.1281432E-04  0.2318508E+04  0.7818609E-02  0.8470659E-01
        2   -1    0    0  501    0  0.00000000000E+00  0.00000000000E+00  0.13833909929E+04  0.13833909929E+04  0.25500000920E-02 0.  1.
       -2   -1    0    0    0  501  0.00000000000E+00  0.00000000000E+00 -0.97143185559E+03  0.97143185559E+03  0.25500000920E-02 0. -1.
    10030    2    1    2    0    0  0.00000000000E+00  0.00000000000E+00  0.41195913730E+03  0.23548228485E+04  0.23185082094E+04 0.  0.
        4    1    3    3  502    0 -0.10985800500E+04  0.99578370002E+02 -0.15607896474E+03  0.11140719161E+04  0.12699999809E+01 0. -1.
       -4    1    3    3    0  502  0.10985800500E+04 -0.99578370002E+02  0.56803810204E+03  0.12407509324E+04  0.12699999809E+01 0.  1.
</event>
<event>
 5   0  0.5663790E-05  0.2333813E+04  0.7818609E-02  0.8464707E-01
        1   -1    0    0  501    0  0.00000000000E+00  0.00000000000E+00  0.87511109206E+03  0.87511109207E+03  0.50400001928E-02 0.  1.
       -1   -1    0    0    0  501  0.00000000000E+00  0.00000000000E+00 -0.15559982152E+04  0.15559982152E+04  0.50400001928E-02 0. -1.
    10030    2    1    2    0    0  0.00000000000E+00  0.00000000000E+00 -0.68088712312E+03  0.24311093073E+04  0.23338134436E+04 0.  0.
        3    1    3    3  502    0  0.10894082966E+04 -0.28457229575E+02 -0.77503048645E+03  0.13372705469E+04  0.10100000352E+00 0. -1.
       -3    1    3    3    0  502 -0.10894082966E+04  0.28457229575E+02  0.94143363326E+02  0.10938387603E+04  0.10100000352E+00 0.  1.
</event>
<event>
 5   0  0.1234988E-04  0.2314512E+04  0.7818609E-02  0.8472221E-01
       -2   -1    0    0    0  501  0.00000000000E+00  0.00000000000E+00  0.72743003159E+03  0.72743003159E+03  0.25500000920E-02 0.  1.
        2   -1    0    0  501    0  0.00000000000E+00  0.00000000000E+00 -0.18410580874E+04  0.18410580874E+04  0.25500000920E-02 0. -1.
    10030    2    1    2    0    0  0.00000000000E+00  0.00000000000E+00 -0.11136280558E+04  0.25684881190E+04  0.23145115620E+04 0.  0.
        5    1    3    3  502    0  0.10348574363E+04 -0.81308575519E+02  0.10863486144E+02  0.10381142053E+04  0.46999998093E+01 0.  1.
       -5    1    3    3    0  502 -0.10348574363E+04  0.81308575519E+02 -0.11244915420E+04  0.15303739137E+04  0.46999998093E+01 0. -1.
</event>
<event>
 5   0  0.5663790E-05  0.1183684E+04  0.7818609E-02  0.9127259E-01
        1   -1    0    0  501    0  0.00000000000E+00  0.00000000000E+00  0.53750073365E+03  0.53750073367E+03  0.50400001928E-02 0.  1.
       -1   -1    0    0    0  501  0.00000000000E+00  0.00000000000E+00 -0.65167762153E+03  0.65167762155E+03  0.50400001928E-02 0. -1.
    10030    2    1    2    0    0  0.00000000000E+00  0.00000000000E+00 -0.11417688788E+03  0.11891783552E+04  0.11836844169E+04 0.  0.
        3    1    3    3  502    0 -0.20787228147E+03 -0.13583076711E+02 -0.61362876592E+03  0.64802442697E+03  0.10100000352E+00 0. -1.
       -3    1    3    3    0  502  0.20787228147E+03  0.13583076711E+02  0.49945187804E+03  0.54115392825E+03  0.10100000352E+00 0.  1.
</event>
<event>
 5   0  0.1237296E-04  0.2243296E+04  0.7818609E-02  0.8500621E-01
        2   -1    0    0  501    0  0.00000000000E+00  0.00000000000E+00  0.11553898640E+04  0.11553898640E+04  0.25500000920E-02 0.  1.
       -2   -1    0    0    0  501  0.00000000000E+00  0.00000000000E+00 -0.10888912819E+04  0.10888912819E+04  0.25500000920E-02 0. -1.
    10030    2    1    2    0    0  0.00000000000E+00  0.00000000000E+00  0.66498582070E+02  0.22442811459E+04  0.22432957452E+04 0.  0.
        1    1    3    3  502    0  0.89045935497E+03  0.77599010303E+01  0.71554290736E+03  0.11423570944E+04  0.50400001928E-02 0.  1.
       -1    1    3    3    0  502 -0.89045935497E+03 -0.77599010303E+01 -0.64904432529E+03  0.11019240514E+04  0.50400001928E-02 0. -1.
</event>
<event>
 5   0  0.5663790E-05  0.2355671E+04  0.7818609E-02  0.8456288E-01
       -1   -1    0    0    0  501  0.00000000000E+00  0.00000000000E+00  0.13309755760E+04  0.13309755760E+04  0.50400001928E-02 0.  1.
        1   -1    0    0  501    0  0.00000000000E+00  0.00000000000E+00 -0.10423157893E+04  0.10423157893E+04  0.50400001928E-02 0. -1.
    10030    2    1    2    0    0  0.00000000000E+00  0.00000000000E+00  0.28865978669E+03  0.23732913654E+04  0.23556713337E+04 0.  0.
        3    1    3    3  502    0  0.80612061331E+03 -0.24822038644E+03 -0.68392211834E+03  0.10859066616E+04  0.10100000352E+00 0. -1.
       -3    1    3    3    0  502 -0.80612061331E+03  0.24822038644E+03  0.97258190503E+03  0.12873847038E+04  0.10100000352E+00 0.  1.
</event>
<event>
 5   0  0.1234988E-04  0.2306370E+04  0.7818609E-02  0.8475414E-01
       -2   -1    0    0    0  501  0.00000000000E+00  0.00000000000E+00  0.62614563869E+03  0.62614563870E+03  0.25500000920E-02 0. -1.
        2   -1    0    0  501    0  0.00000000000E+00  0.00000000000E+00 -0.21238443977E+04  0.21238443977E+04  0.25500000920E-02 0.  1.
    10030    2    1    2    0    0  0.00000000000E+00  0.00000000000E+00 -0.14976987590E+04  0.27499900364E+04  0.23063702278E+04 0.  0.
        5    1    3    3  502    0 -0.37582623442E+03 -0.25792677573E+03 -0.20118591195E+04  0.20628550086E+04  0.46999998093E+01 0.  1.
       -5    1    3    3    0  502  0.37582623442E+03  0.25792677573E+03  0.51416036045E+03  0.68713502776E+03  0.46999998093E+01 0. -1.
</event>
<event>
 5   0  0.1257524E-04  0.2369062E+04  0.7818609E-02  0.8451178E-01
       -2   -1    0    0    0  501  0.00000000000E+00  0.00000000000E+00  0.65849690774E+03  0.65849690775E+03  0.25500000920E-02 0. -1.
        2   -1    0    0  501    0  0.00000000000E+00  0.00000000000E+00 -0.21307822800E+04  0.21307822800E+04  0.25500000920E-02 0.  1.
    10030    2    1    2    0    0  0.00000000000E+00  0.00000000000E+00 -0.14722853723E+04  0.27892791878E+04  0.23690618755E+04 0.  0.
        3    1    3    3  502    0 -0.18606208465E+03  0.58775404055E+03  0.45472033396E+03  0.76605776796E+03  0.10100000352E+00 0. -1.
       -3    1    3    3    0  502  0.18606208465E+03 -0.58775404055E+03 -0.19270057062E+04  0.20232214198E+04  0.10100000352E+00 0.  1.
</event>
<event>
 5   0  0.1257524E-04  0.2290395E+04  0.7818609E-02  0.8481718E-01
       -2   -1    0    0    0  501  0.00000000000E+00  0.00000000000E+00  0.13047533962E+04  0.13047533962E+04  0.25500000920E-02 0.  1.
        2   -1    0    0  501    0  0.00000000000E+00  0.00000000000E+00 -0.10051535380E+04  0.10051535380E+04  0.25500000920E-02 0. -1.
    10030    2    1    2    0    0  0.00000000000E+00  0.00000000000E+00  0.29959985823E+03  0.23099069342E+04  0.22903951557E+04 0.  0.
        3    1    3    3  502    0  0.16686361796E+03 -0.97719305914E+03 -0.42843223195E+03  0.10799555220E+04  0.10100000352E+00 0.  1.
       -3    1    3    3    0  502 -0.16686361796E+03  0.97719305914E+03  0.72803209018E+03  0.12299514122E+04  0.10100000352E+00 0. -1.
</event>
<event>
 5   0  0.5642466E-05  0.2234135E+04  0.7818609E-02  0.8504353E-01
       -1   -1    0    0    0  501  0.00000000000E+00  0.00000000000E+00  0.14808782604E+04  0.14808782604E+04  0.50400001928E-02 0.  1.
        1   -1    0    0  501    0  0.00000000000E+00  0.00000000000E+00 -0.84263476723E+03  0.84263476725E+03  0.50400001928E-02 0. -1.
    10030    2    1    2    0    0  0.00000000000E+00  0.00000000000E+00  0.63824349312E+03  0.23235130276E+04  0.22341347392E+04 0.  0.
        1    1    3    3  502    0  0.28375590987E+02  0.10554587039E+04 -0.60218500294E+02  0.10575559170E+04  0.50400001928E-02 0.  1.
       -1    1    3    3    0  502 -0.28375590987E+02 -0.10554587039E+04  0.69846199342E+03  0.12659571106E+04  0.50400001928E-02 0. -1.
</event>
<event>
 5   0  0.5632156E-05  0.1439866E+04  0.7818609E-02  0.8925456E-01
       -1   -1    0    0    0  501  0.00000000000E+00  0.00000000000E+00  0.50148807145E+03  0.50148807147E+03  0.50400001928E-02 0.  1.
        1   -1    0    0  501    0  0.00000000000E+00  0.00000000000E+00 -0.10335311348E+04  0.10335311348E+04  0.50400001928E-02 0. -1.
    10030    2    1    2    0    0  0.00000000000E+00  0.00000000000E+00 -0.53204306338E+03  0.15350192063E+04  0.14398660155E+04 0.  0.
        4    1    3    3  502    0  0.24685712581E+03  0.58993290708E+03 -0.61854377457E+03  0.88969505415E+03  0.12699999809E+01 0.  1.
       -4    1    3    3    0  502 -0.24685712581E+03 -0.58993290708E+03  0.86500711191E+02  0.64532415216E+03  0.12699999809E+01 0. -1.
</event>
<event>
 5   0  0.5642466E-05  0.2277308E+04  0.7818609E-02  0.8486922E-01
        1   -1    0    0  501    0  0.00000000000E+00  0.00000000000E+00  0.13038768455E+04  0.13038768455E+04  0.50400001928E-02 0.  1.
       -1   -1    0    0    0  501  0.00000000000E+00  0.00000000000E+00 -0.99436786057E+03  0.99436786058E+03  0.50400001928E-02 0. -1.
    10030    2    1    2    0    0  0.00000000000E+00  0.00000000000E+00  0.30950898495E+03  0.22982447061E+04  0.22773082614E+04 0.  0.
        1    1    3    3  502    0  0.76156712421E+02  0.47806727534E+02 -0.99077922848E+03  0.99485114849E+03  0.50400001928E-02 0. -1.
       -1    1    3    3    0  502 -0.76156712421E+02 -0.47806727534E+02  0.13002882134E+04  0.13033935576E+04  0.50400001928E-02 0.  1.
</event>
<event>
 5   0  0.5924654E-05  0.2350431E+04  0.7818609E-02  0.8458298E-01
        1   -1    0    0  501    0  0.00000000000E+00  0.00000000000E+00  0.76190254515E+03  0.76190254517E+03  0.50400001928E-02 0. -1.
       -1   -1    0    0    0  501  0.00000000000E+00  0.00000000000E+00 -0.18127399832E+04  0.18127399832E+04  0.50400001928E-02 0.  1.
    10030    2    1    2    0    0  0.00000000000E+00  0.00000000000E+00 -0.10508374380E+04  0.25746425284E+04  0.23504307749E+04 0.  0.
        5    1    3    3  502    0  0.75329593227E+03 -0.84979096919E+03 -0.85678091091E+03  0.14225663683E+04  0.46999998093E+01 0.  1.
       -5    1    3    3    0  502 -0.75329593227E+03  0.84979096919E+03 -0.19405652713E+03  0.11520761601E+04  0.46999998093E+01 0. -1.
</event>
<event>
 5   0  0.5663790E-05  0.2260277E+04  0.7818609E-02  0.8493750E-01
        1   -1    0    0  501    0  0.00000000000E+00  0.00000000000E+00  0.89303265048E+03  0.89303265049E+03  0.50400001928E-02 0. -1.
       -1   -1    0    0    0  501  0.00000000000E+00  0.00000000000E+00 -0.14301969506E+04  0.14301969506E+04  0.50400001928E-02 0.  1.
    10030    2    1    2    0    0  0.00000000000E+00  0.00000000000E+00 -0.53716430014E+03  0.23232296011E+04  0.22602765968E+04 0.  0.
        3    1    3    3  502    0  0.10869711924E+04 -0.28518034740E+03 -0.14533263574E+03  0.11331177295E+04  0.10100000352E+00 0. -1.
       -3    1    3    3    0  502 -0.10869711924E+04  0.28518034740E+03 -0.39183166440E+03  0.11901118717E+04  0.10100000352E+00 0.  1.
</event>
<event>
 5   0  0.5632156E-05  0.2318582E+04  0.7818609E-02  0.8470630E-01
       -1   -1    0    0    0  501  0.00000000000E+00  0.00000000000E+00  0.97650251995E+03  0.97650251996E+03  0.50400001928E-02 0. -1.
        1   -1    0    0  501    0  0.00000000000E+00  0.00000000000E+00 -0.13762951281E+04  0.13762951281E+04  0.50400001928E-02 0.  1.
    10030    2    1    2    0    0  0.00000000000E+00  0.00000000000E+00 -0.39979260815E+03  0.23527976481E+04  0.23185820329E+04 0.  0.
        4    1    3    3  502    0 -0.10839844550E+03  0.61087048825E+03  0.79386187128E+03  0.10075372251E+04  0.12699999809E+01 0. -1.
       -4    1    3    3    0  502  0.10839844550E+03 -0.61087048825E+03 -0.11936544794E+04  0.13452604230E+04  0.12699999809E+01 0.  1.
</event>
<event>
 5   0  0.5843670E-05  0.2243032E+04  0.7818609E-02  0.8500728E-01
        1   -1    0    0  501    0  0.00000000000E+00  0.00000000000E+00  0.19929819843E+04  0.19929819844E+04  0.50400001928E-02 0. -1.
       -1   -1    0    0    0  501  0.00000000000E+00  0.00000000000E+00 -0.63111382957E+03  0.63111382959E+03  0.50400001928E-02 0.  1.
    10030    2    1    2    0    0  0.00000000000E+00  0.00000000000E+00  0.13618681548E+04  0.26240958139E+04  0.22430323158E+04 0.  0.
        2    1    3    3  502    0 -0.51290665972E+03 -0.17069711638E+03 -0.46864812232E+03  0.71543120542E+03  0.25500000920E-02 0.  1.
       -2    1    3    3    0  502  0.51290665972E+03  0.17069711638E+03  0.18305162771E+04  0.19086646085E+04  0.25500000920E-02 0. -1.
</event>
<event>
 5   0  0.1270613E-04  0.2168498E+04  0.7818609E-02  0.8531656E-01
       -2   -1    0    0    0  501  0.00000000000E+00  0.00000000000E+00  0.59033196898E+03  0.59033196898E+03  0.25500000920E-02 0. -1.
        2   -1    0    0  501    0  0.00000000000E+00  0.00000000000E+00 -0.19914141100E+04  0.19914141100E+04  0.25500000920E-02 0.  1.
    10030    2    1    2    0    0  0.00000000000E+00  0.00000000000E+00 -0.14010821411E+04  0.25817460790E+04  0.21684975560E+04 0.  0.
        2    1    3    3  502    0  0.55148056509E+03 -0.53923742066E+03  0.20670660960E+03  0.79852077742E+03  0.25500000920E-02 0.  1.
       -2    1    3    3    0  502 -0.55148056509E+03  0.53923742066E+03 -0.16077887507E+04  0.17832253016E+04  0.25500000920E-02 0. -1.
</event>
<event>
 5   0  0.5663790E-05  0.2024481E+04  0.7818609E-02  0.8595260E-01
       -1   -1    0    0    0  501  0.00000000000E+00  0.00000000000E+00  0.84908462813E+03  0.84908462815E+03  0.50400001928E-02 0.  1.
        1   -1    0    0  501    0  0.00000000000E+00  0.00000000000E+00 -0.12067480695E+04  0.12067480695E+04  0.50400001928E-02 0. -1.
    10030    2    1    2    0    0  0.00000000000E+00  0.00000000000E+00 -0.35766344135E+03  0.20558326976E+04  0.20244814011E+04 0.  0.
        3    1    3    3  502    0  0.76950152097E+02  0.44270973437E+03  0.74225278148E+03  0.86767069596E+03  0.10100000352E+00 0.  1.
       -3    1    3    3    0  502 -0.76950152097E+02 -0.44270973437E+03 -0.10999162228E+04  0.11881620017E+04  0.10100000352E+00 0. -1.
</event>
<event>
 5   0  0.5663790E-05  0.2260701E+04  0.7818609E-02  0.8493579E-01
       -1   -1    0    0    0  501  0.00000000000E+00  0.00000000000E+00  0.71652059521E+03  0.71652059523E+03  0.50400001928E-02 0.  1.
        1   -1    0    0  501    0  0.00000000000E+00  0.00000000000E+00 -0.17831892150E+04  0.17831892151E+04  0.50400001928E-02 0. -1.
    10030    2    1    2    0    0  0.00000000000E+00  0.00000000000E+00 -0.10666686198E+04  0.24997098103E+04  0.22607005974E+04 0.  0.
        3    1    3    3  502    0 -0.76010886656E+03  0.81435969511E+03 -0.74528909321E+03  0.13402996101E+04  0.10100000352E+00 0. -1.
       -3    1    3    3    0  502  0.76010886656E+03 -0.81435969511E+03 -0.32137952662E+03  0.11594102002E+04  0.10100000352E+00 0.  1.
</event>
<event>
 5   0  0.1270613E-04  0.2249146E+04  0.7818609E-02  0.8498246E-01
       -2   -1    0    0    0  501  0.00000000000E+00  0.00000000000E+00  0.77814148094E+03  0.77814148094E+03  0.25500000920E-02 0. -1.
        2   -1    0    0  501    0  0.00000000000E+00  0.00000000000E+00 -0.16252375368E+04  0.16252375368E+04  0.25500000920E-02 0.  1.
    10030    2    1    2    0    0  0.00000000000E+00  0.00000000000E+00 -0.84709605589E+03  0.24033790178E+04  0.22491462770E+04 0.  0.
        2    1    3    3  502    0  0.98343776855E+03 -0.50331183771E+03 -0.19891332466E+03  0.11225146597E+04  0.25500000920E-02 0.  1.
       -2    1    3    3    0  502 -0.98343776855E+03  0.50331183771E+03 -0.64818273123E+03  0.12808643580E+04  0.25500000920E-02 0. -1.
</event>
<event>
 5   0  0.5843670E-05  0.2290752E+04  0.7818609E-02  0.8481576E-01
        1   -1    0    0  501    0  0.00000000000E+00  0.00000000000E+00  0.22601224877E+04  0.22601224878E+04  0.50400001928E-02 0. -1.
       -1   -1    0    0    0  501  0.00000000000E+00  0.00000000000E+00 -0.58044914743E+03  0.58044914745E+03  0.50400001928E-02 0.  1.
    10030    2    1    2    0    0  0.00000000000E+00  0.00000000000E+00  0.16796733403E+04  0.28405716352E+04  0.22907519911E+04 0.  0.
        2    1    3    3  502    0 -0.28184490104E+03 -0.18534662257E+03  0.21971294166E+04  0.22228737239E+04  0.25500000920E-02 0. -1.
       -2    1    3    3    0  502  0.28184490104E+03  0.18534662257E+03 -0.51745607633E+03  0.61769791134E+03  0.25500000920E-02 0.  1.
</event>
<event>
 5   0  0.5663790E-05  0.2232929E+04  0.7818609E-02  0.8504846E-01
        1   -1    0    0  501    0  0.00000000000E+00  0.00000000000E+00  0.14550588144E+04  0.14550588144E+04  0.50400001928E-02 0.  1.
       -1   -1    0    0    0  501  0.00000000000E+00  0.00000000000E+00 -0.85666143732E+03  0.85666143733E+03  0.50400001928E-02 0. -1.
    10030    2    1    2    0    0  0.00000000000E+00  0.00000000000E+00  0.59839737705E+03  0.23117202517E+04  0.22329288169E+04 0.  0.
        3    1    3    3  502    0 -0.63230880240E+02 -0.27761155079E+03 -0.81844362058E+03  0.86655426120E+03  0.10100000352E+00 0. -1.
       -3    1    3    3    0  502  0.63230880240E+02  0.27761155079E+03  0.14168409976E+04  0.14451659905E+04  0.10100000352E+00 0.  1.
</event>
<event>
 5   0  0.1237296E-04  0.2510126E+04  0.7818609E-02  0.8399387E-01
       -2   -1    0    0    0  501  0.00000000000E+00  0.00000000000E+00  0.82453707241E+03  0.82453707241E+03  0.25500000920E-02 0. -1.
        2   -1    0    0  501    0  0.00000000000E+00  0.00000000000E+00 -0.19103856004E+04  0.19103856004E+04  0.25500000920E-02 0.  1.
    10030    2    1    2    0    0  0.00000000000E+00  0.00000000000E+00 -0.10858485280E+04  0.27349226728E+04  0.25101264909E+04 0.  0.
        1    1    3    3  502    0  0.34349940298E+03 -0.10740854619E+04  0.57353039307E+02  0.11291327604E+04  0.50400001928E-02 0. -1.
       -1    1    3    3    0  502 -0.34349940298E+03  0.10740854619E+04 -0.11432015673E+04  0.16057899124E+04  0.50400001928E-02 0.  1.
</event>
<event>
 5   0  0.1270613E-04  0.1220879E+04  0.7818609E-02  0.9094775E-01
       -2   -1    0    0    0  501  0.00000000000E+00  0.00000000000E+00  0.14372548936E+03  0.14372548939E+03  0.25500000920E-02 0. -1.
        2   -1    0    0  501    0  0.00000000000E+00  0.00000000000E+00 -0.25926950978E+04  0.25926950978E+04  0.25500000920E-02 0.  1.
    10030    2    1    2    0    0  0.00000000000E+00  0.00000000000E+00 -0.24489696084E+04  0.27364205872E+04  0.12208789813E+04 0.  0.
        2    1    3    3  502    0 -0.46655614006E+03 -0.37931586026E+03 -0.14604261122E+04  0.15793668297E+04  0.25500000920E-02 0.  1.
       -2    1    3    3    0  502  0.46655614006E+03  0.37931586026E+03 -0.98854349620E+03  0.11570537574E+04  0.25500000920E-02 0. -1.
</event>
<event>
 5   0  0.1281432E-04  0.2316155E+04  0.7818609E-02  0.8471579E-01
        2   -1    0    0  501    0  0.00000000000E+00  0.00000000000E+00  0.68841750641E+03  0.68841750641E+03  0.25500000920E-02 0. -1.
       -2   -1    0    0    0  501  0.00000000000E+00  0.00000000000E+00 -0.19481543518E+04  0.19481543518E+04  0.25500000920E-02 0.  1.
    10030    2    1    2    0    0  0.00000000000E+00  0.00000000000E+00 -0.12597368454E+04  0.26365718582E+04  0.23161550561E+04 0.  0.
        4    1    3    3  502    0 -0.15794206002E+03 -0.11069456682E+04 -0.28672445320E+03  0.11543339775E+04  0.12699999809E+01 0. -1.
       -4    1    3    3    0  502  0.15794206002E+03  0.11069456682E+04 -0.97301239220E+03  0.14822378807E+04  0.12699999809E+01 0.  1.
</event>
<event>
 5   0  0.1234988E-04  0.2196321E+04  0.7818609E-02  0.8519961E-01
        2   -1    0    0  501    0  0.00000000000E+00  0.00000000000E+00  0.95634983195E+03  0.95634983195E+03  0.25500000920E-02 0. -1.
       -2   -1    0    0    0  501  0.00000000000E+00  0.00000000000E+00 -0.12609992391E+04  0.12609992391E+04  0.25500000920E-02 0.  1.
    10030    2    1    2    0    0  0.00000000000E+00  0.00000000000E+00 -0.30464940718E+03  0.22173490711E+04  0.21963209332E+04 0.  0.
        5    1    3    3  502    0  0.42676187351E+03 -0.12838442314E+03  0.86094090613E+03  0.96945840068E+03  0.46999998093E+01 0. -1.
       -5    1    3    3    0  502 -0.42676187351E+03  0.12838442314E+03 -0.11655903133E+04  0.12478906704E+04  0.46999998093E+01 0.  1.
</event>
<event>
 5   0  0.1281432E-04  0.2055468E+04  0.7818609E-02  0.8581118E-01
        2   -1    0    0  501    0  0.00000000000E+00  0.00000000000E+00  0.54471099407E+03  0.54471099407E+03  0.25500000920E-02 0.  1.
       -2   -1    0    0    0  501  0.00000000000E+00  0.00000000000E+00 -0.19390785851E+04  0.19390785851E+04  0.25500000920E-02 0. -1.
    10030    2    1    2    0    0  0.00000000000E+00  0.00000000000E+00 -0.13943675911E+04  0.24837895792E+04  0.20554682422E+04 0.  0.
        4    1    3    3  502    0 -0.30205779807E+03  0.63516083274E+02 -0.18817443682E+04  0.19068918916E+04  0.12699999809E+01 0. -1.
       -4    1    3    3    0  502  0.30205779807E+03 -0.63516083274E+02  0.48737677710E+03  0.57689768761E+03  0.12699999809E+01 0.  1.
</event>
<event>
 5   0  0.1237296E-04  0.1576012E+04  0.7818609E-02  0.8835422E-01
        2   -1    0    0  501    0  0.00000000000E+00  0.00000000000E+00  0.94305826965E+03  0.94305826965E+03  0.25500000920E-02 0. -1.
       -2   -1    0    0    0  501  0.00000000000E+00  0.00000000000E+00 -0.65844660491E+03  0.65844660492E+03  0.25500000920E-02 0.  1.
    10030    2    1    2    0    0  0.00000000000E+00  0.00000000000E+00  0.28461166473E+03  0.16015048746E+04  0.15760120760E+04 0.  0.
        1    1    3    3  502    0  0.42693016673E+03 -0.66065551587E+03  0.94443664293E+02  0.79224660533E+03  0.50400001928E-02 0. -1.
       -1    1    3    3    0  502 -0.42693016673E+03  0.66065551587E+03  0.19016800044E+03  0.80925826924E+03  0.50400001928E-02 0.  1.
</event>
<event>
 5   0  0.5843670E-05  0.2281948E+04  0.7818609E-02  0.8485073E-01
       -1   -1    0    0    0  501  0.00000000000E+00  0.00000000000E+00  0.11104596442E+04  0.11104596442E+04  0.50400001928E-02 0. -1.
        1   -1    0    0  501    0  0.00000000000E+00  0.00000000000E+00 -0.11723263782E+04  0.11723263782E+04  0.50400001928E-02 0.  1.
    10030    2    1    2    0    0  0.00000000000E+00  0.00000000000E+00 -0.61866734047E+02  0.22827860224E+04  0.22819475303E+04 0.  0.
        2    1    3    3  502    0  0.20454684469E+03 -0.14885848834E+03 -0.11439170616E+04  0.11715564455E+04  0.25500000920E-02 0.  1.
       -2    1    3    3    0  502 -0.20454684469E+03  0.14885848834E+03  0.10820503275E+04  0.11112295769E+04  0.25500000920E-02 0. -1.
</event>
<event>
 5   0  0.1270613E-04  0.2226734E+04  0.7818609E-02  0.8507383E-01
       -2   -1    0    0    0  501  0.00000000000E+00  0.00000000000E+00  0.11927709713E+04  0.11927709713E+04  0.25500000920E-02 0.  1.
        2   -1    0    0  501    0  0.00000000000E+00  0.00000000000E+00 -0.10392487793E+04  0.10392487793E+04  0.25500000920E-02 0. -1.
    10030    2    1    2    0    0  0.00000000000E+00  0.00000000000E+00  0.15352219201E+03  0.22320197506E+04  0.22267337299E+04 0.  0.
        2    1    3    3  502    0 -0.30486419125E+03 -0.84807298003E+03  0.73208354048E+03  0.11610840903E+04  0.25500000920E-02 0.  1.
       -2    1    3    3    0  502  0.30486419125E+03  0.84807298003E+03 -0.57856134848E+03  0.10709356603E+04  0.25500000920E-02 0. -1.
</event>
<event>
 5   0  0.1257524E-04  0.2364794E+04  0.7818609E-02  0.8452803E-01
        2   -1    0    0  501    0  0.00000000000E+00  0.00000000000E+00  0.16040499366E+04  0.16040499366E+04  0.25500000920E-02 0.  1.
       -2   -1    0    0    0  501  0.00000000000E+00  0.00000000000E+00 -0.87158327467E+03  0.87158327467E+03  0.25500000920E-02 0. -1.
    10030    2    1    2    0    0  0.00000000000E+00  0.00000000000E+00  0.73246666195E+03  0.24756332113E+04  0.23647943644E+04 0.  0.
        3    1    3    3  502    0 -0.99970212842E+03 -0.25748669315E+03  0.96976055451E+03  0.14163824646E+04  0.10100000352E+00 0.  1.
       -3    1    3    3    0  502  0.99970212842E+03  0.25748669315E+03 -0.23729389256E+03  0.10592507467E+04  0.10100000352E+00 0. -1.
</event>
<event>
 5   0  0.1234988E-04  0.2248442E+04  0.7818609E-02  0.8498532E-01
       -2   -1    0    0    0  501  0.00000000000E+00  0.00000000000E+00  0.84632578088E+03  0.84632578088E+03  0.25500000920E-02 0. -1.
        2   -1    0    0  501    0  0.00000000000E+00  0.00000000000E+00 -0.14933649452E+04  0.14933649452E+04  0.25500000920E-02 0.  1.
    10030    2    1    2    0    0  0.00000000000E+00  0.00000000000E+00 -0.64703916430E+03  0.23396907261E+04  0.22484423527E+04 0.  0.
        5    1    3    3  502    0 -0.26080479906E+03  0.36039723496E+03  0.75082665870E+03  0.87273596900E+03  0.46999998093E+01 0. -1.
       -5    1    3    3    0  502  0.26080479906E+03 -0.36039723496E+03 -0.13978658230E+04  0.14669547571E+04  0.46999998093E+01 0.  1.
</event>
<event>
 5   0  0.1237296E-04  0.2085589E+04  0.7818609E-02  0.8567618E-01
        2   -1    0    0  501    0  0.00000000000E+00  0.00000000000E+00  0.21645513109E+04  0.21645513109E+04  0.25500000920E-02 0. -1.
       -2   -1    0    0    0  501  0.00000000000E+00  0.00000000000E+00 -0.50237704033E+03  0.50237704034E+03  0.25500000920E-02 0.  1.
    10030    2    1    2    0    0  0.00000000000E+00  0.00000000000E+00  0.16621742705E+04  0.26669283512E+04  0.20855894910E+04 0.  0.
        1    1    3    3  502    0  0.66389419529E+03  0.36063038797E+03  0.17501905632E+04  0.19062992385E+04  0.50400001928E-02 0. -1.
       -1    1    3    3    0  502 -0.66389419529E+03 -0.36063038797E+03 -0.88016292659E+02  0.76062911269E+03  0.50400001928E-02 0.  1.
</event>
<event>
 5   0  0.5642466E-05  0.2425575E+04  0.7818609E-02  0.8429990E-01
        1   -1    0    0  501    0  0.00000000000E+00  0.00000000000E+00  0.11787341022E+04  0.11787341023E+04  0.50400001928E-02 0. -1.
       -1   -1    0    0    0  501  0.00000000000E+00  0.00000000000E+00 -0.12478247616E+04  0.12478247617E+04  0.50400001928E-02 0.  1.
    10030    2    1    2    0    0  0.00000000000E+00  0.00000000000E+00 -0.69090659405E+02  0.24265588639E+04  0.24255750660E+04 0.  0.
        1    1    3    3  502    0  0.24029219329E+03 -0.11026776169E+04 -0.47881478187E+03  0.12259289785E+04  0.50400001928E-02 0.  1.
       -1    1    3    3    0  502 -0.24029219329E+03  0.11026776169E+04  0.40972412247E+03  0.12006298854E+04  0.50400001928E-02 0. -1.
</event>
<event>
 5   0  0.1270613E-04  0.2109938E+04  0.7818609E-02  0.8556878E-01
       -2   -1    0    0    0  501  0.00000000000E+00  0.00000000000E+00  0.11262380349E+04  0.11262380349E+04  0.25500000920E-02 0. -1.
        2   -1    0    0  501    0  0.00000000000E+00  0.00000000000E+00 -0.98820987852E+03  0.98820987852E+03  0.25500000920E-02 0.  1.
    10030    2    1    2    0    0  0.00000000000E+00  0.00000000000E+00  0.13802815635E+03  0.21144479134E+04  0.21099379627E+04 0.  0.
        2    1    3    3  502    0  0.41245594180E+03  0.99651141554E+02 -0.89892275362E+03  0.99403841521E+03  0.25500000920E-02 0.  1.
       -2    1    3    3    0  502 -0.41245594180E+03 -0.99651141554E+02  0.10369509100E+04  0.11204094982E+04  0.25500000920E-02 0. -1.
</event>
<event>
 5   0  0.5663790E-05  0.2196088E+04  0.7818609E-02  0.8520058E-01
       -1   -1    0    0    0  501  0.00000000000E+00  0.00000000000E+00  0.98470790897E+03  0.98470790899E+03  0.50400001928E-02 0.  1.
        1   -1    0    0  501    0  0.00000000000E+00  0.00000000000E+00 -0.12244247273E+04  0.12244247273E+04  0.50400001928E-02 0. -1.
    10030    2    1    2    0    0  0.00000000000E+00  0.00000000000E+00 -0.23971681831E+03  0.22091326363E+04  0.21960880792E+04 0.  0.
        3    1    3    3  502    0 -0.75495639110E+03 -0.72492246967E+02 -0.91860663600E+03  0.11912398752E+04  0.10100000352E+00 0. -1.
       -3    1    3    3    0  502  0.75495639110E+03  0.72492246967E+02  0.67888981769E+03  0.10178927611E+04  0.10100000352E+00 0.  1.
</event>
<event>
 5   0  0.1234988E-04  0.2286403E+04  0.7818609E-02  0.8483301E-01
        2   -1    0    0  501    0  0.00000000000E+00  0.00000000000E+00  0.18909253792E+04  0.18909253792E+04  0.25500000920E-02 0.  1.
       -2   -1    0    0    0  501  0.00000000000E+00  0.00000000000E+00 -0.69114845577E+03  0.69114845577E+03  0.25500000920E-02 0. -1.
    10030    2    1    2    0    0  0.00000000000E+00  0.00000000000E+00  0.11997769235E+04  0.25820738350E+04  0.22864034253E+04 0.  0.
        5    1    3    3  502    0 -0.26430360584E+03  0.79642757427E+03  0.14766448202E+04  0.16984272997E+04  0.46999998093E+01 0.  1.
       -5    1    3    3    0  502  0.26430360584E+03 -0.79642757427E+03 -0.27686789679E+03  0.88364653532E+03  0.46999998093E+01 0. -1.
</event>
<event>
 5   0  0.5843670E-05  0.2158070E+04  0.7818609E-02  0.8536086E-01
       -1   -1    0    0    0  501  0.00000000000E+00  0.00000000000E+00  0.82237194517E+03  0.82237194518E+03  0.50400001928E-02 0. -1.
        1   -1    0    0  501    0  0.00000000000E+00  0.00000000000E+00 -0.14158022932E+04  0.14158022932E+04  0.50400001928E-02 0.  1.
    10030    2    1    2    0    0  0.00000000000E+00  0.00000000000E+00 -0.59343034806E+03  0.22381742384E+04  0.21580695873E+04 0.  0.
        2    1    3    3  502    0  0.98227594684E+02 -0.47197333688E+03  0.70447160683E+03  0.85363208464E+03  0.25500000920E-02 0. -1.
       -2    1    3    3    0  502 -0.98227594684E+02  0.47197333688E+03 -0.12979019549E+04  0.13845421538E+04  0.25500000920E-02 0.  1.
</event>
<event>
 5   0  0.1281432E-04  0.2244823E+04  0.7818609E-02  0.8500000E-01
        2   -1    0    0  501    0  0.00000000000E+00  0.00000000000E+00  0.13820910100E+04  0.13820910100E+04  0.25500000920E-02 0. -1.
       -2   -1    0    0    0  501  0.00000000000E+00  0.00000000000E+00 -0.91152250955E+03  0.91152250955E+03  0.25500000920E-02 0.  1.
    10030    2    1    2    0    0  0.00000000000E+00  0.00000000000E+00  0.47056850048E+03  0.22936135196E+04  0.22448225461E+04 0.  0.
        4    1    3    3  502    0 -0.10759545293E+04  0.31144459002E+03  0.16210654987E+03  0.11317932798E+04  0.12699999809E+01 0. -1.
       -4    1    3    3    0  502  0.10759545293E+04 -0.31144459002E+03  0.30846195062E+03  0.11618202398E+04  0.12699999809E+01 0.  1.
</event>
<event>
 5   0  0.5642466E-05  0.2305112E+04  0.7818609E-02  0.8475908E-01
       -1   -1    0    0    0  501  0.00000000000E+00  0.00000000000E+00  0.10333457179E+04  0.10333457179E+04  0.50400001928E-02 0.  1.
        1   -1    0    0  501    0  0.00000000000E+00  0.00000000000E+00 -0.12855183869E+04  0.12855183869E+04  0.50400001928E-02 0. -1.
    10030    2    1    2    0    0  0.00000000000E+00  0.00000000000E+00 -0.25217266901E+03  0.23188641049E+04  0.23051116419E+04 0.  0.
        1    1    3    3  502    0 -0.23453717705E+03  0.56992357575E+03  0.85366696159E+03  0.10528854880E+04  0.50400001928E-02 0.  1.
       -1    1    3    3    0  502  0.23453717705E+03 -0.56992357575E+03 -0.11058396306E+04  0.12659786168E+04  0.50400001928E-02 0. -1.
</event>
<event>
 5   0  0.1237296E-04  0.2191857E+04  0.7818609E-02  0.8521825E-01
       -2   -1    0    0    0  501  0.00000000000E+00  0.00000000000E+00  0.58981508682E+03  0.58981508682E+03  0.25500000920E-02 0. -1.
        2   -1    0    0  501    0  0.00000000000E+00  0.00000000000E+00 -0.20363323423E+04  0.20363323423E+04  0.25500000920E-02 0.  1.
    10030    2    1    2    0    0  0.00000000000E+00  0.00000000000E+00 -0.14465172555E+04  0.26261474292E+04  0.21918572374E+04 0.  0.
        1    1    3    3  502    0 -0.77984536269E+03 -0.26864940441E+03  0.14133574992E+03  0.83684352565E+03  0.50400001928E-02 0. -1.
       -1    1    3    3    0  502  0.77984536269E+03  0.26864940441E+03 -0.15878530055E+04  0.17893039035E+04  0.50400001928E-02 0.  1.
</event>
<event>
 5   0  0.5632156E-05  0.2319035E+04  0.7818609E-02  0.8470453E-01
       -1   -1    0    0    0  501  0.00000000000E+00  0.00000000000E+00  0.75472149938E+03  0.75472149940E+03  0.50400001928E-02 0. -1.
        1   -1    0    0  501    0  0.00000000000E+00  0.00000000000E+00 -0.17814265318E+04  0.17814265318E+04  0.50400001928E-02 0.  1.
    10030    2    1    2    0    0  0.00000000000E+00  0.00000000000E+00 -0.10267050324E+04  0.25361480312E+04  0.23190350606E+04 0.  0.
        4    1    3    3  502    0  0.89236125424E+03  0.46440476760E+03  0.11725971063E+03  0.10127842065E+04  0.12699999809E+01 0. -1.
       -4    1    3    3    0  502 -0.89236125424E+03 -0.46440476760E+03 -0.11439647430E+04  0.15233638247E+04  0.12699999809E+01 0.  1.
</event>
<event>
 5   0  0.4489500E-05  0.2336735E+04  0.7818609E-02  0.8463576E-01
        3   -1    0    0  501    0  0.00000000000E+00  0.00000000000E+00  0.75269417369E+03  0.75269418047E+03  0.10100000352E+00 0. -1.
       -3   -1    0    0    0  501  0.00000000000E+00  0.00000000000E+00 -0.18135958857E+04  0.18135958885E+04  0.10100000352E+00 0.  1.
    10030    2    1    2    0    0  0.00000000000E+00  0.00000000000E+00 -0.10609017120E+04  0.25662900689E+04  0.23367353884E+04 0.  0.
        5    1    3    3  502    0  0.11466477691E+04 -0.98590852205E+02 -0.75157520165E+03  0.13745576147E+04  0.46999998093E+01 0.  1.
       -5    1    3    3    0  502 -0.11466477691E+04  0.98590852205E+02 -0.30932651033E+03  0.11917324542E+04  0.46999998093E+01 0. -1.
</event>
<event>
 5   0  0.1257524E-04  0.2364673E+04  0.7818609E-02  0.8452849E-01
       -2   -1    0    0    0  501  0.00000000000E+00  0.00000000000E+00  0.10742991133E+04  0.10742991133E+04  0.25500000920E-02 0. -1.
        2   -1    0    0  501    0  0.00000000000E+00  0.00000000000E+00 -0.13012387433E+04  0.13012387433E+04  0.25500000920E-02 0.  1.
    10030    2    1    2    0    0  0.00000000000E+00  0.00000000000E+00 -0.22693963003E+03  0.23755378566E+04  0.23646730244E+04 0.  0.
        3    1    3    3  502    0 -0.25083725600E+03 -0.71612589252E+02  0.10450294635E+04  0.10770952984E+04  0.10100000352E+00 0. -1.
       -3    1    3    3    0  502  0.25083725600E+03  0.71612589252E+02 -0.12719690935E+04  0.12984425582E+04  0.10100000352E+00 0.  1.
</event>
<event>
 5   0  0.5663790E-05  0.2182864E+04  0.7818609E-02  0.8525594E-01
        1   -1    0    0  501    0  0.00000000000E+00  0.00000000000E+00  0.12369104245E+04  0.12369104245E+04  0.50400001928E-02 0. -1.
       -1   -1    0    0    0  501  0.00000000000E+00  0.00000000000E+00 -0.96306424120E+03  0.96306424122E+03  0.50400001928E-02 0.  1.
    10030    2    1    2    0    0  0.00000000000E+00  0.00000000000E+00  0.27384618331E+03  0.21999746657E+04  0.21828643563E+04 0.  0.
        3    1    3    3  502    0 -0.17143032133E+03 -0.22316775314E+03  0.11997182575E+04  0.12322808562E+04  0.10100000352E+00 0. -1.
       -3    1    3    3    0  502  0.17143032133E+03  0.22316775314E+03 -0.92587207415E+03  0.96769380953E+03  0.10100000352E+00 0.  1.
</event>
<event>
 5   0  0.1237296E-04  0.1447193E+04  0.7818609E-02  0.8920348E-01
       -2   -1    0    0    0  501  0.00000000000E+00  0.00000000000E+00  0.42543545812E+03  0.42543545813E+03  0.25500000920E-02 0. -1.
        2   -1    0    0  501    0  0.00000000000E+00  0.00000000000E+00 -0.12307207526E+04  0.12307207526E+04  0.25500000920E-02 0.  1.
    10030    2    1    2    0    0  0.00000000000E+00  0.00000000000E+00 -0.80528529447E+03  0.16561562107E+04  0.14471934870E+04 0.  0.
        1    1    3    3  502    0  0.52503931709E+03 -0.40587911162E+03 -0.72573200290E+02  0.66758595489E+03  0.50400001928E-02 0. -1.
       -1    1    3    3    0  502 -0.52503931709E+03  0.40587911162E+03 -0.73271209418E+03  0.98857025583E+03  0.50400001928E-02 0.  1.
</event>
<event>
 5   0  0.5632156E-05  0.1956225E+04  0.7818609E-02  0.8627365E-01
       -1   -1    0    0    0  501  0.00000000000E+00  0.00000000000E+00  0.31036762022E+04  0.31036762022E+04  0.50400001928E-02 0.  1.
        1   -1    0    0  501    0  0.00000000000E+00  0.00000000000E+00 -0.30824875152E+03  0.30824875156E+03  0.50400001928E-02 0. -1.
    10030    2    1    2    0    0  0.00000000000E+00  0.00000000000E+00  0.27954274507E+04  0.34119249538E+04  0.19562252575E+04 0.  0.
        4    1    3    3  502    0  0.21674897735E+03 -0.44699865022E+03 -0.71834085166E+02  0.50194587474E+03  0.12699999809E+01 0. -1.
       -4    1    3    3    0  502 -0.21674897735E+03  0.44699865022E+03  0.28672615359E+04  0.29099790791E+04  0.12699999809E+01 0.  1.
</event>
<event>
 5   0  0.1257524E-04  0.2316603E+04  0.7818609E-02  0.8471403E-01
        2   -1    0    0  501    0  0.00000000000E+00  0.00000000000E+00  0.12618345344E+04  0.12618345344E+04  0.25500000920E-02 0. -1.
       -2   -1    0    0    0  501  0.00000000000E+00  0.00000000000E+00 -0.10632632620E+04  0.10632632620E+04  0.25500000920E-02 0.  1.
    10030    2    1    2    0    0  0.00000000000E+00  0.00000000000E+00  0.19857127240E+03  0.23250977963E+04  0.23166029466E+04 0.  0.
        3    1    3    3  502    0 -0.10372143811E+04 -0.50744087916E+03  0.75591827664E+01  0.11547151466E+04  0.10100000352E+00 0. -1.
       -3    1    3    3    0  502  0.10372143811E+04  0.50744087916E+03  0.19101208963E+03  0.11703826498E+04  0.10100000352E+00 0.  1.
</event>
<event>
 5   0  0.5632156E-05  0.2275480E+04  0.7818609E-02  0.8487652E-01
        1   -1    0    0  501    0  0.00000000000E+00  0.00000000000E+00  0.24258237548E+04  0.24258237548E+04  0.50400001928E-02 0. -1.
       -1   -1    0    0    0  501  0.00000000000E+00  0.00000000000E+00 -0.53361339642E+03  0.53361339645E+03  0.50400001928E-02 0.  1.
    10030    2    1    2    0    0  0.00000000000E+00  0.00000000000E+00  0.18922103584E+04  0.29594371512E+04  0.22754797762E+04 0.  0.
        4    1    3    3  502    0 -0.83254650519E+03  0.77340667351E+03  0.87300771656E+03  0.14329813858E+04  0.12699999809E+01 0.  1.
       -4    1    3    3    0  502  0.83254650519E+03 -0.77340667351E+03  0.10192026418E+04  0.15264557655E+04  0.12699999809E+01 0. -1.
</event>
<event>
 5   0  0.5924654E-05  0.2301958E+04  0.7818609E-02  0.8477150E-01
        1   -1    0    0  501    0  0.00000000000E+00  0.00000000000E+00  0.13196953821E+04  0.13196953821E+04  0.50400001928E-02 0. -1.
       -1   -1    0    0    0  501  0.00000000000E+00  0.00000000000E+00 -0.10038319430E+04  0.10038319430E+04  0.50400001928E-02 0.  1.
    10030    2    1    2    0    0  0.00000000000E+00  0.00000000000E+00  0.31586343912E+03  0.23235273251E+04  0.23019577578E+04 0.  0.
        5    1    3    3  502    0  0.35369261452E+03  0.41848781975E+02  0.12626643518E+04  0.13119425069E+04  0.46999998093E+01 0. -1.
       -5    1    3    3    0  502 -0.35369261452E+03 -0.41848781975E+02 -0.94680091271E+03  0.10115848182E+04  0.46999998093E+01 0.  1.
</event>
<event>
 5   0  0.5632156E-05  0.1626686E+04  0.7818609E-02  0.8804319E-01
        1   -1    0    0  501    0  0.00000000000E+00  0.00000000000E+00  0.19715715972E+04  0.19715715973E+04  0.50400001928E-02 0. -1.
       -1   -1    0    0    0  501  0.00000000000E+00  0.00000000000E+00 -0.33553291344E+03  0.33553291348E+03  0.50400001928E-02 0.  1.
    10030    2    1    2    0    0  0.00000000000E+00  0.00000000000E+00  0.16360386838E+04  0.23071045107E+04  0.16266864014E+04 0.  0.
        4    1    3    3  502    0 -0.61163833538E+03  0.28772139032E+03  0.14596117608E+04  0.16085251496E+04  0.12699999809E+01 0. -1.
       -4    1    3    3    0  502  0.61163833538E+03 -0.28772139032E+03  0.17642692302E+03  0.69857936114E+03  0.12699999809E+01 0.  1.
</event>
<event>
 5   0  0.5663790E-05  0.2018214E+04  0.7818609E-02  0.8598152E-01
        1   -1    0    0  501    0  0.00000000000E+00  0.00000000000E+00  0.86648653016E+03  0.86648653017E+03  0.50400001928E-02 0.  1.
       -1   -1    0    0    0  501  0.00000000000E+00  0.00000000000E+00 -0.11752026234E+04  0.11752026234E+04  0.50400001928E-02 0. -1.
    10030    2    1    2    0    0  0.00000000000E+00  0.00000000000E+00 -0.30871609327E+03  0.20416891536E+04  0.20182143032E+04 0.  0.
        3    1    3    3  502    0 -0.52617905749E+03  0.57573527219E+03  0.49337193521E+03  0.92290377659E+03  0.10100000352E+00 0.  1.
       -3    1    3    3    0  502  0.52617905749E+03 -0.57573527219E+03 -0.80208802848E+03  0.11187853770E+04  0.10100000352E+00 0. -1.
</event>
<event>
 5   0  0.1270613E-04  0.2358734E+04  0.7818609E-02  0.8455117E-01
        2   -1    0    0  501    0  0.00000000000E+00  0.00000000000E+00  0.23091452836E+04  0.23091452837E+04  0.25500000920E-02 0.  1.
       -2   -1    0    0    0  501  0.00000000000E+00  0.00000000000E+00 -0.60234684828E+03  0.60234684829E+03  0.25500000920E-02 0. -1.
    10030    2    1    2    0    0  0.00000000000E+00  0.00000000000E+00  0.17067984354E+04  0.29114921319E+04  0.23587338840E+04 0.  0.
        2    1    3    3  502    0 -0.35373761787E+03  0.78376382755E+03 -0.14290201260E+03  0.87168631106E+03  0.25500000920E-02 0. -1.
       -2    1    3    3    0  502  0.35373761787E+03 -0.78376382755E+03  0.18497004480E+04  0.20398058209E+04  0.25500000920E-02 0.  1.
</event>
<event>
 5   0  0.1281432E-04  0.2236081E+04  0.7818609E-02  0.8503559E-01
       -2   -1    0    0    0  501  0.00000000000E+00  0.00000000000E+00  0.94146980641E+03  0.94146980642E+03  0.25500000920E-02 0.  1.
        2   -1    0    0  501    0  0.00000000000E+00  0.00000000000E+00 -0.13277265472E+04  0.13277265472E+04  0.25500000920E-02 0. -1.
    10030    2    1    2    0    0  0.00000000000E+00  0.00000000000E+00 -0.38625674074E+03  0.22691963536E+04  0.22360809067E+04 0.  0.
        4    1    3    3  502    0  0.14562560436E+02  0.10892725723E+04 -0.44842114044E+03  0.11780534525E+04  0.12699999809E+01 0. -1.
       -4    1    3    3    0  502 -0.14562560436E+02 -0.10892725723E+04  0.62164399692E+02  0.10911429010E+04  0.12699999809E+01 0.  1.
</event>
<event>
 5   0  0.1257524E-04  0.2282581E+04  0.7818609E-02  0.8484821E-01
       -2   -1    0    0    0  501  0.00000000000E+00  0.00000000000E+00  0.83533591895E+03  0.83533591896E+03  0.25500000920E-02 0. -1.
        2   -1    0    0  501    0  0.00000000000E+00  0.00000000000E+00 -0.15593058199E+04  0.15593058199E+04  0.25500000920E-02 0.  1.
    10030    2    1    2    0    0  0.00000000000E+00  0.00000000000E+00 -0.72396990094E+03  0.23946417389E+04  0.22825811355E+04 0.  0.
        3    1    3    3  502    0 -0.40010721310E+03  0.93922796539E+03 -0.89723791391E+03  0.13591434204E+04  0.10100000352E+00 0.  1.
       -3    1    3    3    0  502  0.40010721310E+03 -0.93922796539E+03  0.17326801297E+03  0.10354983184E+04  0.10100000352E+00 0. -1.
</event>
<event>
 5   0  0.1234988E-04  0.1964259E+04  0.7818609E-02  0.8623515E-01
        2   -1    0    0  501    0  0.00000000000E+00  0.00000000000E+00  0.10938706959E+04  0.10938706959E+04  0.25500000920E-02 0.  1.
       -2   -1    0    0    0  501  0.00000000000E+00  0.00000000000E+00 -0.88180328741E+03  0.88180328741E+03  0.25500000920E-02 0. -1.
    10030    2    1    2    0    0  0.00000000000E+00  0.00000000000E+00  0.21206740851E+03  0.19756739833E+04  0.19642594286E+04 0.  0.
        5    1    3    3  502    0  0.47018459467E+03 -0.50166071056E+03 -0.59934018410E+03  0.91212267150E+03  0.46999998093E+01 0. -1.
       -5    1    3    3    0  502 -0.47018459467E+03  0.50166071056E+03  0.81140759261E+03  0.10635513118E+04  0.46999998093E+01 0.  1.
</event>
<event>
 5   0  0.5632156E-05  0.2321620E+04  0.7818609E-02  0.8469445E-01
        1   -1    0    0  501    0  0.00000000000E+00  0.00000000000E+00  0.14239142836E+04  0.14239142836E+04  0.50400001928E-02 0.  1.
       -1   -1    0    0    0  501  0.00000000000E+00  0.00000000000E+00 -0.94632113193E+03  0.94632113195E+03  0.50400001928E-02 0. -1.
    10030    2    1    2    0    0  0.00000000000E+00  0.00000000000E+00  0.47759315168E+03  0.23702354156E+04  0.23216202762E+04 0.  0.
        4    1    3    3  502    0 -0.36731028470E+03  0.89658146436E+03 -0.41388960598E+03  0.10536039988E+04  0.12699999809E+01 0. -1.
       -4    1    3    3    0  502  0.36731028470E+03 -0.89658146436E+03  0.89148275766E+03  0.13166314168E+04  0.12699999809E+01 0.  1.
</event>
<event>
 5   0  0.5642466E-05  0.2321437E+04  0.7818609E-02  0.8469516E-01
        1   -1    0    0  501    0  0.00000000000E+00  0.00000000000E+00  0.82750185614E+03  0.82750185615E+03  0.50400001928E-02 0.  1.
       -1   -1    0    0    0  501  0.00000000000E+00  0.00000000000E+00 -0.16281143097E+04  0.16281143097E+04  0.50400001928E-02 0. -1.
    10030    2    1    2    0    0  0.00000000000E+00  0.00000000000E+00 -0.80061245359E+03  0.24556161659E+04  0.23214371526E+04 0.  0.
        1    1    3    3  502    0 -0.35830885426E+03  0.53521286068E+03  0.62113074268E+03  0.89478569546E+03  0.50400001928E-02 0.  1.
       -1    1    3    3    0  502  0.35830885426E+03 -0.53521286068E+03 -0.14217431963E+04  0.15608304704E+04  0.50400001928E-02 0. -1.
</event>
<event>
 5   0  0.1257524E-04  0.2330151E+04  0.7818609E-02  0.8466127E-01
        2   -1    0    0  501    0  0.00000000000E+00  0.00000000000E+00  0.25523110940E+04  0.25523110940E+04  0.25500000920E-02 0. -1.
       -2   -1    0    0    0  501  0.00000000000E+00  0.00000000000E+00 -0.53183198204E+03  0.53183198204E+03  0.25500000920E-02 0.  1.
    10030    2    1    2    0    0  0.00000000000E+00  0.00000000000E+00  0.20204791120E+04  0.30841430760E+04  0.23301507830E+04 0.  0.
        3    1    3    3  502    0  0.64112703555E+03  0.28132293890E+03  0.22428154760E+04  0.23495547964E+04  0.10100000352E+00 0. -1.
       -3    1    3    3    0  502 -0.64112703555E+03 -0.28132293890E+03 -0.22233636401E+03  0.73458827967E+03  0.10100000352E+00 0.  1.
</event>
<event>
 5   0  0.1237296E-04  0.2451606E+04  0.7818609E-02  0.8420432E-01
       -2   -1    0    0    0  501  0.00000000000E+00  0.00000000000E+00  0.12549522379E+04  0.12549522379E+04  0.25500000920E-02 0.  1.
        2   -1    0    0  501    0  0.00000000000E+00  0.00000000000E+00 -0.11973311836E+04  0.11973311836E+04  0.25500000920E-02 0. -1.
    10030    2    1    2    0    0  0.00000000000E+00  0.00000000000E+00  0.57621054351E+02  0.24522834215E+04  0.24516063700E+04 0.  0.
        1    1    3    3  502    0 -0.64647408936E+03  0.39595406052E+03 -0.93472341327E+03  0.12035016517E+04  0.50400001928E-02 0. -1.
       -1    1    3    3    0  502  0.64647408936E+03 -0.39595406052E+03  0.99234446762E+03  0.12487817698E+04  0.50400001928E-02 0.  1.
</event>
<event>
 5   0  0.4489500E-05  0.2208377E+04  0.7818609E-02  0.8514950E-01
       -3   -1    0    0    0  501  0.00000000000E+00  0.00000000000E+00  0.11667908627E+04  0.11667908671E+04  0.10100000352E+00 0.  1.
        3   -1    0    0  501    0  0.00000000000E+00  0.00000000000E+00 -0.10449444932E+04  0.10449444981E+04  0.10100000352E+00 0. -1.
    10030    2    1    2    0    0  0.00000000000E+00  0.00000000000E+00  0.12184636949E+03  0.22117353652E+04  0.22083765050E+04 0.  0.
        3    1    3    3  502    0  0.21736510728E+02 -0.30442893883E+03 -0.10018610347E+04  0.10473180022E+04  0.10100000352E+00 0. -1.
       -3    1    3    3    0  502 -0.21736510728E+02  0.30442893883E+03  0.11237074042E+04  0.11644173630E+04  0.10100000352E+00 0.  1.
</event>
<event>
 5   0  0.1257524E-04  0.2324696E+04  0.7818609E-02  0.8468247E-01
        2   -1    0    0  501    0  0.00000000000E+00  0.00000000000E+00  0.14909384543E+04  0.14909384543E+04  0.25500000920E-02 0. -1.
       -2   -1    0    0    0  501  0.00000000000E+00  0.00000000000E+00 -0.90617641120E+03  0.90617641121E+03  0.25500000920E-02 0.  1.
    10030    2    1    2    0    0  0.00000000000E+00  0.00000000000E+00  0.58476204313E+03  0.23971148655E+04  0.23246963310E+04 0.  0.
        3    1    3    3  502    0  0.21782593708E+03  0.21853517819E+03 -0.86317515971E+03  0.91666631307E+03  0.10100000352E+00 0.  1.
       -3    1    3    3    0  502 -0.21782593708E+03 -0.21853517819E+03  0.14479372028E+04  0.14804485525E+04  0.10100000352E+00 0. -1.
</event>
<event>
 5   0  0.5663790E-05  0.1298892E+04  0.7818609E-02  0.9030444E-01
       -1   -1    0    0    0  501  0.00000000000E+00  0.00000000000E+00  0.64001783216E+03  0.64001783218E+03  0.50400001928E-02 0. -1.
        1   -1    0    0  501    0  0.00000000000E+00  0.00000000000E+00 -0.65901303098E+03  0.65901303100E+03  0.50400001928E-02 0.  1.
    10030    2    1    2    0    0  0.00000000000E+00  0.00000000000E+00 -0.18995198812E+02  0.12990308632E+04  0.12988919762E+04 0.  0.
        3    1    3    3  502    0 -0.45648270264E+03 -0.39261699257E+03  0.23395299794E+03  0.64595555274E+03  0.10100000352E+00 0. -1.
       -3    1    3    3    0  502  0.45648270264E+03  0.39261699257E+03 -0.25294819676E+03  0.65307531044E+03  0.10100000352E+00 0.  1.
</event>
<event>
 5   0  0.1270613E-04  0.1334757E+04  0.7818609E-02  0.9002448E-01
       -2   -1    0    0    0  501  0.00000000000E+00  0.00000000000E+00  0.36237845337E+03  0.36237845338E+03  0.25500000920E-02 0. -1.
        2   -1    0    0  501    0  0.00000000000E+00  0.00000000000E+00 -0.12290849628E+04  0.12290849629E+04  0.25500000920E-02 0.  1.
    10030    2    1    2    0    0  0.00000000000E+00  0.00000000000E+00 -0.86670650948E+03  0.15914634162E+04  0.13347567687E+04 0.  0.
        2    1    3    3  502    0  0.10861358053E+03 -0.47308975209E+03  0.11275628256E+03  0.49832198694E+03  0.25500000920E-02 0. -1.
       -2    1    3    3    0  502 -0.10861358053E+03  0.47308975209E+03 -0.97946279204E+03  0.10931414293E+04  0.25500000920E-02 0.  1.
</event>
<event>
 5   0  0.5642466E-05  0.2027952E+04  0.7818609E-02  0.8593663E-01
        1   -1    0    0  501    0  0.00000000000E+00  0.00000000000E+00  0.10597338493E+04  0.10597338493E+04  0.50400001928E-02 0. -1.
       -1   -1    0    0    0  501  0.00000000000E+00  0.00000000000E+00 -0.97019359191E+03  0.97019359193E+03  0.50400001928E-02 0.  1.
    10030    2    1    2    0    0  0.00000000000E+00  0.00000000000E+00  0.89540257375E+02  0.20299274412E+04  0.20279516658E+04 0.  0.
        1    1    3    3  502    0  0.23474688002E+03  0.47309880885E+03  0.91118746719E+03  0.10531814568E+04  0.50400001928E-02 0. -1.
       -1    1    3    3    0  502 -0.23474688002E+03 -0.47309880885E+03 -0.82164720982E+03  0.97674598440E+03  0.50400001928E-02 0.  1.
</event>
<event>
 5   0  0.1257524E-04  0.2506654E+04  0.7818609E-02  0.8400619E-01
       -2   -1    0    0    0  501  0.00000000000E+00  0.00000000000E+00  0.85446728236E+03  0.85446728236E+03  0.25500000920E-02 0.  1.
        2   -1    0    0  501    0  0.00000000000E+00  0.00000000000E+00 -0.18383715437E+04  0.18383715437E+04  0.25500000920E-02 0. -1.
    10030    2    1    2    0    0  0.00000000000E+00  0.00000000000E+00 -0.98390426131E+03  0.26928388260E+04  0.25066538149E+04 0.  0.
        3    1    3    3  502    0  0.77411794774E+03  0.82945676581E+03  0.80115091048E+02  0.11373985939E+04  0.10100000352E+00 0.  1.
       -3    1    3    3    0  502 -0.77411794774E+03 -0.82945676581E+03 -0.10640193524E+04  0.15554402321E+04  0.10100000352E+00 0. -1.
</event>
<event>
 5   0  0.1270613E-04  0.2316831E+04  0.7818609E-02  0.8471314E-01
       -2   -1    0    0    0  501  0.00000000000E+00  0.00000000000E+00  0.16108717861E+04  0.16108717861E+04  0.25500000920E-02 0. -1.
        2   -1    0    0  501    0  0.00000000000E+00  0.00000000000E+00 -0.83304338122E+03  0.83304338123E+03  0.25500000920E-02 0.  1.
    10030    2    1    2    0    0  0.00000000000E+00  0.00000000000E+00  0.77782840487E+03  0.24439151673E+04  0.23168306623E+04 0.  0.
        2    1    3    3  502    0 -0.43634348148E+03 -0.20254706386E+03  0.15005233692E+04  0.15757510363E+04  0.25500000920E-02 0. -1.
       -2    1    3    3    0  502  0.43634348148E+03  0.20254706386E+03 -0.72269496433E+03  0.86816413101E+03  0.25500000920E-02 0.  1.
</event>
<event>
 5   0  0.5642466E-05  0.2234868E+04  0.7818609E-02  0.8504054E-01
        1   -1    0    0  501    0  0.00000000000E+00  0.00000000000E+00  0.11240832224E+04  0.11240832225E+04  0.50400001928E-02 0. -1.
       -1   -1    0    0    0  501  0.00000000000E+00  0.00000000000E+00 -0.11108241761E+04  0.11108241761E+04  0.50400001928E-02 0.  1.
    10030    2    1    2    0    0  0.00000000000E+00  0.00000000000E+00  0.13259046337E+02  0.22349073986E+04  0.22348680672E+04 0.  0.
        1    1    3    3  502    0 -0.66694519326E+03  0.13582290037E+03 -0.87961125274E+03  0.11121958942E+04  0.50400001928E-02 0.  1.
       -1    1    3    3    0  502  0.66694519326E+03 -0.13582290037E+03  0.89287029908E+03  0.11227115044E+04  0.50400001928E-02 0. -1.
</event>
<event>
 5   0  0.1234988E-04  0.2288948E+04  0.7818609E-02  0.8482291E-01
        2   -1    0    0  501    0  0.00000000000E+00  0.00000000000E+00  0.29866521842E+04  0.29866521842E+04  0.25500000920E-02 0.  1.
       -2   -1    0    0    0  501  0.00000000000E+00  0.00000000000E+00 -0.43855822683E+03  0.43855822684E+03  0.25500000920E-02 0. -1.
    10030    2    1    2    0    0  0.00000000000E+00  0.00000000000E+00  0.25480939573E+04  0.34252104110E+04  0.22889481305E+04 0.  0.
        5    1    3    3  502    0 -0.60408696208E+03 -0.94588354167E+03  0.16092636147E+04  0.19619806839E+04  0.46999998093E+01 0. -1.
       -5    1    3    3    0  502  0.60408696208E+03  0.94588354167E+03  0.93883034258E+03  0.14632297271E+04  0.46999998093E+01 0.  1.
</event>
<event>
 5   0  0.1270613E-04  0.2370896E+04  0.7818609E-02  0.8450481E-01
       -2   -1    0    0    0  501  0.00000000000E+00  0.00000000000E+00  0.13484795026E+04  0.13484795026E+04  0.25500000920E-02 0. -1.
        2   -1    0    0  501    0  0.00000000000E+00  0.00000000000E+00 -0.10421273033E+04  0.10421273033E+04  0.25500000920E-02 0.  1.
    10030    2    1    2    0    0  0.00000000000E+00  0.00000000000E+00  0.30635219932E+03  0.23906068059E+04  0.23708962926E+04 0.  0.
        2    1    3    3  502    0 -0.40231485567E+03 -0.17381779297E+03  0.12637946325E+04  0.13376272804E+04  0.25500000920E-02 0. -1.
       -2    1    3    3    0  502  0.40231485567E+03  0.17381779297E+03 -0.95744243317E+03  0.10529795255E+04  0.25500000920E-02 0.  1.
</event>
<event>
 5   0  0.1234988E-04  0.1978022E+04  0.7818609E-02  0.8616965E-01
        2   -1    0    0  501    0  0.00000000000E+00  0.00000000000E+00  0.10057998705E+04  0.10057998705E+04  0.25500000920E-02 0.  1.
       -2   -1    0    0    0  501  0.00000000000E+00  0.00000000000E+00 -0.97250254541E+03  0.97250254541E+03  0.25500000920E-02 0. -1.
    10030    2    1    2    0    0  0.00000000000E+00  0.00000000000E+00  0.33297325074E+02  0.19783024159E+04  0.19780221781E+04 0.  0.
        5    1    3    3  502    0  0.96281269276E+03  0.37018696989E+02  0.23970980769E+03  0.99290560839E+03  0.46999998093E+01 0. -1.
       -5    1    3    3    0  502 -0.96281269276E+03 -0.37018696989E+02 -0.20641248262E+03  0.98539680751E+03  0.46999998093E+01 0.  1.
</event>
<event>
 5   0  0.5642466E-05  0.2349051E+04  0.7818609E-02  0.8458828E-01
       -1   -1    0    0    0  501  0.00000000000E+00  0.00000000000E+00  0.10250761597E+04  0.10250761597E+04  0.50400001928E-02 0.  1.
        1   -1    0    0  501    0  0.00000000000E+00  0.00000000000E+00 -0.13457629963E+04  0.13457629964E+04  0.50400001928E-02 0. -1.
    10030    2    1    2    0    0  0.00000000000E+00  0.00000000000E+00 -0.32068683665E+03  0.23708391561E+04  0.23490505011E+04 0.  0.
        1    1    3    3  502    0  0.39533506403E+03  0.10784102446E+04  0.87394344892E+02  0.11519098229E+04  0.50400001928E-02 0. -1.
       -1    1    3    3    0  502 -0.39533506403E+03 -0.10784102446E+04 -0.40808118154E+03  0.12189293332E+04  0.50400001928E-02 0.  1.
</event>
<event>
 5   0  0.1281432E-04  0.2306292E+04  0.7818609E-02  0.8475444E-01
       -2   -1    0    0    0  501  0.00000000000E+00  0.00000000000E+00  0.11791207824E+04  0.11791207824E+04  0.25500000920E-02 0. -1.
        2   -1    0    0  501    0  0.00000000000E+00  0.00000000000E+00 -0.11277434706E+04  0.11277434706E+04  0.25500000920E-02 0.  1.
    10030    2    1    2    0    0  0.00000000000E+00  0.00000000000E+00  0.51377311807E+02  0.23068642531E+04  0.23062920574E+04 0.  0.
        4    1    3    3  502    0 -0.13876663585E+03 -0.24169990068E+03  0.11449252208E+04  0.11783591962E+04  0.12699999809E+01 0. -1.
       -4    1    3    3    0  502  0.13876663585E+03  0.24169990068E+03 -0.10935479090E+04  0.11285050569E+04  0.12699999809E+01 0.  1.
</event>
<event>
 5   0  0.1257524E-04  0.2332536E+04  0.7818609E-02  0.8465202E-01
        2   -1    0    0  501    0  0.00000000000E+00  0.00000000000E+00  0.99474853766E+03  0.99474853767E+03  0.25500000920E-02 0. -1.
       -2   -1    0    0    0  501  0.00000000000E+00  0.00000000000E+00 -0.13673614812E+04  0.13673614812E+04  0.25500000920E-02 0.  1.
    10030    2    1    2    0    0  0.00000000000E+00  0.00000000000E+00 -0.37261294358E+03  0.23621100189E+04  0.23325358166E+04 0.  0.
        3    1    3    3  502    0 -0.55705339090E+03  0.19624510778E+03 -0.12047213378E+04  0.13417056811E+04  0.10100000352E+00 0.  1.
       -3    1    3    3    0  502  0.55705339090E+03 -0.19624510778E+03  0.83210839426E+03  0.10204043378E+04  0.10100000352E+00 0. -1.
</event>
<event>
 5   0  0.1234988E-04  0.2327969E+04  0.7818609E-02  0.8466974E-01
        2   -1    0    0  501    0  0.00000000000E+00  0.00000000000E+00  0.15863560724E+04  0.15863560724E+04  0.25500000920E-02 0. -1.
       -2   -1    0    0    0  501  0.00000000000E+00  0.00000000000E+00 -0.85407031175E+03  0.85407031176E+03  0.25500000920E-02 0.  1.
    10030    2    1    2    0    0  0.00000000000E+00  0.00000000000E+00  0.73228576068E+03  0.24404263842E+04  0.23279687501E+04 0.  0.
        5    1    3    3  502    0  0.24942854181E+03 -0.49520390055E+03  0.14390052879E+04  0.15421413065E+04  0.46999998093E+01 0. -1.
       -5    1    3    3    0  502 -0.24942854181E+03  0.49520390055E+03 -0.70671952724E+03  0.89828507767E+03  0.46999998093E+01 0.  1.
</event>
<event>
 5   0  0.1257524E-04  0.2259115E+04  0.7818609E-02  0.8494218E-01
       -2   -1    0    0    0  501  0.00000000000E+00  0.00000000000E+00  0.40851357128E+03  0.40851357129E+03  0.25500000920E-02 0. -1.
        2   -1    0    0  501    0  0.00000000000E+00  0.00000000000E+00 -0.31232737991E+04  0.31232737991E+04  0.25500000920E-02 0.  1.
    10030    2    1    2    0    0  0.00000000000E+00  0.00000000000E+00 -0.27147602278E+04  0.35317873704E+04  0.22591146352E+04 0.  0.
        3    1    3    3  502    0 -0.23761087483E+03 -0.38754592231E+03 -0.29739545142E+04  0.30084973380E+04  0.10100000352E+00 0.  1.
       -3    1    3    3    0  502  0.23761087483E+03  0.38754592231E+03  0.25919428639E+03  0.52329003242E+03  0.10100000352E+00 0. -1.
</event>
<event>
 5   0  0.5663790E-05  0.2310966E+04  0.7818609E-02  0.8473610E-01
        1   -1    0    0  501    0  0.00000000000E+00  0.00000000000E+00  0.10696756212E+04  0.10696756212E+04  0.50400001928E-02 0.  1.
       -1   -1    0    0    0  501  0.00000000000E+00  0.00000000000E+00 -0.12481733658E+04  0.12481733658E+04  0.50400001928E-02 0. -1.
    10030    2    1    2    0    0  0.00000000000E+00  0.00000000000E+00 -0.17849774463E+03  0.23178489870E+04  0.23109657033E+04 0.  0.
        3    1    3    3  502    0  0.30312654090E+03  0.70843715914E+03 -0.95284291866E+03  0.12254299434E+04  0.10100000352E+00 0. -1.
       -3    1    3    3    0  502 -0.30312654090E+03 -0.70843715914E+03  0.77434517402E+03  0.10924190437E+04  0.10100000352E+00 0.  1.
</event>
<event>
 5   0  0.5663790E-05  0.2285107E+04  0.7818609E-02  0.8483816E-01
       -1   -1    0    0    0  501  0.00000000000E+00  0.00000000000E+00  0.21667826244E+04  0.21667826244E+04  0.50400001928E-02 0. -1.
        1   -1    0    0  501    0  0.00000000000E+00  0.00000000000E+00 -0.60247320266E+03  0.60247320268E+03  0.50400001928E-02 0.  1.
    10030    2    1    2    0    0  0.00000000000E+00  0.00000000000E+00  0.15643094218E+04  0.27692558271E+04  0.22851069710E+04 0.  0.
        3    1    3    3  502    0 -0.48919300221E+03 -0.28387671318E+03  0.19852279235E+04  0.20642252058E+04  0.10100000352E+00 0. -1.
       -3    1    3    3    0  502  0.48919300221E+03  0.28387671318E+03 -0.42091850174E+03  0.70503062133E+03  0.10100000352E+00 0.  1.
</event>
<event>
 5   0  0.1281432E-04  0.2048781E+04  0.7818609E-02  0.8584148E-01
       -2   -1    0    0    0  501  0.00000000000E+00  0.00000000000E+00  0.10697240914E+04  0.10697240914E+04  0.25500000920E-02 0. -1.
        2   -1    0    0  501    0  0.00000000000E+00  0.00000000000E+00 -0.98097790073E+03  0.98097790073E+03  0.25500000920E-02 0.  1.
    10030    2    1    2    0    0  0.00000000000E+00  0.00000000000E+00  0.88746190621E+02  0.20507019921E+04  0.20487808018E+04 0.  0.
        4    1    3    3  502    0 -0.40095602840E+03 -0.13418892233E+03  0.97830843041E+03  0.10657679867E+04  0.12699999809E+01 0. -1.
       -4    1    3    3    0  502  0.40095602840E+03  0.13418892233E+03 -0.88956223979E+03  0.98493400538E+03  0.12699999809E+01 0.  1.
</event>
<event>
 5   0  0.5924654E-05  0.2234462E+04  0.7818609E-02  0.8504220E-01
        1   -1    0    0  501    0  0.00000000000E+00  0.00000000000E+00  0.10880507028E+04  0.10880507028E+04  0.50400001928E-02 0. -1.
       -1   -1    0    0    0  501  0.00000000000E+00  0.00000000000E+00 -0.11471935568E+04  0.11471935568E+04  0.50400001928E-02 0.  1.
    10030    2    1    2    0    0  0.00000000000E+00  0.00000000000E+00 -0.59142853969E+02  0.22352442596E+04  0.22344616852E+04 0.  0.
        5    1    3    3  502    0  0.73686619109E+03  0.37605368597E+03  0.72155405618E+03  0.10977479238E+04  0.46999998093E+01 0. -1.
       -5    1    3    3    0  502 -0.73686619109E+03 -0.37605368597E+03 -0.78069691015E+03  0.11374963357E+04  0.46999998093E+01 0.  1.
</event>
<event>
 5   0  0.4489500E-05  0.2337832E+04  0.7818609E-02  0.8463152E-01
        3   -1    0    0  501    0  0.00000000000E+00  0.00000000000E+00  0.21882563972E+04  0.21882563995E+04  0.10100000352E+00 0.  1.
       -3   -1    0    0    0  501  0.00000000000E+00  0.00000000000E+00 -0.62440783039E+03  0.62440783856E+03  0.10100000352E+00 0. -1.
    10030    2    1    2    0    0  0.00000000000E+00  0.00000000000E+00  0.15638485668E+04  0.28126642381E+04  0.23378318537E+04 0.  0.
        4    1    3    3  502    0  0.53235384846E+03  0.10263786459E+04  0.57525187454E+03  0.12914217270E+04  0.12699999809E+01 0. -1.
       -4    1    3    3    0  502 -0.53235384846E+03 -0.10263786459E+04  0.98859669226E+03  0.15212425111E+04  0.12699999809E+01 0.  1.
</event>
<event>
 5   0  0.5663790E-05  0.2262941E+04  0.7818609E-02  0.8492678E-01
       -1   -1    0    0    0  501  0.00000000000E+00  0.00000000000E+00  0.12624393509E+04  0.12624393509E+04  0.50400001928E-02 0. -1.
        1   -1    0    0  501    0  0.00000000000E+00  0.00000000000E+00 -0.10140885346E+04  0.10140885346E+04  0.50400001928E-02 0.  1.
    10030    2    1    2    0    0  0.00000000000E+00  0.00000000000E+00  0.24835081631E+03  0.22765278854E+04  0.22629408046E+04 0.  0.
        3    1    3    3  502    0 -0.16825073266E+02  0.42652081541E+03 -0.92998168588E+03  0.10232639129E+04  0.10100000352E+00 0.  1.
       -3    1    3    3    0  502  0.16825073266E+02 -0.42652081541E+03  0.11783325022E+04  0.12532639726E+04  0.10100000352E+00 0. -1.
</event>
<event>
 5   0  0.5924654E-05  0.2311585E+04  0.7818609E-02  0.8473367E-01
        1   -1    0    0  501    0  0.00000000000E+00  0.00000000000E+00  0.15529870810E+04  0.15529870810E+04  0.50400001928E-02 0.  1.
       -1   -1    0    0    0  501  0.00000000000E+00  0.00000000000E+00 -0.86018512609E+03  0.86018512611E+03  0.50400001928E-02 0. -1.
    10030    2    1    2    0    0  0.00000000000E+00  0.00000000000E+00  0.69280195493E+03  0.24131722071E+04  0.23115850736E+04 0.  0.
        5    1    3    3  502    0  0.38373930552E+03  0.21257243718E+03 -0.76988609304E+03  0.88610923813E+03  0.46999998093E+01 0. -1.
       -5    1    3    3    0  502 -0.38373930552E+03 -0.21257243718E+03  0.14626880480E+04  0.15270629690E+04  0.46999998093E+01 0.  1.
</event>
<event>
 5   0  0.5663790E-05  0.2006775E+04  0.7818609E-02  0.8603460E-01
       -1   -1    0    0    0  501  0.00000000000E+00  0.00000000000E+00  0.15230448852E+04  0.15230448852E+04  0.50400001928E-02 0.  1.
        1   -1    0    0  501    0  0.00000000000E+00  0.00000000000E+00 -0.66103519760E+03  0.66103519762E+03  0.50400001928E-02 0. -1.
    10030    2    1    2    0    0  0.00000000000E+00  0.00000000000E+00  0.86200968763E+03  0.21840800829E+04  0.20067748022E+04 0.  0.
        3    1    3    3  502    0  0.33579075315E+03 -0.13782866813E+03  0.14490860181E+04  0.14938549025E+04  0.10100000352E+00 0.  1.
       -3    1    3    3    0  502 -0.33579075315E+03  0.13782866813E+03 -0.58707633045E+03  0.69022518038E+03  0.10100000352E+00 0. -1.
</event>
<event>
 5   0  0.1237296E-04  0.2309469E+04  0.7818609E-02  0.8474197E-01
       -2   -1    0    0    0  501  0.00000000000E+00  0.00000000000E+00  0.95379103192E+03  0.95379103192E+03  0.25500000920E-02 0.  1.
        2   -1    0    0  501    0  0.00000000000E+00  0.00000000000E+00 -0.13980130749E+04  0.13980130749E+04  0.25500000920E-02 0. -1.
    10030    2    1    2    0    0  0.00000000000E+00  0.00000000000E+00 -0.44422204299E+03  0.23518041068E+04  0.23094694918E+04 0.  0.
        1    1    3    3  502    0  0.38581847466E+03 -0.36839685589E+03 -0.12650132034E+04  0.13728913080E+04  0.50400001928E-02 0. -1.
       -1    1    3    3    0  502 -0.38581847466E+03  0.36839685589E+03  0.82079116036E+03  0.97891279886E+03  0.50400001928E-02 0.  1.
</event>
<event>
 5   0  0.5843670E-05  0.2190309E+04  0.7818609E-02  0.8522473E-01
       -1   -1    0    0    0  501  0.00000000000E+00  0.00000000000E+00  0.56636218110E+03  0.56636218112E+03  0.50400001928E-02 0. -1.
        1   -1    0    0  501    0  0.00000000000E+00  0.00000000000E+00 -0.21176607830E+04  0.21176607831E+04  0.50400001928E-02 0.  1.
    10030    2    1    2    0    0  0.00000000000E+00  0.00000000000E+00 -0.15512986019E+04  0.26840229642E+04  0.21903086357E+04 0.  0.
        2    1    3    3  502    0 -0.38968157464E+03  0.81098283963E+03 -0.15407382045E+04  0.17842138634E+04  0.25500000920E-02 0.  1.
       -2    1    3    3    0  502  0.38968157464E+03 -0.81098283963E+03 -0.10560397492E+02  0.89980910075E+03  0.25500000920E-02 0. -1.
</event>
<event>
 5   0  0.5663790E-05  0.2306915E+04  0.7818609E-02  0.8475200E-01
        1   -1    0    0  501    0  0.00000000000E+00  0.00000000000E+00  0.99625977590E+03  0.99625977591E+03  0.50400001928E-02 0.  1.
       -1   -1    0    0    0  501  0.00000000000E+00  0.00000000000E+00 -0.13354591969E+04  0.13354591969E+04  0.50400001928E-02 0. -1.
    10030    2    1    2    0    0  0.00000000000E+00  0.00000000000E+00 -0.33919942099E+03  0.23317189728E+04  0.23069150658E+04 0.  0.
        3    1    3    3  502    0 -0.87701874682E+03 -0.74260856460E+03 -0.26983709869E+03  0.11804412025E+04  0.10100000352E+00 0. -1.
       -3    1    3    3    0  502  0.87701874682E+03  0.74260856460E+03 -0.69362322295E+02  0.11512777703E+04  0.10100000352E+00 0.  1.
</event>
<event>
 5   0  0.5843670E-05  0.2280525E+04  0.7818609E-02  0.8485640E-01
       -1   -1    0    0    0  501  0.00000000000E+00  0.00000000000E+00  0.88275560609E+03  0.88275560610E+03  0.50400001928E-02 0.  1.
        1   -1    0    0  501    0  0.00000000000E+00  0.00000000000E+00 -0.14728857126E+04  0.14728857126E+04  0.50400001928E-02 0. -1.
    10030    2    1    2    0    0  0.00000000000E+00  0.00000000000E+00 -0.59013010650E+03  0.23556413187E+04  0.22805246063E+04 0.  0.
        2    1    3    3  502    0 -0.62508853888E+03  0.95118357148E+03 -0.36597197755E+03  0.11955841068E+04  0.25500000920E-02 0.  1.
       -2    1    3    3    0  502  0.62508853888E+03 -0.95118357148E+03 -0.22415812896E+03  0.11600572119E+04  0.25500000920E-02 0. -1.
</event>
<event>
 5   0  0.5663790E-05  0.1580896E+04  0.7818609E-02  0.8832371E-01
       -1   -1    0    0    0  501  0.00000000000E+00  0.00000000000E+00  0.85721709251E+03  0.85721709253E+03  0.50400001928E-02 0. -1.
        1   -1    0    0  501    0  0.00000000000E+00  0.00000000000E+00 -0.72887968356E+03  0.72887968357E+03  0.50400001928E-02 0.  1.
    10030    2    1    2    0    0  0.00000000000E+00  0.00000000000E+00  0.12833740895E+03  0.15860967761E+04  0.15808961043E+04 0.  0.
        3    1    3    3  502    0  0.58529263423E+03  0.39267904647E+03  0.42317796416E+03  0.82209725750E+03  0.10100000352E+00 0. -1.
       -3    1    3    3    0  502 -0.58529263423E+03 -0.39267904647E+03 -0.29484055521E+03  0.76399951860E+03  0.10100000352E+00 0.  1.
</event>
<event>
 5   0  0.1234988E-04  0.2290573E+04  0.7818609E-02  0.8481647E-01
        2   -1    0    0  501    0  0.00000000000E+00  0.00000000000E+00  0.24586221572E+04  0.24586221572E+04  0.25500000920E-02 0. -1.
       -2   -1    0    0    0  501  0.00000000000E+00  0.00000000000E+00 -0.53350242914E+03  0.53350242914E+03  0.25500000920E-02 0.  1.
    10030    2    1    2    0    0  0.00000000000E+00  0.00000000000E+00  0.19251197280E+04  0.29921245863E+04  0.22905727609E+04 0.  0.
        5    1    3    3  502    0 -0.58310488943E+03 -0.14617527666E+03 -0.31083014861E+03  0.67676878981E+03  0.46999998093E+01 0.  1.
       -5    1    3    3    0  502  0.58310488943E+03  0.14617527666E+03  0.22359498766E+04  0.23153557965E+04  0.46999998093E+01 0. -1.
</event>
<event>
 5   0  0.1237296E-04  0.2318279E+04  0.7818609E-02  0.8470749E-01
       -2   -1    0    0    0  501  0.00000000000E+00  0.00000000000E+00  0.12530621854E+04  0.12530621854E+04  0.25500000920E-02 0.  1.
        2   -1    0    0  501    0  0.00000000000E+00  0.00000000000E+00 -0.10722564070E+04  0.10722564070E+04  0.25500000920E-02 0. -1.
    10030    2    1    2    0    0  0.00000000000E+00  0.00000000000E+00  0.18080577845E+03  0.23253185924E+04  0.23182786344E+04 0.  0.
        1    1    3    3  502    0  0.47445826260E+03 -0.48268688067E+02  0.11500975090E+04  0.12450561390E+04  0.50400001928E-02 0.  1.
       -1    1    3    3    0  502 -0.47445826260E+03  0.48268688067E+02 -0.96929173052E+03  0.10802624533E+04  0.50400001928E-02 0. -1.
</event>
<event>
 5   0  0.5642466E-05  0.2285504E+04  0.7818609E-02  0.8483659E-01
       -1   -1    0    0    0  501  0.00000000000E+00  0.00000000000E+00  0.85621565646E+03  0.85621565647E+03  0.50400001928E-02 0.  1.
        1   -1    0    0  501    0  0.00000000000E+00  0.00000000000E+00 -0.15251789498E+04  0.15251789498E+04  0.50400001928E-02 0. -1.
    10030    2    1    2    0    0  0.00000000000E+00  0.00000000000E+00 -0.66896329331E+03  0.23813946062E+04  0.22855039669E+04 0.  0.
        1    1    3    3  502    0 -0.74041658991E+03 -0.12917276457E+03  0.56243598320E+03  0.93874201192E+03  0.50400001928E-02 0.  1.
       -1    1    3    3    0  502  0.74041658991E+03  0.12917276457E+03 -0.12313992765E+04  0.14426525943E+04  0.50400001928E-02 0. -1.
</event>
<event>
 5   0  0.1270613E-04  0.2391819E+04  0.7818609E-02  0.8442573E-01
       -2   -1    0    0    0  501  0.00000000000E+00  0.00000000000E+00  0.64394428360E+03  0.64394428360E+03  0.25500000920E-02 0. -1.
        2   -1    0    0  501    0  0.00000000000E+00  0.00000000000E+00 -0.22209983852E+04  0.22209983852E+04  0.25500000920E-02 0.  1.
    10030    2    1    2    0    0  0.00000000000E+00  0.00000000000E+00 -0.15770541016E+04  0.28649426689E+04  0.23918187340E+04 0.  0.
        2    1    3    3  502    0 -0.10086549227E+04 -0.63020798273E+03 -0.93838423864E+03  0.15149626510E+04  0.25500000920E-02 0.  1.
       -2    1    3    3    0  502  0.10086549227E+04  0.63020798273E+03 -0.63866986301E+03  0.13499800178E+04  0.25500000920E-02 0. -1.
</event>
<event>
 5   0  0.1234988E-04  0.1200346E+04  0.7818609E-02  0.9112553E-01
        2   -1    0    0  501    0  0.00000000000E+00  0.00000000000E+00  0.49453914397E+03  0.49453914397E+03  0.25500000920E-02 0.  1.
       -2   -1    0    0    0  501  0.00000000000E+00  0.00000000000E+00 -0.72837066782E+03  0.72837066783E+03  0.25500000920E-02 0. -1.
    10030    2    1    2    0    0  0.00000000000E+00  0.00000000000E+00 -0.23383152386E+03  0.12229098118E+04  0.12003462943E+04 0.  0.
        5    1    3    3  502    0  0.15906352495E+03  0.45492675161E+03 -0.48130669249E+03  0.68112977951E+03  0.46999998093E+01 0. -1.
       -5    1    3    3    0  502 -0.15906352495E+03 -0.45492675161E+03  0.24747516863E+03  0.54178003229E+03  0.46999998093E+01 0.  1.
</event>
<event>
 5   0  0.5843670E-05  0.1688162E+04  0.7818609E-02  0.8768145E-01
       -1   -1    0    0    0  501  0.00000000000E+00  0.00000000000E+00  0.29256048871E+03  0.29256048876E+03  0.50400001928E-02 0.  1.
        1   -1    0    0  501    0  0.00000000000E+00  0.00000000000E+00 -0.24352998747E+04  0.24352998747E+04  0.50400001928E-02 0. -1.
    10030    2    1    2    0    0  0.00000000000E+00  0.00000000000E+00 -0.21427393860E+04  0.27278603634E+04  0.16881617477E+04 0.  0.
        2    1    3    3  502    0  0.21767406678E+03  0.55192215512E+03 -0.20415313882E+04  0.21259939967E+04  0.25500000920E-02 0. -1.
       -2    1    3    3    0  502 -0.21767406678E+03 -0.55192215512E+03 -0.10120799774E+03  0.60186636679E+03  0.25500000920E-02 0.  1.
</event>
<event>
 5   0  0.1270613E-04  0.2293514E+04  0.7818609E-02  0.8480483E-01
       -2   -1    0    0    0  501  0.00000000000E+00  0.00000000000E+00  0.95248548274E+03  0.95248548274E+03  0.25500000920E-02 0.  1.
        2   -1    0    0  501    0  0.00000000000E+00  0.00000000000E+00 -0.13806524144E+04  0.13806524144E+04  0.25500000920E-02 0. -1.
    10030    2    1    2    0    0  0.00000000000E+00  0.00000000000E+00 -0.42816693165E+03  0.23331378971E+04  0.22935137945E+04 0.  0.
        2    1    3    3  502    0  0.47367192920E+03 -0.82139879205E+03 -0.87019951064E+03  0.12869764024E+04  0.25500000920E-02 0. -1.
       -2    1    3    3    0  502 -0.47367192920E+03  0.82139879205E+03  0.44203257899E+03  0.10461614947E+04  0.25500000920E-02 0.  1.
</event>
<event>
 5   0  0.1257524E-04  0.2351574E+04  0.7818609E-02  0.8457859E-01
       -2   -1    0    0    0  501  0.00000000000E+00  0.00000000000E+00  0.16153147631E+04  0.16153147631E+04  0.25500000920E-02 0.  1.
        2   -1    0    0  501    0  0.00000000000E+00  0.00000000000E+00 -0.85585499183E+03  0.85585499184E+03  0.25500000920E-02 0. -1.
    10030    2    1    2    0    0  0.00000000000E+00  0.00000000000E+00  0.75945977125E+03  0.24711697549E+04  0.23515741140E+04 0.  0.
        3    1    3    3  502    0  0.59632712598E+03 -0.99392843985E+03  0.17226755775E+03  0.11718258857E+04  0.10100000352E+00 0. -1.
       -3    1    3    3    0  502 -0.59632712598E+03  0.99392843985E+03  0.58719221349E+03  0.12993438692E+04  0.10100000352E+00 0.  1.
</event>
<event>
 5   0  0.5924654E-05  0.2374370E+04  0.7818609E-02  0.8449162E-01
       -1   -1    0    0    0  501  0.00000000000E+00  0.00000000000E+00  0.87901116066E+03  0.87901116068E+03  0.50400001928E-02 0. -1.
        1   -1    0    0  501    0  0.00000000000E+00  0.00000000000E+00 -0.16034013605E+04  0.16034013606E+04  0.50400001928E-02 0.  1.
    10030    2    1    2    0    0  0.00000000000E+00  0.00000000000E+00 -0.72439019988E+03  0.24824125212E+04  0.23743695508E+04 0.  0.
        5    1    3    3  502    0 -0.77683448136E+03  0.76487476642E+03  0.12916989121E+03  0.10978215568E+04  0.46999998093E+01 0. -1.
       -5    1    3    3    0  502  0.77683448136E+03 -0.76487476642E+03 -0.85356009110E+03  0.13845909645E+04  0.46999998093E+01 0.  1.
</event>
<event>
 5   0  0.5924654E-05  0.2281488E+04  0.7818609E-02  0.8485256E-01
        1   -1    0    0  501    0  0.00000000000E+00  0.00000000000E+00  0.20356854750E+04  0.20356854750E+04  0.50400001928E-02 0.  1.
       -1   -1    0    0    0  501  0.00000000000E+00  0.00000000000E+00 -0.63924285734E+03  0.63924285736E+03  0.50400001928E-02 0. -1.
    10030    2    1    2    0    0  0.00000000000E+00  0.00000000000E+00  0.13964426177E+04  0.26749283324E+04  0.22814884613E+04 0.  0.
        5    1    3    3  502    0  0.11835147062E+03 -0.26194095494E+03  0.19925193463E+04  0.20131506575E+04  0.46999998093E+01 0.  1.
       -5    1    3    3    0  502 -0.11835147062E+03  0.26194095494E+03 -0.59607672865E+03  0.66177767484E+03  0.46999998093E+01 0. -1.
</event>
<event>
 5   0  0.1237296E-04  0.2309518E+04  0.7818609E-02  0.8474178E-01
       -2   -1    0    0    0  501  0.00000000000E+00  0.00000000000E+00  0.12144226237E+04  0.12144226237E+04  0.25500000920E-02 0. -1.
        2   -1    0    0  501    0  0.00000000000E+00  0.00000000000E+00 -0.10980261608E+04  0.10980261608E+04  0.25500000920E-02 0.  1.
    10030    2    1    2    0    0  0.00000000000E+00  0.00000000000E+00  0.11639646283E+03  0.23124487845E+04  0.23095175350E+04 0.  0.
        1    1    3    3  502    0  0.23565720419E+03  0.11060039651E+04 -0.17595477986E+03  0.11444383659E+04  0.50400001928E-02 0.  1.
       -1    1    3    3    0  502 -0.23565720419E+03 -0.11060039651E+04  0.29235124269E+03  0.11680104186E+04  0.50400001928E-02 0. -1.
</event>
<event>
 5   0  0.5632156E-05  0.2238258E+04  0.7818609E-02  0.8502671E-01
       -1   -1    0    0    0  501  0.00000000000E+00  0.00000000000E+00  0.20364795105E+04  0.20364795105E+04  0.50400001928E-02 0. -1.
        1   -1    0    0  501    0  0.00000000000E+00  0.00000000000E+00 -0.61500738316E+03  0.61500738318E+03  0.50400001928E-02 0.  1.
    10030    2    1    2    0    0  0.00000000000E+00  0.00000000000E+00  0.14214721273E+04  0.26514868936E+04  0.22382581930E+04 0.  0.
        4    1    3    3  502    0  0.60342571053E+03 -0.91800758690E+03  0.96366798207E+03  0.14613412026E+04  0.12699999809E+01 0. -1.
       -4    1    3    3    0  502 -0.60342571053E+03  0.91800758690E+03  0.45780414522E+03  0.11901456911E+04  0.12699999809E+01 0.  1.
</event>
<event>
 5   0  0.5843670E-05  0.2299116E+04  0.7818609E-02  0.8478270E-01
       -1   -1    0    0    0  501  0.00000000000E+00  0.00000000000E+00  0.12134004121E+04  0.12134004121E+04  0.50400001928E-02 0.  1.
        1   -1    0    0  501    0  0.00000000000E+00  0.00000000000E+00 -0.10890743165E+04  0.10890743165E+04  0.50400001928E-02 0. -1.
    10030    2    1    2    0    0  0.00000000000E+00  0.00000000000E+00  0.12432609562E+03  0.23024747286E+04  0.22991156773E+04 0.  0.
        2    1    3    3  502    0 -0.28585430600E+02  0.58558744661E+03  0.10524218823E+04  0.12047080986E+04  0.25500000920E-02 0.  1.
       -2    1    3    3    0  502  0.28585430600E+02 -0.58558744661E+03 -0.92809578672E+03  0.10977666299E+04  0.25500000920E-02 0. -1.
</event>
<event>
 5   0  0.1281432E-04  0.2321863E+04  0.7818609E-02  0.8469350E-01
       -2   -1    0    0    0  501  0.00000000000E+00  0.00000000000E+00  0.12491870528E+04  0.12491870528E+04  0.25500000920E-02 0. -1.
        2   -1    0    0  501    0  0.00000000000E+00  0.00000000000E+00 -0.10789110665E+04  0.10789110665E+04  0.25500000920E-02 0.  1.
    10030    2    1    2    0    0  0.00000000000E+00  0.00000000000E+00  0.17027598626E+03  0.23280981193E+04  0.23218628171E+04 0.  0.
        4    1    3    3  502    0 -0.29489201735E+03  0.47370224848E+03 -0.93563570950E+03  0.10893901578E+04  0.12699999809E+01 0.  1.
       -4    1    3    3    0  502  0.29489201735E+03 -0.47370224848E+03  0.11059116958E+04  0.12387079615E+04  0.12699999809E+01 0. -1.
</event>
<event>
 5   0  0.1270613E-04  0.2313674E+04  0.7818609E-02  0.8472549E-01
        2   -1    0    0  501    0  0.00000000000E+00  0.00000000000E+00  0.20681164740E+04  0.20681164740E+04  0.25500000920E-02 0.  1.
       -2   -1    0    0    0  501  0.00000000000E+00  0.00000000000E+00 -0.64709713648E+03  0.64709713649E+03  0.25500000920E-02 0. -1.
    10030    2    1    2    0    0  0.00000000000E+00  0.00000000000E+00  0.14210193375E+04  0.27152136104E+04  0.23136743489E+04 0.  0.
        2    1    3    3  502    0 -0.47893929442E+03  0.86146197884E+03 -0.21313060824E+00  0.98564681004E+03  0.25500000920E-02 0. -1.
       -2    1    3    3    0  502  0.47893929442E+03 -0.86146197884E+03  0.14212324681E+04  0.17295668004E+04  0.25500000920E-02 0.  1.
</event>
<event>
 5   0  0.1257524E-04  0.2288037E+04  0.7818609E-02  0.8482653E-01
       -2   -1    0    0    0  501  0.00000000000E+00  0.00000000000E+00  0.45786824901E+03  0.45786824901E+03  0.25500000920E-02 0.  1.
        2   -1    0    0  501    0  0.00000000000E+00  0.00000000000E+00 -0.28584160593E+04  0.28584160593E+04  0.25500000920E-02 0. -1.
    10030    2    1    2    0    0  0.00000000000E+00  0.00000000000E+00 -0.24005478103E+04  0.33162843083E+04  0.22880366745E+04 0.  0.
        3    1    3    3  502    0  0.10271349627E+04 -0.37225169201E+03 -0.70832980886E+03  0.13020401999E+04  0.10100000352E+00 0. -1.
       -3    1    3    3    0  502 -0.10271349627E+04  0.37225169201E+03 -0.16922180014E+04  0.20142441084E+04  0.10100000352E+00 0.  1.
</event>
<event>
 5   0  0.4489500E-05  0.2440858E+04  0.7818609E-02  0.8424363E-01
       -4   -1    0    0    0  501  0.00000000000E+00  0.00000000000E+00  0.76148757254E+03  0.76148863159E+03  0.12699999809E+01 0.  1.
        4   -1    0    0  501    0  0.00000000000E+00  0.00000000000E+00 -0.19559673083E+04  0.19559677206E+04  0.12699999809E+01 0. -1.
    10030    2    1    2    0    0  0.00000000000E+00  0.00000000000E+00 -0.11944797358E+04  0.27174563522E+04  0.24408578793E+04 0.  0.
        2    1    3    3  502    0  0.13335564789E+03 -0.22502758608E+03 -0.19243930210E+04  0.19420889894E+04  0.25500000920E-02 0. -1.
       -2    1    3    3    0  502 -0.13335564789E+03  0.22502758608E+03  0.72991328525E+03  0.77536736281E+03  0.25500000920E-02 0.  1.
</event>
<event>
 5   0  0.1281432E-04  0.2236908E+04  0.7818609E-02  0.8503221E-01
        2   -1    0    0  501    0  0.00000000000E+00  0.00000000000E+00  0.15450304620E+04  0.15450304620E+04  0.25500000920E-02 0.  1.
       -2   -1    0    0    0  501  0.00000000000E+00  0.00000000000E+00 -0.80965363448E+03  0.80965363448E+03  0.25500000920E-02 0. -1.
    10030    2    1    2    0    0  0.00000000000E+00  0.00000000000E+00  0.73537682750E+03  0.23546840965E+04  0.22369081599E+04 0.  0.
        4    1    3    3  502    0 -0.40184153748E+03 -0.69389851197E+03  0.11884635588E+04  0.14336732577E+04  0.12699999809E+01 0.  1.
       -4    1    3    3    0  502  0.40184153748E+03  0.69389851197E+03 -0.45308673135E+03  0.92101083879E+03  0.12699999809E+01 0. -1.
</event>
<event>
 5   0  0.1257524E-04  0.2333792E+04  0.7818609E-02  0.8464715E-01
        2   -1    0    0  501    0  0.00000000000E+00  0.00000000000E+00  0.21974051628E+04  0.21974051628E+04  0.25500000920E-02 0. -1.
       -2   -1    0    0    0  501  0.00000000000E+00  0.00000000000E+00 -0.61966124041E+03  0.61966124042E+03  0.25500000920E-02 0.  1.
    10030    2    1    2    0    0  0.00000000000E+00  0.00000000000E+00  0.15777439224E+04  0.28170664032E+04  0.23337924577E+04 0.  0.
        3    1    3    3  502    0  0.11913275849E+03 -0.82419931737E+02  0.21865088757E+04  0.21913025197E+04  0.10100000352E+00 0. -1.
       -3    1    3    3    0  502 -0.11913275849E+03  0.82419931737E+02 -0.60876495331E+03  0.62576388349E+03  0.10100000352E+00 0.  1.
</event>
<event>
 5   0  0.5663790E-05  0.1915770E+04  0.7818609E-02  0.8647046E-01
       -1   -1    0    0    0  501  0.00000000000E+00  0.00000000000E+00  0.12233304908E+04  0.12233304908E+04  0.50400001928E-02 0.  1.
        1   -1    0    0  501    0  0.00000000000E+00  0.00000000000E+00 -0.75003715990E+03  0.75003715992E+03  0.50400001928E-02 0. -1.
    10030    2    1    2    0    0  0.00000000000E+00  0.00000000000E+00  0.47329333091E+03  0.19733676507E+04  0.19157696385E+04 0.  0.
        3    1    3    3  502    0  0.41792594369E+03 -0.60038917895E+03  0.87363523892E+03  0.11394594339E+04  0.10100000352E+00 0.  1.
       -3    1    3    3    0  502 -0.41792594369E+03  0.60038917895E+03 -0.40034190802E+03  0.83390821684E+03  0.10100000352E+00 0. -1.
</event>
<event>
 5   0  0.1237296E-04  0.2310717E+04  0.7818609E-02  0.8473708E-01
        2   -1    0    0  501    0  0.00000000000E+00  0.00000000000E+00  0.20322729873E+04  0.20322729873E+04  0.25500000920E-02 0.  1.
       -2   -1    0    0    0  501  0.00000000000E+00  0.00000000000E+00 -0.65682771588E+03  0.65682771589E+03  0.25500000920E-02 0. -1.
    10030    2    1    2    0    0  0.00000000000E+00  0.00000000000E+00  0.13754452714E+04  0.26891007031E+04  0.23107169660E+04 0.  0.
        1    1    3    3  502    0  0.16535954323E+03  0.33303181088E+03 -0.58529575545E+03  0.69341552259E+03  0.50400001928E-02 0. -1.
       -1    1    3    3    0  502 -0.16535954323E+03 -0.33303181088E+03  0.19607410268E+04  0.19956851806E+04  0.50400001928E-02 0.  1.
</event>
<event>
 5   0  0.5843670E-05  0.2199873E+04  0.7818609E-02  0.8518481E-01
       -1   -1    0    0    0  501  0.00000000000E+00  0.00000000000E+00  0.49759751632E+03  0.49759751634E+03  0.50400001928E-02 0.  1.
        1   -1    0    0  501    0  0.00000000000E+00  0.00000000000E+00 -0.24314028285E+04  0.24314028285E+04  0.50400001928E-02 0. -1.
    10030    2    1    2    0    0  0.00000000000E+00  0.00000000000E+00 -0.19338053121E+04  0.29290003448E+04  0.21998727315E+04 0.  0.
        2    1    3    3  502    0 -0.12547632426E+03  0.74428370885E+03 -0.20321863325E+04  0.21678292915E+04  0.25500000920E-02 0. -1.
       -2    1    3    3    0  502  0.12547632426E+03 -0.74428370885E+03  0.98381020333E+02  0.76117105330E+03  0.25500000920E-02 0.  1.
</event>
<event>
 5   0  0.5642466E-05  0.1569009E+04  0.7818609E-02  0.8839816E-01
       -1   -1    0    0    0  501  0.00000000000E+00  0.00000000000E+00  0.44585803306E+03  0.44585803309E+03  0.50400001928E-02 0.  1.
        1   -1    0    0  501    0  0.00000000000E+00  0.00000000000E+00 -0.13803661660E+04  0.13803661660E+04  0.50400001928E-02 0. -1.
    10030    2    1    2    0    0  0.00000000000E+00  0.00000000000E+00 -0.93450813292E+03  0.18262241991E+04  0.15690090423E+04 0.  0.
        1    1    3    3  502    0 -0.59498430224E+03 -0.28289140670E+03 -0.96300486102E+03  0.11667957106E+04  0.50400001928E-02 0. -1.
       -1    1    3    3    0  502  0.59498430224E+03  0.28289140670E+03  0.28496728100E+02  0.65942848849E+03  0.50400001928E-02 0.  1.
</event>
<event>
 5   0  0.1281432E-04  0.2352859E+04  0.7818609E-02  0.8457366E-01
        2   -1    0    0  501    0  0.00000000000E+00  0.00000000000E+00  0.57113615804E+03  0.57113615805E+03  0.25500000920E-02 0.  1.
       -2   -1    0    0    0  501  0.00000000000E+00  0.00000000000E+00 -0.24232164088E+04  0.24232164088E+04  0.25500000920E-02 0. -1.
    10030    2    1    2    0    0  0.00000000000E+00  0.00000000000E+00 -0.18520802507E+04  0.29943525668E+04  0.23528591202E+04 0.  0.
        4    1    3    3  502    0 -0.11105394820E+04  0.38746139237E+03 -0.89590705613E+03  0.14785382436E+04  0.12699999809E+01 0. -1.
       -4    1    3    3    0  502  0.11105394820E+04 -0.38746139237E+03 -0.95617319459E+03  0.15158143232E+04  0.12699999809E+01 0.  1.
</event>
<event>
 5   0  0.1281432E-04  0.2325704E+04  0.7818609E-02  0.8467855E-01
       -2   -1    0    0    0  501  0.00000000000E+00  0.00000000000E+00  0.15977140652E+04  0.15977140652E+04  0.25500000920E-02 0. -1.
        2   -1    0    0  501    0  0.00000000000E+00  0.00000000000E+00 -0.84634988017E+03  0.84634988017E+03  0.25500000920E-02 0.  1.
    10030    2    1    2    0    0  0.00000000000E+00  0.00000000000E+00  0.75136418501E+03  0.24440639454E+04  0.23257042870E+04 0.  0.
        4    1    3    3  502    0  0.10153080879E+03  0.64670875913E+02 -0.83978369033E+03  0.84836848525E+03  0.12699999809E+01 0.  1.
       -4    1    3    3    0  502 -0.10153080879E+03 -0.64670875913E+02  0.15911478753E+04  0.15956954601E+04  0.12699999809E+01 0. -1.
</event>
<event>
 5   0  0.1281432E-04  0.1408470E+04  0.7818609E-02  0.8947711E-01
       -2   -1    0    0    0  501  0.00000000000E+00  0.00000000000E+00  0.98399198074E+03  0.98399198075E+03  0.25500000920E-02 0. -1.
        2   -1    0    0  501    0  0.00000000000E+00  0.00000000000E+00 -0.50401492111E+03  0.50401492111E+03  0.25500000920E-02 0.  1.
    10030    2    1    2    0    0  0.00000000000E+00  0.00000000000E+00  0.47997705964E+03  0.14880069019E+04  0.14084695816E+04 0.  0.
        4    1    3    3  502    0  0.46839292634E+03 -0.21206626600E+03  0.74839249548E+03  0.90799613150E+03  0.12699999809E+01 0. -1.
       -4    1    3    3    0  502 -0.46839292634E+03  0.21206626600E+03 -0.26841543585E+03  0.58001077036E+03  0.12699999809E+01 0.  1.
</event>
<event>
 5   0  0.4489500E-05  0.2294740E+04  0.7818609E-02  0.8479998E-01
       -3   -1    0    0    0  501  0.00000000000E+00  0.00000000000E+00  0.11266621697E+04  0.11266621743E+04  0.10100000352E+00 0.  1.
        3   -1    0    0  501    0  0.00000000000E+00  0.00000000000E+00 -0.11684582110E+04  0.11684582153E+04  0.10100000352E+00 0. -1.
    10030    2    1    2    0    0  0.00000000000E+00  0.00000000000E+00 -0.41796041218E+02  0.22951203896E+04  0.22947397878E+04 0.  0.
        3    1    3    3  502    0 -0.52865362046E+03 -0.10057950499E+04 -0.18017056449E+03  0.11504606796E+04  0.10100000352E+00 0.  1.
       -3    1    3    3    0  502  0.52865362046E+03  0.10057950499E+04  0.13837452327E+03  0.11446597100E+04  0.10100000352E+00 0. -1.
</event>
<event>
 5   0  0.5642466E-05  0.1228615E+04  0.7818609E-02  0.9088172E-01
        1   -1    0    0  501    0  0.00000000000E+00  0.00000000000E+00  0.71839515809E+03  0.71839515811E+03  0.50400001928E-02 0.  1.
       -1   -1    0    0    0  501  0.00000000000E+00  0.00000000000E+00 -0.52530067620E+03  0.52530067623E+03  0.50400001928E-02 0. -1.
    10030    2    1    2    0    0  0.00000000000E+00  0.00000000000E+00  0.19309448189E+03  0.12436958343E+04  0.12286146057E+04 0.  0.
        1    1    3    3  502    0 -0.53584916483E+03 -0.28057075409E+03 -0.12097677169E+02  0.60497985860E+03  0.50400001928E-02 0.  1.
       -1    1    3    3    0  502  0.53584916483E+03  0.28057075409E+03  0.20519215906E+03  0.63871597574E+03  0.50400001928E-02 0. -1.
</event>
<event>
 5   0  0.4489500E-05  0.2317215E+04  0.7818609E-02  0.8471164E-01
        3   -1    0    0  501    0  0.00000000000E+00  0.00000000000E+00  0.17706684165E+04  0.17706684194E+04  0.10100000352E+00 0.  1.
       -3   -1    0    0    0  501  0.00000000000E+00  0.00000000000E+00 -0.75811546538E+03  0.75811547211E+03  0.10100000352E+00 0. -1.
    10030    2    1    2    0    0  0.00000000000E+00  0.00000000000E+00  0.10125529511E+04  0.25287838915E+04  0.23172148133E+04 0.  0.
        3    1    3    3  502    0  0.86542924637E+03 -0.17726927309E+03 -0.31182172874E+03  0.93681640484E+03  0.10100000352E+00 0. -1.
       -3    1    3    3    0  502 -0.86542924637E+03  0.17726927309E+03  0.13243746799E+04  0.15919674866E+04  0.10100000352E+00 0.  1.
</event>
<event>
 5   0  0.1257524E-04  0.2338022E+04  0.7818609E-02  0.8463079E-01
        2   -1    0    0  501    0  0.00000000000E+00  0.00000000000E+00  0.73375502435E+03  0.73375502436E+03  0.25500000920E-02 0. -1.
       -2   -1    0    0    0  501  0.00000000000E+00  0.00000000000E+00 -0.18624568081E+04  0.18624568081E+04  0.25500000920E-02 0.  1.
    10030    2    1    2    0    0  0.00000000000E+00  0.00000000000E+00 -0.11287017837E+04  0.25962118324E+04  0.23380222758E+04 0.  0.
        3    1    3    3  502    0  0.40434446255E+03  0.10941842959E+04 -0.47939522811E+03  0.12611714843E+04  0.10100000352E+00 0.  1.
       -3    1    3    3    0  502 -0.40434446255E+03 -0.10941842959E+04 -0.64930655560E+03  0.13350403481E+04  0.10100000352E+00 0. -1.
</event>
<event>
 5   0  0.1237296E-04  0.2275494E+04  0.7818609E-02  0.8487646E-01
       -2   -1    0    0    0  501  0.00000000000E+00  0.00000000000E+00  0.10654297519E+04  0.10654297519E+04  0.25500000920E-02 0. -1.
        2   -1    0    0  501    0  0.00000000000E+00  0.00000000000E+00 -0.12149731885E+04  0.12149731885E+04  0.25500000920E-02 0.  1.
    10030    2    1    2    0    0  0.00000000000E+00  0.00000000000E+00 -0.14954343660E+03  0.22804029404E+04  0.22754943048E+04 0.  0.
        1    1    3    3  502    0  0.41680498182E+03  0.75586954716E+03 -0.81758817678E+03  0.11889136184E+04  0.50400001928E-02 0.  1.
       -1    1    3    3    0  502 -0.41680498182E+03 -0.75586954716E+03  0.66804474018E+03  0.10914893220E+04  0.50400001928E-02 0. -1.
</event>
<event>
 5   0  0.4489500E-05  0.2311470E+04  0.7818609E-02  0.8473412E-01
        4   -1    0    0  501    0  0.00000000000E+00  0.00000000000E+00  0.11601200071E+04  0.11601207022E+04  0.12699999809E+01 0.  1.
       -4   -1    0    0    0  501  0.00000000000E+00  0.00000000000E+00 -0.11513649913E+04  0.11513656917E+04  0.12699999809E+01 0. -1.
    10030    2    1    2    0    0  0.00000000000E+00  0.00000000000E+00  0.87550158114E+01  0.23114863939E+04  0.23114698136E+04 0.  0.
        4    1    3    3  502    0 -0.11387605423E+04  0.18324505817E+03 -0.68884452686E+02  0.11554657090E+04  0.12699999809E+01 0. -1.
       -4    1    3    3    0  502  0.11387605423E+04 -0.18324505817E+03  0.77639468497E+02  0.11560206849E+04  0.12699999809E+01 0.  1.
</event>
<event>
 5   0  0.5642466E-05  0.2177658E+04  0.7818609E-02  0.8527785E-01
        1   -1    0    0  501    0  0.00000000000E+00  0.00000000000E+00  0.16273614888E+04  0.16273614888E+04  0.50400001928E-02 0. -1.
       -1   -1    0    0    0  501  0.00000000000E+00  0.00000000000E+00 -0.72850960801E+03  0.72850960802E+03  0.50400001928E-02 0.  1.
    10030    2    1    2    0    0  0.00000000000E+00  0.00000000000E+00  0.89885188077E+03  0.23558710968E+04  0.21776578981E+04 0.  0.
        1    1    3    3  502    0  0.65704742162E+03 -0.28635666027E+03  0.13361609139E+04  0.15162577086E+04  0.50400001928E-02 0. -1.
       -1    1    3    3    0  502 -0.65704742162E+03  0.28635666027E+03 -0.43730903312E+03  0.83961338818E+03  0.50400001928E-02 0.  1.
</event>
<event>
 5   0  0.5843670E-05  0.2326851E+04  0.7818609E-02  0.8467409E-01
        1   -1    0    0  501    0  0.00000000000E+00  0.00000000000E+00  0.14176362798E+04  0.14176362799E+04  0.50400001928E-02 0. -1.
       -1   -1    0    0    0  501  0.00000000000E+00  0.00000000000E+00 -0.95479972568E+03  0.95479972570E+03  0.50400001928E-02 0.  1.
    10030    2    1    2    0    0  0.00000000000E+00  0.00000000000E+00  0.46283655416E+03  0.23724360056E+04  0.23268508600E+04 0.  0.
        2    1    3    3  502    0  0.75461284515E+03  0.13113795873E+03 -0.66147854939E+03  0.10120235084E+04  0.25500000920E-02 0.  1.
       -2    1    3    3    0  502 -0.75461284515E+03 -0.13113795873E+03  0.11243151035E+04  0.13604124971E+04  0.25500000920E-02 0. -1.
</event>
<event>
 5   0  0.1257524E-04  0.1909576E+04  0.7818609E-02  0.8650104E-01
       -2   -1    0    0    0  501  0.00000000000E+00  0.00000000000E+00  0.78385413446E+03  0.78385413446E+03  0.25500000920E-02 0. -1.
        2   -1    0    0  501    0  0.00000000000E+00  0.00000000000E+00 -0.11629975806E+04  0.11629975806E+04  0.25500000920E-02 0.  1.
    10030    2    1    2    0    0  0.00000000000E+00  0.00000000000E+00 -0.37914344612E+03  0.19468517151E+04  0.19095763529E+04 0.  0.
        3    1    3    3  502    0  0.58116610221E+03 -0.67429104981E+03 -0.54156171748E+03  0.10419748376E+04  0.10100000352E+00 0.  1.
       -3    1    3    3    0  502 -0.58116610221E+03  0.67429104981E+03  0.16241827136E+03  0.90487687742E+03  0.10100000352E+00 0. -1.
</event>
<event>
 5   0  0.5843670E-05  0.2273348E+04  0.7818609E-02  0.8488504E-01
       -1   -1    0    0    0  501  0.00000000000E+00  0.00000000000E+00  0.78463059328E+03  0.78463059330E+03  0.50400001928E-02 0.  1.
        1   -1    0    0  501    0  0.00000000000E+00  0.00000000000E+00 -0.16466705805E+04  0.16466705805E+04  0.50400001928E-02 0. -1.
    10030    2    1    2    0    0  0.00000000000E+00  0.00000000000E+00 -0.86203998720E+03  0.24313011738E+04  0.22733482923E+04 0.  0.
        2    1    3    3  502    0  0.58008832705E+02  0.96204829058E+03 -0.10754882940E+04  0.14441526957E+04  0.25500000920E-02 0.  1.
       -2    1    3    3    0  502 -0.58008832705E+02 -0.96204829058E+03  0.21344830676E+03  0.98714847807E+03  0.25500000920E-02 0. -1.
</event>
<event>
 5   0  0.1270613E-04  0.2218903E+04  0.7818609E-02  0.8510601E-01
       -2   -1    0    0    0  501  0.00000000000E+00  0.00000000000E+00  0.82809332635E+03  0.82809332636E+03  0.25500000920E-02 0.  1.
        2   -1    0    0  501    0  0.00000000000E+00  0.00000000000E+00 -0.14864050457E+04  0.14864050457E+04  0.25500000920E-02 0. -1.
    10030    2    1    2    0    0  0.00000000000E+00  0.00000000000E+00 -0.65831171932E+03  0.23144983720E+04  0.22189025202E+04 0.  0.
        2    1    3    3  502    0  0.30420653548E+03  0.53436887866E+03  0.63409588325E+03  0.88327193087E+03  0.25500000920E-02 0.  1.
       -2    1    3    3    0  502 -0.30420653548E+03 -0.53436887866E+03 -0.12924076026E+04  0.14312264412E+04  0.25500000920E-02 0. -1.
</event>
<event>
 5   0  0.5663790E-05  0.2312756E+04  0.7818609E-02  0.8472908E-01
       -1   -1    0    0    0  501  0.00000000000E+00  0.00000000000E+00  0.91746098730E+03  0.91746098731E+03  0.50400001928E-02 0.  1.
        1   -1    0    0  501    0  0.00000000000E+00  0.00000000000E+00 -0.14575121118E+04  0.14575121118E+04  0.50400001928E-02 0. -1.
    10030    2    1    2    0    0  0.00000000000E+00  0.00000000000E+00 -0.54005112447E+03  0.23749730991E+04  0.23127563651E+04 0.  0.
        3    1    3    3  502    0 -0.35871144716E+02 -0.70171928585E+03  0.67311170266E+03  0.97302418758E+03  0.10100000352E+00 0.  1.
       -3    1    3    3    0  502  0.35871144716E+02  0.70171928585E+03 -0.12131628271E+04  0.14019489115E+04  0.10100000352E+00 0. -1.
</event>
<event>
 5   0  0.5642466E-05  0.2303936E+04  0.7818609E-02  0.8476371E-01
        1   -1    0    0  501    0  0.00000000000E+00  0.00000000000E+00  0.12165596861E+04  0.12165596861E+04  0.50400001928E-02 0.  1.
       -1   -1    0    0    0  501  0.00000000000E+00  0.00000000000E+00 -0.10908056524E+04  0.10908056524E+04  0.50400001928E-02 0. -1.
    10030    2    1    2    0    0  0.00000000000E+00  0.00000000000E+00  0.12575403373E+03  0.23073653385E+04  0.23039359211E+04 0.  0.
        1    1    3    3  502    0  0.43785039196E+03 -0.10549366990E+04  0.21285231117E+03  0.11618564933E+04  0.50400001928E-02 0.  1.
       -1    1    3    3    0  502 -0.43785039196E+03  0.10549366990E+04 -0.87098277441E+02  0.11455088452E+04  0.50400001928E-02 0. -1.
</event>
<event>
 5   0  0.1281432E-04  0.2251830E+04  0.7818609E-02  0.8497160E-01
       -2   -1    0    0    0  501  0.00000000000E+00  0.00000000000E+00  0.12025511172E+04  0.12025511172E+04  0.25500000920E-02 0.  1.
        2   -1    0    0  501    0  0.00000000000E+00  0.00000000000E+00 -0.10541628185E+04  0.10541628185E+04  0.25500000920E-02 0. -1.
    10030    2    1    2    0    0  0.00000000000E+00  0.00000000000E+00  0.14838829871E+03  0.22567139356E+04  0.22518300780E+04 0.  0.
        4    1    3    3  502    0  0.43727430440E+03  0.34756015390E+03 -0.90551299864E+03  0.10639371605E+04  0.12699999809E+01 0. -1.
       -4    1    3    3    0  502 -0.43727430440E+03 -0.34756015390E+03  0.10539012974E+04  0.11927767751E+04  0.12699999809E+01 0.  1.
</event>
<event>
 5   0  0.1234988E-04  0.1840821E+04  0.7818609E-02  0.8684888E-01
       -2   -1    0    0    0  501  0.00000000000E+00  0.00000000000E+00  0.37845285302E+03  0.37845285303E+03  0.25500000920E-02 0.  1.
        2   -1    0    0  501    0  0.00000000000E+00  0.00000000000E+00 -0.22384696878E+04  0.22384696878E+04  0.25500000920E-02 0. -1.
    10030    2    1    2    0    0  0.00000000000E+00  0.00000000000E+00 -0.18600168347E+04  0.26169225408E+04  0.18408207297E+04 0.  0.
        5    1    3    3  502    0  0.35602107484E+03  0.84109116180E+03 -0.10917707457E+04  0.14234362646E+04  0.46999998093E+01 0.  1.
       -5    1    3    3    0  502 -0.35602107484E+03 -0.84109116180E+03 -0.76824608908E+03  0.11934862762E+04  0.46999998093E+01 0. -1.
</event>
<event>
 5   0  0.5843670E-05  0.2346870E+04  0.7818609E-02  0.8459667E-01
        1   -1    0    0  501    0  0.00000000000E+00  0.00000000000E+00  0.19303840330E+04  0.19303840330E+04  0.50400001928E-02 0.  1.
       -1   -1    0    0    0  501  0.00000000000E+00  0.00000000000E+00 -0.71330334312E+03  0.71330334314E+03  0.50400001928E-02 0. -1.
    10030    2    1    2    0    0  0.00000000000E+00  0.00000000000E+00  0.12170806899E+04  0.26436873762E+04  0.23468697316E+04 0.  0.
        2    1    3    3  502    0  0.48332201780E+03  0.10197501289E+04  0.97087094437E+03  0.14886506940E+04  0.25500000920E-02 0. -1.
       -2    1    3    3    0  502 -0.48332201780E+03 -0.10197501289E+04  0.24620974551E+03  0.11550366821E+04  0.25500000920E-02 0.  1.
</event>
<event>
 5   0  0.5843670E-05  0.2257096E+04  0.7818609E-02  0.8495032E-01
       -1   -1    0    0    0  501  0.00000000000E+00  0.00000000000E+00  0.12528509103E+04  0.12528509103E+04  0.50400001928E-02 0. -1.
        1   -1    0    0  501    0  0.00000000000E+00  0.00000000000E+00 -0.10165777998E+04  0.10165777998E+04  0.50400001928E-02 0.  1.
    10030    2    1    2    0    0  0.00000000000E+00  0.00000000000E+00  0.23627311050E+03  0.22694287101E+04  0.22570958525E+04 0.  0.
        2    1    3    3  502    0  0.73082176611E+03 -0.85316867327E+03  0.22653650446E+03  0.11460000117E+04  0.25500000920E-02 0.  1.
       -2    1    3    3    0  502 -0.73082176611E+03  0.85316867327E+03  0.97366060446E+01  0.11234286984E+04  0.25500000920E-02 0. -1.
</event>
<event>
 5   0  0.5642466E-05  0.1227651E+04  0.7818609E-02  0.9088992E-01
        1   -1    0    0  501    0  0.00000000000E+00  0.00000000000E+00  0.64685902957E+03  0.64685902959E+03  0.50400001928E-02 0. -1.
       -1   -1    0    0    0  501  0.00000000000E+00  0.00000000000E+00 -0.58247931510E+03  0.58247931512E+03  0.50400001928E-02 0.  1.
    10030    2    1    2    0    0  0.00000000000E+00  0.00000000000E+00  0.64379714471E+02  0.12293383447E+04  0.12276514237E+04 0.  0.
        1    1    3    3  502    0  0.80102140601E+02 -0.35310160094E+03  0.52853708271E+03  0.64066257994E+03  0.50400001928E-02 0. -1.
       -1    1    3    3    0  502 -0.80102140601E+02  0.35310160094E+03 -0.46415736823E+03  0.58867576477E+03  0.50400001928E-02 0.  1.
</event>
<event>
 5   0  0.5924654E-05  0.2264206E+04  0.7818609E-02  0.8492169E-01
        1   -1    0    0  501    0  0.00000000000E+00  0.00000000000E+00  0.12382237385E+04  0.12382237385E+04  0.50400001928E-02 0. -1.
       -1   -1    0    0    0  501  0.00000000000E+00  0.00000000000E+00 -0.10350771170E+04  0.10350771170E+04  0.50400001928E-02 0.  1.
    10030    2    1    2    0    0  0.00000000000E+00  0.00000000000E+00  0.20314662150E+03  0.22733008555E+04  0.22642058718E+04 0.  0.
        5    1    3    3  502    0 -0.21828569443E+03 -0.63361132442E+02  0.12150690532E+04  0.12361545904E+04  0.46999998093E+01 0. -1.
       -5    1    3    3    0  502  0.21828569443E+03  0.63361132442E+02 -0.10119224317E+04  0.10371462651E+04  0.46999998093E+01 0.  1.
</event>
<event>
 5   0  0.5663790E-05  0.1959502E+04  0.7818609E-02  0.8625792E-01
       -1   -1    0    0    0  501  0.00000000000E+00  0.00000000000E+00  0.65177830440E+03  0.65177830442E+03  0.50400001928E-02 0. -1.
        1   -1    0    0  501    0  0.00000000000E+00  0.00000000000E+00 -0.14727581265E+04  0.14727581265E+04  0.50400001928E-02 0.  1.
    10030    2    1    2    0    0  0.00000000000E+00  0.00000000000E+00 -0.82097982208E+03  0.21245364309E+04  0.19595017678E+04 0.  0.
        3    1    3    3  502    0  0.43438807030E+03  0.85299311319E+03 -0.63693818124E+03  0.11497741099E+04  0.10100000352E+00 0.  1.
       -3    1    3    3    0  502 -0.43438807030E+03 -0.85299311319E+03 -0.18404164084E+03  0.97476232105E+03  0.10100000352E+00 0. -1.
</event>
<event>
 5   0  0.1237296E-04  0.2428664E+04  0.7818609E-02  0.8428849E-01
       -2   -1    0    0    0  501  0.00000000000E+00  0.00000000000E+00  0.92690410245E+03  0.92690410245E+03  0.25500000920E-02 0. -1.
        2   -1    0    0  501    0  0.00000000000E+00  0.00000000000E+00 -0.15908901353E+04  0.15908901353E+04  0.25500000920E-02 0.  1.
    10030    2    1    2    0    0  0.00000000000E+00  0.00000000000E+00 -0.66398603288E+03  0.25177942378E+04  0.24286643185E+04 0.  0.
        1    1    3    3  502    0  0.11275537578E+04 -0.16816760244E+03 -0.76560695029E+03  0.13732486379E+04  0.50400001928E-02 0.  1.
       -1    1    3    3    0  502 -0.11275537578E+04  0.16816760244E+03  0.10162091741E+03  0.11445455998E+04  0.50400001928E-02 0. -1.
</event>
<event>
 5   0  0.5663790E-05  0.2308256E+04  0.7818609E-02  0.8474673E-01
       -1   -1    0    0    0  501  0.00000000000E+00  0.00000000000E+00  0.52412685163E+03  0.52412685165E+03  0.50400001928E-02 0.  1.
        1   -1    0    0  501    0  0.00000000000E+00  0.00000000000E+00 -0.25413908019E+04  0.25413908019E+04  0.50400001928E-02 0. -1.
    10030    2    1    2    0    0  0.00000000000E+00  0.00000000000E+00 -0.20172639503E+04  0.30655176536E+04  0.23082557569E+04 0.  0.
        3    1    3    3  502    0  0.57538694265E+03  0.31500461760E+02  0.31940070460E+03  0.65884689660E+03  0.10100000352E+00 0.  1.
       -3    1    3    3    0  502 -0.57538694265E+03 -0.31500461760E+02 -0.23366646549E+04  0.24066707570E+04  0.10100000352E+00 0. -1.
</event>
<event>
 5   0  0.5642466E-05  0.2251919E+04  0.7818609E-02  0.8497124E-01
        1   -1    0    0  501    0  0.00000000000E+00  0.00000000000E+00  0.22683589507E+04  0.22683589507E+04  0.50400001928E-02 0. -1.
       -1   -1    0    0    0  501  0.00000000000E+00  0.00000000000E+00 -0.55889971347E+03  0.55889971350E+03  0.50400001928E-02 0.  1.
    10030    2    1    2    0    0  0.00000000000E+00  0.00000000000E+00  0.17094592372E+04  0.28272586642E+04  0.22519193304E+04 0.  0.
        1    1    3    3  502    0  0.21373135068E+03 -0.66408765567E+03  0.19643226381E+04  0.20845279876E+04  0.50400001928E-02 0. -1.
       -1    1    3    3    0  502 -0.21373135068E+03  0.66408765567E+03 -0.25486340092E+03  0.74273067651E+03  0.50400001928E-02 0.  1.
</event>
<event>
 5   0  0.5642466E-05  0.2278672E+04  0.7818609E-02  0.8486378E-01
       -1   -1    0    0    0  501  0.00000000000E+00  0.00000000000E+00  0.10962017255E+04  0.10962017255E+04  0.50400001928E-02 0. -1.
        1   -1    0    0  501    0  0.00000000000E+00  0.00000000000E+00 -0.11841674238E+04  0.11841674238E+04  0.50400001928E-02 0.  1.
    10030    2    1    2    0    0  0.00000000000E+00  0.00000000000E+00 -0.87965698306E+02  0.22803691492E+04  0.22786718704E+04 0.  0.
        1    1    3    3  502    0  0.63467066051E+03 -0.17332869948E+03 -0.97485669593E+03  0.11760932204E+04  0.50400001928E-02 0.  1.
       -1    1    3    3    0  502 -0.63467066051E+03  0.17332869948E+03  0.88689099763E+03  0.11042759289E+04  0.50400001928E-02 0. -1.
</event>
<event>
 5   0  0.5843670E-05  0.2246156E+04  0.7818609E-02  0.8499459E-01
        1   -1    0    0  501    0  0.00000000000E+00  0.00000000000E+00  0.14232533610E+04  0.14232533610E+04  0.50400001928E-02 0. -1.
       -1   -1    0    0    0  501  0.00000000000E+00  0.00000000000E+00 -0.88621197524E+03  0.88621197526E+03  0.50400001928E-02 0.  1.
    10030    2    1    2    0    0  0.00000000000E+00  0.00000000000E+00  0.53704138575E+03  0.23094653363E+04  0.22461559806E+04 0.  0.
        2    1    3    3  502    0  0.58129769690E+03  0.95086536934E+03  0.12585753811E+03  0.11215578821E+04  0.25500000920E-02 0.  1.
       -2    1    3    3    0  502 -0.58129769690E+03 -0.95086536934E+03  0.41118384764E+03  0.11879074541E+04  0.25500000920E-02 0. -1.
</event>
<event>
 5   0  0.5663790E-05  0.2250986E+04  0.7818609E-02  0.8497501E-01
       -1   -1    0    0    0  501  0.00000000000E+00  0.00000000000E+00  0.14303960479E+04  0.14303960480E+04  0.50400001928E-02 0. -1.
        1   -1    0    0  501    0  0.00000000000E+00  0.00000000000E+00 -0.88558328099E+03  0.88558328100E+03  0.50400001928E-02 0.  1.
    10030    2    1    2    0    0  0.00000000000E+00  0.00000000000E+00  0.54481276696E+03  0.23159793290E+04  0.22509862952E+04 0.  0.
        3    1    3    3  502    0 -0.72180145668E+03 -0.75448451936E+03  0.70464403601E+03  0.12596695839E+04  0.10100000352E+00 0. -1.
       -3    1    3    3    0  502  0.72180145668E+03  0.75448451936E+03 -0.15983126905E+03  0.10563097451E+04  0.10100000352E+00 0.  1.
</event>
<event>
 5   0  0.1237296E-04  0.2315652E+04  0.7818609E-02  0.8471775E-01
        2   -1    0    0  501    0  0.00000000000E+00  0.00000000000E+00  0.15085624173E+04  0.15085624173E+04  0.25500000920E-02 0. -1.
       -2   -1    0    0    0  501  0.00000000000E+00  0.00000000000E+00 -0.88863478487E+03  0.88863478487E+03  0.25500000920E-02 0.  1.
    10030    2    1    2    0    0  0.00000000000E+00  0.00000000000E+00  0.61992763245E+03  0.23971972022E+04  0.23156519939E+04 0.  0.
        1    1    3    3  502    0 -0.24097800919E+03 -0.91162649441E+03 -0.38558018128E+03  0.10187273151E+04  0.50400001928E-02 0.  1.
       -1    1    3    3    0  502  0.24097800919E+03  0.91162649441E+03  0.10055078137E+04  0.13784698871E+04  0.50400001928E-02 0. -1.
</event>
<event>
 5   0  0.1257524E-04  0.2460110E+04  0.7818609E-02  0.8417336E-01
       -2   -1    0    0    0  501  0.00000000000E+00  0.00000000000E+00  0.10131149648E+04  0.10131149648E+04  0.25500000920E-02 0.  1.
        2   -1    0    0  501    0  0.00000000000E+00  0.00000000000E+00 -0.14934491602E+04  0.14934491602E+04  0.25500000920E-02 0. -1.
    10030    2    1    2    0    0  0.00000000000E+00  0.00000000000E+00 -0.48033419537E+03  0.25065641250E+04  0.24601103174E+04 0.  0.
        3    1    3    3  502    0 -0.11926923895E+04 -0.30045472240E+02 -0.54518225188E+03  0.13117322762E+04  0.10100000352E+00 0. -1.
       -3    1    3    3    0  502  0.11926923895E+04  0.30045472240E+02  0.64848056509E+02  0.11948318489E+04  0.10100000352E+00 0.  1.
</event>
<event>
 5   0  0.5663790E-05  0.2297889E+04  0.7818609E-02  0.8478754E-01
       -1   -1    0    0    0  501  0.00000000000E+00  0.00000000000E+00  0.67160574960E+03  0.67160574961E+03  0.50400001928E-02 0.  1.
        1   -1    0    0  501    0  0.00000000000E+00  0.00000000000E+00 -0.19655481594E+04  0.19655481594E+04  0.50400001928E-02 0. -1.
    10030    2    1    2    0    0  0.00000000000E+00  0.00000000000E+00 -0.12939424098E+04  0.26371539090E+04  0.22978889834E+04 0.  0.
        3    1    3    3  502    0 -0.97776220208E+03 -0.50787168837E+02 -0.13369657728E+04  0.16571287663E+04  0.10100000352E+00 0. -1.
       -3    1    3    3    0  502  0.97776220208E+03  0.50787168837E+02  0.43023363000E+02  0.98002514269E+03  0.10100000352E+00 0.  1.
</event>
<event>
 5   0  0.1234988E-04  0.2229210E+04  0.7818609E-02  0.8506368E-01
        2   -1    0    0  501    0  0.00000000000E+00  0.00000000000E+00  0.12451841699E+04  0.12451841699E+04  0.25500000920E-02 0.  1.
       -2   -1    0    0    0  501  0.00000000000E+00  0.00000000000E+00 -0.99771944941E+03  0.99771944941E+03  0.25500000920E-02 0. -1.
    10030    2    1    2    0    0  0.00000000000E+00  0.00000000000E+00  0.24746472050E+03  0.22429036193E+04  0.22292101421E+04 0.  0.
        5    1    3    3  502    0  0.67142382360E+03  0.10893602979E+03 -0.76466682612E+03  0.10234326819E+04  0.46999998093E+01 0. -1.
       -5    1    3    3    0  502 -0.67142382360E+03 -0.10893602979E+03  0.10121315466E+04  0.12194709374E+04  0.46999998093E+01 0.  1.
</event>
<event>
 5   0  0.5632156E-05  0.2319364E+04  0.7818609E-02  0.8470325E-01
       -1   -1    0    0    0  501  0.00000000000E+00  0.00000000000E+00  0.95959359736E+03  0.95959359737E+03  0.50400001928E-02 0.  1.
        1   -1    0    0  501    0  0.00000000000E+00  0.00000000000E+00 -0.14014919923E+04  0.14014919923E+04  0.50400001928E-02 0. -1.
    10030    2    1    2    0    0  0.00000000000E+00  0.00000000000E+00 -0.44189839493E+03  0.23610855897E+04  0.23193643462E+04 0.  0.
        4    1    3    3  502    0  0.71088936950E+03 -0.18638974200E+03  0.69226981780E+03  0.10096256460E+04  0.12699999809E+01 0.  1.
       -4    1    3    3    0  502 -0.71088936950E+03  0.18638974200E+03 -0.11341682127E+04  0.13514599436E+04  0.12699999809E+01 0. -1.
</event>
<event>
 5   0  0.5843670E-05  0.1186909E+04  0.7818609E-02  0.9124393E-01
        1   -1    0    0  501    0  0.00000000000E+00  0.00000000000E+00  0.74582003985E+03  0.74582003986E+03  0.50400001928E-02 0. -1.
       -1   -1    0    0    0  501  0.00000000000E+00  0.00000000000E+00 -0.47221579126E+03  0.47221579128E+03  0.50400001928E-02 0.  1.
    10030    2    1    2    0    0  0.00000000000E+00  0.00000000000E+00  0.27360424859E+03  0.12180358311E+04  0.11869085900E+04 0.  0.
        2    1    3    3  502    0  0.11915219543E+03  0.56342747189E+03  0.28387938495E+03  0.64205550146E+03  0.25500000920E-02 0. -1.
       -2    1    3    3    0  502 -0.11915219543E+03 -0.56342747189E+03 -0.10275136359E+02  0.57598032969E+03  0.25500000920E-02 0.  1.
</event>
<event>
 5   0  0.5642466E-05  0.2230027E+04  0.7818609E-02  0.8506033E-01
       -1   -1    0    0    0  501  0.00000000000E+00  0.00000000000E+00  0.38229006773E+03  0.38229006776E+03  0.50400001928E-02 0.  1.
        1   -1    0    0  501    0  0.00000000000E+00  0.00000000000E+00 -0.32521243506E+04  0.32521243506E+04  0.50400001928E-02 0. -1.
    10030    2    1    2    0    0  0.00000000000E+00  0.00000000000E+00 -0.28698342828E+04  0.36344144183E+04  0.22300267607E+04 0.  0.
        1    1    3    3  502    0  0.65806305151E+03 -0.80926022868E+03 -0.20771878660E+04  0.23243619615E+04  0.50400001928E-02 0. -1.
       -1    1    3    3    0  502 -0.65806305151E+03  0.80926022868E+03 -0.79264641688E+03  0.13100524568E+04  0.50400001928E-02 0.  1.
</event>
<event>
 5   0  0.5924654E-05  0.2328943E+04  0.7818609E-02  0.8466596E-01
       -1   -1    0    0    0  501  0.00000000000E+00  0.00000000000E+00  0.10334308752E+04  0.10334308752E+04  0.50400001928E-02 0. -1.
        1   -1    0    0  501    0  0.00000000000E+00  0.00000000000E+00 -0.13121284561E+04  0.13121284561E+04  0.50400001928E-02 0.  1.
    10030    2    1    2    0    0  0.00000000000E+00  0.00000000000E+00 -0.27869758094E+03  0.23455593313E+04  0.23289431584E+04 0.  0.
        5    1    3    3  502    0 -0.78607446071E+03  0.83917649603E+03  0.45924896612E+02  0.11507655866E+04  0.46999998093E+01 0. -1.
       -5    1    3    3    0  502  0.78607446071E+03 -0.83917649603E+03 -0.32462247755E+03  0.11947937446E+04  0.46999998093E+01 0.  1.
</event>
<event>
 5   0  0.1234988E-04  0.2159959E+04  0.7818609E-02  0.8535281E-01
        2   -1    0    0  501    0  0.00000000000E+00  0.00000000000E+00  0.15264800552E+04  0.15264800552E+04  0.25500000920E-02 0.  1.
       -2   -1    0    0    0  501  0.00000000000E+00  0.00000000000E+00 -0.76408211910E+03  0.76408211911E+03  0.25500000920E-02 0. -1.
    10030    2    1    2    0    0  0.00000000000E+00  0.00000000000E+00  0.76239793614E+03  0.22905621744E+04  0.21599593657E+04 0.  0.
        5    1    3    3  502    0 -0.56593379155E+03  0.91934696772E+03  0.41219145561E+03  0.11555967244E+04  0.46999998093E+01 0. -1.
       -5    1    3    3    0  502  0.56593379155E+03 -0.91934696772E+03  0.35020648053E+03  0.11349654499E+04  0.46999998093E+01 0.  1.
</event>
<event>
 5   0  0.1281432E-04  0.2197306E+04  0.7818609E-02  0.8519550E-01
        2   -1    0    0  501    0  0.00000000000E+00  0.00000000000E+00  0.17496551464E+04  0.17496551464E+04  0.25500000920E-02 0.  1.
       -2   -1    0    0    0  501  0.00000000000E+00  0.00000000000E+00 -0.68987191779E+03  0.68987191779E+03  0.25500000920E-02 0. -1.
    10030    2    1    2    0    0  0.00000000000E+00  0.00000000000E+00  0.10597832286E+04  0.24395270642E+04  0.21973055785E+04 0.  0.
        4    1    3    3  502    0 -0.44628277390E+02  0.95610883518E+03  0.11286994213E+04  0.14798985724E+04  0.12699999809E+01 0.  1.
       -4    1    3    3    0  502  0.44628277390E+02 -0.95610883518E+03 -0.68916192708E+02  0.95962849185E+03  0.12699999809E+01 0. -1.
</event>
<event>
 5   0  0.5924654E-05  0.2280117E+04  0.7818609E-02  0.8485802E-01
       -1   -1    0    0    0  501  0.00000000000E+00  0.00000000000E+00  0.78527482277E+03  0.78527482279E+03  0.50400001928E-02 0.  1.
        1   -1    0    0  501    0  0.00000000000E+00  0.00000000000E+00 -0.16551315876E+04  0.16551315876E+04  0.50400001928E-02 0. -1.
    10030    2    1    2    0    0  0.00000000000E+00  0.00000000000E+00 -0.86985676483E+03  0.24404064104E+04  0.22801168077E+04 0.  0.
        5    1    3    3  502    0  0.32931709444E+03 -0.32068438145E+03  0.68168772171E+03  0.82219733710E+03  0.46999998093E+01 0.  1.
       -5    1    3    3    0  502 -0.32931709444E+03  0.32068438145E+03 -0.15515444865E+04  0.16182090733E+04  0.46999998093E+01 0. -1.
</event>
<event>
 5   0  0.5924654E-05  0.2139809E+04  0.7818609E-02  0.8543907E-01
       -1   -1    0    0    0  501  0.00000000000E+00  0.00000000000E+00  0.47983058914E+03  0.47983058917E+03  0.50400001928E-02 0. -1.
        1   -1    0    0  501    0  0.00000000000E+00  0.00000000000E+00 -0.23856250850E+04  0.23856250850E+04  0.50400001928E-02 0.  1.
    10030    2    1    2    0    0  0.00000000000E+00  0.00000000000E+00 -0.19057944959E+04  0.28654556742E+04  0.21398092346E+04 0.  0.
        5    1    3    3  502    0 -0.89420229813E+03 -0.38517432716E+03 -0.15468328371E+04  0.18277502368E+04  0.46999998093E+01 0.  1.
       -5    1    3    3    0  502  0.89420229813E+03  0.38517432716E+03 -0.35896165878E+03  0.10377054374E+04  0.46999998093E+01 0. -1.
</event>
<event>
 5   0  0.1237296E-04  0.2337615E+04  0.7818609E-02  0.8463236E-01
       -2   -1    0    0    0  501  0.00000000000E+00  0.00000000000E+00  0.59564867558E+03  0.59564867559E+03  0.25500000920E-02 0.  1.
        2   -1    0    0  501    0  0.00000000000E+00  0.00000000000E+00 -0.22934847920E+04  0.22934847920E+04  0.25500000920E-02 0. -1.
    10030    2    1    2    0    0  0.00000000000E+00  0.00000000000E+00 -0.16978361164E+04  0.28891334676E+04  0.23376151769E+04 0.  0.
        1    1    3    3  502    0 -0.42456702677E+03 -0.68923590604E+03 -0.18909252229E+04  0.20569155289E+04  0.50400001928E-02 0. -1.
       -1    1    3    3    0  502  0.42456702677E+03  0.68923590604E+03  0.19308910649E+03  0.83221793868E+03  0.50400001928E-02 0.  1.
</event>
<event>
 5   0  0.1281432E-04  0.2316679E+04  0.7818609E-02  0.8471374E-01
       -2   -1    0    0    0  501  0.00000000000E+00  0.00000000000E+00  0.12776878089E+04  0.12776878089E+04  0.25500000920E-02 0.  1.
        2   -1    0    0  501    0  0.00000000000E+00  0.00000000000E+00 -0.10501391809E+04  0.10501391809E+04  0.25500000920E-02 0. -1.
    10030    2    1    2    0    0  0.00000000000E+00  0.00000000000E+00  0.22754862800E+03  0.23278269898E+04  0.23166786821E+04 0.  0.
        4    1    3    3  502    0  0.44772229548E+03 -0.98734873142E+03  0.52370277157E+03  0.12039846250E+04  0.12699999809E+01 0.  1.
       -4    1    3    3    0  502 -0.44772229548E+03  0.98734873142E+03 -0.29615414357E+03  0.11238423648E+04  0.12699999809E+01 0. -1.
</event>
<event>
 5   0  0.1281432E-04  0.2244574E+04  0.7818609E-02  0.8500101E-01
        2   -1    0    0  501    0  0.00000000000E+00  0.00000000000E+00  0.11922691242E+04  0.11922691242E+04  0.25500000920E-02 0. -1.
       -2   -1    0    0    0  501  0.00000000000E+00  0.00000000000E+00 -0.10564129946E+04  0.10564129947E+04  0.25500000920E-02 0.  1.
    10030    2    1    2    0    0  0.00000000000E+00  0.00000000000E+00  0.13585612959E+03  0.22486821189E+04  0.22445744327E+04 0.  0.
        4    1    3    3  502    0  0.49324673370E+03 -0.82682511325E+03 -0.50983773557E+03  0.10894348249E+04  0.12699999809E+01 0.  1.
       -4    1    3    3    0  502 -0.49324673370E+03  0.82682511325E+03  0.64569386516E+03  0.11592472940E+04  0.12699999809E+01 0. -1.
</event>
<event>
 5   0  0.5632156E-05  0.1435226E+04  0.7818609E-02  0.8928708E-01
        1   -1    0    0  501    0  0.00000000000E+00  0.00000000000E+00  0.78381450474E+03  0.78381450476E+03  0.50400001928E-02 0. -1.
       -1   -1    0    0    0  501  0.00000000000E+00  0.00000000000E+00 -0.65700247656E+03  0.65700247658E+03  0.50400001928E-02 0.  1.
    10030    2    1    2    0    0  0.00000000000E+00  0.00000000000E+00  0.12681202818E+03  0.14408169813E+04  0.14352255165E+04 0.  0.
        4    1    3    3  502    0 -0.46445576135E+03 -0.16831090446E+03 -0.45912033770E+03  0.67441886999E+03  0.12699999809E+01 0.  1.
       -4    1    3    3    0  502  0.46445576135E+03  0.16831090446E+03  0.58593236587E+03  0.76639811135E+03  0.12699999809E+01 0. -1.
</event>
<event>
 5   0  0.5663790E-05  0.2365276E+04  0.7818609E-02  0.8452619E-01
        1   -1    0    0  501    0  0.00000000000E+00  0.00000000000E+00  0.86277269947E+03  0.86277269948E+03  0.50400001928E-02 0. -1.
       -1   -1    0    0    0  501  0.00000000000E+00  0.00000000000E+00 -0.16210905358E+04  0.16210905358E+04  0.50400001928E-02 0.  1.
    10030    2    1    2    0    0  0.00000000000E+00  0.00000000000E+00 -0.75831783633E+03  0.24838632353E+04  0.23652760158E+04 0.  0.
        3    1    3    3  502    0 -0.38752674653E+03  0.34146959143E+03 -0.14963850676E+04  0.15830182380E+04  0.10100000352E+00 0.  1.
       -3    1    3    3    0  502  0.38752674653E+03 -0.34146959143E+03  0.73806723124E+03  0.90084499731E+03  0.10100000352E+00 0. -1.
</event>
<event>
 5   0  0.5663790E-05  0.2324399E+04  0.7818609E-02  0.8468363E-01
        1   -1    0    0  501    0  0.00000000000E+00  0.00000000000E+00  0.21197863688E+04  0.21197863688E+04  0.50400001928E-02 0. -1.
       -1   -1    0    0    0  501  0.00000000000E+00  0.00000000000E+00 -0.63719059874E+03  0.63719059876E+03  0.50400001928E-02 0.  1.
    10030    2    1    2    0    0  0.00000000000E+00  0.00000000000E+00  0.14825957701E+04  0.27569769676E+04  0.23243992304E+04 0.  0.
        3    1    3    3  502    0  0.13681510752E+03  0.33676664892E+03 -0.56803188774E+03  0.67438148341E+03  0.10100000352E+00 0.  1.
       -3    1    3    3    0  502 -0.13681510752E+03 -0.33676664892E+03  0.20506276578E+04  0.20825954842E+04  0.10100000352E+00 0. -1.
</event>
<event>
 5   0  0.1281432E-04  0.2347238E+04  0.7818609E-02  0.8459525E-01
       -2   -1    0    0    0  501  0.00000000000E+00  0.00000000000E+00  0.75047856453E+03  0.75047856453E+03  0.25500000920E-02 0.  1.
        2   -1    0    0  501    0  0.00000000000E+00  0.00000000000E+00 -0.18353377612E+04  0.18353377612E+04  0.25500000920E-02 0. -1.
    10030    2    1    2    0    0  0.00000000000E+00  0.00000000000E+00 -0.10848591966E+04  0.25858163257E+04  0.23472380778E+04 0.  0.
        4    1    3    3  502    0  0.86255949640E+03  0.66206951335E+03 -0.10289453785E+04  0.14970220874E+04  0.12699999809E+01 0.  1.
       -4    1    3    3    0  502 -0.86255949640E+03 -0.66206951335E+03 -0.55913818101E+02  0.10887942383E+04  0.12699999809E+01 0. -1.
</event>
<event>
 5   0  0.5632156E-05  0.2201868E+04  0.7818609E-02  0.8517651E-01
       -1   -1    0    0    0  501  0.00000000000E+00  0.00000000000E+00  0.71013563149E+03  0.71013563150E+03  0.50400001928E-02 0.  1.
        1   -1    0    0  501    0  0.00000000000E+00  0.00000000000E+00 -0.17067949589E+04  0.17067949589E+04  0.50400001928E-02 0. -1.
    10030    2    1    2    0    0  0.00000000000E+00  0.00000000000E+00 -0.99665932737E+03  0.24169305904E+04  0.22018682213E+04 0.  0.
        4    1    3    3  502    0  0.54300566053E+03  0.25942773624E+03 -0.15102721991E+04  0.16257557092E+04  0.12699999809E+01 0. -1.
       -4    1    3    3    0  502 -0.54300566053E+03 -0.25942773624E+03  0.51361287173E+03  0.79117488117E+03  0.12699999809E+01 0.  1.
</event>
<event>
 5   0  0.1237296E-04  0.2311097E+04  0.7818609E-02  0.8473559E-01
        2   -1    0    0  501    0  0.00000000000E+00  0.00000000000E+00  0.21725226371E+04  0.21725226371E+04  0.25500000920E-02 0.  1.
       -2   -1    0    0    0  501  0.00000000000E+00  0.00000000000E+00 -0.61462754051E+03  0.61462754051E+03  0.25500000920E-02 0. -1.
    10030    2    1    2    0    0  0.00000000000E+00  0.00000000000E+00  0.15578950966E+04  0.27871501776E+04  0.23110969215E+04 0.  0.
        1    1    3    3  502    0 -0.30375012784E+03 -0.78215457852E+03  0.17371276432E+04  0.19291558707E+04  0.50400001928E-02 0.  1.
       -1    1    3    3    0  502  0.30375012784E+03  0.78215457852E+03 -0.17923254657E+03  0.85799430688E+03  0.50400001928E-02 0. -1.
</event>
<event>
 5   0  0.5924654E-05  0.2291639E+04  0.7818609E-02  0.8481225E-01
        1   -1    0    0  501    0  0.00000000000E+00  0.00000000000E+00  0.10353186390E+04  0.10353186390E+04  0.50400001928E-02 0.  1.
       -1   -1    0    0    0  501  0.00000000000E+00  0.00000000000E+00 -0.12681137237E+04  0.12681137237E+04  0.50400001928E-02 0. -1.
    10030    2    1    2    0    0  0.00000000000E+00  0.00000000000E+00 -0.23279508467E+03  0.23034323627E+04  0.22916385182E+04 0.  0.
        5    1    3    3  502    0 -0.70522204430E+03 -0.86866483036E+03 -0.36457503498E+03  0.11767980988E+04  0.46999998093E+01 0.  1.
       -5    1    3    3    0  502  0.70522204430E+03  0.86866483036E+03  0.13177995031E+03  0.11266342639E+04  0.46999998093E+01 0. -1.
</event>
<event>
 5   0  0.1257524E-04  0.2335371E+04  0.7818609E-02  0.8464104E-01
       -2   -1    0    0    0  501  0.00000000000E+00  0.00000000000E+00  0.56754948501E+03  0.56754948501E+03  0.25500000920E-02 0. -1.
        2   -1    0    0  501    0  0.00000000000E+00  0.00000000000E+00 -0.24024150842E+04  0.24024150842E+04  0.25500000920E-02 0.  1.
    10030    2    1    2    0    0  0.00000000000E+00  0.00000000000E+00 -0.18348655992E+04  0.29699645692E+04  0.23353710145E+04 0.  0.
        3    1    3    3  502    0 -0.11393065179E+04  0.85424258109E+01 -0.59221471312E+03  0.12840601978E+04  0.10100000352E+00 0. -1.
       -3    1    3    3    0  502  0.11393065179E+04 -0.85424258109E+01 -0.12426508861E+04  0.16859043714E+04  0.10100000352E+00 0.  1.
</event>
<event>
 5   0  0.1237296E-04  0.2290717E+04  0.7818609E-02  0.8481590E-01
        2   -1    0    0  501    0  0.00000000000E+00  0.00000000000E+00  0.14781846161E+04  0.14781846161E+04  0.25500000920E-02 0.  1.
       -2   -1    0    0    0  501  0.00000000000E+00  0.00000000000E+00 -0.88747091329E+03  0.88747091329E+03  0.25500000920E-02 0. -1.
    10030    2    1    2    0    0  0.00000000000E+00  0.00000000000E+00  0.59071370279E+03  0.23656555294E+04  0.22907167885E+04 0.  0.
        1    1    3    3  502    0 -0.79919673603E+03  0.40275856871E+03  0.10335242209E+04  0.13671511265E+04  0.50400001928E-02 0.  1.
       -1    1    3    3    0  502  0.79919673603E+03 -0.40275856871E+03 -0.44281051810E+03  0.99850440285E+03  0.50400001928E-02 0. -1.
</event>
<event>
 5   0  0.5924654E-05  0.2473068E+04  0.7818609E-02  0.8412644E-01
        1   -1    0    0  501    0  0.00000000000E+00  0.00000000000E+00  0.11627658245E+04  0.11627658245E+04  0.50400001928E-02 0.  1.
       -1   -1    0    0    0  501  0.00000000000E+00  0.00000000000E+00 -0.13149819235E+04  0.13149819235E+04  0.50400001928E-02 0. -1.
    10030    2    1    2    0    0  0.00000000000E+00  0.00000000000E+00 -0.15221609900E+03  0.24777477479E+04  0.24730677632E+04 0.  0.
        5    1    3    3  502    0 -0.83458650024E+03 -0.24888172973E+03 -0.95556026030E+03  0.12929014823E+04  0.46999998093E+01 0. -1.
       -5    1    3    3    0  502  0.83458650024E+03  0.24888172973E+03  0.80334416130E+03  0.11848462657E+04  0.46999998093E+01 0.  1.
</event>
<event>
 5   0  0.5843670E-05  0.2185706E+04  0.7818609E-02  0.8524401E-01
        1   -1    0    0  501    0  0.00000000000E+00  0.00000000000E+00  0.20280740795E+04  0.20280740795E+04  0.50400001928E-02 0.  1.
       -1   -1    0    0    0  501  0.00000000000E+00  0.00000000000E+00 -0.58889734473E+03  0.58889734476E+03  0.50400001928E-02 0. -1.
    10030    2    1    2    0    0  0.00000000000E+00  0.00000000000E+00  0.14391767348E+04  0.26169714242E+04  0.21857057811E+04 0.  0.
        2    1    3    3  502    0 -0.67436895184E+03  0.82987579422E+03  0.44956833563E+03  0.11599909506E+04  0.25500000920E-02 0.  1.
       -2    1    3    3    0  502  0.67436895184E+03 -0.82987579422E+03  0.98960839912E+03  0.14569804737E+04  0.25500000920E-02 0. -1.
</event>
<event>
 5   0  0.1270613E-04  0.2432300E+04  0.7818609E-02  0.8427509E-01
        2   -1    0    0  501    0  0.00000000000E+00  0.00000000000E+00  0.16721601233E+04  0.16721601233E+04  0.25500000920E-02 0. -1.
       -2   -1    0    0    0  501  0.00000000000E+00  0.00000000000E+00 -0.88449734292E+03  0.88449734292E+03  0.25500000920E-02 0.  1.
    10030    2    1    2    0    0  0.00000000000E+00  0.00000000000E+00  0.78766278036E+03  0.25566574662E+04  0.24323002989E+04 0.  0.
        2    1    3    3  502    0  0.68328146414E+03 -0.69157622575E+03 -0.37418960372E+03  0.10417144977E+04  0.25500000920E-02 0.  1.
       -2    1    3    3    0  502 -0.68328146414E+03  0.69157622575E+03  0.11618523841E+04  0.15149429684E+04  0.25500000920E-02 0. -1.
</event>
<event>
 5   0  0.1270613E-04  0.2315415E+04  0.7818609E-02  0.8471868E-01
        2   -1    0    0  501    0  0.00000000000E+00  0.00000000000E+00  0.10103349161E+04  0.10103349161E+04  0.25500000920E-02 0. -1.
       -2   -1    0    0    0  501  0.00000000000E+00  0.00000000000E+00 -0.13265771075E+04  0.13265771075E+04  0.25500000920E-02 0.  1.
    10030    2    1    2    0    0  0.00000000000E+00  0.00000000000E+00 -0.31624219133E+03  0.23369120236E+04  0.23154154449E+04 0.  0.
        2    1    3    3  502    0 -0.96680045026E+03 -0.65867698505E+01 -0.80085416689E+03  0.12554337469E+04  0.25500000920E-02 0.  1.
       -2    1    3    3    0  502  0.96680045026E+03  0.65867698505E+01  0.48461197556E+03  0.10814782767E+04  0.25500000920E-02 0. -1.
</event>
<event>
 5   0  0.5663790E-05  0.2285092E+04  0.7818609E-02  0.8483823E-01
       -1   -1    0    0    0  501  0.00000000000E+00  0.00000000000E+00  0.10209541567E+04  0.10209541567E+04  0.50400001928E-02 0.  1.
        1   -1    0    0  501    0  0.00000000000E+00  0.00000000000E+00 -0.12786186241E+04  0.12786186241E+04  0.50400001928E-02 0. -1.
    10030    2    1    2    0    0  0.00000000000E+00  0.00000000000E+00 -0.25766446742E+03  0.22995727808E+04  0.22850916823E+04 0.  0.
        3    1    3    3  502    0 -0.72829587524E+03  0.75491686231E+03 -0.58457816552E+03  0.12008521944E+04  0.10100000352E+00 0.  1.
       -3    1    3    3    0  502  0.72829587524E+03 -0.75491686231E+03  0.32691369810E+03  0.10987205865E+04  0.10100000352E+00 0. -1.
</event>
<event>
 5   0  0.5843670E-05  0.2371067E+04  0.7818609E-02  0.8450416E-01
        1   -1    0    0  501    0  0.00000000000E+00  0.00000000000E+00  0.97276075986E+03  0.97276075987E+03  0.50400001928E-02 0. -1.
       -1   -1    0    0    0  501  0.00000000000E+00  0.00000000000E+00 -0.14448464855E+04  0.14448464855E+04  0.50400001928E-02 0.  1.
    10030    2    1    2    0    0  0.00000000000E+00  0.00000000000E+00 -0.47208572565E+03  0.24176072454E+04  0.23710672408E+04 0.  0.
        2    1    3    3  502    0  0.83500040952E+03  0.16763848248E+02  0.62189013341E+03  0.10412752031E+04  0.25500000920E-02 0. -1.
       -2    1    3    3    0  502 -0.83500040952E+03 -0.16763848248E+02 -0.10939758591E+04  0.13763320423E+04  0.25500000920E-02 0.  1.
</event>
<event>
 5   0  0.1237296E-04  0.2289712E+04  0.7818609E-02  0.8481988E-01
        2   -1    0    0  501    0  0.00000000000E+00  0.00000000000E+00  0.15627732568E+04  0.15627732568E+04  0.25500000920E-02 0.  1.
       -2   -1    0    0    0  501  0.00000000000E+00  0.00000000000E+00 -0.83869857283E+03  0.83869857283E+03  0.25500000920E-02 0. -1.
    10030    2    1    2    0    0  0.00000000000E+00  0.00000000000E+00  0.72407468400E+03  0.24014718297E+04  0.22897123838E+04 0.  0.
        1    1    3    3  502    0 -0.45215790691E+03 -0.81368892529E+03 -0.33694454858E+03  0.98998387298E+03  0.50400001928E-02 0. -1.
       -1    1    3    3    0  502  0.45215790691E+03  0.81368892529E+03  0.10610192326E+04  0.14114879567E+04  0.50400001928E-02 0.  1.
</event>
<event>
 5   0  0.5632156E-05  0.2309623E+04  0.7818609E-02  0.8474137E-01
        1   -1    0    0  501    0  0.00000000000E+00  0.00000000000E+00  0.11677652681E+04  0.11677652681E+04  0.50400001928E-02 0.  1.
       -1   -1    0    0    0  501  0.00000000000E+00  0.00000000000E+00 -0.11420010368E+04  0.11420010368E+04  0.50400001928E-02 0. -1.
    10030    2    1    2    0    0  0.00000000000E+00  0.00000000000E+00  0.25764231274E+02  0.23097663049E+04  0.23096226072E+04 0.  0.
        4    1    3    3  502    0  0.24069389342E+03 -0.80113101016E+03  0.80907427980E+03  0.11637642583E+04  0.12699999809E+01 0.  1.
       -4    1    3    3    0  502 -0.24069389342E+03  0.80113101016E+03 -0.78331004852E+03  0.11460020466E+04  0.12699999809E+01 0. -1.
</event>
<event>
 5   0  0.1237296E-04  0.2163992E+04  0.7818609E-02  0.8533567E-01
       -2   -1    0    0    0  501  0.00000000000E+00  0.00000000000E+00  0.54235657550E+03  0.54235657551E+03  0.25500000920E-02 0. -1.
        2   -1    0    0  501    0  0.00000000000E+00  0.00000000000E+00 -0.21585707530E+04  0.21585707530E+04  0.25500000920E-02 0.  1.
    10030    2    1    2    0    0  0.00000000000E+00  0.00000000000E+00 -0.16162141775E+04  0.27009273285E+04  0.21639917205E+04 0.  0.
        1    1    3    3  502    0 -0.89403778769E+03 -0.49552321717E+03 -0.36529920501E+03  0.10854908262E+04  0.50400001928E-02 0. -1.
       -1    1    3    3    0  502  0.89403778769E+03  0.49552321717E+03 -0.12509149725E+04  0.16154365023E+04  0.50400001928E-02 0.  1.
</event>
<event>
 5   0  0.5642466E-05  0.2243767E+04  0.7818609E-02  0.8500429E-01
       -1   -1    0    0    0  501  0.00000000000E+00  0.00000000000E+00  0.99804380269E+03  0.99804380270E+03  0.50400001928E-02 0. -1.
        1   -1    0    0  501    0  0.00000000000E+00  0.00000000000E+00 -0.12610890766E+04  0.12610890766E+04  0.50400001928E-02 0.  1.
    10030    2    1    2    0    0  0.00000000000E+00  0.00000000000E+00 -0.26304527393E+03  0.22591328793E+04  0.22437665989E+04 0.  0.
        1    1    3    3  502    0  0.48616532514E+03 -0.53157869047E+03 -0.99746468303E+03  0.12303936043E+04  0.50400001928E-02 0.  1.
       -1    1    3    3    0  502 -0.48616532514E+03  0.53157869047E+03  0.73441940911E+03  0.10287392750E+04  0.50400001928E-02 0. -1.
</event>
<event>
 5   0  0.1281432E-04  0.2275704E+04  0.7818609E-02  0.8487563E-01
       -2   -1    0    0    0  501  0.00000000000E+00  0.00000000000E+00  0.61151465499E+03  0.61151465499E+03  0.25500000920E-02 0.  1.
        2   -1    0    0  501    0  0.00000000000E+00  0.00000000000E+00 -0.21172134057E+04  0.21172134057E+04  0.25500000920E-02 0. -1.
    10030    2    1    2    0    0  0.00000000000E+00  0.00000000000E+00 -0.15056987507E+04  0.27287280607E+04  0.22757038694E+04 0.  0.
        4    1    3    3  502    0  0.66364495882E+03 -0.53350731225E+03  0.15215116328E+03  0.86498917506E+03  0.12699999809E+01 0. -1.
       -4    1    3    3    0  502 -0.66364495882E+03  0.53350731225E+03 -0.16578499139E+04  0.18637388856E+04  0.12699999809E+01 0.  1.
</event>
<event>
 5   0  0.5924654E-05  0.2108478E+04  0.7818609E-02  0.8557518E-01
        1   -1    0    0  501    0  0.00000000000E+00  0.00000000000E+00  0.21085227313E+04  0.21085227313E+04  0.50400001928E-02 0. -1.
       -1   -1    0    0    0  501  0.00000000000E+00  0.00000000000E+00 -0.52710829302E+03  0.52710829304E+03  0.50400001928E-02 0.  1.
    10030    2    1    2    0    0  0.00000000000E+00  0.00000000000E+00  0.15814144383E+04  0.26356310243E+04  0.21084779512E+04 0.  0.
        5    1    3    3  502    0 -0.79914394754E+03  0.43106067589E+03  0.14603161136E+04  0.17195899502E+04  0.46999998093E+01 0.  1.
       -5    1    3    3    0  502  0.79914394754E+03 -0.43106067589E+03  0.12109832461E+03  0.91604107409E+03  0.46999998093E+01 0. -1.
</event>
<event>
 5   0  0.1257524E-04  0.2188437E+04  0.7818609E-02  0.8523256E-01
        2   -1    0    0  501    0  0.00000000000E+00  0.00000000000E+00  0.12176829334E+04  0.12176829334E+04  0.25500000920E-02 0.  1.
       -2   -1    0    0    0  501  0.00000000000E+00  0.00000000000E+00 -0.98327251215E+03  0.98327251216E+03  0.25500000920E-02 0. -1.
    10030    2    1    2    0    0  0.00000000000E+00  0.00000000000E+00  0.23441042122E+03  0.22009554455E+04  0.21884370285E+04 0.  0.
        3    1    3    3  502    0 -0.35873420996E+03  0.83060847768E+03  0.73612244020E+03  0.11663948447E+04  0.10100000352E+00 0.  1.
       -3    1    3    3    0  502  0.35873420996E+03 -0.83060847768E+03 -0.50171201898E+03  0.10345606008E+04  0.10100000352E+00 0. -1.
</event>
<event>
 5   0  0.1270613E-04  0.2259279E+04  0.7818609E-02  0.8494152E-01
       -2   -1    0    0    0  501  0.00000000000E+00  0.00000000000E+00  0.60554342571E+03  0.60554342571E+03  0.25500000920E-02 0. -1.
        2   -1    0    0  501    0  0.00000000000E+00  0.00000000000E+00 -0.21073390290E+04  0.21073390290E+04  0.25500000920E-02 0.  1.
    10030    2    1    2    0    0  0.00000000000E+00  0.00000000000E+00 -0.15017956033E+04  0.27128824547E+04  0.22592789068E+04 0.  0.
        2    1    3    3  502    0 -0.69784383812E+03 -0.70213369070E+03 -0.97487658943E+02  0.99472688999E+03  0.25500000920E-02 0. -1.
       -2    1    3    3    0  502  0.69784383812E+03  0.70213369070E+03 -0.14043079443E+04  0.17181555647E+04  0.25500000920E-02 0.  1.
</event>
<event>
 5   0  0.1237296E-04  0.2197338E+04  0.7818609E-02  0.8519537E-01
        2   -1    0    0  501    0  0.00000000000E+00  0.00000000000E+00  0.18123791702E+04  0.18123791702E+04  0.25500000920E-02 0. -1.
       -2   -1    0    0    0  501  0.00000000000E+00  0.00000000000E+00 -0.66601602548E+03  0.66601602549E+03  0.25500000920E-02 0.  1.
    10030    2    1    2    0    0  0.00000000000E+00  0.00000000000E+00  0.11463631447E+04  0.24783951957E+04  0.21973380000E+04 0.  0.
        1    1    3    3  502    0 -0.73328545782E+03  0.33052141154E+03  0.14173223006E+04  0.16296485725E+04  0.50400001928E-02 0. -1.
       -1    1    3    3    0  502  0.73328545782E+03 -0.33052141154E+03 -0.27095915589E+03  0.84874662316E+03  0.50400001928E-02 0.  1.
</event>
<event>
 5   0  0.5843670E-05  0.2323106E+04  0.7818609E-02  0.8468866E-01
       -1   -1    0    0    0  501  0.00000000000E+00  0.00000000000E+00  0.71019915515E+03  0.71019915517E+03  0.50400001928E-02 0.  1.
        1   -1    0    0  501    0  0.00000000000E+00  0.00000000000E+00 -0.18997562138E+04  0.18997562138E+04  0.50400001928E-02 0. -1.
    10030    2    1    2    0    0  0.00000000000E+00  0.00000000000E+00 -0.11895570586E+04  0.26099553690E+04  0.23231059021E+04 0.  0.
        2    1    3    3  502    0 -0.57341750666E+03 -0.47317563940E+03  0.40789056029E+03  0.84798439363E+03  0.25500000920E-02 0.  1.
       -2    1    3    3    0  502  0.57341750666E+03  0.47317563940E+03 -0.15974476189E+04  0.17619709753E+04  0.25500000920E-02 0. -1.
</event>
<event>
 5   0  0.1270613E-04  0.2231148E+04  0.7818609E-02  0.8505574E-01
        2   -1    0    0  501    0  0.00000000000E+00  0.00000000000E+00  0.18064355518E+04  0.18064355518E+04  0.25500000920E-02 0.  1.
       -2   -1    0    0    0  501  0.00000000000E+00  0.00000000000E+00 -0.68892862837E+03  0.68892862837E+03  0.25500000920E-02 0. -1.
    10030    2    1    2    0    0  0.00000000000E+00  0.00000000000E+00  0.11175069234E+04  0.24953641802E+04  0.22311478364E+04 0.  0.
        2    1    3    3  502    0 -0.53586373753E+03  0.69904894850E+03  0.13244320137E+04  0.15905783654E+04  0.25500000920E-02 0.  1.
       -2    1    3    3    0  502  0.53586373753E+03 -0.69904894850E+03 -0.20692509028E+03  0.90478581476E+03  0.25500000920E-02 0. -1.
</event>
<event>
 5   0  0.5663790E-05  0.1442785E+04  0.7818609E-02  0.8923418E-01
       -1   -1    0    0    0  501  0.00000000000E+00  0.00000000000E+00  0.49448363803E+03  0.49448363805E+03  0.50400001928E-02 0.  1.
        1   -1    0    0  501    0  0.00000000000E+00  0.00000000000E+00 -0.10524255627E+04  0.10524255627E+04  0.50400001928E-02 0. -1.
    10030    2    1    2    0    0  0.00000000000E+00  0.00000000000E+00 -0.55794192466E+03  0.15469092008E+04  0.14427851136E+04 0.  0.
        3    1    3    3  502    0 -0.56217845547E+03  0.50414388842E+02  0.20269541332E+03  0.59972632690E+03  0.10100000352E+00 0.  1.
       -3    1    3    3    0  502  0.56217845547E+03 -0.50414388842E+02 -0.76063733798E+03  0.94718287385E+03  0.10100000352E+00 0. -1.
</event>
<event>
 5   0  0.5632156E-05  0.2278335E+04  0.7818609E-02  0.8486513E-01
        1   -1    0    0  501    0  0.00000000000E+00  0.00000000000E+00  0.13564355830E+04  0.13564355830E+04  0.50400001928E-02 0.  1.
       -1   -1    0    0    0  501  0.00000000000E+00  0.00000000000E+00 -0.95670028468E+03  0.95670028469E+03  0.50400001928E-02 0. -1.
    10030    2    1    2    0    0  0.00000000000E+00  0.00000000000E+00  0.39973529830E+03  0.23131358677E+04  0.22783347501E+04 0.  0.
        4    1    3    3  502    0 -0.99048088098E+03  0.23375162072E+03 -0.31981868760E+03  0.10667604237E+04  0.12699999809E+01 0. -1.
       -4    1    3    3    0  502  0.99048088098E+03 -0.23375162072E+03  0.71955398590E+03  0.12463754440E+04  0.12699999809E+01 0.  1.
</event>
<event>
 5   0  0.5843670E-05  0.2738505E+04  0.7818609E-02  0.8322618E-01
        1   -1    0    0  501    0  0.00000000000E+00  0.00000000000E+00  0.16900121966E+04  0.16900121966E+04  0.50400001928E-02 0.  1.
       -1   -1    0    0    0  501  0.00000000000E+00  0.00000000000E+00 -0.11093722613E+04  0.11093722613E+04  0.50400001928E-02 0. -1.
    10030    2    1    2    0    0  0.00000000000E+00  0.00000000000E+00  0.58063993531E+03  0.27993844579E+04  0.27385051778E+04 0.  0.
        2    1    3    3  502    0 -0.69323692334E+03 -0.56614754701E+03 -0.76893621856E+03  0.11799844851E+04  0.25500000920E-02 0. -1.
       -2    1    3    3    0  502  0.69323692334E+03  0.56614754701E+03  0.13495761539E+04  0.16193999728E+04  0.25500000920E-02 0.  1.
</event>
<event>
 5   0  0.5924654E-05  0.1711799E+04  0.7818609E-02  0.8754664E-01
       -1   -1    0    0    0  501  0.00000000000E+00  0.00000000000E+00  0.86027623223E+03  0.86027623224E+03  0.50400001928E-02 0. -1.
        1   -1    0    0  501    0  0.00000000000E+00  0.00000000000E+00 -0.85154483553E+03  0.85154483554E+03  0.50400001928E-02 0.  1.
    10030    2    1    2    0    0  0.00000000000E+00  0.00000000000E+00  0.87313967010E+01  0.17118210678E+04  0.17117987998E+04 0.  0.
        5    1    3    3  502    0 -0.39562997796E+03  0.85635034810E+02 -0.74975634065E+03  0.85206402283E+03  0.46999998093E+01 0.  1.
       -5    1    3    3    0  502  0.39562997796E+03 -0.85635034810E+02  0.75848773736E+03  0.85975704496E+03  0.46999998093E+01 0. -1.
</event>
<event>
 5   0  0.1237296E-04  0.2007764E+04  0.7818609E-02  0.8602999E-01
        2   -1    0    0  501    0  0.00000000000E+00  0.00000000000E+00  0.83803404560E+03  0.83803404560E+03  0.25500000920E-02 0. -1.
       -2   -1    0    0    0  501  0.00000000000E+00  0.00000000000E+00 -0.12025510459E+04  0.12025510459E+04  0.25500000920E-02 0.  1.
    10030    2    1    2    0    0  0.00000000000E+00  0.00000000000E+00 -0.36451700030E+03  0.20405850915E+04  0.20077636495E+04 0.  0.
        1    1    3    3  502    0 -0.56821927238E+03  0.60316707025E+03  0.39365722324E+03  0.91741466392E+03  0.50400001928E-02 0. -1.
       -1    1    3    3    0  502  0.56821927238E+03 -0.60316707025E+03 -0.75817422354E+03  0.11231704276E+04  0.50400001928E-02 0.  1.
</event>
<event>
 5   0  0.1281432E-04  0.2307428E+04  0.7818609E-02  0.8474998E-01
        2   -1    0    0  501    0  0.00000000000E+00  0.00000000000E+00  0.17038980968E+04  0.17038980968E+04  0.25500000920E-02 0. -1.
       -2   -1    0    0    0  501  0.00000000000E+00  0.00000000000E+00 -0.78118315939E+03  0.78118315940E+03  0.25500000920E-02 0.  1.
    10030    2    1    2    0    0  0.00000000000E+00  0.00000000000E+00  0.92271493740E+03  0.24850812562E+04  0.23074284375E+04 0.  0.
        4    1    3    3  502    0  0.10209080567E+04  0.28945183069E+03  0.94900910638E+03  0.14236065185E+04  0.12699999809E+01 0. -1.
       -4    1    3    3    0  502 -0.10209080567E+04 -0.28945183069E+03 -0.26294168973E+02  0.10614747377E+04  0.12699999809E+01 0.  1.
</event>
<event>
 5   0  0.1257524E-04  0.2327890E+04  0.7818609E-02  0.8467005E-01
        2   -1    0    0  501    0  0.00000000000E+00  0.00000000000E+00  0.13501131651E+04  0.13501131651E+04  0.25500000920E-02 0. -1.
       -2   -1    0    0    0  501  0.00000000000E+00  0.00000000000E+00 -0.10034476690E+04  0.10034476690E+04  0.25500000920E-02 0.  1.
    10030    2    1    2    0    0  0.00000000000E+00  0.00000000000E+00  0.34666549617E+03  0.23535608341E+04  0.23278899531E+04 0.  0.
        3    1    3    3  502    0  0.41233718480E+03  0.10447247754E+04  0.48214512549E+03  0.12222666414E+04  0.10100000352E+00 0. -1.
       -3    1    3    3    0  502 -0.41233718480E+03 -0.10447247754E+04 -0.13547962932E+03  0.11312941927E+04  0.10100000352E+00 0.  1.
</event>
<event>
 5   0  0.5843670E-05  0.2290845E+04  0.7818609E-02  0.8481539E-01
        1   -1    0    0  501    0  0.00000000000E+00  0.00000000000E+00  0.10750004067E+04  0.10750004067E+04  0.50400001928E-02 0. -1.
       -1   -1    0    0    0  501  0.00000000000E+00  0.00000000000E+00 -0.12204582561E+04  0.12204582561E+04  0.50400001928E-02 0.  1.
    10030    2    1    2    0    0  0.00000000000E+00  0.00000000000E+00 -0.14545784941E+03  0.22954586629E+04  0.22908453652E+04 0.  0.
        2    1    3    3  502    0 -0.89505860882E+03 -0.62177488278E+03 -0.42594298620E+03  0.11701116808E+04  0.25500000920E-02 0.  1.
       -2    1    3    3    0  502  0.89505860882E+03  0.62177488278E+03  0.28048513679E+03  0.11253469821E+04  0.25500000920E-02 0. -1.
</event>
<event>
 5   0  0.4489500E-05  0.2288575E+04  0.7818609E-02  0.8482439E-01
        4   -1    0    0  501    0  0.00000000000E+00  0.00000000000E+00  0.12778746169E+04  0.12778752480E+04  0.12699999809E+01 0.  1.
       -4   -1    0    0    0  501  0.00000000000E+00  0.00000000000E+00 -0.10246640612E+04  0.10246648482E+04  0.12699999809E+01 0. -1.
    10030    2    1    2    0    0  0.00000000000E+00  0.00000000000E+00  0.25321055578E+03  0.23025400962E+04  0.22885749516E+04 0.  0.
        4    1    3    3  502    0 -0.48946404880E+03 -0.12557836659E+03  0.11595381477E+04  0.12648617751E+04  0.12699999809E+01 0.  1.
       -4    1    3    3    0  502  0.48946404880E+03  0.12557836659E+03 -0.90632759196E+03  0.10376783211E+04  0.12699999809E+01 0. -1.
</event>
<event>
 5   0  0.4489500E-05  0.2279124E+04  0.7818609E-02  0.8486198E-01
        3   -1    0    0  501    0  0.00000000000E+00  0.00000000000E+00  0.72249338131E+03  0.72249338837E+03  0.10100000352E+00 0.  1.
       -3   -1    0    0    0  501  0.00000000000E+00  0.00000000000E+00 -0.17973882411E+04  0.17973882439E+04  0.10100000352E+00 0. -1.
    10030    2    1    2    0    0  0.00000000000E+00  0.00000000000E+00 -0.10748948598E+04  0.25198816323E+04  0.22791236213E+04 0.  0.
        2    1    3    3  502    0 -0.73017846029E+03 -0.29796467999E+03 -0.14469349333E+04  0.16478969129E+04  0.25500000920E-02 0. -1.
       -2    1    3    3    0  502  0.73017846029E+03  0.29796467999E+03  0.37204007358E+03  0.87198471933E+03  0.25500000920E-02 0.  1.
</event>
<event>
 5   0  0.5924654E-05  0.1608469E+04  0.7818609E-02  0.8815362E-01
       -1   -1    0    0    0  501  0.00000000000E+00  0.00000000000E+00  0.69287006669E+03  0.69287006671E+03  0.50400001928E-02 0. -1.
        1   -1    0    0  501    0  0.00000000000E+00  0.00000000000E+00 -0.93349844845E+03  0.93349844846E+03  0.50400001928E-02 0.  1.
    10030    2    1    2    0    0  0.00000000000E+00  0.00000000000E+00 -0.24062838176E+03  0.16263685152E+04  0.16084690016E+04 0.  0.
        5    1    3    3  502    0  0.77097241177E+03  0.19423239392E+03  0.20547244712E+01  0.79507923784E+03  0.46999998093E+01 0. -1.
       -5    1    3    3    0  502 -0.77097241177E+03 -0.19423239392E+03 -0.24268310623E+03  0.83128927733E+03  0.46999998093E+01 0.  1.
</event>
<event>
 5   0  0.5632156E-05  0.2260201E+04  0.7818609E-02  0.8493781E-01
       -1   -1    0    0    0  501  0.00000000000E+00  0.00000000000E+00  0.13990559429E+04  0.13990559429E+04  0.50400001928E-02 0. -1.
        1   -1    0    0  501    0  0.00000000000E+00  0.00000000000E+00 -0.91284948058E+03  0.91284948060E+03  0.50400001928E-02 0.  1.
    10030    2    1    2    0    0  0.00000000000E+00  0.00000000000E+00  0.48620646234E+03  0.23119054235E+04  0.22602013104E+04 0.  0.
        4    1    3    3  502    0  0.37703275365E+03  0.72377583314E+02  0.13303070692E+04  0.13845976756E+04  0.12699999809E+01 0. -1.
       -4    1    3    3    0  502 -0.37703275365E+03 -0.72377583314E+02 -0.84410060690E+03  0.92730774793E+03  0.12699999809E+01 0.  1.
</event>
<event>
 5   0  0.5642466E-05  0.2315316E+04  0.7818609E-02  0.8471907E-01
       -1   -1    0    0    0  501  0.00000000000E+00  0.00000000000E+00  0.72891035961E+03  0.72891035963E+03  0.50400001928E-02 0. -1.
        1   -1    0    0  501    0  0.00000000000E+00  0.00000000000E+00 -0.18385969099E+04  0.18385969099E+04  0.50400001928E-02 0.  1.
    10030    2    1    2    0    0  0.00000000000E+00  0.00000000000E+00 -0.11096865502E+04  0.25675072695E+04  0.23153162503E+04 0.  0.
        1    1    3    3  502    0  0.73838939989E+03 -0.87274196970E+02  0.42912612818E+03  0.85847826136E+03  0.50400001928E-02 0. -1.
       -1    1    3    3    0  502 -0.73838939989E+03  0.87274196970E+02 -0.15388126784E+04  0.17090290081E+04  0.50400001928E-02 0.  1.
</event>
<event>
 5   0  0.1281432E-04  0.2222240E+04  0.7818609E-02  0.8509228E-01
       -2   -1    0    0    0  501  0.00000000000E+00  0.00000000000E+00  0.97405446224E+03  0.97405446224E+03  0.25500000920E-02 0. -1.
        2   -1    0    0  501    0  0.00000000000E+00  0.00000000000E+00 -0.12674732174E+04  0.12674732174E+04  0.25500000920E-02 0.  1.
    10030    2    1    2    0    0  0.00000000000E+00  0.00000000000E+00 -0.29341875519E+03  0.22415276797E+04  0.22222402599E+04 0.  0.
        4    1    3    3  502    0 -0.26730570626E+03 -0.83566264625E+03  0.54097167218E+03  0.10307455370E+04  0.12699999809E+01 0. -1.
       -4    1    3    3    0  502  0.26730570626E+03  0.83566264625E+03 -0.83439042737E+03  0.12107821427E+04  0.12699999809E+01 0.  1.
</event>
<event>
 5   0  0.1234988E-04  0.2306031E+04  0.7818609E-02  0.8475547E-01
       -2   -1    0    0    0  501  0.00000000000E+00  0.00000000000E+00  0.84629458383E+03  0.84629458384E+03  0.25500000920E-02 0. -1.
        2   -1    0    0  501    0  0.00000000000E+00  0.00000000000E+00 -0.15709005798E+04  0.15709005798E+04  0.25500000920E-02 0.  1.
    10030    2    1    2    0    0  0.00000000000E+00  0.00000000000E+00 -0.72460599592E+03  0.24171951636E+04  0.23060309212E+04 0.  0.
        5    1    3    3  502    0 -0.41913337269E+03  0.43357799218E+03 -0.13924072392E+04  0.15173933799E+04  0.46999998093E+01 0.  1.
       -5    1    3    3    0  502  0.41913337269E+03 -0.43357799218E+03  0.66780124332E+03  0.89980178372E+03  0.46999998093E+01 0. -1.
</event>
<event>
 5   0  0.5924654E-05  0.1714694E+04  0.7818609E-02  0.8753028E-01
       -1   -1    0    0    0  501  0.00000000000E+00  0.00000000000E+00  0.38652817401E+03  0.38652817404E+03  0.50400001928E-02 0. -1.
        1   -1    0    0  501    0  0.00000000000E+00  0.00000000000E+00 -0.19016563552E+04  0.19016563552E+04  0.50400001928E-02 0.  1.
    10030    2    1    2    0    0  0.00000000000E+00  0.00000000000E+00 -0.15151281812E+04  0.22881845292E+04  0.17146938603E+04 0.  0.
        5    1    3    3  502    0  0.62178564269E+03  0.48982997205E+03 -0.31806190694E+03  0.85307458854E+03  0.46999998093E+01 0. -1.
       -5    1    3    3    0  502 -0.62178564269E+03 -0.48982997205E+03 -0.11970662742E+04  0.14351099407E+04  0.46999998093E+01 0.  1.
</event>
<event>
 5   0  0.1237296E-04  0.2239674E+04  0.7818609E-02  0.8502094E-01
        2   -1    0    0  501    0  0.00000000000E+00  0.00000000000E+00  0.16226404383E+04  0.16226404384E+04  0.25500000920E-02 0. -1.
       -2   -1    0    0    0  501  0.00000000000E+00  0.00000000000E+00 -0.77283583993E+03  0.77283583994E+03  0.25500000920E-02 0.  1.
    10030    2    1    2    0    0  0.00000000000E+00  0.00000000000E+00  0.84980459842E+03  0.23954762783E+04  0.22396738031E+04 0.  0.
        1    1    3    3  502    0 -0.30871599313E+02 -0.10599651797E+04  0.39925156276E+02  0.10611659888E+04  0.50400001928E-02 0. -1.
       -1    1    3    3    0  502  0.30871599313E+02  0.10599651797E+04  0.80987944214E+03  0.13343102895E+04  0.50400001928E-02 0.  1.
</event>
<event>
 5   0  0.1270613E-04  0.2320268E+04  0.7818609E-02  0.8469972E-01
        2   -1    0    0  501    0  0.00000000000E+00  0.00000000000E+00  0.12714707720E+04  0.12714707721E+04  0.25500000920E-02 0.  1.
       -2   -1    0    0    0  501  0.00000000000E+00  0.00000000000E+00 -0.10585466047E+04  0.10585466047E+04  0.25500000920E-02 0. -1.
    10030    2    1    2    0    0  0.00000000000E+00  0.00000000000E+00  0.21292416739E+03  0.23300173767E+04  0.23202681472E+04 0.  0.
        2    1    3    3  502    0 -0.22860811284E+02 -0.64615170428E+03  0.10737729192E+04  0.12534045331E+04  0.25500000920E-02 0.  1.
       -2    1    3    3    0  502  0.22860811284E+02  0.64615170428E+03 -0.86084875177E+03  0.10766128436E+04  0.25500000920E-02 0. -1.
</event>
<event>
 5   0  0.1270613E-04  0.2575749E+04  0.7818609E-02  0.8376486E-01
        2   -1    0    0  501    0  0.00000000000E+00  0.00000000000E+00  0.14752406847E+04  0.14752406847E+04  0.25500000920E-02 0.  1.
       -2   -1    0    0    0  501  0.00000000000E+00  0.00000000000E+00 -0.11243051563E+04  0.11243051563E+04  0.25500000920E-02 0. -1.
    10030    2    1    2    0    0  0.00000000000E+00  0.00000000000E+00  0.35093552838E+03  0.25995458409E+04  0.25757489851E+04 0.  0.
        2    1    3    3  502    0 -0.42175181835E+03 -0.11436570913E+04 -0.24405833900E+03  0.12431374065E+04  0.25500000920E-02 0.  1.
       -2    1    3    3    0  502  0.42175181835E+03  0.11436570913E+04  0.59499386738E+03  0.13564084344E+04  0.25500000920E-02 0. -1.
</event>
<event>
 5   0  0.5632156E-05  0.2160700E+04  0.7818609E-02  0.8534966E-01
       -1   -1    0    0    0  501  0.00000000000E+00  0.00000000000E+00  0.16350027262E+04  0.16350027262E+04  0.50400001928E-02 0.  1.
        1   -1    0    0  501    0  0.00000000000E+00  0.00000000000E+00 -0.71385583565E+03  0.71385583567E+03  0.50400001928E-02 0. -1.
    10030    2    1    2    0    0  0.00000000000E+00  0.00000000000E+00  0.92114689059E+03  0.23488585619E+04  0.21607001064E+04 0.  0.
        4    1    3    3  502    0 -0.22702541041E+03  0.70999079868E+03 -0.38952700399E+03  0.84104718710E+03  0.12699999809E+01 0. -1.
       -4    1    3    3    0  502  0.22702541041E+03 -0.70999079868E+03  0.13106738946E+04  0.15078113748E+04  0.12699999809E+01 0.  1.
</event>
<event>
 5   0  0.5642466E-05  0.2293577E+04  0.7818609E-02  0.8480458E-01
       -1   -1    0    0    0  501  0.00000000000E+00  0.00000000000E+00  0.46267743284E+03  0.46267743286E+03  0.50400001928E-02 0. -1.
        1   -1    0    0  501    0  0.00000000000E+00  0.00000000000E+00 -0.28424213517E+04  0.28424213517E+04  0.50400001928E-02 0.  1.
    10030    2    1    2    0    0  0.00000000000E+00  0.00000000000E+00 -0.23797439189E+04  0.33050987846E+04  0.22935773055E+04 0.  0.
        1    1    3    3  502    0  0.30230390666E+03 -0.51068449871E+03 -0.26039396618E+04  0.26707092825E+04  0.50400001928E-02 0.  1.
       -1    1    3    3    0  502 -0.30230390666E+03  0.51068449871E+03  0.22419574292E+03  0.63438950210E+03  0.50400001928E-02 0. -1.
</event>
<event>
 5   0  0.1234988E-04  0.1799438E+04  0.7818609E-02  0.8706599E-01
       -2   -1    0    0    0  501  0.00000000000E+00  0.00000000000E+00  0.65986986476E+03  0.65986986476E+03  0.25500000920E-02 0.  1.
        2   -1    0    0  501    0  0.00000000000E+00  0.00000000000E+00 -0.12267477020E+04  0.12267477020E+04  0.25500000920E-02 0. -1.
    10030    2    1    2    0    0  0.00000000000E+00  0.00000000000E+00 -0.56687783728E+03  0.18866175668E+04  0.17994375124E+04 0.  0.
        5    1    3    3  502    0 -0.24200778638E+03  0.45298600698E+03 -0.10579490956E+04  0.11760282607E+04  0.46999998093E+01 0. -1.
       -5    1    3    3    0  502  0.24200778638E+03 -0.45298600698E+03  0.49107125830E+03  0.71058930608E+03  0.46999998093E+01 0.  1.
</event>
<event>
 5   0  0.5924654E-05  0.2343146E+04  0.7818609E-02  0.8461101E-01
        1   -1    0    0  501    0  0.00000000000E+00  0.00000000000E+00  0.16430837319E+04  0.16430837319E+04  0.50400001928E-02 0. -1.
       -1   -1    0    0    0  501  0.00000000000E+00  0.00000000000E+00 -0.83537010173E+03  0.83537010174E+03  0.50400001928E-02 0.  1.
    10030    2    1    2    0    0  0.00000000000E+00  0.00000000000E+00  0.80771363018E+03  0.24784538337E+04  0.23431457695E+04 0.  0.
        5    1    3    3  502    0  0.63768584676E+03 -0.97705404866E+03  0.51621258554E+03  0.12758430063E+04  0.46999998093E+01 0.  1.
       -5    1    3    3    0  502 -0.63768584676E+03  0.97705404866E+03  0.29150104464E+03  0.12026108274E+04  0.46999998093E+01 0. -1.
</event>
<event>
 5   0  0.1270613E-04  0.1952615E+04  0.7818609E-02  0.8629101E-01
        2   -1    0    0  501    0  0.00000000000E+00  0.00000000000E+00  0.23928959812E+04  0.23928959812E+04  0.25500000920E-02 0. -1.
       -2   -1    0    0    0  501  0.00000000000E+00  0.00000000000E+00 -0.39833590775E+03  0.39833590776E+03  0.25500000920E-02 0.  1.
    10030    2    1    2    0    0  0.00000000000E+00  0.00000000000E+00  0.19945600734E+04  0.27912318890E+04  0.19526150597E+04 0.  0.
        2    1    3    3  502    0 -0.88566256101E+03  0.57918566018E+02  0.41587592732E+03  0.98015586475E+03  0.25500000920E-02 0.  1.
       -2    1    3    3    0  502  0.88566256101E+03 -0.57918566018E+02  0.15786841461E+04  0.18110760242E+04  0.25500000920E-02 0. -1.
</event>
<event>
 5   0  0.1281432E-04  0.2207609E+04  0.7818609E-02  0.8515268E-01
       -2   -1    0    0    0  501  0.00000000000E+00  0.00000000000E+00  0.89654984180E+03  0.89654984180E+03  0.25500000920E-02 0.  1.
        2   -1    0    0  501    0  0.00000000000E+00  0.00000000000E+00 -0.13589705117E+04  0.13589705117E+04  0.25500000920E-02 0. -1.
    10030    2    1    2    0    0  0.00000000000E+00  0.00000000000E+00 -0.46242066989E+03  0.22555203535E+04  0.22076093833E+04 0.  0.
        4    1    3    3  502    0  0.64093914058E+03  0.75901923645E+03 -0.72276506106E+03  0.12285373945E+04  0.12699999809E+01 0.  1.
       -4    1    3    3    0  502 -0.64093914058E+03 -0.75901923645E+03  0.26034439116E+03  0.10269829590E+04  0.12699999809E+01 0. -1.
</event>
<event>
 5   0  0.5632156E-05  0.2322974E+04  0.7818609E-02  0.8468917E-01
        1   -1    0    0  501    0  0.00000000000E+00  0.00000000000E+00  0.14482641473E+04  0.14482641473E+04  0.50400001928E-02 0. -1.
       -1   -1    0    0    0  501  0.00000000000E+00  0.00000000000E+00 -0.93149613040E+03  0.93149613041E+03  0.50400001928E-02 0.  1.
    10030    2    1    2    0    0  0.00000000000E+00  0.00000000000E+00  0.51676801691E+03  0.23797602777E+04  0.23229743426E+04 0.  0.
        4    1    3    3  502    0  0.43194759713E+03  0.96814548312E+03 -0.22773278228E+03  0.10843192501E+04  0.12699999809E+01 0.  1.
       -4    1    3    3    0  502 -0.43194759713E+03 -0.96814548312E+03  0.74450079919E+03  0.12954410276E+04  0.12699999809E+01 0. -1.
</event>
<event>
 5   0  0.1234988E-04  0.1648398E+04  0.7818609E-02  0.8791355E-01
       -2   -1    0    0    0  501  0.00000000000E+00  0.00000000000E+00  0.42272739146E+03  0.42272739147E+03  0.25500000920E-02 0. -1.
        2   -1    0    0  501    0  0.00000000000E+00  0.00000000000E+00 -0.16069559852E+04  0.16069559852E+04  0.25500000920E-02 0.  1.
    10030    2    1    2    0    0  0.00000000000E+00  0.00000000000E+00 -0.11842285937E+04  0.20296833766E+04  0.16483983885E+04 0.  0.
        5    1    3    3  502    0  0.71792391208E+03  0.14064822143E+03 -0.10595009830E+04  0.12875407134E+04  0.46999998093E+01 0.  1.
       -5    1    3    3    0  502 -0.71792391208E+03 -0.14064822143E+03 -0.12472761075E+03  0.74214266325E+03  0.46999998093E+01 0. -1.
</event>
<event>
 5   0  0.1257524E-04  0.2234760E+04  0.7818609E-02  0.8504098E-01
        2   -1    0    0  501    0  0.00000000000E+00  0.00000000000E+00  0.19140624045E+04  0.19140624045E+04  0.25500000920E-02 0. -1.
       -2   -1    0    0    0  501  0.00000000000E+00  0.00000000000E+00 -0.65229775627E+03  0.65229775627E+03  0.25500000920E-02 0.  1.
    10030    2    1    2    0    0  0.00000000000E+00  0.00000000000E+00  0.12617646482E+04  0.25663601608E+04  0.22347604899E+04 0.  0.
        3    1    3    3  502    0 -0.56532595378E+03  0.70277762849E+03 -0.12657050863E+03  0.91077435898E+03  0.10100000352E+00 0.  1.
       -3    1    3    3    0  502  0.56532595378E+03 -0.70277762849E+03  0.13883351569E+04  0.16555858018E+04  0.10100000352E+00 0. -1.
</event>
<event>
 5   0  0.1281432E-04  0.2154474E+04  0.7818609E-02  0.8537619E-01
       -2   -1    0    0    0  501  0.00000000000E+00  0.00000000000E+00  0.62658065916E+03  0.62658065916E+03  0.25500000920E-02 0.  1.
        2   -1    0    0  501    0  0.00000000000E+00  0.00000000000E+00 -0.18520201529E+04  0.18520201529E+04  0.25500000920E-02 0. -1.
    10030    2    1    2    0    0  0.00000000000E+00  0.00000000000E+00 -0.12254394938E+04  0.24786008121E+04  0.21544744215E+04 0.  0.
        4    1    3    3  502    0 -0.16962964186E+03 -0.10044686183E+04 -0.10157149437E+04  0.14385443616E+04  0.12699999809E+01 0. -1.
       -4    1    3    3    0  502  0.16962964186E+03  0.10044686183E+04 -0.20972455005E+03  0.10400564505E+04  0.12699999809E+01 0.  1.
</event>
<event>
 5   0  0.5843670E-05  0.2219416E+04  0.7818609E-02  0.8510390E-01
       -1   -1    0    0    0  501  0.00000000000E+00  0.00000000000E+00  0.80422593944E+03  0.80422593946E+03  0.50400001928E-02 0. -1.
        1   -1    0    0  501    0  0.00000000000E+00  0.00000000000E+00 -0.15312260379E+04  0.15312260379E+04  0.50400001928E-02 0.  1.
    10030    2    1    2    0    0  0.00000000000E+00  0.00000000000E+00 -0.72700009847E+03  0.23354519774E+04  0.22194158681E+04 0.  0.
        2    1    3    3  502    0  0.86470264444E+03  0.52520685125E+03 -0.84329784116E+03  0.13170816789E+04  0.25500000920E-02 0.  1.
       -2    1    3    3    0  502 -0.86470264444E+03 -0.52520685125E+03  0.11629774269E+03  0.10183702985E+04  0.25500000920E-02 0. -1.
</event>
<event>
 5   0  0.1257524E-04  0.2324301E+04  0.7818609E-02  0.8468401E-01
        2   -1    0    0  501    0  0.00000000000E+00  0.00000000000E+00  0.87350204368E+03  0.87350204368E+03  0.25500000920E-02 0. -1.
       -2   -1    0    0    0  501  0.00000000000E+00  0.00000000000E+00 -0.15461831733E+04  0.15461831733E+04  0.25500000920E-02 0.  1.
    10030    2    1    2    0    0  0.00000000000E+00  0.00000000000E+00 -0.67268112964E+03  0.24196852170E+04  0.23243013245E+04 0.  0.
        3    1    3    3  502    0 -0.33229305745E+03 -0.42775219285E+03  0.73405855972E+03  0.91226783009E+03  0.10100000352E+00 0. -1.
       -3    1    3    3    0  502  0.33229305745E+03  0.42775219285E+03 -0.14067396894E+04  0.15074173869E+04  0.10100000352E+00 0.  1.
</event>
<event>
 5   0  0.5663790E-05  0.2268941E+04  0.7818609E-02  0.8490269E-01
       -1   -1    0    0    0  501  0.00000000000E+00  0.00000000000E+00  0.66568644637E+03  0.66568644639E+03  0.50400001928E-02 0.  1.
        1   -1    0    0  501    0  0.00000000000E+00  0.00000000000E+00 -0.19333773436E+04  0.19333773436E+04  0.50400001928E-02 0. -1.
    10030    2    1    2    0    0  0.00000000000E+00  0.00000000000E+00 -0.12676908972E+04  0.25990637900E+04  0.22689408043E+04 0.  0.
        3    1    3    3  502    0 -0.55393026137E+02  0.46527454656E+03  0.54966606055E+03  0.72227527948E+03  0.10100000352E+00 0.  1.
       -3    1    3    3    0  502  0.55393026137E+02 -0.46527454656E+03 -0.18173569578E+04  0.18767885105E+04  0.10100000352E+00 0. -1.
</event>
<event>
 5   0  0.1281432E-04  0.2287904E+04  0.7818609E-02  0.8482706E-01
        2   -1    0    0  501    0  0.00000000000E+00  0.00000000000E+00  0.13120542081E+04  0.13120542081E+04  0.25500000920E-02 0. -1.
       -2   -1    0    0    0  501  0.00000000000E+00  0.00000000000E+00 -0.99738760891E+03  0.99738760891E+03  0.25500000920E-02 0.  1.
    10030    2    1    2    0    0  0.00000000000E+00  0.00000000000E+00  0.31466659922E+03  0.23094418170E+04  0.22879043769E+04 0.  0.
        4    1    3    3  502    0 -0.99522361652E+03  0.34559970864E+03 -0.29263855114E+03  0.10934112401E+04  0.12699999809E+01 0.  1.
       -4    1    3    3    0  502  0.99522361652E+03 -0.34559970864E+03  0.60730515036E+03  0.12160305769E+04  0.12699999809E+01 0. -1.
</event>
<event>
 5   0  0.5642466E-05  0.2249772E+04  0.7818609E-02  0.8497993E-01
       -1   -1    0    0    0  501  0.00000000000E+00  0.00000000000E+00  0.74838640470E+03  0.74838640472E+03  0.50400001928E-02 0.  1.
        1   -1    0    0  501    0  0.00000000000E+00  0.00000000000E+00 -0.16907951403E+04  0.16907951403E+04  0.50400001928E-02 0. -1.
    10030    2    1    2    0    0  0.00000000000E+00  0.00000000000E+00 -0.94240873564E+03  0.24391815451E+04  0.22497716295E+04 0.  0.
        1    1    3    3  502    0 -0.70122809160E+03  0.84076826013E+03 -0.75132868968E+03  0.13278203582E+04  0.50400001928E-02 0. -1.
       -1    1    3    3    0  502  0.70122809160E+03 -0.84076826013E+03 -0.19108004596E+03  0.11113611869E+04  0.50400001928E-02 0.  1.
</event>
<event>
 5   0  0.1234988E-04  0.1656531E+04  0.7818609E-02  0.8786552E-01
        2   -1    0    0  501    0  0.00000000000E+00  0.00000000000E+00  0.10494409306E+04  0.10494409306E+04  0.25500000920E-02 0.  1.
       -2   -1    0    0    0  501  0.00000000000E+00  0.00000000000E+00 -0.65370372653E+03  0.65370372653E+03  0.25500000920E-02 0. -1.
    10030    2    1    2    0    0  0.00000000000E+00  0.00000000000E+00  0.39573720405E+03  0.17031446571E+04  0.16565306482E+04 0.  0.
        5    1    3    3  502    0 -0.58846278622E+03 -0.18196123301E+03  0.76716740732E+03  0.98385276436E+03  0.46999998093E+01 0.  1.
       -5    1    3    3    0  502  0.58846278622E+03  0.18196123301E+03 -0.37143020326E+03  0.71929189276E+03  0.46999998093E+01 0. -1.
</event>
<event>
 5   0  0.5924654E-05  0.2327082E+04  0.7818609E-02  0.8467319E-01
        1   -1    0    0  501    0  0.00000000000E+00  0.00000000000E+00  0.10820590820E+04  0.10820590820E+04  0.50400001928E-02 0. -1.
       -1   -1    0    0    0  501  0.00000000000E+00  0.00000000000E+00 -0.12511587072E+04  0.12511587072E+04  0.50400001928E-02 0.  1.
    10030    2    1    2    0    0  0.00000000000E+00  0.00000000000E+00 -0.16909962520E+03  0.23332177892E+04  0.23270819858E+04 0.  0.
        5    1    3    3  502    0  0.36357943445E+02 -0.39045912196E+03 -0.11828948715E+04  0.12462112955E+04  0.46999998093E+01 0.  1.
       -5    1    3    3    0  502 -0.36357943445E+02  0.39045912196E+03  0.10137952463E+04  0.10870064937E+04  0.46999998093E+01 0. -1.
</event>
<event>
 5   0  0.5924654E-05  0.2432607E+04  0.7818609E-02  0.8427396E-01
        1   -1    0    0  501    0  0.00000000000E+00  0.00000000000E+00  0.92409788523E+03  0.92409788524E+03  0.50400001928E-02 0. -1.
       -1   -1    0    0    0  501  0.00000000000E+00  0.00000000000E+00 -0.16009060119E+04  0.16009060119E+04  0.50400001928E-02 0.  1.
    10030    2    1    2    0    0  0.00000000000E+00  0.00000000000E+00 -0.67680812671E+03  0.25250038972E+04  0.24326067172E+04 0.  0.
        5    1    3    3  502    0 -0.96161465683E+03 -0.82190266526E+02 -0.11067313611E+04  0.14684462482E+04  0.46999998093E+01 0.  1.
       -5    1    3    3    0  502  0.96161465683E+03  0.82190266526E+02  0.42992323442E+03  0.10565576490E+04  0.46999998093E+01 0. -1.
</event>
<event>
 5   0  0.1234988E-04  0.2348452E+04  0.7818609E-02  0.8459058E-01
        2   -1    0    0  501    0  0.00000000000E+00  0.00000000000E+00  0.21227256981E+04  0.21227256981E+04  0.25500000920E-02 0. -1.
       -2   -1    0    0    0  501  0.00000000000E+00  0.00000000000E+00 -0.64954541840E+03  0.64954541841E+03  0.25500000920E-02 0.  1.
    10030    2    1    2    0    0  0.00000000000E+00  0.00000000000E+00  0.14731802797E+04  0.27722711165E+04  0.23484520448E+04 0.  0.
        5    1    3    3  502    0 -0.58256452159E+03  0.66540387376E+03 -0.17523281956E+03  0.90159434785E+03  0.46999998093E+01 0.  1.
       -5    1    3    3    0  502  0.58256452159E+03 -0.66540387376E+03  0.16484130992E+04  0.18706767687E+04  0.46999998093E+01 0. -1.
</event>
<event>
 5   0  0.5632156E-05  0.2165874E+04  0.7818609E-02  0.8532768E-01
        1   -1    0    0  501    0  0.00000000000E+00  0.00000000000E+00  0.19950131359E+04  0.19950131359E+04  0.50400001928E-02 0. -1.
       -1   -1    0    0    0  501  0.00000000000E+00  0.00000000000E+00 -0.58784192879E+03  0.58784192881E+03  0.50400001928E-02 0.  1.
    10030    2    1    2    0    0  0.00000000000E+00  0.00000000000E+00  0.14071712071E+04  0.25828550647E+04  0.21658738373E+04 0.  0.
        4    1    3    3  502    0  0.70910635195E+03  0.69795653606E+02 -0.26892247074E+03  0.76159317211E+03  0.12699999809E+01 0.  1.
       -4    1    3    3    0  502 -0.70910635195E+03 -0.69795653606E+02  0.16760936779E+04  0.18212618926E+04  0.12699999809E+01 0. -1.
</event>
<event>
 5   0  0.5632156E-05  0.2331929E+04  0.7818609E-02  0.8465437E-01
       -1   -1    0    0    0  501  0.00000000000E+00  0.00000000000E+00  0.64084154724E+03  0.64084154726E+03  0.50400001928E-02 0.  1.
        1   -1    0    0  501    0  0.00000000000E+00  0.00000000000E+00 -0.21213871488E+04  0.21213871488E+04  0.50400001928E-02 0. -1.
    10030    2    1    2    0    0  0.00000000000E+00  0.00000000000E+00 -0.14805456015E+04  0.27622286960E+04  0.23319288349E+04 0.  0.
        4    1    3    3  502    0 -0.10279648738E+04 -0.46719815366E+01 -0.13920177374E+04  0.17304475153E+04  0.12699999809E+01 0. -1.
       -4    1    3    3    0  502  0.10279648738E+04  0.46719815366E+01 -0.88527864162E+02  0.10317811807E+04  0.12699999809E+01 0.  1.
</event>
<event>
 5   0  0.5924654E-05  0.2149410E+04  0.7818609E-02  0.8539785E-01
        1   -1    0    0  501    0  0.00000000000E+00  0.00000000000E+00  0.10501836734E+04  0.10501836734E+04  0.50400001928E-02 0. -1.
       -1   -1    0    0    0  501  0.00000000000E+00  0.00000000000E+00 -0.10997984667E+04  0.10997984667E+04  0.50400001928E-02 0.  1.
    10030    2    1    2    0    0  0.00000000000E+00  0.00000000000E+00 -0.49614793350E+02  0.21499821401E+04  0.21494095876E+04 0.  0.
        5    1    3    3  502    0  0.24146250730E+02  0.78985180315E+03  0.70375424453E+03  0.10581781698E+04  0.46999998093E+01 0. -1.
       -5    1    3    3    0  502 -0.24146250730E+02 -0.78985180315E+03 -0.75336903787E+03  0.10918039703E+04  0.46999998093E+01 0.  1.
</event>
<event>
 5   0  0.5632156E-05  0.2276420E+04  0.7818609E-02  0.8487277E-01
        1   -1    0    0  501    0  0.00000000000E+00  0.00000000000E+00  0.14654239416E+04  0.14654239416E+04  0.50400001928E-02 0.  1.
       -1   -1    0    0    0  501  0.00000000000E+00  0.00000000000E+00 -0.88405991529E+03  0.88405991530E+03  0.50400001928E-02 0. -1.
    10030    2    1    2    0    0  0.00000000000E+00  0.00000000000E+00  0.58136402635E+03  0.23494838569E+04  0.22764204934E+04 0.  0.
        4    1    3    3  502    0  0.38642480736E+03 -0.10078179230E+04  0.66352415455E+03  0.12669992163E+04  0.12699999809E+01 0.  1.
       -4    1    3    3    0  502 -0.38642480736E+03  0.10078179230E+04 -0.82160128203E+02  0.10824846406E+04  0.12699999809E+01 0. -1.
</event>
<event>
 5   0  0.5632156E-05  0.2338454E+04  0.7818609E-02  0.8462912E-01
        1   -1    0    0  501    0  0.00000000000E+00  0.00000000000E+00  0.15130523578E+04  0.15130523578E+04  0.50400001928E-02 0.  1.
       -1   -1    0    0    0  501  0.00000000000E+00  0.00000000000E+00 -0.90353211746E+03  0.90353211747E+03  0.50400001928E-02 0. -1.
    10030    2    1    2    0    0  0.00000000000E+00  0.00000000000E+00  0.60952024032E+03  0.24165844753E+04  0.23384536777E+04 0.  0.
        4    1    3    3  502    0 -0.14006306194E+03 -0.19149739827E+03 -0.87839468178E+03  0.90987237828E+03  0.12699999809E+01 0. -1.
       -4    1    3    3    0  502  0.14006306194E+03  0.19149739827E+03  0.14879149221E+04  0.15067120970E+04  0.12699999809E+01 0.  1.
</event>
<event>
 5   0  0.5632156E-05  0.2320344E+04  0.7818609E-02  0.8469943E-01
        1   -1    0    0  501    0  0.00000000000E+00  0.00000000000E+00  0.13999770088E+04  0.13999770089E+04  0.50400001928E-02 0.  1.
       -1   -1    0    0    0  501  0.00000000000E+00  0.00000000000E+00 -0.96144365640E+03  0.96144365641E+03  0.50400001928E-02 0. -1.
    10030    2    1    2    0    0  0.00000000000E+00  0.00000000000E+00  0.43853335245E+03  0.23614206653E+04  0.23203439523E+04 0.  0.
        4    1    3    3  502    0 -0.55520430401E+03  0.10185414453E+04  0.20109258789E+03  0.11773352695E+04  0.12699999809E+01 0.  1.
       -4    1    3    3    0  502  0.55520430401E+03 -0.10185414453E+04  0.23744076456E+03  0.11840853958E+04  0.12699999809E+01 0. -1.
</event>
<event>
 5   0  0.5642466E-05  0.2559132E+04  0.7818609E-02  0.8382217E-01
        1   -1    0    0  501    0  0.00000000000E+00  0.00000000000E+00  0.20869681744E+04  0.20869681744E+04  0.50400001928E-02 0.  1.
       -1   -1    0    0    0  501  0.00000000000E+00  0.00000000000E+00 -0.78453011028E+03  0.78453011030E+03  0.50400001928E-02 0. -1.
    10030    2    1    2    0    0  0.00000000000E+00  0.00000000000E+00  0.13024380641E+04  0.28714982847E+04  0.25591321748E+04 0.  0.
        1    1    3    3  502    0  0.77813634495E+03  0.92068243113E+03  0.11327081193E+04  0.16541402583E+04  0.50400001928E-02 0.  1.
       -1    1    3    3    0  502 -0.77813634495E+03 -0.92068243113E+03  0.16972994474E+03  0.12173580264E+04  0.50400001928E-02 0. -1.
</event>
<event>
 5   0  0.1270613E-04  0.2268780E+04  0.7818609E-02  0.8490334E-01
       -2   -1    0    0    0  501  0.00000000000E+00  0.00000000000E+00  0.14242460908E+04  0.14242460908E+04  0.25500000920E-02 0. -1.
        2   -1    0    0  501    0  0.00000000000E+00  0.00000000000E+00 -0.90352372493E+03  0.90352372493E+03  0.25500000920E-02 0.  1.
    10030    2    1    2    0    0  0.00000000000E+00  0.00000000000E+00  0.52072236590E+03  0.23277698158E+04  0.22687795250E+04 0.  0.
        2    1    3    3  502    0 -0.63655143137E+03  0.57068423197E+03 -0.50465436134E+03  0.99275084580E+03  0.25500000920E-02 0.  1.
       -2    1    3    3    0  502  0.63655143137E+03 -0.57068423197E+03  0.10253767272E+04  0.13350189700E+04  0.25500000920E-02 0. -1.
</event>
<event>
 5   0  0.5642466E-05  0.2186644E+04  0.7818609E-02  0.8524008E-01
        1   -1    0    0  501    0  0.00000000000E+00  0.00000000000E+00  0.11447329757E+04  0.11447329757E+04  0.50400001928E-02 0. -1.
       -1   -1    0    0    0  501  0.00000000000E+00  0.00000000000E+00 -0.10442203465E+04  0.10442203466E+04  0.50400001928E-02 0.  1.
    10030    2    1    2    0    0  0.00000000000E+00  0.00000000000E+00  0.10051262917E+03  0.21889533223E+04  0.21866444289E+04 0.  0.
        1    1    3    3  502    0  0.17667230032E+03 -0.54354078279E+03 -0.88277063565E+03  0.10516338143E+04  0.50400001928E-02 0.  1.
       -1    1    3    3    0  502 -0.17667230032E+03  0.54354078279E+03  0.98328326482E+03  0.11373195079E+04  0.50400001928E-02 0. -1.
</event>
<event>
 5   0  0.5632156E-05  0.2320026E+04  0.7818609E-02  0.8470067E-01
       -1   -1    0    0    0  501  0.00000000000E+00  0.00000000000E+00  0.12111444733E+04  0.12111444733E+04  0.50400001928E-02 0. -1.
        1   -1    0    0  501    0  0.00000000000E+00  0.00000000000E+00 -0.11110398220E+04  0.11110398220E+04  0.50400001928E-02 0.  1.
    10030    2    1    2    0    0  0.00000000000E+00  0.00000000000E+00  0.10010465135E+03  0.23221842953E+04  0.23200256378E+04 0.  0.
        4    1    3    3  502    0 -0.81760542171E+03 -0.37805825390E+03  0.78163694047E+03  0.11926292754E+04  0.12699999809E+01 0. -1.
       -4    1    3    3    0  502  0.81760542171E+03  0.37805825390E+03 -0.68153228912E+03  0.11295550199E+04  0.12699999809E+01 0.  1.
</event>
<event>
 5   0  0.1234988E-04  0.2234425E+04  0.7818609E-02  0.8504235E-01
       -2   -1    0    0    0  501  0.00000000000E+00  0.00000000000E+00  0.67933076105E+03  0.67933076106E+03  0.25500000920E-02 0. -1.
        2   -1    0    0  501    0  0.00000000000E+00  0.00000000000E+00 -0.18373439781E+04  0.18373439781E+04  0.25500000920E-02 0.  1.
    10030    2    1    2    0    0  0.00000000000E+00  0.00000000000E+00 -0.11580132170E+04  0.25166747391E+04  0.22344254590E+04 0.  0.
        5    1    3    3  502    0 -0.57539156624E+03  0.71957128884E+03  0.13270183404E+03  0.93085453266E+03  0.46999998093E+01 0. -1.
       -5    1    3    3    0  502  0.57539156624E+03 -0.71957128884E+03 -0.12907150510E+04  0.15858202065E+04  0.46999998093E+01 0.  1.
</event>
<event>
 5   0  0.1234988E-04  0.2254740E+04  0.7818609E-02  0.8495983E-01
        2   -1    0    0  501    0  0.00000000000E+00  0.00000000000E+00  0.12450294477E+04  0.12450294477E+04  0.25500000920E-02 0. -1.
       -2   -1    0    0    0  501  0.00000000000E+00  0.00000000000E+00 -0.10208299390E+04  0.10208299390E+04  0.25500000920E-02 0.  1.
    10030    2    1    2    0    0  0.00000000000E+00  0.00000000000E+00  0.22419950879E+03  0.22658593867E+04  0.22547401936E+04 0.  0.
        5    1    3    3  502    0 -0.45480985510E+03  0.34694477139E+03  0.10883422267E+04  0.12295257505E+04  0.46999998093E+01 0. -1.
       -5    1    3    3    0  502  0.45480985510E+03 -0.34694477139E+03 -0.86414271790E+03  0.10363336362E+04  0.46999998093E+01 0.  1.
</event>
<event>
 5   0  0.5663790E-05  0.2331550E+04  0.7818609E-02  0.8465584E-01
        1   -1    0    0  501    0  0.00000000000E+00  0.00000000000E+00  0.19062057058E+04  0.19062057058E+04  0.50400001928E-02 0. -1.
       -1   -1    0    0    0  501  0.00000000000E+00  0.00000000000E+00 -0.71295101465E+03  0.71295101466E+03  0.50400001928E-02 0.  1.
    10030    2    1    2    0    0  0.00000000000E+00  0.00000000000E+00  0.11932546912E+04  0.26191567205E+04  0.23315499498E+04 0.  0.
        3    1    3    3  502    0  0.19304672702E+03 -0.45711055280E+03  0.17816539167E+04  0.18494614853E+04  0.10100000352E+00 0. -1.
       -3    1    3    3    0  502 -0.19304672702E+03  0.45711055280E+03 -0.58839922555E+03  0.76969523523E+03  0.10100000352E+00 0.  1.
</event>
<event>
 5   0  0.5632156E-05  0.2197354E+04  0.7818609E-02  0.8519530E-01
       -1   -1    0    0    0  501  0.00000000000E+00  0.00000000000E+00  0.46609283243E+03  0.46609283245E+03  0.50400001928E-02 0. -1.
        1   -1    0    0  501    0  0.00000000000E+00  0.00000000000E+00 -0.25898080667E+04  0.25898080667E+04  0.50400001928E-02 0.  1.
    10030    2    1    2    0    0  0.00000000000E+00  0.00000000000E+00 -0.21237152343E+04  0.30559008992E+04  0.21973538425E+04 0.  0.
        4    1    3    3  502    0  0.99649417256E+03 -0.41394279650E+03 -0.77434495010E+03  0.13281419312E+04  0.12699999809E+01 0.  1.
       -4    1    3    3    0  502 -0.99649417256E+03  0.41394279650E+03 -0.13493702842E+04  0.17277589680E+04  0.12699999809E+01 0. -1.
</event>
<event>
 5   0  0.5632156E-05  0.2274086E+04  0.7818609E-02  0.8488209E-01
        1   -1    0    0  501    0  0.00000000000E+00  0.00000000000E+00  0.15853104892E+04  0.15853104892E+04  0.50400001928E-02 0. -1.
       -1   -1    0    0    0  501  0.00000000000E+00  0.00000000000E+00 -0.81552899415E+03  0.81552899416E+03  0.50400001928E-02 0.  1.
    10030    2    1    2    0    0  0.00000000000E+00  0.00000000000E+00  0.76978149507E+03  0.24008394834E+04  0.22740858987E+04 0.  0.
        4    1    3    3  502    0  0.10039947806E+04  0.46263117211E+03  0.10391372100E+03  0.11103300389E+04  0.12699999809E+01 0.  1.
       -4    1    3    3    0  502 -0.10039947806E+04 -0.46263117211E+03  0.66586777407E+03  0.12905094445E+04  0.12699999809E+01 0. -1.
</event>
<event>
 5   0  0.1281432E-04  0.2449876E+04  0.7818609E-02  0.8421063E-01
        2   -1    0    0  501    0  0.00000000000E+00  0.00000000000E+00  0.11562465657E+04  0.11562465657E+04  0.25500000920E-02 0. -1.
       -2   -1    0    0    0  501  0.00000000000E+00  0.00000000000E+00 -0.12977100918E+04  0.12977100918E+04  0.25500000920E-02 0.  1.
    10030    2    1    2    0    0  0.00000000000E+00  0.00000000000E+00 -0.14146352609E+03  0.24539566575E+04  0.24498757821E+04 0.  0.
        4    1    3    3  502    0 -0.70359689837E+03 -0.99919108266E+03  0.13311568430E+02  0.12221334730E+04  0.12699999809E+01 0. -1.
       -4    1    3    3    0  502  0.70359689837E+03  0.99919108266E+03 -0.15477509452E+03  0.12318231845E+04  0.12699999809E+01 0.  1.
</event>
<event>
 5   0  0.4489500E-05  0.2322664E+04  0.7818609E-02  0.8469038E-01
        3   -1    0    0  501    0  0.00000000000E+00  0.00000000000E+00  0.12132954751E+04  0.12132954793E+04  0.10100000352E+00 0.  1.
       -3   -1    0    0    0  501  0.00000000000E+00  0.00000000000E+00 -0.11115937940E+04  0.11115937986E+04  0.10100000352E+00 0. -1.
    10030    2    1    2    0    0  0.00000000000E+00  0.00000000000E+00  0.10170168107E+03  0.23248892779E+04  0.23226637558E+04 0.  0.
        2    1    3    3  502    0 -0.73561320999E+03  0.89813859062E+03  0.20622434390E+02  0.11611223051E+04  0.25500000920E-02 0. -1.
       -2    1    3    3    0  502  0.73561320999E+03 -0.89813859062E+03  0.81079246681E+02  0.11637669728E+04  0.25500000920E-02 0.  1.
</event>
<event>
 5   0  0.5663790E-05  0.2311946E+04  0.7818609E-02  0.8473226E-01
       -1   -1    0    0    0  501  0.00000000000E+00  0.00000000000E+00  0.92386842481E+03  0.92386842482E+03  0.50400001928E-02 0.  1.
        1   -1    0    0  501    0  0.00000000000E+00  0.00000000000E+00 -0.14463891289E+04  0.14463891289E+04  0.50400001928E-02 0. -1.
    10030    2    1    2    0    0  0.00000000000E+00  0.00000000000E+00 -0.52252070409E+03  0.23702575537E+04  0.23119457141E+04 0.  0.
        3    1    3    3  502    0 -0.62350680762E+03  0.89192823497E+03 -0.66093458997E+03  0.12732365287E+04  0.10100000352E+00 0. -1.
       -3    1    3    3    0  502  0.62350680762E+03 -0.89192823497E+03  0.13841388587E+03  0.10970210251E+04  0.10100000352E+00 0.  1.
</event>
<event>
 5   0  0.1270613E-04  0.2289122E+04  0.7818609E-02  0.8482222E-01
        2   -1    0    0  501    0  0.00000000000E+00  0.00000000000E+00  0.15341825023E+04  0.15341825023E+04  0.25500000920E-02 0.  1.
       -2   -1    0    0    0  501  0.00000000000E+00  0.00000000000E+00 -0.85388806191E+03  0.85388806192E+03  0.25500000920E-02 0. -1.
    10030    2    1    2    0    0  0.00000000000E+00  0.00000000000E+00  0.68029444040E+03  0.23880705642E+04  0.22891222104E+04 0.  0.
        2    1    3    3  502    0 -0.10818271571E+04  0.37316427045E+03  0.31880432492E+03  0.11879552888E+04  0.25500000920E-02 0. -1.
       -2    1    3    3    0  502  0.10818271571E+04 -0.37316427045E+03  0.36149011548E+03  0.12001152754E+04  0.25500000920E-02 0.  1.
</event>
<event>
 5   0  0.1234988E-04  0.2173743E+04  0.7818609E-02  0.8529437E-01
       -2   -1    0    0    0  501  0.00000000000E+00  0.00000000000E+00  0.79561946784E+03  0.79561946784E+03  0.25500000920E-02 0.  1.
        2   -1    0    0  501    0  0.00000000000E+00  0.00000000000E+00 -0.14847418203E+04  0.14847418203E+04  0.25500000920E-02 0. -1.
    10030    2    1    2    0    0  0.00000000000E+00  0.00000000000E+00 -0.68912235248E+03  0.22803612882E+04  0.21737428523E+04 0.  0.
        5    1    3    3  502    0 -0.59437887355E+03 -0.78909435599E+03 -0.81989845528E+03  0.12838269801E+04  0.46999998093E+01 0. -1.
       -5    1    3    3    0  502  0.59437887355E+03  0.78909435599E+03  0.13077610280E+03  0.99653430801E+03  0.46999998093E+01 0.  1.
</event>
<event>
 5   0  0.1257524E-04  0.1838327E+04  0.7818609E-02  0.8686179E-01
        2   -1    0    0  501    0  0.00000000000E+00  0.00000000000E+00  0.78931005219E+03  0.78931005220E+03  0.25500000920E-02 0.  1.
       -2   -1    0    0    0  501  0.00000000000E+00  0.00000000000E+00 -0.10703793161E+04  0.10703793161E+04  0.25500000920E-02 0. -1.
    10030    2    1    2    0    0  0.00000000000E+00  0.00000000000E+00 -0.28106926387E+03  0.18596893683E+04  0.18383265802E+04 0.  0.
        3    1    3    3  502    0 -0.85943282755E+03 -0.31052062966E+03 -0.24074789781E+03  0.94499069150E+03  0.10100000352E+00 0. -1.
       -3    1    3    3    0  502  0.85943282755E+03  0.31052062966E+03 -0.40321366057E+02  0.91469867676E+03  0.10100000352E+00 0.  1.
</event>
<event>
 5   0  0.5843670E-05  0.2226789E+04  0.7818609E-02  0.8507360E-01
        1   -1    0    0  501    0  0.00000000000E+00  0.00000000000E+00  0.13614816852E+04  0.13614816852E+04  0.50400001928E-02 0. -1.
       -1   -1    0    0    0  501  0.00000000000E+00  0.00000000000E+00 -0.91051303989E+03  0.91051303991E+03  0.50400001928E-02 0.  1.
    10030    2    1    2    0    0  0.00000000000E+00  0.00000000000E+00  0.45096864532E+03  0.22719947251E+04  0.22267885647E+04 0.  0.
        2    1    3    3  502    0 -0.14190861704E+02 -0.10769146788E+04 -0.62559192344E+02  0.10788235530E+04  0.25500000920E-02 0.  1.
       -2    1    3    3    0  502  0.14190861704E+02  0.10769146788E+04  0.51352783766E+03  0.11931711721E+04  0.25500000920E-02 0. -1.
</event>
<event>
 5   0  0.1257524E-04  0.2300121E+04  0.7818609E-02  0.8477873E-01
       -2   -1    0    0    0  501  0.00000000000E+00  0.00000000000E+00  0.12098825175E+04  0.12098825175E+04  0.25500000920E-02 0.  1.
        2   -1    0    0  501    0  0.00000000000E+00  0.00000000000E+00 -0.10931964414E+04  0.10931964414E+04  0.25500000920E-02 0. -1.
    10030    2    1    2    0    0  0.00000000000E+00  0.00000000000E+00  0.11668607616E+03  0.23030789589E+04  0.23001210947E+04 0.  0.
        3    1    3    3  502    0  0.18183128376E+03  0.10489484745E+04 -0.37728394707E+03  0.11294683284E+04  0.10100000352E+00 0.  1.
       -3    1    3    3    0  502 -0.18183128376E+03 -0.10489484745E+04  0.49397002323E+03  0.11736106305E+04  0.10100000352E+00 0. -1.
</event>
<event>
 5   0  0.5924654E-05  0.2310758E+04  0.7818609E-02  0.8473691E-01
        1   -1    0    0  501    0  0.00000000000E+00  0.00000000000E+00  0.10332127253E+04  0.10332127254E+04  0.50400001928E-02 0.  1.
       -1   -1    0    0    0  501  0.00000000000E+00  0.00000000000E+00 -0.12919900941E+04  0.12919900941E+04  0.50400001928E-02 0. -1.
    10030    2    1    2    0    0  0.00000000000E+00  0.00000000000E+00 -0.25877736878E+03  0.23252028195E+04  0.23107579763E+04 0.  0.
        5    1    3    3  502    0 -0.10628074803E+04  0.37072635762E+03  0.13277931292E+03  0.11334241079E+04  0.46999998093E+01 0.  1.
       -5    1    3    3    0  502  0.10628074803E+04 -0.37072635762E+03 -0.39155668171E+03  0.11917787116E+04  0.46999998093E+01 0. -1.
</event>
<event>
 5   0  0.5663790E-05  0.2362775E+04  0.7818609E-02  0.8453573E-01
       -1   -1    0    0    0  501  0.00000000000E+00  0.00000000000E+00  0.14091118238E+04  0.14091118238E+04  0.50400001928E-02 0.  1.
        1   -1    0    0  501    0  0.00000000000E+00  0.00000000000E+00 -0.99046506158E+03  0.99046506159E+03  0.50400001928E-02 0. -1.
    10030    2    1    2    0    0  0.00000000000E+00  0.00000000000E+00  0.41864676224E+03  0.23995768854E+04  0.23627746650E+04 0.  0.
        3    1    3    3  502    0  0.10766903590E+04 -0.16676460326E+02  0.70283032572E+03  0.12858890739E+04  0.10100000352E+00 0.  1.
       -3    1    3    3    0  502 -0.10766903590E+04  0.16676460326E+02 -0.28418356348E+03  0.11136878115E+04  0.10100000352E+00 0. -1.
</event>
<event>
 5   0  0.5632156E-05  0.2305847E+04  0.7818609E-02  0.8475619E-01
        1   -1    0    0  501    0  0.00000000000E+00  0.00000000000E+00  0.11983318912E+04  0.11983318913E+04  0.50400001928E-02 0. -1.
       -1   -1    0    0    0  501  0.00000000000E+00  0.00000000000E+00 -0.11092360991E+04  0.11092360992E+04  0.50400001928E-02 0.  1.
    10030    2    1    2    0    0  0.00000000000E+00  0.00000000000E+00  0.89095792100E+02  0.23075679904E+04  0.23058473432E+04 0.  0.
        4    1    3    3  502    0 -0.79313149487E+03 -0.23605698470E+03 -0.75882814431E+03  0.11227654402E+04  0.12699999809E+01 0.  1.
       -4    1    3    3    0  502  0.79313149487E+03  0.23605698470E+03  0.84792393641E+03  0.11848025502E+04  0.12699999809E+01 0. -1.
</event>
<event>
 5   0  0.1281432E-04  0.2317449E+04  0.7818609E-02  0.8471073E-01
       -2   -1    0    0    0  501  0.00000000000E+00  0.00000000000E+00  0.58460492856E+03  0.58460492857E+03  0.25500000920E-02 0. -1.
        2   -1    0    0  501    0  0.00000000000E+00  0.00000000000E+00 -0.22966654667E+04  0.22966654667E+04  0.25500000920E-02 0.  1.
    10030    2    1    2    0    0  0.00000000000E+00  0.00000000000E+00 -0.17120605381E+04  0.28812703953E+04  0.23174485548E+04 0.  0.
        4    1    3    3  502    0 -0.39358156850E+03  0.10657315333E+04 -0.11394091418E+04  0.16090198748E+04  0.12699999809E+01 0. -1.
       -4    1    3    3    0  502  0.39358156850E+03 -0.10657315333E+04 -0.57265139628E+03  0.12722505204E+04  0.12699999809E+01 0.  1.
</event>
<event>
 5   0  0.5632156E-05  0.1181553E+04  0.7818609E-02  0.9129158E-01
       -1   -1    0    0    0  501  0.00000000000E+00  0.00000000000E+00  0.11754142042E+04  0.11754142042E+04  0.50400001928E-02 0. -1.
        1   -1    0    0  501    0  0.00000000000E+00  0.00000000000E+00 -0.29693118140E+03  0.29693118144E+03  0.50400001928E-02 0.  1.
    10030    2    1    2    0    0  0.00000000000E+00  0.00000000000E+00  0.87848302284E+03  0.14723453857E+04  0.11815534323E+04 0.  0.
        4    1    3    3  502    0 -0.38594041745E+03  0.55028409948E+02  0.99237588734E+03  0.10662033795E+04  0.12699999809E+01 0. -1.
       -4    1    3    3    0  502  0.38594041745E+03 -0.55028409948E+02 -0.11389286450E+03  0.40614200621E+03  0.12699999809E+01 0.  1.
</event>
<event>
 5   0  0.1234988E-04  0.1813707E+04  0.7818609E-02  0.8699044E-01
        2   -1    0    0  501    0  0.00000000000E+00  0.00000000000E+00  0.13891447407E+04  0.13891447407E+04  0.25500000920E-02 0.  1.
       -2   -1    0    0    0  501  0.00000000000E+00  0.00000000000E+00 -0.59200675311E+03  0.59200675311E+03  0.25500000920E-02 0. -1.
    10030    2    1    2    0    0  0.00000000000E+00  0.00000000000E+00  0.79713798759E+03  0.19811514938E+04  0.18137067762E+04 0.  0.
        5    1    3    3  502    0 -0.10438395329E+03 -0.46026817470E+02 -0.58412399412E+03  0.59517846747E+03  0.46999998093E+01 0. -1.
       -5    1    3    3    0  502  0.10438395329E+03  0.46026817470E+02  0.13812619817E+04  0.13859730264E+04  0.46999998093E+01 0.  1.
</event>
<event>
 5   0  0.5663790E-05  0.2239255E+04  0.7818609E-02  0.8502265E-01
        1   -1    0    0  501    0  0.00000000000E+00  0.00000000000E+00  0.13898078930E+04  0.13898078930E+04  0.50400001928E-02 0.  1.
       -1   -1    0    0    0  501  0.00000000000E+00  0.00000000000E+00 -0.90197065129E+03  0.90197065130E+03  0.50400001928E-02 0. -1.
    10030    2    1    2    0    0  0.00000000000E+00  0.00000000000E+00  0.48783724167E+03  0.22917785443E+04  0.22392551712E+04 0.  0.
        3    1    3    3  502    0  0.17330672285E+02 -0.25972175174E+03 -0.87057259685E+03  0.90865416805E+03  0.10100000352E+00 0. -1.
       -3    1    3    3    0  502 -0.17330672285E+02  0.25972175174E+03  0.13584098385E+04  0.13831243762E+04  0.10100000352E+00 0.  1.
</event>
<event>
 5   0  0.1270613E-04  0.2350896E+04  0.7818609E-02  0.8458120E-01
       -2   -1    0    0    0  501  0.00000000000E+00  0.00000000000E+00  0.71337598056E+03  0.71337598056E+03  0.25500000920E-02 0. -1.
        2   -1    0    0  501    0  0.00000000000E+00  0.00000000000E+00 -0.19368159591E+04  0.19368159591E+04  0.25500000920E-02 0.  1.
    10030    2    1    2    0    0  0.00000000000E+00  0.00000000000E+00 -0.12234399786E+04  0.26501919397E+04  0.23508959858E+04 0.  0.
        2    1    3    3  502    0  0.31407360841E+03 -0.25348563999E+03 -0.18562538388E+04  0.18996250986E+04  0.25500000920E-02 0.  1.
       -2    1    3    3    0  502 -0.31407360841E+03  0.25348563999E+03  0.63281386025E+03  0.75056684107E+03  0.25500000920E-02 0. -1.
</event>
<event>
 5   0  0.1281432E-04  0.2256991E+04  0.7818609E-02  0.8495075E-01
       -2   -1    0    0    0  501  0.00000000000E+00  0.00000000000E+00  0.95410155117E+03  0.95410155118E+03  0.25500000920E-02 0. -1.
        2   -1    0    0  501    0  0.00000000000E+00  0.00000000000E+00 -0.13347653514E+04  0.13347653514E+04  0.25500000920E-02 0.  1.
    10030    2    1    2    0    0  0.00000000000E+00  0.00000000000E+00 -0.38066380026E+03  0.22888669026E+04  0.22569906444E+04 0.  0.
        4    1    3    3  502    0  0.15418171301E+03 -0.99074184443E+03  0.33482213527E+03  0.10570945455E+04  0.12699999809E+01 0. -1.
       -4    1    3    3    0  502 -0.15418171301E+03  0.99074184443E+03 -0.71548593553E+03  0.12317723571E+04  0.12699999809E+01 0.  1.
</event>
<event>
 5   0  0.1270613E-04  0.2324890E+04  0.7818609E-02  0.8468172E-01
       -2   -1    0    0    0  501  0.00000000000E+00  0.00000000000E+00  0.18136731987E+04  0.18136731987E+04  0.25500000920E-02 0. -1.
        2   -1    0    0  501    0  0.00000000000E+00  0.00000000000E+00 -0.74505036720E+03  0.74505036721E+03  0.25500000920E-02 0.  1.
    10030    2    1    2    0    0  0.00000000000E+00  0.00000000000E+00  0.10686228315E+04  0.25587235659E+04  0.23248895739E+04 0.  0.
        2    1    3    3  502    0 -0.13181126328E+03 -0.87341618205E+03  0.13659933889E+04  0.16267046366E+04  0.25500000920E-02 0. -1.
       -2    1    3    3    0  502  0.13181126328E+03  0.87341618205E+03 -0.29737055740E+03  0.93201892932E+03  0.25500000920E-02 0.  1.
</event>
<event>
 5   0  0.5632156E-05  0.2304608E+04  0.7818609E-02  0.8476106E-01
       -1   -1    0    0    0  501  0.00000000000E+00  0.00000000000E+00  0.96340649655E+03  0.96340649656E+03  0.50400001928E-02 0.  1.
        1   -1    0    0  501    0  0.00000000000E+00  0.00000000000E+00 -0.13782393521E+04  0.13782393521E+04  0.50400001928E-02 0. -1.
    10030    2    1    2    0    0  0.00000000000E+00  0.00000000000E+00 -0.41483285557E+03  0.23416458487E+04  0.23046082059E+04 0.  0.
        4    1    3    3  502    0 -0.11440892230E+03 -0.32885180827E+03 -0.13235094935E+04  0.13685437171E+04  0.12699999809E+01 0. -1.
       -4    1    3    3    0  502  0.11440892230E+03  0.32885180827E+03  0.90867663793E+03  0.97310213160E+03  0.12699999809E+01 0.  1.
</event>
<event>
 5   0  0.1234988E-04  0.2179370E+04  0.7818609E-02  0.8527064E-01
       -2   -1    0    0    0  501  0.00000000000E+00  0.00000000000E+00  0.97759559748E+03  0.97759559748E+03  0.25500000920E-02 0. -1.
        2   -1    0    0  501    0  0.00000000000E+00  0.00000000000E+00 -0.12146261112E+04  0.12146261112E+04  0.25500000920E-02 0.  1.
    10030    2    1    2    0    0  0.00000000000E+00  0.00000000000E+00 -0.23703051373E+03  0.21922217087E+04  0.21793697611E+04 0.  0.
        5    1    3    3  502    0 -0.15104630571E+03 -0.90451367494E+03  0.47353963473E+03  0.10320958532E+04  0.46999998093E+01 0. -1.
       -5    1    3    3    0  502  0.15104630571E+03  0.90451367494E+03 -0.71057014846E+03  0.11601258555E+04  0.46999998093E+01 0.  1.
</event>
<event>
 5   0  0.5843670E-05  0.2491628E+04  0.7818609E-02  0.8405974E-01
       -1   -1    0    0    0  501  0.00000000000E+00  0.00000000000E+00  0.70999782149E+03  0.70999782151E+03  0.50400001928E-02 0.  1.
        1   -1    0    0  501    0  0.00000000000E+00  0.00000000000E+00 -0.21859963694E+04  0.21859963694E+04  0.50400001928E-02 0. -1.
    10030    2    1    2    0    0  0.00000000000E+00  0.00000000000E+00 -0.14759985479E+04  0.28959941909E+04  0.24916281103E+04 0.  0.
        2    1    3    3  502    0 -0.57298522480E+03 -0.28637182209E+03  0.50392898102E+03  0.81502472738E+03  0.25500000920E-02 0.  1.
       -2    1    3    3    0  502  0.57298522480E+03  0.28637182209E+03 -0.19799275289E+04  0.20809694635E+04  0.25500000920E-02 0. -1.
</event>
<event>
 5   0  0.5642466E-05  0.1809206E+04  0.7818609E-02  0.8701419E-01
        1   -1    0    0  501    0  0.00000000000E+00  0.00000000000E+00  0.76950510492E+03  0.76950510493E+03  0.50400001928E-02 0. -1.
       -1   -1    0    0    0  501  0.00000000000E+00  0.00000000000E+00 -0.10634192550E+04  0.10634192550E+04  0.50400001928E-02 0.  1.
    10030    2    1    2    0    0  0.00000000000E+00  0.00000000000E+00 -0.29391415007E+03  0.18329243599E+04  0.18092059533E+04 0.  0.
        1    1    3    3  502    0  0.54757768590E+03  0.67647957719E+03 -0.39684961811E+03  0.95653309397E+03  0.50400001928E-02 0. -1.
       -1    1    3    3    0  502 -0.54757768590E+03 -0.67647957719E+03  0.10293546803E+03  0.87639126596E+03  0.50400001928E-02 0.  1.
</event>
<event>
 5   0  0.5924654E-05  0.2271329E+04  0.7818609E-02  0.8489312E-01
       -1   -1    0    0    0  501  0.00000000000E+00  0.00000000000E+00  0.93196097889E+03  0.93196097890E+03  0.50400001928E-02 0. -1.
        1   -1    0    0  501    0  0.00000000000E+00  0.00000000000E+00 -0.13838921999E+04  0.13838921999E+04  0.50400001928E-02 0.  1.
    10030    2    1    2    0    0  0.00000000000E+00  0.00000000000E+00 -0.45193122099E+03  0.23158531788E+04  0.22713287118E+04 0.  0.
        5    1    3    3  502    0 -0.96021250090E+03  0.60157033537E+03 -0.30372678194E+03  0.11731014293E+04  0.46999998093E+01 0.  1.
       -5    1    3    3    0  502  0.96021250090E+03 -0.60157033537E+03 -0.14820443905E+03  0.11427517495E+04  0.46999998093E+01 0. -1.
</event>
<event>
 5   0  0.5632156E-05  0.2323702E+04  0.7818609E-02  0.8468634E-01
       -1   -1    0    0    0  501  0.00000000000E+00  0.00000000000E+00  0.14473327303E+04  0.14473327303E+04  0.50400001928E-02 0.  1.
        1   -1    0    0  501    0  0.00000000000E+00  0.00000000000E+00 -0.93267965273E+03  0.93267965275E+03  0.50400001928E-02 0. -1.
    10030    2    1    2    0    0  0.00000000000E+00  0.00000000000E+00  0.51465307754E+03  0.23800123830E+04  0.23237020362E+04 0.  0.
        4    1    3    3  502    0  0.65723139312E+03  0.55466323345E+03  0.10574693990E+04  0.13630288146E+04  0.12699999809E+01 0.  1.
       -4    1    3    3    0  502 -0.65723139312E+03 -0.55466323345E+03 -0.54281632151E+03  0.10169835684E+04  0.12699999809E+01 0. -1.
</event>
<event>
 5   0  0.1237296E-04  0.2393156E+04  0.7818609E-02  0.8442070E-01
        2   -1    0    0  501    0  0.00000000000E+00  0.00000000000E+00  0.10654859318E+04  0.10654859318E+04  0.25500000920E-02 0. -1.
       -2   -1    0    0    0  501  0.00000000000E+00  0.00000000000E+00 -0.13437993749E+04  0.13437993750E+04  0.25500000920E-02 0.  1.
    10030    2    1    2    0    0  0.00000000000E+00  0.00000000000E+00 -0.27831344311E+03  0.24092853068E+04  0.23931563503E+04 0.  0.
        1    1    3    3  502    0 -0.11334203000E+04  0.37797983210E+03 -0.73224889114E+02  0.11970264050E+04  0.50400001928E-02 0.  1.
       -1    1    3    3    0  502  0.11334203000E+04 -0.37797983210E+03 -0.20508855400E+03  0.12122589018E+04  0.50400001928E-02 0. -1.
</event>
<event>
 5   0  0.5642466E-05  0.2358091E+04  0.7818609E-02  0.8455362E-01
       -1   -1    0    0    0  501  0.00000000000E+00  0.00000000000E+00  0.10396409754E+04  0.10396409755E+04  0.50400001928E-02 0.  1.
        1   -1    0    0  501    0  0.00000000000E+00  0.00000000000E+00 -0.13371429233E+04  0.13371429233E+04  0.50400001928E-02 0. -1.
    10030    2    1    2    0    0  0.00000000000E+00  0.00000000000E+00 -0.29750194781E+03  0.23767838987E+04  0.23580912392E+04 0.  0.
        1    1    3    3  502    0  0.51526348277E+03 -0.75184267058E+03  0.60509807212E+03  0.10940326937E+04  0.50400001928E-02 0.  1.
       -1    1    3    3    0  502 -0.51526348277E+03  0.75184267058E+03 -0.90260001993E+03  0.12827512050E+04  0.50400001928E-02 0. -1.
</event>
<event>
 5   0  0.1257524E-04  0.1750925E+04  0.7818609E-02  0.8732841E-01
        2   -1    0    0  501    0  0.00000000000E+00  0.00000000000E+00  0.10768254451E+04  0.10768254451E+04  0.25500000920E-02 0.  1.
       -2   -1    0    0    0  501  0.00000000000E+00  0.00000000000E+00 -0.71175354772E+03  0.71175354773E+03  0.25500000920E-02 0. -1.
    10030    2    1    2    0    0  0.00000000000E+00  0.00000000000E+00  0.36507189738E+03  0.17885789928E+04  0.17509247052E+04 0.  0.
        3    1    3    3  502    0  0.21412112137E+03  0.76854490924E+03  0.55073895725E+03  0.96944444987E+03  0.10100000352E+00 0.  1.
       -3    1    3    3    0  502 -0.21412112137E+03 -0.76854490924E+03 -0.18566705988E+03  0.81913454296E+03  0.10100000352E+00 0. -1.
</event>
<event>
 5   0  0.1237296E-04  0.2047605E+04  0.7818609E-02  0.8584682E-01
       -2   -1    0    0    0  501  0.00000000000E+00  0.00000000000E+00  0.52055514149E+03  0.52055514150E+03  0.25500000920E-02 0.  1.
        2   -1    0    0  501    0  0.00000000000E+00  0.00000000000E+00 -0.20135652007E+04  0.20135652007E+04  0.25500000920E-02 0. -1.
    10030    2    1    2    0    0  0.00000000000E+00  0.00000000000E+00 -0.14930100592E+04  0.25341203422E+04  0.20476051553E+04 0.  0.
        1    1    3    3  502    0  0.53358845989E+03 -0.68930081534E+03 -0.81969817152E+02  0.87554058130E+03  0.50400001928E-02 0.  1.
       -1    1    3    3    0  502 -0.53358845989E+03  0.68930081534E+03 -0.14110402421E+04  0.16585797609E+04  0.50400001928E-02 0. -1.
</event>
<event>
 5   0  0.1237296E-04  0.2281895E+04  0.7818609E-02  0.8485094E-01
       -2   -1    0    0    0  501  0.00000000000E+00  0.00000000000E+00  0.11796034659E+04  0.11796034659E+04  0.25500000920E-02 0.  1.
        2   -1    0    0  501    0  0.00000000000E+00  0.00000000000E+00 -0.11035585433E+04  0.11035585433E+04  0.25500000920E-02 0. -1.
    10030    2    1    2    0    0  0.00000000000E+00  0.00000000000E+00  0.76044922553E+02  0.22831620092E+04  0.22818952495E+04 0.  0.
        1    1    3    3  502    0 -0.77860948080E+03 -0.76219228235E+03  0.37672431625E+03  0.11528620947E+04  0.50400001928E-02 0.  1.
       -1    1    3    3    0  502  0.77860948080E+03  0.76219228235E+03 -0.30067939370E+03  0.11302999145E+04  0.50400001928E-02 0. -1.
</event>
<event>
 5   0  0.1234988E-04  0.2297337E+04  0.7818609E-02  0.8478972E-01
       -2   -1    0    0    0  501  0.00000000000E+00  0.00000000000E+00  0.13046562347E+04  0.13046562347E+04  0.25500000920E-02 0.  1.
        2   -1    0    0  501    0  0.00000000000E+00  0.00000000000E+00 -0.10113307090E+04  0.10113307090E+04  0.25500000920E-02 0. -1.
    10030    2    1    2    0    0  0.00000000000E+00  0.00000000000E+00  0.29332552569E+03  0.23159869436E+04  0.22973366447E+04 0.  0.
        5    1    3    3  502    0 -0.11238417168E+04  0.75366335748E+01  0.38594981115E+03  0.11882997736E+04  0.46999998093E+01 0.  1.
       -5    1    3    3    0  502  0.11238417168E+04 -0.75366335748E+01 -0.92624285455E+02  0.11276871700E+04  0.46999998093E+01 0. -1.
</event>
<event>
 5   0  0.5924654E-05  0.2354750E+04  0.7818609E-02  0.8456641E-01
        1   -1    0    0  501    0  0.00000000000E+00  0.00000000000E+00  0.14581293013E+04  0.14581293013E+04  0.50400001928E-02 0.  1.
       -1   -1    0    0    0  501  0.00000000000E+00  0.00000000000E+00 -0.95067848225E+03  0.95067848227E+03  0.50400001928E-02 0. -1.
    10030    2    1    2    0    0  0.00000000000E+00  0.00000000000E+00  0.50745081905E+03  0.24088077836E+04  0.23547502212E+04 0.  0.
        5    1    3    3  502    0  0.65520447480E+03  0.94615567660E+03 -0.34418326914E+00  0.11508803920E+04  0.46999998093E+01 0. -1.
       -5    1    3    3    0  502 -0.65520447480E+03 -0.94615567660E+03  0.50779500231E+03  0.12579273916E+04  0.46999998093E+01 0.  1.
</event>
<event>
 5   0  0.1257524E-04  0.2335146E+04  0.7818609E-02  0.8464191E-01
        2   -1    0    0  501    0  0.00000000000E+00  0.00000000000E+00  0.12211551178E+04  0.12211551178E+04  0.25500000920E-02 0. -1.
       -2   -1    0    0    0  501  0.00000000000E+00  0.00000000000E+00 -0.11163415323E+04  0.11163415323E+04  0.25500000920E-02 0.  1.
    10030    2    1    2    0    0  0.00000000000E+00  0.00000000000E+00  0.10481358546E+03  0.23374966501E+04  0.23351455419E+04 0.  0.
        3    1    3    3  502    0 -0.75554127881E+03  0.37481644105E+03 -0.75580700478E+03  0.11325079369E+04  0.10100000352E+00 0.  1.
       -3    1    3    3    0  502  0.75554127881E+03 -0.37481644105E+03  0.86062059024E+03  0.12049887132E+04  0.10100000352E+00 0. -1.
</event>
<event>
 5   0  0.5843670E-05  0.2124109E+04  0.7818609E-02  0.8550697E-01
        1   -1    0    0  501    0  0.00000000000E+00  0.00000000000E+00  0.13163490843E+04  0.13163490843E+04  0.50400001928E-02 0.  1.
       -1   -1    0    0    0  501  0.00000000000E+00  0.00000000000E+00 -0.85688474008E+03  0.85688474010E+03  0.50400001928E-02 0. -1.
    10030    2    1    2    0    0  0.00000000000E+00  0.00000000000E+00  0.45946434425E+03  0.21732338244E+04  0.21241087006E+04 0.  0.
        2    1    3    3  502    0 -0.20625090197E+03 -0.91614478891E+03  0.73728868848E+03  0.11939243355E+04  0.25500000920E-02 0.  1.
       -2    1    3    3    0  502  0.20625090197E+03  0.91614478891E+03 -0.27782434423E+03  0.97930948891E+03  0.25500000920E-02 0. -1.
</event>
<event>
 5   0  0.5642466E-05  0.2317260E+04  0.7818609E-02  0.8471147E-01
        1   -1    0    0  501    0  0.00000000000E+00  0.00000000000E+00  0.14982386713E+04  0.14982386713E+04  0.50400001928E-02 0.  1.
       -1   -1    0    0    0  501  0.00000000000E+00  0.00000000000E+00 -0.89600111541E+03  0.89600111542E+03  0.50400001928E-02 0. -1.
    10030    2    1    2    0    0  0.00000000000E+00  0.00000000000E+00  0.60223755587E+03  0.23942397867E+04  0.23172600378E+04 0.  0.
        1    1    3    3  502    0 -0.76536163215E+03  0.37254684243E+03 -0.51103035064E+03  0.99283513086E+03  0.50400001928E-02 0. -1.
       -1    1    3    3    0  502  0.76536163215E+03 -0.37254684243E+03  0.11132679065E+04  0.14014046559E+04  0.50400001928E-02 0.  1.
</event>
<event>
 5   0  0.5663790E-05  0.2252499E+04  0.7818609E-02  0.8496889E-01
       -1   -1    0    0    0  501  0.00000000000E+00  0.00000000000E+00  0.10312075333E+04  0.10312075333E+04  0.50400001928E-02 0.  1.
        1   -1    0    0  501    0  0.00000000000E+00  0.00000000000E+00 -0.12300506975E+04  0.12300506975E+04  0.50400001928E-02 0. -1.
    10030    2    1    2    0    0  0.00000000000E+00  0.00000000000E+00 -0.19884316415E+03  0.22612582308E+04  0.22524986532E+04 0.  0.
        3    1    3    3  502    0 -0.74407280580E+03  0.67470858936E+03 -0.61087462935E+03  0.11756036083E+04  0.10100000352E+00 0. -1.
       -3    1    3    3    0  502  0.74407280580E+03 -0.67470858936E+03  0.41203146520E+03  0.10856546225E+04  0.10100000352E+00 0.  1.
</event>
<event>
 5   0  0.5663790E-05  0.2293237E+04  0.7818609E-02  0.8480593E-01
       -1   -1    0    0    0  501  0.00000000000E+00  0.00000000000E+00  0.11684096853E+04  0.11684096854E+04  0.50400001928E-02 0. -1.
        1   -1    0    0  501    0  0.00000000000E+00  0.00000000000E+00 -0.11252334049E+04  0.11252334050E+04  0.50400001928E-02 0.  1.
    10030    2    1    2    0    0  0.00000000000E+00  0.00000000000E+00  0.43176280398E+02  0.22936430903E+04  0.22932366722E+04 0.  0.
        3    1    3    3  502    0 -0.10178995296E+04  0.73808434500E+02 -0.50115777647E+03  0.11369812067E+04  0.10100000352E+00 0.  1.
       -3    1    3    3    0  502  0.10178995296E+04 -0.73808434500E+02  0.54433405687E+03  0.11566618836E+04  0.10100000352E+00 0. -1.
</event>
<event>
 5   0  0.1270613E-04  0.2303648E+04  0.7818609E-02  0.8476484E-01
        2   -1    0    0  501    0  0.00000000000E+00  0.00000000000E+00  0.16953812380E+04  0.16953812380E+04  0.25500000920E-02 0.  1.
       -2   -1    0    0    0  501  0.00000000000E+00  0.00000000000E+00 -0.78253695553E+03  0.78253695553E+03  0.25500000920E-02 0. -1.
    10030    2    1    2    0    0  0.00000000000E+00  0.00000000000E+00  0.91284428250E+03  0.24779181936E+04  0.23036479527E+04 0.  0.
        2    1    3    3  502    0 -0.88967483959E+01 -0.21245268579E+03 -0.76124141674E+03  0.79038205344E+03  0.25500000920E-02 0. -1.
       -2    1    3    3    0  502  0.88967483959E+01  0.21245268579E+03  0.16740856992E+04  0.16875361401E+04  0.25500000920E-02 0.  1.
</event>
<event>
 5   0  0.5924654E-05  0.2157649E+04  0.7818609E-02  0.8536265E-01
        1   -1    0    0  501    0  0.00000000000E+00  0.00000000000E+00  0.21585415015E+04  0.21585415015E+04  0.50400001928E-02 0. -1.
       -1   -1    0    0    0  501  0.00000000000E+00  0.00000000000E+00 -0.53918922368E+03  0.53918922370E+03  0.50400001928E-02 0.  1.
    10030    2    1    2    0    0  0.00000000000E+00  0.00000000000E+00  0.16193522778E+04  0.26977307252E+04  0.21576490137E+04 0.  0.
        5    1    3    3  502    0  0.52103673962E+03  0.16956686031E+03 -0.35224360946E+03  0.65140605965E+03  0.46999998093E+01 0.  1.
       -5    1    3    3    0  502 -0.52103673962E+03 -0.16956686031E+03  0.19715958873E+04  0.20463246656E+04  0.46999998093E+01 0. -1.
</event>
<event>
 5   0  0.1234988E-04  0.2336560E+04  0.7818609E-02  0.8463644E-01
        2   -1    0    0  501    0  0.00000000000E+00  0.00000000000E+00  0.77968482127E+03  0.77968482128E+03  0.25500000920E-02 0. -1.
       -2   -1    0    0    0  501  0.00000000000E+00  0.00000000000E+00 -0.17505512313E+04  0.17505512313E+04  0.25500000920E-02 0.  1.
    10030    2    1    2    0    0  0.00000000000E+00  0.00000000000E+00 -0.97086641005E+03  0.25302360526E+04  0.23365600561E+04 0.  0.
        5    1    3    3  502    0  0.37845537164E+02 -0.10080446939E+04 -0.11235755519E+04  0.15099769867E+04  0.46999998093E+01 0.  1.
       -5    1    3    3    0  502 -0.37845537164E+02  0.10080446939E+04  0.15270914181E+03  0.10202590659E+04  0.46999998093E+01 0. -1.
</event>
<event>
 5   0  0.5843670E-05  0.2280419E+04  0.7818609E-02  0.8485682E-01
        1   -1    0    0  501    0  0.00000000000E+00  0.00000000000E+00  0.15306398219E+04  0.15306398219E+04  0.50400001928E-02 0.  1.
       -1   -1    0    0    0  501  0.00000000000E+00  0.00000000000E+00 -0.84936915601E+03  0.84936915602E+03  0.50400001928E-02 0. -1.
    10030    2    1    2    0    0  0.00000000000E+00  0.00000000000E+00  0.68127066591E+03  0.23800089779E+04  0.22804194822E+04 0.  0.
        2    1    3    3  502    0  0.64569646455E+03  0.81776549270E+03 -0.14263523823E+03  0.10516696899E+04  0.25500000920E-02 0.  1.
       -2    1    3    3    0  502 -0.64569646455E+03 -0.81776549270E+03  0.82390590414E+03  0.13283392881E+04  0.25500000920E-02 0. -1.
</event>
<event>
 5   0  0.1234988E-04  0.2325346E+04  0.7818609E-02  0.8467994E-01
       -2   -1    0    0    0  501  0.00000000000E+00  0.00000000000E+00  0.85743042588E+03  0.85743042588E+03  0.25500000920E-02 0.  1.
        2   -1    0    0  501    0  0.00000000000E+00  0.00000000000E+00 -0.15765813747E+04  0.15765813747E+04  0.25500000920E-02 0. -1.
    10030    2    1    2    0    0  0.00000000000E+00  0.00000000000E+00 -0.71915094881E+03  0.24340118006E+04  0.23253462878E+04 0.  0.
        5    1    3    3  502    0 -0.77198217282E+03 -0.22798023405E+03  0.51859075400E+03  0.95754369216E+03  0.46999998093E+01 0.  1.
       -5    1    3    3    0  502  0.77198217282E+03  0.22798023405E+03 -0.12377417028E+04  0.14764681084E+04  0.46999998093E+01 0. -1.
</event>
<event>
 5   0  0.5642466E-05  0.2170264E+04  0.7818609E-02  0.8530908E-01
        1   -1    0    0  501    0  0.00000000000E+00  0.00000000000E+00  0.20534972868E+04  0.20534972868E+04  0.50400001928E-02 0. -1.
       -1   -1    0    0    0  501  0.00000000000E+00  0.00000000000E+00 -0.57341765075E+03  0.57341765077E+03  0.50400001928E-02 0.  1.
    10030    2    1    2    0    0  0.00000000000E+00  0.00000000000E+00  0.14800796360E+04  0.26269149376E+04  0.21702641222E+04 0.  0.
        1    1    3    3  502    0  0.71501244953E+03 -0.42378283042E+03 -0.10437099413E+03  0.83769206441E+03  0.50400001928E-02 0.  1.
       -1    1    3    3    0  502 -0.71501244953E+03  0.42378283042E+03  0.15844506302E+04  0.17892228731E+04  0.50400001928E-02 0. -1.
</event>
<event>
 5   0  0.5843670E-05  0.2276912E+04  0.7818609E-02  0.8487080E-01
       -1   -1    0    0    0  501  0.00000000000E+00  0.00000000000E+00  0.70778643099E+03  0.70778643101E+03  0.50400001928E-02 0. -1.
        1   -1    0    0  501    0  0.00000000000E+00  0.00000000000E+00 -0.18311770566E+04  0.18311770566E+04  0.50400001928E-02 0.  1.
    10030    2    1    2    0    0  0.00000000000E+00  0.00000000000E+00 -0.11233906256E+04  0.25389634876E+04  0.22769121840E+04 0.  0.
        2    1    3    3  502    0  0.22026594339E+03  0.11154796728E+04 -0.62546336061E+03  0.12976965754E+04  0.25500000920E-02 0. -1.
       -2    1    3    3    0  502 -0.22026594339E+03 -0.11154796728E+04 -0.49792726497E+03  0.12412669122E+04  0.25500000920E-02 0.  1.
</event>
<event>
 5   0  0.1237296E-04  0.2290832E+04  0.7818609E-02  0.8481545E-01
       -2   -1    0    0    0  501  0.00000000000E+00  0.00000000000E+00  0.60561357028E+03  0.60561357029E+03  0.25500000920E-02 0.  1.
        2   -1    0    0  501    0  0.00000000000E+00  0.00000000000E+00 -0.21663621321E+04  0.21663621321E+04  0.25500000920E-02 0. -1.
    10030    2    1    2    0    0  0.00000000000E+00  0.00000000000E+00 -0.15607485619E+04  0.27719757024E+04  0.22908324298E+04 0.  0.
        1    1    3    3  502    0 -0.57811877285E+03 -0.18591197632E+03 -0.19555330577E+04  0.20476557616E+04  0.50400001928E-02 0. -1.
       -1    1    3    3    0  502  0.57811877285E+03  0.18591197632E+03  0.39478449582E+03  0.72431994079E+03  0.50400001928E-02 0.  1.
</event>
<event>
 5   0  0.1237296E-04  0.2117952E+04  0.7818609E-02  0.8553376E-01
       -2   -1    0    0    0  501  0.00000000000E+00  0.00000000000E+00  0.13893317725E+04  0.13893317725E+04  0.25500000920E-02 0. -1.
        2   -1    0    0  501    0  0.00000000000E+00  0.00000000000E+00 -0.80717235365E+03  0.80717235366E+03  0.25500000920E-02 0.  1.
    10030    2    1    2    0    0  0.00000000000E+00  0.00000000000E+00  0.58215941882E+03  0.21965041261E+04  0.21179520267E+04 0.  0.
        1    1    3    3  502    0  0.92311780543E+03  0.42801650636E+03 -0.13205694623E+02  0.10176045415E+04  0.50400001928E-02 0.  1.
       -1    1    3    3    0  502 -0.92311780543E+03 -0.42801650636E+03  0.59536511344E+03  0.11788995847E+04  0.50400001928E-02 0. -1.
</event>
<event>
 5   0  0.4489500E-05  0.1959844E+04  0.7818609E-02  0.8625629E-01
        3   -1    0    0  501    0  0.00000000000E+00  0.00000000000E+00  0.94826947937E+03  0.94826948475E+03  0.10100000352E+00 0. -1.
       -3   -1    0    0    0  501  0.00000000000E+00  0.00000000000E+00 -0.10126306418E+04  0.10126306469E+04  0.10100000352E+00 0.  1.
    10030    2    1    2    0    0  0.00000000000E+00  0.00000000000E+00 -0.64361162478E+02  0.19609001316E+04  0.19598436078E+04 0.  0.
        2    1    3    3  502    0 -0.57740545672E+03 -0.30530697283E+03 -0.76307923381E+03  0.10044398071E+04  0.25500000920E-02 0.  1.
       -2    1    3    3    0  502  0.57740545672E+03  0.30530697283E+03  0.69871807133E+03  0.95646032449E+03  0.25500000920E-02 0. -1.
</event>
<event>
 5   0  0.5632156E-05  0.2267811E+04  0.7818609E-02  0.8490722E-01
       -1   -1    0    0    0  501  0.00000000000E+00  0.00000000000E+00  0.92648306990E+03  0.92648306991E+03  0.50400001928E-02 0. -1.
        1   -1    0    0  501    0  0.00000000000E+00  0.00000000000E+00 -0.13877665448E+04  0.13877665448E+04  0.50400001928E-02 0.  1.
    10030    2    1    2    0    0  0.00000000000E+00  0.00000000000E+00 -0.46128347488E+03  0.23142496147E+04  0.22678114637E+04 0.  0.
        4    1    3    3  502    0  0.30550858456E+03  0.93165645850E+03  0.35060156724E+03  0.10412695731E+04  0.12699999809E+01 0. -1.
       -4    1    3    3    0  502 -0.30550858456E+03 -0.93165645850E+03 -0.81188504212E+03  0.12729800416E+04  0.12699999809E+01 0.  1.
</event>
<event>
 5   0  0.1234988E-04  0.2291929E+04  0.7818609E-02  0.8481110E-01
        2   -1    0    0  501    0  0.00000000000E+00  0.00000000000E+00  0.16684497569E+04  0.16684497569E+04  0.25500000920E-02 0. -1.
       -2   -1    0    0    0  501  0.00000000000E+00  0.00000000000E+00 -0.78709868175E+03  0.78709868176E+03  0.25500000920E-02 0.  1.
    10030    2    1    2    0    0  0.00000000000E+00  0.00000000000E+00  0.88135107512E+03  0.24555484386E+04  0.22919289729E+04 0.  0.
        5    1    3    3  502    0  0.87263579451E+03  0.72790151795E+03  0.28220163412E+03  0.11708944026E+04  0.46999998093E+01 0.  1.
       -5    1    3    3    0  502 -0.87263579451E+03 -0.72790151795E+03  0.59914944100E+03  0.12846540361E+04  0.46999998093E+01 0. -1.
</event>
<event>
 5   0  0.5924654E-05  0.2213957E+04  0.7818609E-02  0.8512641E-01
        1   -1    0    0  501    0  0.00000000000E+00  0.00000000000E+00  0.10457913507E+04  0.10457913508E+04  0.50400001928E-02 0. -1.
       -1   -1    0    0    0  501  0.00000000000E+00  0.00000000000E+00 -0.11717454875E+04  0.11717454875E+04  0.50400001928E-02 0.  1.
    10030    2    1    2    0    0  0.00000000000E+00  0.00000000000E+00 -0.12595413675E+03  0.22175368383E+04  0.22139569066E+04 0.  0.
        5    1    3    3  502    0 -0.76789945590E+03  0.13819941543E+02 -0.86146034861E+03  0.11541215653E+04  0.46999998093E+01 0.  1.
       -5    1    3    3    0  502  0.76789945590E+03 -0.13819941543E+02  0.73550621187E+03  0.10634152730E+04  0.46999998093E+01 0. -1.
</event>
<event>
 5   0  0.5843670E-05  0.2243828E+04  0.7818609E-02  0.8500404E-01
        1   -1    0    0  501    0  0.00000000000E+00  0.00000000000E+00  0.12341721770E+04  0.12341721770E+04  0.50400001928E-02 0. -1.
       -1   -1    0    0    0  501  0.00000000000E+00  0.00000000000E+00 -0.10198667085E+04  0.10198667085E+04  0.50400001928E-02 0.  1.
    10030    2    1    2    0    0  0.00000000000E+00  0.00000000000E+00  0.21430546849E+03  0.22540388855E+04  0.22438280824E+04 0.  0.
        2    1    3    3  502    0 -0.18230048337E+03  0.63165830523E+03 -0.80608568236E+03  0.10401921977E+04  0.25500000920E-02 0.  1.
       -2    1    3    3    0  502  0.18230048337E+03 -0.63165830523E+03  0.10203911509E+04  0.12138466878E+04  0.25500000920E-02 0. -1.
</event>
<event>
 5   0  0.1234988E-04  0.2311877E+04  0.7818609E-02  0.8473253E-01
       -2   -1    0    0    0  501  0.00000000000E+00  0.00000000000E+00  0.68330719638E+03  0.68330719638E+03  0.25500000920E-02 0. -1.
        2   -1    0    0  501    0  0.00000000000E+00  0.00000000000E+00 -0.19554796985E+04  0.19554796985E+04  0.25500000920E-02 0.  1.
    10030    2    1    2    0    0  0.00000000000E+00  0.00000000000E+00 -0.12721725021E+04  0.26387868949E+04  0.23118765973E+04 0.  0.
        5    1    3    3  502    0 -0.11197297476E+03 -0.97104009900E+03  0.68184000536E+02  0.97986119878E+03  0.46999998093E+01 0. -1.
       -5    1    3    3    0  502  0.11197297476E+03  0.97104009900E+03 -0.13403565026E+04  0.16589256961E+04  0.46999998093E+01 0.  1.
</event>
<event>
 5   0  0.1237296E-04  0.2281863E+04  0.7818609E-02  0.8485107E-01
       -2   -1    0    0    0  501  0.00000000000E+00  0.00000000000E+00  0.79495573805E+03  0.79495573805E+03  0.25500000920E-02 0. -1.
        2   -1    0    0  501    0  0.00000000000E+00  0.00000000000E+00 -0.16374807065E+04  0.16374807065E+04  0.25500000920E-02 0.  1.
    10030    2    1    2    0    0  0.00000000000E+00  0.00000000000E+00 -0.84252496844E+03  0.24324364445E+04  0.22818629964E+04 0.  0.
        1    1    3    3  502    0 -0.70510730834E+03  0.71516537777E+02  0.53184784481E+03  0.88608863073E+03  0.50400001928E-02 0. -1.
       -1    1    3    3    0  502  0.70510730834E+03 -0.71516537777E+02 -0.13743728132E+04  0.15463478138E+04  0.50400001928E-02 0.  1.
</event>
<event>
 5   0  0.5843670E-05  0.2262761E+04  0.7818609E-02  0.8492750E-01
       -1   -1    0    0    0  501  0.00000000000E+00  0.00000000000E+00  0.15117987113E+04  0.15117987113E+04  0.50400001928E-02 0. -1.
        1   -1    0    0  501    0  0.00000000000E+00  0.00000000000E+00 -0.84668791699E+03  0.84668791700E+03  0.50400001928E-02 0.  1.
    10030    2    1    2    0    0  0.00000000000E+00  0.00000000000E+00  0.66511079433E+03  0.23584866283E+04  0.22627608816E+04 0.  0.
        2    1    3    3  502    0  0.96146140774E+03  0.25280531704E+02 -0.28844713316E+03  0.10041159756E+04  0.25500000920E-02 0.  1.
       -2    1    3    3    0  502 -0.96146140774E+03 -0.25280531704E+02  0.95355792749E+03  0.13543706527E+04  0.25500000920E-02 0. -1.
</event>
<event>
 5   0  0.5924654E-05  0.2484223E+04  0.7818609E-02  0.8408628E-01
       -1   -1    0    0    0  501  0.00000000000E+00  0.00000000000E+00  0.12477738326E+04  0.12477738326E+04  0.50400001928E-02 0. -1.
        1   -1    0    0  501    0  0.00000000000E+00  0.00000000000E+00 -0.12364750945E+04  0.12364750945E+04  0.50400001928E-02 0.  1.
    10030    2    1    2    0    0  0.00000000000E+00  0.00000000000E+00  0.11298738044E+02  0.24842489271E+04  0.24842232328E+04 0.  0.
        5    1    3    3  502    0 -0.40325777369E+03 -0.11223245972E+04  0.35291344521E+03  0.12437038729E+04  0.46999998093E+01 0. -1.
       -5    1    3    3    0  502  0.40325777369E+03  0.11223245972E+04 -0.34161470717E+03  0.12405450543E+04  0.46999998093E+01 0.  1.
</event>
<event>
 5   0  0.5663790E-05  0.2330711E+04  0.7818609E-02  0.8465910E-01
        1   -1    0    0  501    0  0.00000000000E+00  0.00000000000E+00  0.17572005293E+04  0.17572005293E+04  0.50400001928E-02 0.  1.
       -1   -1    0    0    0  501  0.00000000000E+00  0.00000000000E+00 -0.77285087077E+03  0.77285087078E+03  0.50400001928E-02 0. -1.
    10030    2    1    2    0    0  0.00000000000E+00  0.00000000000E+00  0.98434965855E+03  0.25300514001E+04  0.23307114444E+04 0.  0.
        3    1    3    3  502    0 -0.69395067055E+03 -0.29670993903E+03 -0.47171591933E+03  0.89001137061E+03  0.10100000352E+00 0. -1.
       -3    1    3    3    0  502  0.69395067055E+03  0.29670993903E+03  0.14560655779E+04  0.16400400295E+04  0.10100000352E+00 0.  1.
</event>
<event>
 5   0  0.5663790E-05  0.2355695E+04  0.7818609E-02  0.8456280E-01
        1   -1    0    0  501    0  0.00000000000E+00  0.00000000000E+00  0.13275849834E+04  0.13275849834E+04  0.50400001928E-02 0.  1.
       -1   -1    0    0    0  501  0.00000000000E+00  0.00000000000E+00 -0.10449986200E+04  0.10449986200E+04  0.50400001928E-02 0. -1.
    10030    2    1    2    0    0  0.00000000000E+00  0.00000000000E+00  0.28258636334E+03  0.23725836034E+04  0.23556947813E+04 0.  0.
        3    1    3    3  502    0 -0.43646460373E+03 -0.34971433350E+03 -0.90273053120E+03  0.10619434484E+04  0.10100000352E+00 0. -1.
       -3    1    3    3    0  502  0.43646460373E+03  0.34971433350E+03  0.11853168945E+04  0.13106401551E+04  0.10100000352E+00 0.  1.
</event>
<event>
 5   0  0.5924654E-05  0.2078046E+04  0.7818609E-02  0.8570976E-01
       -1   -1    0    0    0  501  0.00000000000E+00  0.00000000000E+00  0.14422035644E+04  0.14422035644E+04  0.50400001928E-02 0. -1.
        1   -1    0    0  501    0  0.00000000000E+00  0.00000000000E+00 -0.74855502376E+03  0.74855502378E+03  0.50400001928E-02 0.  1.
    10030    2    1    2    0    0  0.00000000000E+00  0.00000000000E+00  0.69364854067E+03  0.21907585882E+04  0.20780459316E+04 0.  0.
        5    1    3    3  502    0 -0.87718021138E+03 -0.51462512387E+03  0.12253494150E+03  0.10243637260E+04  0.46999998093E+01 0.  1.
       -5    1    3    3    0  502  0.87718021138E+03  0.51462512387E+03  0.57111359917E+03  0.11663948622E+04  0.46999998093E+01 0. -1.
</event>
<event>
 5   0  0.5632156E-05  0.2277846E+04  0.7818609E-02  0.8486708E-01
       -1   -1    0    0    0  501  0.00000000000E+00  0.00000000000E+00  0.73182165894E+03  0.73182165895E+03  0.50400001928E-02 0. -1.
        1   -1    0    0  501    0  0.00000000000E+00  0.00000000000E+00 -0.17724886153E+04  0.17724886153E+04  0.50400001928E-02 0.  1.
    10030    2    1    2    0    0  0.00000000000E+00  0.00000000000E+00 -0.10406669563E+04  0.25043102742E+04  0.22778459640E+04 0.  0.
        4    1    3    3  502    0 -0.56432964820E+03  0.60741987162E+02  0.56524959523E+03  0.80104073469E+03  0.12699999809E+01 0. -1.
       -4    1    3    3    0  502  0.56432964820E+03 -0.60741987162E+02 -0.16059165515E+04  0.17032695395E+04  0.12699999809E+01 0.  1.
</event>
<event>
 5   0  0.5663790E-05  0.2256802E+04  0.7818609E-02  0.8495151E-01
       -1   -1    0    0    0  501  0.00000000000E+00  0.00000000000E+00  0.50714873072E+03  0.50714873075E+03  0.50400001928E-02 0.  1.
        1   -1    0    0  501    0  0.00000000000E+00  0.00000000000E+00 -0.25106822228E+04  0.25106822228E+04  0.50400001928E-02 0. -1.
    10030    2    1    2    0    0  0.00000000000E+00  0.00000000000E+00 -0.20035334921E+04  0.30178309536E+04  0.22568024305E+04 0.  0.
        3    1    3    3  502    0  0.27159233718E+03 -0.54619463973E+03  0.26767142258E+03  0.66613736028E+03  0.10100000352E+00 0.  1.
       -3    1    3    3    0  502 -0.27159233718E+03  0.54619463973E+03 -0.22712049147E+04  0.23516935933E+04  0.10100000352E+00 0. -1.
</event>
<event>
 5   0  0.1281432E-04  0.2022921E+04  0.7818609E-02  0.8595979E-01
       -2   -1    0    0    0  501  0.00000000000E+00  0.00000000000E+00  0.18474876478E+04  0.18474876478E+04  0.25500000920E-02 0. -1.
        2   -1    0    0  501    0  0.00000000000E+00  0.00000000000E+00 -0.55375304094E+03  0.55375304095E+03  0.25500000920E-02 0.  1.
    10030    2    1    2    0    0  0.00000000000E+00  0.00000000000E+00  0.12937346069E+04  0.24012406887E+04  0.20229205650E+04 0.  0.
        4    1    3    3  502    0  0.51296801570E+03  0.34099884127E+03 -0.30543825201E+03  0.68753947782E+03  0.12699999809E+01 0.  1.
       -4    1    3    3    0  502 -0.51296801570E+03 -0.34099884127E+03  0.15991728589E+04  0.17137012109E+04  0.12699999809E+01 0. -1.
</event>
<event>
 5   0  0.5663790E-05  0.2344771E+04  0.7818609E-02  0.8460475E-01
        1   -1    0    0  501    0  0.00000000000E+00  0.00000000000E+00  0.10744796190E+04  0.10744796190E+04  0.50400001928E-02 0. -1.
       -1   -1    0    0    0  501  0.00000000000E+00  0.00000000000E+00 -0.12792129073E+04  0.12792129073E+04  0.50400001928E-02 0.  1.
    10030    2    1    2    0    0  0.00000000000E+00  0.00000000000E+00 -0.20473328831E+03  0.23536925264E+04  0.23447713725E+04 0.  0.
        3    1    3    3  502    0 -0.50843544745E+03  0.74003868272E+03  0.65437450456E+03  0.11110219883E+04  0.10100000352E+00 0. -1.
       -3    1    3    3    0  502  0.50843544745E+03 -0.74003868272E+03 -0.85910779288E+03  0.12426705380E+04  0.10100000352E+00 0.  1.
</event>
<event>
 5   0  0.1257524E-04  0.2262434E+04  0.7818609E-02  0.8492882E-01
        2   -1    0    0  501    0  0.00000000000E+00  0.00000000000E+00  0.16004130220E+04  0.16004130220E+04  0.25500000920E-02 0. -1.
       -2   -1    0    0    0  501  0.00000000000E+00  0.00000000000E+00 -0.79957572112E+03  0.79957572113E+03  0.25500000920E-02 0.  1.
    10030    2    1    2    0    0  0.00000000000E+00  0.00000000000E+00  0.80083730085E+03  0.23999887431E+04  0.22624335536E+04 0.  0.
        3    1    3    3  502    0 -0.34999451005E+02 -0.49803384301E+03  0.14772158528E+04  0.15593041256E+04  0.10100000352E+00 0. -1.
       -3    1    3    3    0  502  0.34999451005E+02  0.49803384301E+03 -0.67637855191E+03  0.84068461747E+03  0.10100000352E+00 0.  1.
</event>
<event>
 5   0  0.1257524E-04  0.2220302E+04  0.7818609E-02  0.8510025E-01
        2   -1    0    0  501    0  0.00000000000E+00  0.00000000000E+00  0.78042683663E+03  0.78042683664E+03  0.25500000920E-02 0. -1.
       -2   -1    0    0    0  501  0.00000000000E+00  0.00000000000E+00 -0.15791815903E+04  0.15791815903E+04  0.25500000920E-02 0.  1.
    10030    2    1    2    0    0  0.00000000000E+00  0.00000000000E+00 -0.79875475370E+03  0.23596084270E+04  0.22203024055E+04 0.  0.
        3    1    3    3  502    0  0.76640656793E+03 -0.80088252988E+03 -0.33522588052E+03  0.11580881897E+04  0.10100000352E+00 0. -1.
       -3    1    3    3    0  502 -0.76640656793E+03  0.80088252988E+03 -0.46352887317E+03  0.12015202372E+04  0.10100000352E+00 0.  1.
</event>
<event>
 5   0  0.1234988E-04  0.2319942E+04  0.7818609E-02  0.8470100E-01
       -2   -1    0    0    0  501  0.00000000000E+00  0.00000000000E+00  0.12906658838E+04  0.12906658838E+04  0.25500000920E-02 0.  1.
        2   -1    0    0  501    0  0.00000000000E+00  0.00000000000E+00 -0.10425104662E+04  0.10425104662E+04  0.25500000920E-02 0. -1.
    10030    2    1    2    0    0  0.00000000000E+00  0.00000000000E+00  0.24815541760E+03  0.23331763500E+04  0.23199419753E+04 0.  0.
        5    1    3    3  502    0 -0.40253533209E+03 -0.83864406794E+03 -0.57280522679E+03  0.10924680701E+04  0.46999998093E+01 0. -1.
       -5    1    3    3    0  502  0.40253533209E+03  0.83864406794E+03  0.82096064439E+03  0.12407082799E+04  0.46999998093E+01 0.  1.
</event>
<event>
 5   0  0.1234988E-04  0.2267324E+04  0.7818609E-02  0.8490917E-01
        2   -1    0    0  501    0  0.00000000000E+00  0.00000000000E+00  0.88826266894E+03  0.88826266894E+03  0.25500000920E-02 0. -1.
       -2   -1    0    0    0  501  0.00000000000E+00  0.00000000000E+00 -0.14468575784E+04  0.14468575784E+04  0.25500000920E-02 0.  1.
    10030    2    1    2    0    0  0.00000000000E+00  0.00000000000E+00 -0.55859490947E+03  0.23351202473E+04  0.22673240387E+04 0.  0.
        5    1    3    3  502    0  0.80148630967E+02 -0.82702964216E+03 -0.10735682551E+04  0.13575613137E+04  0.46999998093E+01 0. -1.
       -5    1    3    3    0  502 -0.80148630967E+02  0.82702964216E+03  0.51497334564E+03  0.97755893366E+03  0.46999998093E+01 0.  1.
</event>
<event>
 5   0  0.5924654E-05  0.2325340E+04  0.7818609E-02  0.8467997E-01
        1   -1    0    0  501    0  0.00000000000E+00  0.00000000000E+00  0.12417089136E+04  0.12417089136E+04  0.50400001928E-02 0.  1.
       -1   -1    0    0    0  501  0.00000000000E+00  0.00000000000E+00 -0.10886619579E+04  0.10886619579E+04  0.50400001928E-02 0. -1.
    10030    2    1    2    0    0  0.00000000000E+00  0.00000000000E+00  0.15304695569E+03  0.23303708715E+04  0.23253397661E+04 0.  0.
        5    1    3    3  502    0  0.65857226179E+03 -0.80573680337E+03  0.59615274255E+03  0.11993120539E+04  0.46999998093E+01 0. -1.
       -5    1    3    3    0  502 -0.65857226179E+03  0.80573680337E+03 -0.44310578686E+03  0.11310588175E+04  0.46999998093E+01 0.  1.
</event>
<event>
 5   0  0.5843670E-05  0.2237303E+04  0.7818609E-02  0.8503060E-01
        1   -1    0    0  501    0  0.00000000000E+00  0.00000000000E+00  0.14292030409E+04  0.14292030409E+04  0.50400001928E-02 0.  1.
       -1   -1    0    0    0  501  0.00000000000E+00  0.00000000000E+00 -0.87557971008E+03  0.87557971009E+03  0.50400001928E-02 0. -1.
    10030    2    1    2    0    0  0.00000000000E+00  0.00000000000E+00  0.55362333084E+03  0.23047827510E+04  0.22373030052E+04 0.  0.
        2    1    3    3  502    0  0.56667371276E+03 -0.51895632104E+03  0.11143184189E+04  0.13535657718E+04  0.25500000920E-02 0.  1.
       -2    1    3    3    0  502 -0.56667371276E+03  0.51895632104E+03 -0.56069508802E+03  0.95121697925E+03  0.25500000920E-02 0. -1.
</event>
<event>
 5   0  0.1234988E-04  0.2383546E+04  0.7818609E-02  0.8445690E-01
        2   -1    0    0  501    0  0.00000000000E+00  0.00000000000E+00  0.16159943308E+04  0.16159943308E+04  0.25500000920E-02 0. -1.
       -2   -1    0    0    0  501  0.00000000000E+00  0.00000000000E+00 -0.87891569850E+03  0.87891569850E+03  0.25500000920E-02 0.  1.
    10030    2    1    2    0    0  0.00000000000E+00  0.00000000000E+00  0.73707863233E+03  0.24949100293E+04  0.23835459182E+04 0.  0.
        5    1    3    3  502    0 -0.88414931586E+03 -0.72887283891E+03  0.25627893404E+02  0.11461476811E+04  0.46999998093E+01 0. -1.
       -5    1    3    3    0  502  0.88414931586E+03  0.72887283891E+03  0.71145073893E+03  0.13487623482E+04  0.46999998093E+01 0.  1.
</event>
<event>
 5   0  0.1237296E-04  0.2334126E+04  0.7818609E-02  0.8464586E-01
        2   -1    0    0  501    0  0.00000000000E+00  0.00000000000E+00  0.11549003407E+04  0.11549003407E+04  0.25500000920E-02 0. -1.
       -2   -1    0    0    0  501  0.00000000000E+00  0.00000000000E+00 -0.11793538154E+04  0.11793538154E+04  0.25500000920E-02 0.  1.
    10030    2    1    2    0    0  0.00000000000E+00  0.00000000000E+00 -0.24453474708E+02  0.23342541561E+04  0.23341260662E+04 0.  0.
        1    1    3    3  502    0 -0.25623612783E+03  0.10474253429E+04  0.43420488492E+03  0.11624502932E+04  0.50400001928E-02 0. -1.
       -1    1    3    3    0  502  0.25623612783E+03 -0.10474253429E+04 -0.45865835963E+03  0.11718038629E+04  0.50400001928E-02 0.  1.
</event>
<event>
 5   0  0.5843670E-05  0.2305884E+04  0.7818609E-02  0.8475605E-01
        1   -1    0    0  501    0  0.00000000000E+00  0.00000000000E+00  0.60895425720E+03  0.60895425722E+03  0.50400001928E-02 0. -1.
       -1   -1    0    0    0  501  0.00000000000E+00  0.00000000000E+00 -0.21828828223E+04  0.21828828223E+04  0.50400001928E-02 0.  1.
    10030    2    1    2    0    0  0.00000000000E+00  0.00000000000E+00 -0.15739285651E+04  0.27918370795E+04  0.23058844617E+04 0.  0.
        2    1    3    3  502    0  0.69531871889E+03  0.64412709815E+03  0.78117841562E+01  0.94785487465E+03  0.25500000920E-02 0. -1.
       -2    1    3    3    0  502 -0.69531871889E+03 -0.64412709815E+03 -0.15817403492E+04  0.18439822048E+04  0.25500000920E-02 0.  1.
</event>
<event>
 5   0  0.1237296E-04  0.2157501E+04  0.7818609E-02  0.8536328E-01
        2   -1    0    0  501    0  0.00000000000E+00  0.00000000000E+00  0.10048608270E+04  0.10048608270E+04  0.25500000920E-02 0. -1.
       -2   -1    0    0    0  501  0.00000000000E+00  0.00000000000E+00 -0.11580729618E+04  0.11580729618E+04  0.25500000920E-02 0.  1.
    10030    2    1    2    0    0  0.00000000000E+00  0.00000000000E+00 -0.15321213471E+03  0.21629337888E+04  0.21575005484E+04 0.  0.
        1    1    3    3  502    0  0.10064397522E+04 -0.37439870876E+03 -0.17985467855E+03  0.10887805441E+04  0.50400001928E-02 0.  1.
       -1    1    3    3    0  502 -0.10064397522E+04  0.37439870876E+03  0.26642543847E+02  0.10741532447E+04  0.50400001928E-02 0. -1.
</event>
<event>
 5   0  0.5632156E-05  0.2310501E+04  0.7818609E-02  0.8473792E-01
        1   -1    0    0  501    0  0.00000000000E+00  0.00000000000E+00  0.14377730829E+04  0.14377730829E+04  0.50400001928E-02 0.  1.
       -1   -1    0    0    0  501  0.00000000000E+00  0.00000000000E+00 -0.92824357198E+03  0.92824357199E+03  0.50400001928E-02 0. -1.
    10030    2    1    2    0    0  0.00000000000E+00  0.00000000000E+00  0.50952951087E+03  0.23660166549E+04  0.23105009172E+04 0.  0.
        4    1    3    3  502    0  0.99602058849E+03 -0.22478466658E+03  0.80813475201E+03  0.13021783861E+04  0.12699999809E+01 0.  1.
       -4    1    3    3    0  502 -0.99602058849E+03  0.22478466658E+03 -0.29860524114E+03  0.10638382687E+04  0.12699999809E+01 0. -1.
</event>
<event>
 5   0  0.1257524E-04  0.1296771E+04  0.7818609E-02  0.9032130E-01
       -2   -1    0    0    0  501  0.00000000000E+00  0.00000000000E+00  0.19842065785E+03  0.19842065787E+03  0.25500000920E-02 0.  1.
        2   -1    0    0  501    0  0.00000000000E+00  0.00000000000E+00 -0.21187501674E+04  0.21187501674E+04  0.25500000920E-02 0. -1.
    10030    2    1    2    0    0  0.00000000000E+00  0.00000000000E+00 -0.19203295096E+04  0.23171708253E+04  0.12967710701E+04 0.  0.
        3    1    3    3  502    0  0.19819007495E+03 -0.58915706557E+03 -0.63059152822E+03  0.88545527237E+03  0.10100000352E+00 0.  1.
       -3    1    3    3    0  502 -0.19819007495E+03  0.58915706557E+03 -0.12897379814E+04  0.14317155529E+04  0.10100000352E+00 0. -1.
</event>
<event>
 5   0  0.5632156E-05  0.2219491E+04  0.7818609E-02  0.8510359E-01
        1   -1    0    0  501    0  0.00000000000E+00  0.00000000000E+00  0.10712131358E+04  0.10712131358E+04  0.50400001928E-02 0.  1.
       -1   -1    0    0    0  501  0.00000000000E+00  0.00000000000E+00 -0.11496643707E+04  0.11496643707E+04  0.50400001928E-02 0. -1.
    10030    2    1    2    0    0  0.00000000000E+00  0.00000000000E+00 -0.78451234895E+02  0.22208775065E+04  0.22194914513E+04 0.  0.
        4    1    3    3  502    0 -0.36894449971E+03 -0.78050926698E+03  0.65850403854E+03  0.10857918499E+04  0.12699999809E+01 0.  1.
       -4    1    3    3    0  502  0.36894449971E+03  0.78050926698E+03 -0.73695527343E+03  0.11350856565E+04  0.12699999809E+01 0. -1.
</event>
<event>
 5   0  0.1257524E-04  0.2329378E+04  0.7818609E-02  0.8466427E-01
       -2   -1    0    0    0  501  0.00000000000E+00  0.00000000000E+00  0.17321146602E+04  0.17321146602E+04  0.25500000920E-02 0. -1.
        2   -1    0    0  501    0  0.00000000000E+00  0.00000000000E+00 -0.78314676192E+03  0.78314676192E+03  0.25500000920E-02 0.  1.
    10030    2    1    2    0    0  0.00000000000E+00  0.00000000000E+00  0.94896789827E+03  0.25152614221E+04  0.23293775885E+04 0.  0.
        3    1    3    3  502    0 -0.39981880479E+03  0.36158657066E+03 -0.64032765062E+03  0.83703012795E+03  0.10100000352E+00 0.  1.
       -3    1    3    3    0  502  0.39981880479E+03 -0.36158657066E+03  0.15892955489E+04  0.16782312942E+04  0.10100000352E+00 0. -1.
</event>
<event>
 5   0  0.1281432E-04  0.2283772E+04  0.7818609E-02  0.8484347E-01
        2   -1    0    0  501    0  0.00000000000E+00  0.00000000000E+00  0.84118568139E+03  0.84118568139E+03  0.25500000920E-02 0.  1.
       -2   -1    0    0    0  501  0.00000000000E+00  0.00000000000E+00 -0.15500775812E+04  0.15500775812E+04  0.25500000920E-02 0. -1.
    10030    2    1    2    0    0  0.00000000000E+00  0.00000000000E+00 -0.70889189978E+03  0.23912632626E+04  0.22837715002E+04 0.  0.
        4    1    3    3  502    0 -0.11202013622E+04  0.22092166350E+03 -0.33809089912E+03  0.11907831634E+04  0.12699999809E+01 0.  1.
       -4    1    3    3    0  502  0.11202013622E+04 -0.22092166350E+03 -0.37080100066E+03  0.12004800991E+04  0.12699999809E+01 0. -1.
</event>
<event>
 5   0  0.1270613E-04  0.2348742E+04  0.7818609E-02  0.8458947E-01
        2   -1    0    0  501    0  0.00000000000E+00  0.00000000000E+00  0.11308605359E+04  0.11308605359E+04  0.25500000920E-02 0. -1.
       -2   -1    0    0    0  501  0.00000000000E+00  0.00000000000E+00 -0.12195560625E+04  0.12195560625E+04  0.25500000920E-02 0.  1.
    10030    2    1    2    0    0  0.00000000000E+00  0.00000000000E+00 -0.88695526606E+02  0.23504165984E+04  0.23487424911E+04 0.  0.
        2    1    3    3  502    0 -0.10652684979E+04 -0.49098375482E+03 -0.10171053895E+03  0.11773729459E+04  0.25500000920E-02 0. -1.
       -2    1    3    3    0  502  0.10652684979E+04  0.49098375482E+03  0.13015012343E+02  0.11730436525E+04  0.25500000920E-02 0.  1.
</event>
<event>
 5   0  0.1270613E-04  0.2094538E+04  0.7818609E-02  0.8563653E-01
        2   -1    0    0  501    0  0.00000000000E+00  0.00000000000E+00  0.16545994032E+04  0.16545994032E+04  0.25500000920E-02 0.  1.
       -2   -1    0    0    0  501  0.00000000000E+00  0.00000000000E+00 -0.66286260351E+03  0.66286260352E+03  0.25500000920E-02 0. -1.
    10030    2    1    2    0    0  0.00000000000E+00  0.00000000000E+00  0.99173679969E+03  0.23174620067E+04  0.20945377229E+04 0.  0.
        2    1    3    3  502    0  0.12933032843E+03 -0.40996380319E+03  0.15524815263E+04  0.16108989860E+04  0.25500000920E-02 0.  1.
       -2    1    3    3    0  502 -0.12933032843E+03  0.40996380319E+03 -0.56074472659E+03  0.70656302068E+03  0.25500000920E-02 0. -1.
</event>
<event>
 5   0  0.5632156E-05  0.2268999E+04  0.7818609E-02  0.8490245E-01
        1   -1    0    0  501    0  0.00000000000E+00  0.00000000000E+00  0.82307899162E+03  0.82307899164E+03  0.50400001928E-02 0.  1.
       -1   -1    0    0    0  501  0.00000000000E+00  0.00000000000E+00 -0.15637497483E+04  0.15637497483E+04  0.50400001928E-02 0. -1.
    10030    2    1    2    0    0  0.00000000000E+00  0.00000000000E+00 -0.74067075668E+03  0.23868287399E+04  0.22689993971E+04 0.  0.
        4    1    3    3  502    0 -0.54287345677E+03  0.28304256419E+02  0.67715420588E+03  0.86836176357E+03  0.12699999809E+01 0.  1.
       -4    1    3    3    0  502  0.54287345677E+03 -0.28304256419E+02 -0.14178249626E+04  0.15184669764E+04  0.12699999809E+01 0. -1.
</event>
<event>
 5   0  0.1270613E-04  0.2265155E+04  0.7818609E-02  0.8491788E-01
        2   -1    0    0  501    0  0.00000000000E+00  0.00000000000E+00  0.16131985212E+04  0.16131985212E+04  0.25500000920E-02 0.  1.
       -2   -1    0    0    0  501  0.00000000000E+00  0.00000000000E+00 -0.79514828492E+03  0.79514828493E+03  0.25500000920E-02 0. -1.
    10030    2    1    2    0    0  0.00000000000E+00  0.00000000000E+00  0.81805023630E+03  0.24083468062E+04  0.22651552153E+04 0.  0.
        2    1    3    3  502    0 -0.57781475909E+03  0.86217300905E+01 -0.62660722997E+03  0.85239712030E+03  0.25500000920E-02 0. -1.
       -2    1    3    3    0  502  0.57781475909E+03 -0.86217300905E+01  0.14446574663E+04  0.15559496858E+04  0.25500000920E-02 0.  1.
</event>
<event>
 5   0  0.1234988E-04  0.2257562E+04  0.7818609E-02  0.8494844E-01
        2   -1    0    0  501    0  0.00000000000E+00  0.00000000000E+00  0.13315662454E+04  0.13315662454E+04  0.25500000920E-02 0. -1.
       -2   -1    0    0    0  501  0.00000000000E+00  0.00000000000E+00 -0.95687833240E+03  0.95687833240E+03  0.25500000920E-02 0.  1.
    10030    2    1    2    0    0  0.00000000000E+00  0.00000000000E+00  0.37468791304E+03  0.22884445778E+04  0.22575623034E+04 0.  0.
        5    1    3    3  502    0 -0.94989990445E+03 -0.40351011424E+03 -0.27606896888E+03  0.10683475120E+04  0.46999998093E+01 0.  1.
       -5    1    3    3    0  502  0.94989990445E+03  0.40351011424E+03  0.65075688192E+03  0.12200970659E+04  0.46999998093E+01 0. -1.
</event>
<event>
 5   0  0.1234988E-04  0.2302591E+04  0.7818609E-02  0.8476900E-01
        2   -1    0    0  501    0  0.00000000000E+00  0.00000000000E+00  0.98025124717E+03  0.98025124717E+03  0.25500000920E-02 0. -1.
       -2   -1    0    0    0  501  0.00000000000E+00  0.00000000000E+00 -0.13521857726E+04  0.13521857726E+04  0.25500000920E-02 0.  1.
    10030    2    1    2    0    0  0.00000000000E+00  0.00000000000E+00 -0.37193452547E+03  0.23324370198E+04  0.23025914011E+04 0.  0.
        5    1    3    3  502    0  0.78771097472E+03  0.15140259521E+03  0.65059955900E+03  0.10328180874E+04  0.46999998093E+01 0. -1.
       -5    1    3    3    0  502 -0.78771097472E+03 -0.15140259521E+03 -0.10225340845E+04  0.12996189324E+04  0.46999998093E+01 0.  1.
</event>
<event>
 5   0  0.1257524E-04  0.2368480E+04  0.7818609E-02  0.8451399E-01
        2   -1    0    0  501    0  0.00000000000E+00  0.00000000000E+00  0.11451956443E+04  0.11451956443E+04  0.25500000920E-02 0. -1.
       -2   -1    0    0    0  501  0.00000000000E+00  0.00000000000E+00 -0.12246155485E+04  0.12246155485E+04  0.25500000920E-02 0.  1.
    10030    2    1    2    0    0  0.00000000000E+00  0.00000000000E+00 -0.79419904215E+02  0.23698111928E+04  0.23684800123E+04 0.  0.
        3    1    3    3  502    0  0.98204528733E+03 -0.39795913569E+03 -0.56881711321E+03  0.12026376589E+04  0.10100000352E+00 0. -1.
       -3    1    3    3    0  502 -0.98204528733E+03  0.39795913569E+03  0.48939720899E+03  0.11671735340E+04  0.10100000352E+00 0.  1.
</event>
<event>
 5   0  0.5924654E-05  0.2306304E+04  0.7818609E-02  0.8475440E-01
       -1   -1    0    0    0  501  0.00000000000E+00  0.00000000000E+00  0.99829720777E+03  0.99829720778E+03  0.50400001928E-02 0. -1.
        1   -1    0    0  501    0  0.00000000000E+00  0.00000000000E+00 -0.13320278700E+04  0.13320278700E+04  0.50400001928E-02 0.  1.
    10030    2    1    2    0    0  0.00000000000E+00  0.00000000000E+00 -0.33373066223E+03  0.23303250778E+04  0.23063041459E+04 0.  0.
        5    1    3    3  502    0 -0.26965901428E+03 -0.26777729504E+03  0.93319670338E+03  0.10076203853E+04  0.46999998093E+01 0. -1.
       -5    1    3    3    0  502  0.26965901428E+03  0.26777729504E+03 -0.12669273656E+04  0.13227046925E+04  0.46999998093E+01 0.  1.
</event>
<event>
 5   0  0.5642466E-05  0.2261370E+04  0.7818609E-02  0.8493310E-01
       -1   -1    0    0    0  501  0.00000000000E+00  0.00000000000E+00  0.63367510860E+03  0.63367510862E+03  0.50400001928E-02 0.  1.
        1   -1    0    0  501    0  0.00000000000E+00  0.00000000000E+00 -0.20175138735E+04  0.20175138735E+04  0.50400001928E-02 0. -1.
    10030    2    1    2    0    0  0.00000000000E+00  0.00000000000E+00 -0.13838387649E+04  0.26511889821E+04  0.22613697822E+04 0.  0.
        1    1    3    3  502    0  0.30508854551E+03 -0.46604752920E+03  0.46165257124E+03  0.72346556009E+03  0.50400001928E-02 0.  1.
       -1    1    3    3    0  502 -0.30508854551E+03  0.46604752920E+03 -0.18454913362E+04  0.19277234221E+04  0.50400001928E-02 0. -1.
</event>
<event>
 5   0  0.1257524E-04  0.2168460E+04  0.7818609E-02  0.8531672E-01
        2   -1    0    0  501    0  0.00000000000E+00  0.00000000000E+00  0.27935904038E+04  0.27935904038E+04  0.25500000920E-02 0.  1.
       -2   -1    0    0    0  501  0.00000000000E+00  0.00000000000E+00 -0.42080410545E+03  0.42080410546E+03  0.25500000920E-02 0. -1.
    10030    2    1    2    0    0  0.00000000000E+00  0.00000000000E+00  0.23727862984E+04  0.32143945093E+04  0.21684596477E+04 0.  0.
        3    1    3    3  502    0 -0.33078813966E+03  0.70443505923E+03  0.67344485859E+02  0.78114328775E+03  0.10100000352E+00 0. -1.
       -3    1    3    3    0  502  0.33078813966E+03 -0.70443505923E+03  0.23054418125E+04  0.24332512216E+04  0.10100000352E+00 0.  1.
</event>
<event>
 5   0  0.4489500E-05  0.2259266E+04  0.7818609E-02  0.8494157E-01
       -4   -1    0    0    0  501  0.00000000000E+00  0.00000000000E+00  0.16375275916E+04  0.16375280841E+04  0.12699999809E+01 0. -1.
        4   -1    0    0  501    0  0.00000000000E+00  0.00000000000E+00 -0.77926575500E+03  0.77926678989E+03  0.12699999809E+01 0.  1.
    10030    2    1    2    0    0  0.00000000000E+00  0.00000000000E+00  0.85826183662E+03  0.24167948740E+04  0.22592662709E+04 0.  0.
        5    1    3    3  502    0  0.43374819965E+03  0.96209156953E+03 -0.18121645421E+01  0.10553592103E+04  0.46999998093E+01 0.  1.
       -5    1    3    3    0  502 -0.43374819965E+03 -0.96209156953E+03  0.86007400117E+03  0.13614356637E+04  0.46999998093E+01 0. -1.
</event>
<event>
 5   0  0.1281432E-04  0.2360662E+04  0.7818609E-02  0.8454380E-01
       -2   -1    0    0    0  501  0.00000000000E+00  0.00000000000E+00  0.10275931989E+04  0.10275931989E+04  0.25500000920E-02 0. -1.
        2   -1    0    0  501    0  0.00000000000E+00  0.00000000000E+00 -0.13557712750E+04  0.13557712750E+04  0.25500000920E-02 0.  1.
    10030    2    1    2    0    0  0.00000000000E+00  0.00000000000E+00 -0.32817807608E+03  0.23833644739E+04  0.23606620609E+04 0.  0.
        4    1    3    3  502    0  0.76346773035E+03 -0.36611546457E+03  0.66616744876E+03  0.10773598245E+04  0.12699999809E+01 0. -1.
       -4    1    3    3    0  502 -0.76346773035E+03  0.36611546457E+03 -0.99434552484E+03  0.13060046494E+04  0.12699999809E+01 0.  1.
</event>
<event>
 5   0  0.4489500E-05  0.2253771E+04  0.7818609E-02  0.8496375E-01
       -3   -1    0    0    0  501  0.00000000000E+00  0.00000000000E+00  0.82356613776E+03  0.82356614396E+03  0.10100000352E+00 0.  1.
        3   -1    0    0  501    0  0.00000000000E+00  0.00000000000E+00 -0.15419168780E+04  0.15419168813E+04  0.10100000352E+00 0. -1.
    10030    2    1    2    0    0  0.00000000000E+00  0.00000000000E+00 -0.71835074025E+03  0.23654830253E+04  0.22537706531E+04 0.  0.
        5    1    3    3  502    0  0.89576047195E+02 -0.96084783738E+03 -0.96990787817E+03  0.13682089815E+04  0.46999998093E+01 0. -1.
       -5    1    3    3    0  502 -0.89576047195E+02  0.96084783738E+03  0.25155713792E+03  0.99727404381E+03  0.46999998093E+01 0.  1.
</event>
<event>
 5   0  0.5632156E-05  0.2113357E+04  0.7818609E-02  0.8555382E-01
       -1   -1    0    0    0  501  0.00000000000E+00  0.00000000000E+00  0.68391851061E+03  0.68391851063E+03  0.50400001928E-02 0. -1.
        1   -1    0    0  501    0  0.00000000000E+00  0.00000000000E+00 -0.16326054690E+04  0.16326054690E+04  0.50400001928E-02 0.  1.
    10030    2    1    2    0    0  0.00000000000E+00  0.00000000000E+00 -0.94868695840E+03  0.23165239796E+04  0.21133566673E+04 0.  0.
        4    1    3    3  502    0 -0.97283466449E+03 -0.19949517863E+03 -0.87011022932E+03  0.13203404996E+04  0.12699999809E+01 0.  1.
       -4    1    3    3    0  502  0.97283466449E+03  0.19949517863E+03 -0.78576729078E+02  0.99618348008E+03  0.12699999809E+01 0. -1.
</event>
<event>
 5   0  0.1281432E-04  0.2326984E+04  0.7818609E-02  0.8467357E-01
       -2   -1    0    0    0  501  0.00000000000E+00  0.00000000000E+00  0.56849933718E+03  0.56849933718E+03  0.25500000920E-02 0.  1.
        2   -1    0    0  501    0  0.00000000000E+00  0.00000000000E+00 -0.23812061779E+04  0.23812061779E+04  0.25500000920E-02 0. -1.
    10030    2    1    2    0    0  0.00000000000E+00  0.00000000000E+00 -0.18127068407E+04  0.29497055151E+04  0.23269844295E+04 0.  0.
        4    1    3    3  502    0  0.58444386325E+03 -0.10784165573E+03  0.36157717227E+03  0.69566092057E+03  0.12699999809E+01 0.  1.
       -4    1    3    3    0  502 -0.58444386325E+03  0.10784165573E+03 -0.21742840130E+04  0.22540445945E+04  0.12699999809E+01 0. -1.
</event>
<event>
 5   0  0.1237296E-04  0.2383691E+04  0.7818609E-02  0.8445635E-01
        2   -1    0    0  501    0  0.00000000000E+00  0.00000000000E+00  0.14930095444E+04  0.14930095444E+04  0.25500000920E-02 0. -1.
       -2   -1    0    0    0  501  0.00000000000E+00  0.00000000000E+00 -0.95143114082E+03  0.95143114083E+03  0.25500000920E-02 0.  1.
    10030    2    1    2    0    0  0.00000000000E+00  0.00000000000E+00  0.54157840361E+03  0.24444406853E+04  0.23836910657E+04 0.  0.
        1    1    3    3  502    0 -0.97606957274E+03 -0.15564173164E+03  0.95376534468E+03  0.13735372191E+04  0.50400001928E-02 0. -1.
       -1    1    3    3    0  502  0.97606957274E+03  0.15564173164E+03 -0.41218694107E+03  0.10709034662E+04  0.50400001928E-02 0.  1.
</event>
<event>
 5   0  0.1270613E-04  0.2420800E+04  0.7818609E-02  0.8431757E-01
        2   -1    0    0  501    0  0.00000000000E+00  0.00000000000E+00  0.13567920392E+04  0.13567920392E+04  0.25500000920E-02 0.  1.
       -2   -1    0    0    0  501  0.00000000000E+00  0.00000000000E+00 -0.10798029290E+04  0.10798029290E+04  0.25500000920E-02 0. -1.
    10030    2    1    2    0    0  0.00000000000E+00  0.00000000000E+00  0.27698911019E+03  0.24365949682E+04  0.24207998827E+04 0.  0.
        2    1    3    3  502    0 -0.19066443483E+03  0.13870568402E+03 -0.10564651725E+04  0.10824559364E+04  0.25500000920E-02 0. -1.
       -2    1    3    3    0  502  0.19066443483E+03 -0.13870568402E+03  0.13334542827E+04  0.13541390318E+04  0.25500000920E-02 0.  1.
</event>
<event>
 5   0  0.5663790E-05  0.2308201E+04  0.7818609E-02  0.8474695E-01
       -1   -1    0    0    0  501  0.00000000000E+00  0.00000000000E+00  0.71902462728E+03  0.71902462729E+03  0.50400001928E-02 0.  1.
        1   -1    0    0  501    0  0.00000000000E+00  0.00000000000E+00 -0.18524369318E+04  0.18524369318E+04  0.50400001928E-02 0. -1.
    10030    2    1    2    0    0  0.00000000000E+00  0.00000000000E+00 -0.11334123045E+04  0.25714615591E+04  0.23082008357E+04 0.  0.
        3    1    3    3  502    0 -0.51246000047E+03 -0.51901166678E+01  0.58530678954E+03  0.77796287667E+03  0.10100000352E+00 0.  1.
       -3    1    3    3    0  502  0.51246000047E+03  0.51901166678E+01 -0.17187190941E+04  0.17934986825E+04  0.10100000352E+00 0. -1.
</event>
<event>
 5   0  0.4489500E-05  0.2322098E+04  0.7818609E-02  0.8469259E-01
       -3   -1    0    0    0  501  0.00000000000E+00  0.00000000000E+00  0.10446328433E+04  0.10446328482E+04  0.10100000352E+00 0. -1.
        3   -1    0    0  501    0  0.00000000000E+00  0.00000000000E+00 -0.12904392311E+04  0.12904392351E+04  0.10100000352E+00 0.  1.
    10030    2    1    2    0    0  0.00000000000E+00  0.00000000000E+00 -0.24580638785E+03  0.23350720833E+04  0.23220983730E+04 0.  0.
        3    1    3    3  502    0 -0.57424583373E+03  0.90519257657E+03  0.32557434700E+03  0.11203260882E+04  0.10100000352E+00 0. -1.
       -3    1    3    3    0  502  0.57424583373E+03 -0.90519257657E+03 -0.57138073485E+03  0.12147459951E+04  0.10100000352E+00 0.  1.
</event>
<event>
 5   0  0.5642466E-05  0.2257135E+04  0.7818609E-02  0.8495017E-01
       -1   -1    0    0    0  501  0.00000000000E+00  0.00000000000E+00  0.61017454383E+03  0.61017454385E+03  0.50400001928E-02 0.  1.
        1   -1    0    0  501    0  0.00000000000E+00  0.00000000000E+00 -0.20873774178E+04  0.20873774179E+04  0.50400001928E-02 0. -1.
    10030    2    1    2    0    0  0.00000000000E+00  0.00000000000E+00 -0.14772028740E+04  0.26975519617E+04  0.22571349661E+04 0.  0.
        1    1    3    3  502    0 -0.10844523261E+04  0.10514183422E+03 -0.10902455092E+04  0.15413393277E+04  0.50400001928E-02 0. -1.
       -1    1    3    3    0  502  0.10844523261E+04 -0.10514183422E+03 -0.38695736478E+03  0.11562126340E+04  0.50400001928E-02 0.  1.
</event>
<event>
 5   0  0.5843670E-05  0.2287011E+04  0.7818609E-02  0.8483060E-01
        1   -1    0    0  501    0  0.00000000000E+00  0.00000000000E+00  0.96510996980E+03  0.96510996981E+03  0.50400001928E-02 0.  1.
       -1   -1    0    0    0  501  0.00000000000E+00  0.00000000000E+00 -0.13548763246E+04  0.13548763246E+04  0.50400001928E-02 0. -1.
    10030    2    1    2    0    0  0.00000000000E+00  0.00000000000E+00 -0.38976635478E+03  0.23199862944E+04  0.22870108428E+04 0.  0.
        2    1    3    3  502    0  0.14655751858E+03  0.79695310778E+03 -0.10133569803E+04  0.12974998003E+04  0.25500000920E-02 0. -1.
       -2    1    3    3    0  502 -0.14655751858E+03 -0.79695310778E+03  0.62359062556E+03  0.10224864941E+04  0.25500000920E-02 0.  1.
</event>
<event>
 5   0  0.1270613E-04  0.2126139E+04  0.7818609E-02  0.8549816E-01
        2   -1    0    0  501    0  0.00000000000E+00  0.00000000000E+00  0.11400865083E+04  0.11400865083E+04  0.25500000920E-02 0. -1.
       -2   -1    0    0    0  501  0.00000000000E+00  0.00000000000E+00 -0.99125530986E+03  0.99125530987E+03  0.25500000920E-02 0.  1.
    10030    2    1    2    0    0  0.00000000000E+00  0.00000000000E+00  0.14883119844E+03  0.21313418182E+04  0.21261390407E+04 0.  0.
        2    1    3    3  502    0  0.65448993620E+03  0.71579768724E+03  0.51067406086E+03  0.10961347554E+04  0.25500000920E-02 0. -1.
       -2    1    3    3    0  502 -0.65448993620E+03 -0.71579768724E+03 -0.36184286242E+03  0.10352070627E+04  0.25500000920E-02 0.  1.
</event>
<event>
 5   0  0.1234988E-04  0.2234299E+04  0.7818609E-02  0.8504286E-01
       -2   -1    0    0    0  501  0.00000000000E+00  0.00000000000E+00  0.83666430304E+03  0.83666430304E+03  0.25500000920E-02 0.  1.
        2   -1    0    0  501    0  0.00000000000E+00  0.00000000000E+00 -0.14916652595E+04  0.14916652595E+04  0.25500000920E-02 0. -1.
    10030    2    1    2    0    0  0.00000000000E+00  0.00000000000E+00 -0.65500095648E+03  0.23283295626E+04  0.22342990621E+04 0.  0.
        5    1    3    3  502    0  0.31291969907E+03 -0.87223565310E+03 -0.97768738260E+03  0.13470740443E+04  0.46999998093E+01 0. -1.
       -5    1    3    3    0  502 -0.31291969907E+03  0.87223565310E+03  0.32268642612E+03  0.98125551831E+03  0.46999998093E+01 0.  1.
</event>
<event>
 5   0  0.5642466E-05  0.2297003E+04  0.7818609E-02  0.8479104E-01
        1   -1    0    0  501    0  0.00000000000E+00  0.00000000000E+00  0.12882564689E+04  0.12882564689E+04  0.50400001928E-02 0.  1.
       -1   -1    0    0    0  501  0.00000000000E+00  0.00000000000E+00 -0.10239077371E+04  0.10239077371E+04  0.50400001928E-02 0. -1.
    10030    2    1    2    0    0  0.00000000000E+00  0.00000000000E+00  0.26434873181E+03  0.23121642060E+04  0.22970030613E+04 0.  0.
        1    1    3    3  502    0 -0.11189480156E+04 -0.94149510011E+02  0.37490280278E+03  0.11838331400E+04  0.50400001928E-02 0.  1.
       -1    1    3    3    0  502  0.11189480156E+04  0.94149510011E+02 -0.11055407097E+03  0.11283310660E+04  0.50400001928E-02 0. -1.
</event>
<event>
 5   0  0.1237296E-04  0.2183993E+04  0.7818609E-02  0.8525120E-01
        2   -1    0    0  501    0  0.00000000000E+00  0.00000000000E+00  0.14258380763E+04  0.14258380763E+04  0.25500000920E-02 0.  1.
       -2   -1    0    0    0  501  0.00000000000E+00  0.00000000000E+00 -0.83631974863E+03  0.83631974864E+03  0.25500000920E-02 0. -1.
    10030    2    1    2    0    0  0.00000000000E+00  0.00000000000E+00  0.58951832763E+03  0.22621578249E+04  0.21839931699E+04 0.  0.
        1    1    3    3  502    0  0.98659700215E+03 -0.18390601557E+03 -0.15106559501E+03  0.10148969806E+04  0.50400001928E-02 0. -1.
       -1    1    3    3    0  502 -0.98659700215E+03  0.18390601557E+03  0.74058392265E+03  0.12472608443E+04  0.50400001928E-02 0.  1.
</event>
<event>
 5   0  0.5642466E-05  0.2013180E+04  0.7818609E-02  0.8600483E-01
       -1   -1    0    0    0  501  0.00000000000E+00  0.00000000000E+00  0.96137589027E+03  0.96137589028E+03  0.50400001928E-02 0. -1.
        1   -1    0    0  501    0  0.00000000000E+00  0.00000000000E+00 -0.10539304078E+04  0.10539304078E+04  0.50400001928E-02 0.  1.
    10030    2    1    2    0    0  0.00000000000E+00  0.00000000000E+00 -0.92554517567E+02  0.20153062981E+04  0.20131798570E+04 0.  0.
        1    1    3    3  502    0 -0.14700880929E+03  0.74307136167E+03 -0.70989273232E+03  0.10381302086E+04  0.50400001928E-02 0.  1.
       -1    1    3    3    0  502  0.14700880929E+03 -0.74307136167E+03  0.61733821476E+03  0.97717608954E+03  0.50400001928E-02 0. -1.
</event>
<event>
 5   0  0.1234988E-04  0.2295825E+04  0.7818609E-02  0.8479569E-01
       -2   -1    0    0    0  501  0.00000000000E+00  0.00000000000E+00  0.99149720191E+03  0.99149720191E+03  0.25500000920E-02 0.  1.
        2   -1    0    0  501    0  0.00000000000E+00  0.00000000000E+00 -0.13290027881E+04  0.13290027881E+04  0.25500000920E-02 0. -1.
    10030    2    1    2    0    0  0.00000000000E+00  0.00000000000E+00 -0.33750558621E+03  0.23204999900E+04  0.22958245105E+04 0.  0.
        5    1    3    3  502    0 -0.50334887898E+03 -0.91552637431E+03 -0.64939701031E+03  0.12301573895E+04  0.46999998093E+01 0. -1.
       -5    1    3    3    0  502  0.50334887898E+03  0.91552637431E+03  0.31189142410E+03  0.10903426005E+04  0.46999998093E+01 0.  1.
</event>
<event>
 5   0  0.1281432E-04  0.2256182E+04  0.7818609E-02  0.8495401E-01
       -2   -1    0    0    0  501  0.00000000000E+00  0.00000000000E+00  0.98324776065E+03  0.98324776066E+03  0.25500000920E-02 0. -1.
        2   -1    0    0  501    0  0.00000000000E+00  0.00000000000E+00 -0.12942712191E+04  0.12942712191E+04  0.25500000920E-02 0.  1.
    10030    2    1    2    0    0  0.00000000000E+00  0.00000000000E+00 -0.31102345848E+03  0.22775189798E+04  0.22561819766E+04 0.  0.
        4    1    3    3  502    0  0.19994223628E+03  0.11101330492E+04 -0.14069709797E+03  0.11367363683E+04  0.12699999809E+01 0. -1.
       -4    1    3    3    0  502 -0.19994223628E+03 -0.11101330492E+04 -0.17032636051E+03  0.11407826115E+04  0.12699999809E+01 0.  1.
</event>
<event>
 5   0  0.1234988E-04  0.2267017E+04  0.7818609E-02  0.8491041E-01
       -2   -1    0    0    0  501  0.00000000000E+00  0.00000000000E+00  0.10662179032E+04  0.10662179032E+04  0.25500000920E-02 0. -1.
        2   -1    0    0  501    0  0.00000000000E+00  0.00000000000E+00 -0.12050457258E+04  0.12050457258E+04  0.25500000920E-02 0.  1.
    10030    2    1    2    0    0  0.00000000000E+00  0.00000000000E+00 -0.13882782260E+03  0.22712636290E+04  0.22670168301E+04 0.  0.
        5    1    3    3  502    0  0.28219357739E+03  0.10487204304E+04 -0.39463173831E+03  0.11555103007E+04  0.46999998093E+01 0.  1.
       -5    1    3    3    0  502 -0.28219357739E+03 -0.10487204304E+04  0.25580391571E+03  0.11157533283E+04  0.46999998093E+01 0. -1.
</event>
<event>
 5   0  0.1234988E-04  0.2334259E+04  0.7818609E-02  0.8464534E-01
        2   -1    0    0  501    0  0.00000000000E+00  0.00000000000E+00  0.25035082096E+04  0.25035082096E+04  0.25500000920E-02 0.  1.
       -2   -1    0    0    0  501  0.00000000000E+00  0.00000000000E+00 -0.54411298389E+03  0.54411298390E+03  0.25500000920E-02 0. -1.
    10030    2    1    2    0    0  0.00000000000E+00  0.00000000000E+00  0.19593952257E+04  0.30476211935E+04  0.23342590448E+04 0.  0.
        5    1    3    3  502    0  0.76137870235E+03  0.88119338197E+03  0.10805756112E+04  0.15886676953E+04  0.46999998093E+01 0. -1.
       -5    1    3    3    0  502 -0.76137870235E+03 -0.88119338197E+03  0.87881961451E+03  0.14589534981E+04  0.46999998093E+01 0.  1.
</event>
<event>
 5   0  0.1234988E-04  0.2215204E+04  0.7818609E-02  0.8512126E-01
        2   -1    0    0  501    0  0.00000000000E+00  0.00000000000E+00  0.13169758702E+04  0.13169758702E+04  0.25500000920E-02 0. -1.
       -2   -1    0    0    0  501  0.00000000000E+00  0.00000000000E+00 -0.93151493745E+03  0.93151493746E+03  0.25500000920E-02 0.  1.
    10030    2    1    2    0    0  0.00000000000E+00  0.00000000000E+00  0.38546093272E+03  0.22484908076E+04  0.22152044559E+04 0.  0.
        5    1    3    3  502    0 -0.61703988275E+03 -0.69480416256E+03  0.80450558017E+03  0.12291225975E+04  0.46999998093E+01 0. -1.
       -5    1    3    3    0  502  0.61703988275E+03  0.69480416256E+03 -0.41904464746E+03  0.10193682101E+04  0.46999998093E+01 0.  1.
</event>
<event>
 5   0  0.1237296E-04  0.2310794E+04  0.7818609E-02  0.8473677E-01
       -2   -1    0    0    0  501  0.00000000000E+00  0.00000000000E+00  0.76996253261E+03  0.76996253262E+03  0.25500000920E-02 0. -1.
        2   -1    0    0  501    0  0.00000000000E+00  0.00000000000E+00 -0.17337756605E+04  0.17337756605E+04  0.25500000920E-02 0.  1.
    10030    2    1    2    0    0  0.00000000000E+00  0.00000000000E+00 -0.96381312784E+03  0.25037381931E+04  0.23107940614E+04 0.  0.
        1    1    3    3  502    0 -0.36941066875E+03  0.10165244991E+04 -0.41580038554E+02  0.10823655570E+04  0.50400001928E-02 0. -1.
       -1    1    3    3    0  502  0.36941066875E+03 -0.10165244991E+04 -0.92223308928E+03  0.14213726360E+04  0.50400001928E-02 0.  1.
</event>
<event>
 5   0  0.5843670E-05  0.2302115E+04  0.7818609E-02  0.8477088E-01
        1   -1    0    0  501    0  0.00000000000E+00  0.00000000000E+00  0.21265951800E+04  0.21265951801E+04  0.50400001928E-02 0.  1.
       -1   -1    0    0    0  501  0.00000000000E+00  0.00000000000E+00 -0.62303041690E+03  0.62303041692E+03  0.50400001928E-02 0. -1.
    10030    2    1    2    0    0  0.00000000000E+00  0.00000000000E+00  0.15035647631E+04  0.27496255970E+04  0.23021150985E+04 0.  0.
        2    1    3    3  502    0  0.10213530568E+04  0.49936326831E+03  0.53676631610E+03  0.12572365801E+04  0.25500000920E-02 0. -1.
       -2    1    3    3    0  502 -0.10213530568E+04 -0.49936326831E+03  0.96679844705E+03  0.14923890168E+04  0.25500000920E-02 0.  1.
</event>
<event>
 5   0  0.1281432E-04  0.2289210E+04  0.7818609E-02  0.8482188E-01
        2   -1    0    0  501    0  0.00000000000E+00  0.00000000000E+00  0.26632307761E+04  0.26632307761E+04  0.25500000920E-02 0.  1.
       -2   -1    0    0    0  501  0.00000000000E+00  0.00000000000E+00 -0.49192917984E+03  0.49192917984E+03  0.25500000920E-02 0. -1.
    10030    2    1    2    0    0  0.00000000000E+00  0.00000000000E+00  0.21713015963E+04  0.31551599559E+04  0.22892102843E+04 0.  0.
        4    1    3    3  502    0 -0.42204342605E+03  0.61118496109E+03 -0.11467635730E+03  0.75154506848E+03  0.12699999809E+01 0. -1.
       -4    1    3    3    0  502  0.42204342605E+03 -0.61118496109E+03  0.22859779536E+04  0.24036148875E+04  0.12699999809E+01 0.  1.
</event>
<event>
 5   0  0.5663790E-05  0.1186230E+04  0.7818609E-02  0.9124995E-01
       -1   -1    0    0    0  501  0.00000000000E+00  0.00000000000E+00  0.29688222022E+03  0.29688222026E+03  0.50400001928E-02 0.  1.
        1   -1    0    0  501    0  0.00000000000E+00  0.00000000000E+00 -0.11849326257E+04  0.11849326257E+04  0.50400001928E-02 0. -1.
    10030    2    1    2    0    0  0.00000000000E+00  0.00000000000E+00 -0.88805040552E+03  0.14818148460E+04  0.11862300431E+04 0.  0.
        3    1    3    3  502    0  0.20432264374E+03 -0.45161521792E+03 -0.85088481802E+03  0.98473805225E+03  0.10100000352E+00 0. -1.
       -3    1    3    3    0  502 -0.20432264374E+03  0.45161521792E+03 -0.37165587496E+02  0.49707679376E+03  0.10100000352E+00 0.  1.
</event>
<event>
 5   0  0.1257524E-04  0.2334884E+04  0.7818609E-02  0.8464293E-01
       -2   -1    0    0    0  501  0.00000000000E+00  0.00000000000E+00  0.10392780002E+04  0.10392780002E+04  0.25500000920E-02 0. -1.
        2   -1    0    0  501    0  0.00000000000E+00  0.00000000000E+00 -0.13114108391E+04  0.13114108391E+04  0.25500000920E-02 0.  1.
    10030    2    1    2    0    0  0.00000000000E+00  0.00000000000E+00 -0.27213283890E+03  0.23506888392E+04  0.23348836667E+04 0.  0.
        3    1    3    3  502    0 -0.74621265543E+03 -0.17923128870E+03 -0.10217733965E+04  0.12778803019E+04  0.10100000352E+00 0. -1.
       -3    1    3    3    0  502  0.74621265543E+03  0.17923128870E+03  0.74964055761E+03  0.10728085373E+04  0.10100000352E+00 0.  1.
</event>
<event>
 5   0  0.5632156E-05  0.2323113E+04  0.7818609E-02  0.8468863E-01
        1   -1    0    0  501    0  0.00000000000E+00  0.00000000000E+00  0.15373773782E+04  0.15373773782E+04  0.50400001928E-02 0.  1.
       -1   -1    0    0    0  501  0.00000000000E+00  0.00000000000E+00 -0.87760717502E+03  0.87760717504E+03  0.50400001928E-02 0. -1.
    10030    2    1    2    0    0  0.00000000000E+00  0.00000000000E+00  0.65977020319E+03  0.24149845533E+04  0.23231129270E+04 0.  0.
        4    1    3    3  502    0 -0.84180122998E+03  0.63525187282E+03  0.83600406829E+03  0.13457632287E+04  0.12699999809E+01 0.  1.
       -4    1    3    3    0  502  0.84180122998E+03 -0.63525187282E+03 -0.17623386510E+03  0.10692213245E+04  0.12699999809E+01 0. -1.
</event>
<event>
 5   0  0.1237296E-04  0.2095095E+04  0.7818609E-02  0.8563407E-01
       -2   -1    0    0    0  501  0.00000000000E+00  0.00000000000E+00  0.73440178184E+03  0.73440178184E+03  0.25500000920E-02 0. -1.
        2   -1    0    0  501    0  0.00000000000E+00  0.00000000000E+00 -0.14942165310E+04  0.14942165310E+04  0.25500000920E-02 0.  1.
    10030    2    1    2    0    0  0.00000000000E+00  0.00000000000E+00 -0.75981474912E+03  0.22286183128E+04  0.20950945399E+04 0.  0.
        1    1    3    3  502    0  0.82180038749E+03  0.24152234877E+03 -0.10213881347E+04  0.13330126195E+04  0.50400001928E-02 0.  1.
       -1    1    3    3    0  502 -0.82180038749E+03 -0.24152234877E+03  0.26157338562E+03  0.89560569334E+03  0.50400001928E-02 0. -1.
</event>
<event>
 5   0  0.5924654E-05  0.2273300E+04  0.7818609E-02  0.8488523E-01
       -1   -1    0    0    0  501  0.00000000000E+00  0.00000000000E+00  0.12996741952E+04  0.12996741952E+04  0.50400001928E-02 0.  1.
        1   -1    0    0  501    0  0.00000000000E+00  0.00000000000E+00 -0.99407488950E+03  0.99407488951E+03  0.50400001928E-02 0. -1.
    10030    2    1    2    0    0  0.00000000000E+00  0.00000000000E+00  0.30559930573E+03  0.22937490848E+04  0.22733002283E+04 0.  0.
        5    1    3    3  502    0  0.10071877017E+04  0.49747744690E+03 -0.22081417639E+02  0.11235748998E+04  0.46999998093E+01 0.  1.
       -5    1    3    3    0  502 -0.10071877017E+04 -0.49747744690E+03  0.32768072337E+03  0.11701741849E+04  0.46999998093E+01 0. -1.
</event>
<event>
 5   0  0.5632156E-05  0.2397209E+04  0.7818609E-02  0.8440549E-01
        1   -1    0    0  501    0  0.00000000000E+00  0.00000000000E+00  0.20384015716E+04  0.20384015716E+04  0.50400001928E-02 0. -1.
       -1   -1    0    0    0  501  0.00000000000E+00  0.00000000000E+00 -0.70479383067E+03  0.70479383069E+03  0.50400001928E-02 0.  1.
    10030    2    1    2    0    0  0.00000000000E+00  0.00000000000E+00  0.13336077410E+04  0.27431954023E+04  0.23972090874E+04 0.  0.
        4    1    3    3  502    0 -0.90092192305E+03  0.57968508198E+03  0.12819336997E+04  0.16706438068E+04  0.12699999809E+01 0. -1.
       -4    1    3    3    0  502  0.90092192305E+03 -0.57968508198E+03  0.51674041235E+02  0.10725515956E+04  0.12699999809E+01 0.  1.
</event>
<event>
 5   0  0.1257524E-04  0.2273553E+04  0.7818609E-02  0.8488422E-01
       -2   -1    0    0    0  501  0.00000000000E+00  0.00000000000E+00  0.14840568760E+04  0.14840568760E+04  0.25500000920E-02 0.  1.
        2   -1    0    0  501    0  0.00000000000E+00  0.00000000000E+00 -0.87076249678E+03  0.87076249678E+03  0.25500000920E-02 0. -1.
    10030    2    1    2    0    0  0.00000000000E+00  0.00000000000E+00  0.61329437919E+03  0.23548193728E+04  0.22735532285E+04 0.  0.
        3    1    3    3  502    0  0.38180354184E+03 -0.45931905526E+03 -0.69514447837E+03  0.91650084293E+03  0.10100000352E+00 0. -1.
       -3    1    3    3    0  502 -0.38180354184E+03  0.45931905526E+03  0.13084388576E+04  0.14383185298E+04  0.10100000352E+00 0.  1.
</event>
<event>
 5   0  0.5924654E-05  0.1759246E+04  0.7818609E-02  0.8728277E-01
        1   -1    0    0  501    0  0.00000000000E+00  0.00000000000E+00  0.77864836665E+03  0.77864836667E+03  0.50400001928E-02 0.  1.
       -1   -1    0    0    0  501  0.00000000000E+00  0.00000000000E+00 -0.99369230066E+03  0.99369230067E+03  0.50400001928E-02 0. -1.
    10030    2    1    2    0    0  0.00000000000E+00  0.00000000000E+00 -0.21504393401E+03  0.17723406673E+04  0.17592463010E+04 0.  0.
        5    1    3    3  502    0 -0.43836326147E+03  0.75896932787E+03 -0.32685773579E+02  0.87709021170E+03  0.46999998093E+01 0.  1.
       -5    1    3    3    0  502  0.43836326147E+03 -0.75896932787E+03 -0.18235816043E+03  0.89525045565E+03  0.46999998093E+01 0. -1.
</event>
<event>
 5   0  0.5663790E-05  0.2339132E+04  0.7818609E-02  0.8462650E-01
       -1   -1    0    0    0  501  0.00000000000E+00  0.00000000000E+00  0.84354314883E+03  0.84354314885E+03  0.50400001928E-02 0. -1.
        1   -1    0    0  501    0  0.00000000000E+00  0.00000000000E+00 -0.16215944402E+04  0.16215944402E+04  0.50400001928E-02 0.  1.
    10030    2    1    2    0    0  0.00000000000E+00  0.00000000000E+00 -0.77805129133E+03  0.24651375890E+04  0.23391322153E+04 0.  0.
        3    1    3    3  502    0 -0.79222626211E+03 -0.28938988671E+03  0.46487830405E+03  0.96305804845E+03  0.10100000352E+00 0. -1.
       -3    1    3    3    0  502  0.79222626211E+03  0.28938988671E+03 -0.12429295954E+04  0.15020795406E+04  0.10100000352E+00 0.  1.
</event>
<event>
 5   0  0.5843670E-05  0.1723189E+04  0.7818609E-02  0.8748248E-01
        1   -1    0    0  501    0  0.00000000000E+00  0.00000000000E+00  0.17691706402E+04  0.17691706402E+04  0.50400001928E-02 0. -1.
       -1   -1    0    0    0  501  0.00000000000E+00  0.00000000000E+00 -0.41960050956E+03  0.41960050959E+03  0.50400001928E-02 0.  1.
    10030    2    1    2    0    0  0.00000000000E+00  0.00000000000E+00  0.13495701306E+04  0.21887711498E+04  0.17231887908E+04 0.  0.
        2    1    3    3  502    0 -0.43071232844E+03 -0.72310180016E+03  0.44072729463E+03  0.95006835096E+03  0.25500000920E-02 0.  1.
       -2    1    3    3    0  502  0.43071232844E+03  0.72310180016E+03  0.90884283601E+03  0.12387027988E+04  0.25500000920E-02 0. -1.
</event>
<event>
 5   0  0.1270613E-04  0.2374262E+04  0.7818609E-02  0.8449203E-01
        2   -1    0    0  501    0  0.00000000000E+00  0.00000000000E+00  0.16431326707E+04  0.16431326707E+04  0.25500000920E-02 0. -1.
       -2   -1    0    0    0  501  0.00000000000E+00  0.00000000000E+00 -0.85767864912E+03  0.85767864912E+03  0.25500000920E-02 0.  1.
    10030    2    1    2    0    0  0.00000000000E+00  0.00000000000E+00  0.78545402162E+03  0.25008113199E+04  0.23742618300E+04 0.  0.
        2    1    3    3  502    0 -0.58881772354E+03 -0.86784600992E+03  0.97862804107E+03  0.14344252686E+04  0.25500000920E-02 0. -1.
       -2    1    3    3    0  502  0.58881772354E+03  0.86784600992E+03 -0.19317401945E+03  0.10663860512E+04  0.25500000920E-02 0.  1.
</event>
<event>
 5   0  0.5843670E-05  0.2495778E+04  0.7818609E-02  0.8404491E-01
       -1   -1    0    0    0  501  0.00000000000E+00  0.00000000000E+00  0.11595359412E+04  0.11595359412E+04  0.50400001928E-02 0.  1.
        1   -1    0    0  501    0  0.00000000000E+00  0.00000000000E+00 -0.13429747550E+04  0.13429747550E+04  0.50400001928E-02 0. -1.
    10030    2    1    2    0    0  0.00000000000E+00  0.00000000000E+00 -0.18343881385E+03  0.25025106962E+04  0.24957784329E+04 0.  0.
        2    1    3    3  502    0  0.96104039238E+03  0.79585351114E+03 -0.75991127634E+02  0.12501024352E+04  0.25500000920E-02 0.  1.
       -2    1    3    3    0  502 -0.96104039238E+03 -0.79585351114E+03 -0.10744768621E+03  0.12524082610E+04  0.25500000920E-02 0. -1.
</event>
<event>
 5   0  0.5843670E-05  0.2186148E+04  0.7818609E-02  0.8524216E-01
        1   -1    0    0  501    0  0.00000000000E+00  0.00000000000E+00  0.12926338070E+04  0.12926338070E+04  0.50400001928E-02 0.  1.
       -1   -1    0    0    0  501  0.00000000000E+00  0.00000000000E+00 -0.92432273717E+03  0.92432273718E+03  0.50400001928E-02 0. -1.
    10030    2    1    2    0    0  0.00000000000E+00  0.00000000000E+00  0.36831106981E+03  0.22169565442E+04  0.21861480450E+04 0.  0.
        2    1    3    3  502    0  0.72825429609E+03 -0.67828179215E+03  0.64262219805E+03  0.11846450096E+04  0.25500000920E-02 0.  1.
       -2    1    3    3    0  502 -0.72825429609E+03  0.67828179215E+03 -0.27431112824E+03  0.10323115346E+04  0.25500000920E-02 0. -1.
</event>
<event>
 5   0  0.5663790E-05  0.2313864E+04  0.7818609E-02  0.8472475E-01
       -1   -1    0    0    0  501  0.00000000000E+00  0.00000000000E+00  0.95529345729E+03  0.95529345730E+03  0.50400001928E-02 0.  1.
        1   -1    0    0  501    0  0.00000000000E+00  0.00000000000E+00 -0.14011318905E+04  0.14011318905E+04  0.50400001928E-02 0. -1.
    10030    2    1    2    0    0  0.00000000000E+00  0.00000000000E+00 -0.44583843321E+03  0.23564253478E+04  0.23138644107E+04 0.  0.
        3    1    3    3  502    0  0.86748340762E+03 -0.22994521802E+03  0.52064072908E+03  0.10375302621E+04  0.10100000352E+00 0.  1.
       -3    1    3    3    0  502 -0.86748340762E+03  0.22994521802E+03 -0.96647916229E+03  0.13188950857E+04  0.10100000352E+00 0. -1.
</event>
<event>
 5   0  0.1237296E-04  0.2151375E+04  0.7818609E-02  0.8538944E-01
        2   -1    0    0  501    0  0.00000000000E+00  0.00000000000E+00  0.13137504764E+04  0.13137504764E+04  0.25500000920E-02 0. -1.
       -2   -1    0    0    0  501  0.00000000000E+00  0.00000000000E+00 -0.88076382577E+03  0.88076382578E+03  0.25500000920E-02 0.  1.
    10030    2    1    2    0    0  0.00000000000E+00  0.00000000000E+00  0.43298665063E+03  0.21945143022E+04  0.21513752771E+04 0.  0.
        1    1    3    3  502    0  0.75925490115E+03  0.26583710003E+03 -0.51194548689E+03  0.95353319305E+03  0.50400001928E-02 0.  1.
       -1    1    3    3    0  502 -0.75925490115E+03 -0.26583710003E+03  0.94493213752E+03  0.12409811091E+04  0.50400001928E-02 0. -1.
</event>
<event>
 5   0  0.1281432E-04  0.2313730E+04  0.7818609E-02  0.8472527E-01
        2   -1    0    0  501    0  0.00000000000E+00  0.00000000000E+00  0.15642312181E+04  0.15642312181E+04  0.25500000920E-02 0. -1.
       -2   -1    0    0    0  501  0.00000000000E+00  0.00000000000E+00 -0.85558750679E+03  0.85558750680E+03  0.25500000920E-02 0.  1.
    10030    2    1    2    0    0  0.00000000000E+00  0.00000000000E+00  0.70864371127E+03  0.24198187249E+04  0.23137300516E+04 0.  0.
        4    1    3    3  502    0 -0.10352118438E+04 -0.49972307996E+03  0.21816674532E+03  0.11700363498E+04  0.12699999809E+01 0.  1.
       -4    1    3    3    0  502  0.10352118438E+04  0.49972307996E+03  0.49047696595E+03  0.12497823751E+04  0.12699999809E+01 0. -1.
</event>
<event>
 5   0  0.5642466E-05  0.1205128E+04  0.7818609E-02  0.9108380E-01
        1   -1    0    0  501    0  0.00000000000E+00  0.00000000000E+00  0.58745349721E+03  0.58745349724E+03  0.50400001928E-02 0.  1.
       -1   -1    0    0    0  501  0.00000000000E+00  0.00000000000E+00 -0.61806304716E+03  0.61806304718E+03  0.50400001928E-02 0. -1.
    10030    2    1    2    0    0  0.00000000000E+00  0.00000000000E+00 -0.30609549944E+02  0.12055165444E+04  0.12051278747E+04 0.  0.
        1    1    3    3  502    0  0.34703782800E+02 -0.97013333982E+02  0.57857631288E+03  0.58767889988E+03  0.50400001928E-02 0.  1.
       -1    1    3    3    0  502 -0.34703782800E+02  0.97013333982E+02 -0.60918586283E+03  0.61783764453E+03  0.50400001928E-02 0. -1.
</event>
<event>
 5   0  0.1237296E-04  0.2337867E+04  0.7818609E-02  0.8463139E-01
       -2   -1    0    0    0  501  0.00000000000E+00  0.00000000000E+00  0.67011424174E+03  0.67011424174E+03  0.25500000920E-02 0. -1.
        2   -1    0    0  501    0  0.00000000000E+00  0.00000000000E+00 -0.20390627155E+04  0.20390627155E+04  0.25500000920E-02 0.  1.
    10030    2    1    2    0    0  0.00000000000E+00  0.00000000000E+00 -0.13689484737E+04  0.27091769572E+04  0.23378665192E+04 0.  0.
        1    1    3    3  502    0 -0.20207320839E+03 -0.19514720301E+02  0.64952883093E+03  0.68051606013E+03  0.50400001928E-02 0. -1.
       -1    1    3    3    0  502  0.20207320839E+03  0.19514720301E+02 -0.20184773047E+04  0.20286608971E+04  0.50400001928E-02 0.  1.
</event>
<event>
 5   0  0.1281432E-04  0.2332973E+04  0.7818609E-02  0.8465032E-01
        2   -1    0    0  501    0  0.00000000000E+00  0.00000000000E+00  0.11477663310E+04  0.11477663310E+04  0.25500000920E-02 0.  1.
       -2   -1    0    0    0  501  0.00000000000E+00  0.00000000000E+00 -0.11855124322E+04  0.11855124322E+04  0.25500000920E-02 0. -1.
    10030    2    1    2    0    0  0.00000000000E+00  0.00000000000E+00 -0.37746101195E+02  0.23332787632E+04  0.23329734287E+04 0.  0.
        4    1    3    3  502    0 -0.97955055266E+02  0.92539227721E+03 -0.72234521968E+03  0.11780196471E+04  0.12699999809E+01 0. -1.
       -4    1    3    3    0  502  0.97955055266E+02 -0.92539227721E+03  0.68459911849E+03  0.11552591162E+04  0.12699999809E+01 0.  1.
</event>
<event>
 5   0  0.1234988E-04  0.2230608E+04  0.7818609E-02  0.8505795E-01
        2   -1    0    0  501    0  0.00000000000E+00  0.00000000000E+00  0.10241560600E+04  0.10241560600E+04  0.25500000920E-02 0.  1.
       -2   -1    0    0    0  501  0.00000000000E+00  0.00000000000E+00 -0.12145643503E+04  0.12145643503E+04  0.25500000920E-02 0. -1.
    10030    2    1    2    0    0  0.00000000000E+00  0.00000000000E+00 -0.19040829032E+03  0.22387204104E+04  0.22306083831E+04 0.  0.
        5    1    3    3  502    0 -0.77208405691E+03  0.37972546809E+03 -0.80741583170E+03  0.11799354378E+04  0.46999998093E+01 0. -1.
       -5    1    3    3    0  502  0.77208405691E+03 -0.37972546809E+03  0.61700754138E+03  0.10587849726E+04  0.46999998093E+01 0.  1.
</event>
<event>
 5   0  0.1237296E-04  0.2328407E+04  0.7818609E-02  0.8466804E-01
        2   -1    0    0  501    0  0.00000000000E+00  0.00000000000E+00  0.14901636418E+04  0.14901636418E+04  0.25500000920E-02 0.  1.
       -2   -1    0    0    0  501  0.00000000000E+00  0.00000000000E+00 -0.90954391784E+03  0.90954391784E+03  0.25500000920E-02 0. -1.
    10030    2    1    2    0    0  0.00000000000E+00  0.00000000000E+00  0.58061972394E+03  0.23997075596E+04  0.23284065598E+04 0.  0.
        1    1    3    3  502    0 -0.35289940109E+02  0.28913685299E+03  0.14520016090E+04  0.14809301713E+04  0.50400001928E-02 0.  1.
       -1    1    3    3    0  502  0.35289940109E+02 -0.28913685299E+03 -0.87138188508E+03  0.91877738833E+03  0.50400001928E-02 0. -1.
</event>
<event>
 5   0  0.1234988E-04  0.2038331E+04  0.7818609E-02  0.8588906E-01
       -2   -1    0    0    0  501  0.00000000000E+00  0.00000000000E+00  0.11108930834E+04  0.11108930834E+04  0.25500000920E-02 0. -1.
        2   -1    0    0  501    0  0.00000000000E+00  0.00000000000E+00 -0.93501222688E+03  0.93501222689E+03  0.25500000920E-02 0.  1.
    10030    2    1    2    0    0  0.00000000000E+00  0.00000000000E+00  0.17588085653E+03  0.20459053103E+04  0.20383312937E+04 0.  0.
        5    1    3    3  502    0  0.26530201964E+03 -0.58649782087E+03 -0.70512950289E+03  0.95477461285E+03  0.46999998093E+01 0.  1.
       -5    1    3    3    0  502 -0.26530201964E+03  0.58649782087E+03  0.88101035941E+03  0.10911306974E+04  0.46999998093E+01 0. -1.
</event>
<event>
 5   0  0.1237296E-04  0.2297376E+04  0.7818609E-02  0.8478957E-01
        2   -1    0    0  501    0  0.00000000000E+00  0.00000000000E+00  0.19529339594E+04  0.19529339594E+04  0.25500000920E-02 0.  1.
       -2   -1    0    0    0  501  0.00000000000E+00  0.00000000000E+00 -0.67564174866E+03  0.67564174866E+03  0.25500000920E-02 0. -1.
    10030    2    1    2    0    0  0.00000000000E+00  0.00000000000E+00  0.12772922108E+04  0.26285757081E+04  0.22973756466E+04 0.  0.
        1    1    3    3  502    0 -0.57227374746E+03 -0.62671878237E+03 -0.24703630203E+03  0.88391210465E+03  0.50400001928E-02 0. -1.
       -1    1    3    3    0  502  0.57227374746E+03  0.62671878237E+03  0.15243285128E+04  0.17446636034E+04  0.50400001928E-02 0.  1.
</event>
<event>
 5   0  0.5632156E-05  0.2341656E+04  0.7818609E-02  0.8461675E-01
       -1   -1    0    0    0  501  0.00000000000E+00  0.00000000000E+00  0.10856505943E+04  0.10856505944E+04  0.50400001928E-02 0.  1.
        1   -1    0    0  501    0  0.00000000000E+00  0.00000000000E+00 -0.12626885246E+04  0.12626885246E+04  0.50400001928E-02 0. -1.
    10030    2    1    2    0    0  0.00000000000E+00  0.00000000000E+00 -0.17703793026E+03  0.23483391190E+04  0.23416562918E+04 0.  0.
        4    1    3    3  502    0  0.40272487131E+03  0.50086881505E+03  0.89293640276E+03  0.11001790419E+04  0.12699999809E+01 0.  1.
       -4    1    3    3    0  502 -0.40272487131E+03 -0.50086881505E+03 -0.10699743330E+04  0.12481600771E+04  0.12699999809E+01 0. -1.
</event>
<event>
 5   0  0.5663790E-05  0.2206502E+04  0.7818609E-02  0.8515727E-01
        1   -1    0    0  501    0  0.00000000000E+00  0.00000000000E+00  0.16509212930E+04  0.16509212930E+04  0.50400001928E-02 0.  1.
       -1   -1    0    0    0  501  0.00000000000E+00  0.00000000000E+00 -0.73726269967E+03  0.73726269969E+03  0.50400001928E-02 0. -1.
    10030    2    1    2    0    0  0.00000000000E+00  0.00000000000E+00  0.91365859331E+03  0.23881839927E+04  0.22065019279E+04 0.  0.
        3    1    3    3  502    0  0.29065211354E+03 -0.82000222212E+03  0.11911312866E+04  0.14750173041E+04  0.10100000352E+00 0.  1.
       -3    1    3    3    0  502 -0.29065211354E+03  0.82000222212E+03 -0.27747269327E+03  0.91316668856E+03  0.10100000352E+00 0. -1.
</event>
<event>
 5   0  0.1237296E-04  0.2294019E+04  0.7818609E-02  0.8480283E-01
       -2   -1    0    0    0  501  0.00000000000E+00  0.00000000000E+00  0.68581014002E+03  0.68581014002E+03  0.25500000920E-02 0.  1.
        2   -1    0    0  501    0  0.00000000000E+00  0.00000000000E+00 -0.19183600118E+04  0.19183600118E+04  0.25500000920E-02 0. -1.
    10030    2    1    2    0    0  0.00000000000E+00  0.00000000000E+00 -0.12325498718E+04  0.26041701518E+04  0.22940189610E+04 0.  0.
        1    1    3    3  502    0 -0.20322320804E+03 -0.41587119718E+03 -0.18076304656E+04  0.18659518818E+04  0.50400001928E-02 0. -1.
       -1    1    3    3    0  502  0.20322320804E+03  0.41587119718E+03  0.57508059378E+03  0.73821827009E+03  0.50400001928E-02 0.  1.
</event>
<event>
 5   0  0.5843670E-05  0.2256297E+04  0.7818609E-02  0.8495355E-01
        1   -1    0    0  501    0  0.00000000000E+00  0.00000000000E+00  0.16014805643E+04  0.16014805643E+04  0.50400001928E-02 0. -1.
       -1   -1    0    0    0  501  0.00000000000E+00  0.00000000000E+00 -0.79471417008E+03  0.79471417010E+03  0.50400001928E-02 0.  1.
    10030    2    1    2    0    0  0.00000000000E+00  0.00000000000E+00  0.80676639417E+03  0.23961947344E+04  0.22562972300E+04 0.  0.
        2    1    3    3  502    0  0.98317115576E+03 -0.42213096643E+03  0.23579006121E+02  0.10702224273E+04  0.25500000920E-02 0.  1.
       -2    1    3    3    0  502 -0.98317115576E+03  0.42213096643E+03  0.78318738805E+03  0.13259723071E+04  0.25500000920E-02 0. -1.
</event>
<event>
 5   0  0.1270613E-04  0.2326936E+04  0.7818609E-02  0.8467376E-01
        2   -1    0    0  501    0  0.00000000000E+00  0.00000000000E+00  0.14183189525E+04  0.14183189525E+04  0.25500000920E-02 0.  1.
       -2   -1    0    0    0  501  0.00000000000E+00  0.00000000000E+00 -0.95441026151E+03  0.95441026152E+03  0.25500000920E-02 0. -1.
    10030    2    1    2    0    0  0.00000000000E+00  0.00000000000E+00  0.46390869103E+03  0.23727292141E+04  0.23269363226E+04 0.  0.
        2    1    3    3  502    0 -0.10312163205E+04 -0.77687910441E+02  0.77556464169E+03  0.12926496139E+04  0.25500000920E-02 0.  1.
       -2    1    3    3    0  502  0.10312163205E+04  0.77687910441E+02 -0.31165595066E+03  0.10800796001E+04  0.25500000920E-02 0. -1.
</event>
<event>
 5   0  0.5632156E-05  0.2297572E+04  0.7818609E-02  0.8478879E-01
       -1   -1    0    0    0  501  0.00000000000E+00  0.00000000000E+00  0.13530182611E+04  0.13530182612E+04  0.50400001928E-02 0.  1.
        1   -1    0    0  501    0  0.00000000000E+00  0.00000000000E+00 -0.97538206901E+03  0.97538206903E+03  0.50400001928E-02 0. -1.
    10030    2    1    2    0    0  0.00000000000E+00  0.00000000000E+00  0.37763619213E+03  0.23284003302E+04  0.22975724154E+04 0.  0.
        4    1    3    3  502    0 -0.11346003829E+04 -0.17724692273E+03  0.15719625614E+03  0.11590715147E+04  0.12699999809E+01 0.  1.
       -4    1    3    3    0  502  0.11346003829E+04  0.17724692273E+03  0.22043993599E+03  0.11693288155E+04  0.12699999809E+01 0. -1.
</event>
<event>
 5   0  0.1234988E-04  0.2294426E+04  0.7818609E-02  0.8480122E-01
        2   -1    0    0  501    0  0.00000000000E+00  0.00000000000E+00  0.18615715174E+04  0.18615715174E+04  0.25500000920E-02 0. -1.
       -2   -1    0    0    0  501  0.00000000000E+00  0.00000000000E+00 -0.70698176562E+03  0.70698176562E+03  0.25500000920E-02 0.  1.
    10030    2    1    2    0    0  0.00000000000E+00  0.00000000000E+00  0.11545897518E+04  0.25685532830E+04  0.22944255213E+04 0.  0.
        5    1    3    3  502    0 -0.10337407250E+04  0.75188658743E+02  0.26811274828E+02  0.10368288940E+04  0.46999998093E+01 0.  1.
       -5    1    3    3    0  502  0.10337407250E+04 -0.75188658743E+02  0.11277784770E+04  0.15317243891E+04  0.46999998093E+01 0. -1.
</event>
<event>
 5   0  0.5632156E-05  0.1782499E+04  0.7818609E-02  0.8715662E-01
       -1   -1    0    0    0  501  0.00000000000E+00  0.00000000000E+00  0.69361492607E+03  0.69361492609E+03  0.50400001928E-02 0.  1.
        1   -1    0    0  501    0  0.00000000000E+00  0.00000000000E+00 -0.11451963557E+04  0.11451963557E+04  0.50400001928E-02 0. -1.
    10030    2    1    2    0    0  0.00000000000E+00  0.00000000000E+00 -0.45158142962E+03  0.18388112818E+04  0.17824985673E+04 0.  0.
        4    1    3    3  502    0 -0.23057633591E+02 -0.39914037837E+02 -0.11439649129E+04  0.11448939339E+04  0.12699999809E+01 0. -1.
       -4    1    3    3    0  502  0.23057633591E+02  0.39914037837E+02  0.69238348332E+03  0.69391734793E+03  0.12699999809E+01 0.  1.
</event>
<event>
 5   0  0.1237296E-04  0.1854139E+04  0.7818609E-02  0.8678027E-01
        2   -1    0    0  501    0  0.00000000000E+00  0.00000000000E+00  0.14856340624E+04  0.14856340624E+04  0.25500000920E-02 0.  1.
       -2   -1    0    0    0  501  0.00000000000E+00  0.00000000000E+00 -0.57851276112E+03  0.57851276112E+03  0.25500000920E-02 0. -1.
    10030    2    1    2    0    0  0.00000000000E+00  0.00000000000E+00  0.90712130126E+03  0.20641468235E+04  0.18541394375E+04 0.  0.
        1    1    3    3  502    0 -0.28536883837E+03  0.88063255954E+03  0.50932600915E+03  0.10565803625E+04  0.50400001928E-02 0. -1.
       -1    1    3    3    0  502  0.28536883837E+03 -0.88063255954E+03  0.39779529211E+03  0.10075664610E+04  0.50400001928E-02 0.  1.
</event>
<event>
 5   0  0.5843670E-05  0.2303947E+04  0.7818609E-02  0.8476366E-01
        1   -1    0    0  501    0  0.00000000000E+00  0.00000000000E+00  0.80425189084E+03  0.80425189085E+03  0.50400001928E-02 0.  1.
       -1   -1    0    0    0  501  0.00000000000E+00  0.00000000000E+00 -0.16500341047E+04  0.16500341047E+04  0.50400001928E-02 0. -1.
    10030    2    1    2    0    0  0.00000000000E+00  0.00000000000E+00 -0.84578221386E+03  0.24542859956E+04  0.23039470903E+04 0.  0.
        2    1    3    3  502    0 -0.46527681711E+03  0.79732382256E+03 -0.11569385762E+04  0.14801063015E+04  0.25500000920E-02 0. -1.
       -2    1    3    3    0  502  0.46527681711E+03 -0.79732382256E+03  0.31115636232E+03  0.97417969409E+03  0.25500000920E-02 0.  1.
</event>
<event>
 5   0  0.5843670E-05  0.2345306E+04  0.7818609E-02  0.8460269E-01
        1   -1    0    0  501    0  0.00000000000E+00  0.00000000000E+00  0.20670852252E+04  0.20670852252E+04  0.50400001928E-02 0. -1.
       -1   -1    0    0    0  501  0.00000000000E+00  0.00000000000E+00 -0.66524363011E+03  0.66524363013E+03  0.50400001928E-02 0.  1.
    10030    2    1    2    0    0  0.00000000000E+00  0.00000000000E+00  0.14018415951E+04  0.27323288554E+04  0.23453061881E+04 0.  0.
        2    1    3    3  502    0  0.96977756037E+02  0.85632686114E+03 -0.22555582669E+03  0.89082872048E+03  0.25500000920E-02 0.  1.
       -2    1    3    3    0  502 -0.96977756037E+02 -0.85632686114E+03  0.16273974218E+04  0.18415001349E+04  0.25500000920E-02 0. -1.
</event>
<event>
 5   0  0.5663790E-05  0.2356317E+04  0.7818609E-02  0.8456041E-01
        1   -1    0    0  501    0  0.00000000000E+00  0.00000000000E+00  0.22467471119E+04  0.22467471119E+04  0.50400001928E-02 0.  1.
       -1   -1    0    0    0  501  0.00000000000E+00  0.00000000000E+00 -0.61780739736E+03  0.61780739738E+03  0.50400001928E-02 0. -1.
    10030    2    1    2    0    0  0.00000000000E+00  0.00000000000E+00  0.16289397145E+04  0.28645545093E+04  0.23563166050E+04 0.  0.
        3    1    3    3  502    0  0.70464835425E+02 -0.54162772983E+03 -0.45459295130E+03  0.71061990708E+03  0.10100000352E+00 0. -1.
       -3    1    3    3    0  502 -0.70464835425E+02  0.54162772983E+03  0.20835326658E+04  0.21539346022E+04  0.10100000352E+00 0.  1.
</event>
<event>
 5   0  0.5924654E-05  0.2473878E+04  0.7818609E-02  0.8412351E-01
        1   -1    0    0  501    0  0.00000000000E+00  0.00000000000E+00  0.13889446700E+04  0.13889446700E+04  0.50400001928E-02 0.  1.
       -1   -1    0    0    0  501  0.00000000000E+00  0.00000000000E+00 -0.11015683388E+04  0.11015683388E+04  0.50400001928E-02 0. -1.
    10030    2    1    2    0    0  0.00000000000E+00  0.00000000000E+00  0.28737633119E+03  0.24905130088E+04  0.24738775013E+04 0.  0.
        5    1    3    3  502    0 -0.74348282091E+03  0.92285976938E+03  0.50041331153E+03  0.12864184511E+04  0.46999998093E+01 0.  1.
       -5    1    3    3    0  502  0.74348282091E+03 -0.92285976938E+03 -0.21303698034E+03  0.12040945577E+04  0.46999998093E+01 0. -1.
</event>
<event>
 5   0  0.5632156E-05  0.2270901E+04  0.7818609E-02  0.8489484E-01
       -1   -1    0    0    0  501  0.00000000000E+00  0.00000000000E+00  0.82778141010E+03  0.82778141011E+03  0.50400001928E-02 0. -1.
        1   -1    0    0  501    0  0.00000000000E+00  0.00000000000E+00 -0.15574732021E+04  0.15574732021E+04  0.50400001928E-02 0.  1.
    10030    2    1    2    0    0  0.00000000000E+00  0.00000000000E+00 -0.72969179200E+03  0.23852546122E+04  0.22709005821E+04 0.  0.
        4    1    3    3  502    0  0.73972141663E+03 -0.47664768466E+03  0.38882768371E+03  0.96206515893E+03  0.12699999809E+01 0. -1.
       -4    1    3    3    0  502 -0.73972141663E+03  0.47664768466E+03 -0.11185194757E+04  0.14231894533E+04  0.12699999809E+01 0.  1.
</event>
<event>
 5   0  0.1281432E-04  0.2198072E+04  0.7818609E-02  0.8519231E-01
        2   -1    0    0  501    0  0.00000000000E+00  0.00000000000E+00  0.13579467396E+04  0.13579467396E+04  0.25500000920E-02 0. -1.
       -2   -1    0    0    0  501  0.00000000000E+00  0.00000000000E+00 -0.88949003212E+03  0.88949003212E+03  0.25500000920E-02 0.  1.
    10030    2    1    2    0    0  0.00000000000E+00  0.00000000000E+00  0.46845670747E+03  0.22474367717E+04  0.21980719634E+04 0.  0.
        4    1    3    3  502    0  0.85175696856E+03  0.20180272771E+03  0.91373181830E+03  0.12653543864E+04  0.12699999809E+01 0. -1.
       -4    1    3    3    0  502 -0.85175696856E+03 -0.20180272771E+03 -0.44527511083E+03  0.98208238536E+03  0.12699999809E+01 0.  1.
</event>
<event>
 5   0  0.1237296E-04  0.2251072E+04  0.7818609E-02  0.8497466E-01
        2   -1    0    0  501    0  0.00000000000E+00  0.00000000000E+00  0.14646960585E+04  0.14646960585E+04  0.25500000920E-02 0.  1.
       -2   -1    0    0    0  501  0.00000000000E+00  0.00000000000E+00 -0.86491080187E+03  0.86491080187E+03  0.25500000920E-02 0. -1.
    10030    2    1    2    0    0  0.00000000000E+00  0.00000000000E+00  0.59978525660E+03  0.23296068603E+04  0.22510721378E+04 0.  0.
        1    1    3    3  502    0 -0.69300096597E+03 -0.87704341623E+03  0.16347594122E+03  0.11296813162E+04  0.50400001928E-02 0.  1.
       -1    1    3    3    0  502  0.69300096597E+03  0.87704341623E+03  0.43630931538E+03  0.11999255441E+04  0.50400001928E-02 0. -1.
</event>
<event>
 5   0  0.1234988E-04  0.1836972E+04  0.7818609E-02  0.8686882E-01
        2   -1    0    0  501    0  0.00000000000E+00  0.00000000000E+00  0.12865660582E+04  0.12865660582E+04  0.25500000920E-02 0. -1.
       -2   -1    0    0    0  501  0.00000000000E+00  0.00000000000E+00 -0.65571183249E+03  0.65571183249E+03  0.25500000920E-02 0.  1.
    10030    2    1    2    0    0  0.00000000000E+00  0.00000000000E+00  0.63085422571E+03  0.19422778907E+04  0.18369720604E+04 0.  0.
        5    1    3    3  502    0  0.53047533007E+03 -0.19234808505E+03  0.10816729527E+04  0.12200165279E+04  0.46999998093E+01 0. -1.
       -5    1    3    3    0  502 -0.53047533007E+03  0.19234808505E+03 -0.45081872699E+03  0.72226136284E+03  0.46999998093E+01 0.  1.
</event>
<event>
 5   0  0.1270613E-04  0.2309476E+04  0.7818609E-02  0.8474194E-01
       -2   -1    0    0    0  501  0.00000000000E+00  0.00000000000E+00  0.14850446602E+04  0.14850446602E+04  0.25500000920E-02 0. -1.
        2   -1    0    0  501    0  0.00000000000E+00  0.00000000000E+00 -0.89789853303E+03  0.89789853303E+03  0.25500000920E-02 0.  1.
    10030    2    1    2    0    0  0.00000000000E+00  0.00000000000E+00  0.58714612716E+03  0.23829431932E+04  0.23094756304E+04 0.  0.
        2    1    3    3  502    0  0.23210946094E+03  0.88996078534E+03  0.10140067950E+04  0.13689831195E+04  0.25500000920E-02 0. -1.
       -2    1    3    3    0  502 -0.23210946094E+03 -0.88996078534E+03 -0.42686066781E+03  0.10139600737E+04  0.25500000920E-02 0.  1.
</event>
<event>
 5   0  0.5843670E-05  0.2242031E+04  0.7818609E-02  0.8501135E-01
        1   -1    0    0  501    0  0.00000000000E+00  0.00000000000E+00  0.12451618676E+04  0.12451618676E+04  0.50400001928E-02 0. -1.
       -1   -1    0    0    0  501  0.00000000000E+00  0.00000000000E+00 -0.10092468224E+04  0.10092468224E+04  0.50400001928E-02 0.  1.
    10030    2    1    2    0    0  0.00000000000E+00  0.00000000000E+00  0.23591504516E+03  0.22544086900E+04  0.22420309170E+04 0.  0.
        2    1    3    3  502    0  0.68407510050E+03 -0.16841107471E+03 -0.75883966623E+03  0.10354509512E+04  0.25500000920E-02 0.  1.
       -2    1    3    3    0  502 -0.68407510050E+03  0.16841107471E+03  0.99475471139E+03  0.12189577388E+04  0.25500000920E-02 0. -1.
</event>
<event>
 5   0  0.5642466E-05  0.2323091E+04  0.7818609E-02  0.8468872E-01
       -1   -1    0    0    0  501  0.00000000000E+00  0.00000000000E+00  0.13243325387E+04  0.13243325387E+04  0.50400001928E-02 0.  1.
        1   -1    0    0  501    0  0.00000000000E+00  0.00000000000E+00 -0.10187679766E+04  0.10187679766E+04  0.50400001928E-02 0. -1.
    10030    2    1    2    0    0  0.00000000000E+00  0.00000000000E+00  0.30556456209E+03  0.23431005154E+04  0.23230906835E+04 0.  0.
        1    1    3    3  502    0 -0.25945428489E+03 -0.10801278020E+04  0.49510958906E+03  0.12161932823E+04  0.50400001928E-02 0. -1.
       -1    1    3    3    0  502  0.25945428489E+03  0.10801278020E+04 -0.18954502697E+03  0.11269072331E+04  0.50400001928E-02 0.  1.
</event>
<event>
 5   0  0.1234988E-04  0.2136516E+04  0.7818609E-02  0.8545326E-01
        2   -1    0    0  501    0  0.00000000000E+00  0.00000000000E+00  0.14558181440E+04  0.14558181440E+04  0.25500000920E-02 0.  1.
       -2   -1    0    0    0  501  0.00000000000E+00  0.00000000000E+00 -0.78387178029E+03  0.78387178030E+03  0.25500000920E-02 0. -1.
    10030    2    1    2    0    0  0.00000000000E+00  0.00000000000E+00  0.67194636366E+03  0.22396899243E+04  0.21365156309E+04 0.  0.
        5    1    3    3  502    0 -0.28653381770E+03  0.52992068161E+03  0.12607506346E+04  0.13972944608E+04  0.46999998093E+01 0.  1.
       -5    1    3    3    0  502  0.28653381770E+03 -0.52992068161E+03 -0.58880427091E+03  0.84239546350E+03  0.46999998093E+01 0. -1.
</event>
<event>
 5   0  0.1237296E-04  0.2324098E+04  0.7818609E-02  0.8468480E-01
       -2   -1    0    0    0  501  0.00000000000E+00  0.00000000000E+00  0.15113094387E+04  0.15113094387E+04  0.25500000920E-02 0. -1.
        2   -1    0    0  501    0  0.00000000000E+00  0.00000000000E+00 -0.89350154320E+03  0.89350154320E+03  0.25500000920E-02 0.  1.
    10030    2    1    2    0    0  0.00000000000E+00  0.00000000000E+00  0.61780789550E+03  0.24048109819E+04  0.23240975158E+04 0.  0.
        1    1    3    3  502    0  0.51790534646E+03 -0.49169355901E+03  0.12574568631E+04  0.14460934501E+04  0.50400001928E-02 0. -1.
       -1    1    3    3    0  502 -0.51790534646E+03  0.49169355901E+03 -0.63964896764E+03  0.95871753175E+03  0.50400001928E-02 0.  1.
</event>
<event>
 5   0  0.5924654E-05  0.2317273E+04  0.7818609E-02  0.8471142E-01
       -1   -1    0    0    0  501  0.00000000000E+00  0.00000000000E+00  0.16781221761E+04  0.16781221761E+04  0.50400001928E-02 0. -1.
        1   -1    0    0  501    0  0.00000000000E+00  0.00000000000E+00 -0.79996469860E+03  0.79996469861E+03  0.50400001928E-02 0.  1.
    10030    2    1    2    0    0  0.00000000000E+00  0.00000000000E+00  0.87815747748E+03  0.24780868747E+04  0.23172729669E+04 0.  0.
        5    1    3    3  502    0 -0.56677366592E+03 -0.77282657602E+03  0.11353570645E+04  0.14857829784E+04  0.46999998093E+01 0. -1.
       -5    1    3    3    0  502  0.56677366592E+03  0.77282657602E+03 -0.25719958706E+03  0.99230389627E+03  0.46999998093E+01 0.  1.
</event>
<event>
 5   0  0.5663790E-05  0.2348477E+04  0.7818609E-02  0.8459049E-01
        1   -1    0    0  501    0  0.00000000000E+00  0.00000000000E+00  0.11544374536E+04  0.11544374536E+04  0.50400001928E-02 0.  1.
       -1   -1    0    0    0  501  0.00000000000E+00  0.00000000000E+00 -0.11943786688E+04  0.11943786688E+04  0.50400001928E-02 0. -1.
    10030    2    1    2    0    0  0.00000000000E+00  0.00000000000E+00 -0.39941215173E+02  0.23488161225E+04  0.23484765012E+04 0.  0.
        3    1    3    3  502    0 -0.61109783081E+03  0.94476177696E+03 -0.35590619346E+03  0.11801205882E+04  0.10100000352E+00 0. -1.
       -3    1    3    3    0  502  0.61109783081E+03 -0.94476177696E+03  0.31596497829E+03  0.11686955342E+04  0.10100000352E+00 0.  1.
</event>
<event>
 5   0  0.1234988E-04  0.1868812E+04  0.7818609E-02  0.8670538E-01
        2   -1    0    0  501    0  0.00000000000E+00  0.00000000000E+00  0.21362511153E+04  0.21362511153E+04  0.25500000920E-02 0. -1.
       -2   -1    0    0    0  501  0.00000000000E+00  0.00000000000E+00 -0.40871360958E+03  0.40871360959E+03  0.25500000920E-02 0.  1.
    10030    2    1    2    0    0  0.00000000000E+00  0.00000000000E+00  0.17275375057E+04  0.25449647249E+04  0.18688123547E+04 0.  0.
        5    1    3    3  502    0 -0.69528469128E+03 -0.38100546604E+03  0.19038662856E+03  0.81538648837E+03  0.46999998093E+01 0.  1.
       -5    1    3    3    0  502  0.69528469128E+03  0.38100546604E+03  0.15371508772E+04  0.17295782365E+04  0.46999998093E+01 0. -1.
</event>
<event>
 5   0  0.5663790E-05  0.2286290E+04  0.7818609E-02  0.8483346E-01
        1   -1    0    0  501    0  0.00000000000E+00  0.00000000000E+00  0.12392489737E+04  0.12392489737E+04  0.50400001928E-02 0. -1.
       -1   -1    0    0    0  501  0.00000000000E+00  0.00000000000E+00 -0.10544943152E+04  0.10544943152E+04  0.50400001928E-02 0.  1.
    10030    2    1    2    0    0  0.00000000000E+00  0.00000000000E+00  0.18475465854E+03  0.22937432889E+04  0.22862904434E+04 0.  0.
        3    1    3    3  502    0  0.17654252796E+03 -0.10890242763E+04 -0.20799779820E+03  0.11226772612E+04  0.10100000352E+00 0.  1.
       -3    1    3    3    0  502 -0.17654252796E+03  0.10890242763E+04  0.39275245675E+03  0.11710660276E+04  0.10100000352E+00 0. -1.
</event>
<event>
 5   0  0.1257524E-04  0.2331558E+04  0.7818609E-02  0.8465581E-01
       -2   -1    0    0    0  501  0.00000000000E+00  0.00000000000E+00  0.87224819749E+03  0.87224819749E+03  0.25500000920E-02 0.  1.
        2   -1    0    0  501    0  0.00000000000E+00  0.00000000000E+00 -0.15580889726E+04  0.15580889726E+04  0.25500000920E-02 0. -1.
    10030    2    1    2    0    0  0.00000000000E+00  0.00000000000E+00 -0.68584077514E+03  0.24303371701E+04  0.23315576750E+04 0.  0.
        3    1    3    3  502    0 -0.57987838125E+03  0.99590585894E+03 -0.52630835356E+03  0.12669206408E+04  0.10100000352E+00 0. -1.
       -3    1    3    3    0  502  0.57987838125E+03 -0.99590585894E+03 -0.15953242158E+03  0.11634165293E+04  0.10100000352E+00 0.  1.
</event>
<event>
 5   0  0.5843670E-05  0.2328581E+04  0.7818609E-02  0.8466737E-01
        1   -1    0    0  501    0  0.00000000000E+00  0.00000000000E+00  0.92741706282E+03  0.92741706284E+03  0.50400001928E-02 0. -1.
       -1   -1    0    0    0  501  0.00000000000E+00  0.00000000000E+00 -0.14616642611E+04  0.14616642611E+04  0.50400001928E-02 0.  1.
    10030    2    1    2    0    0  0.00000000000E+00  0.00000000000E+00 -0.53424719825E+03  0.23890813239E+04  0.23285810064E+04 0.  0.
        2    1    3    3  502    0  0.27701592485E+03 -0.11147917264E+04 -0.46198978852E+03  0.12381167071E+04  0.25500000920E-02 0.  1.
       -2    1    3    3    0  502 -0.27701592485E+03  0.11147917264E+04 -0.72257409730E+02  0.11509646168E+04  0.25500000920E-02 0. -1.
</event>
<event>
 5   0  0.1237296E-04  0.2131375E+04  0.7818609E-02  0.8547547E-01
        2   -1    0    0  501    0  0.00000000000E+00  0.00000000000E+00  0.94003858892E+03  0.94003858892E+03  0.25500000920E-02 0. -1.
       -2   -1    0    0    0  501  0.00000000000E+00  0.00000000000E+00 -0.12081309649E+04  0.12081309649E+04  0.25500000920E-02 0.  1.
    10030    2    1    2    0    0  0.00000000000E+00  0.00000000000E+00 -0.26809237594E+03  0.21481695538E+04  0.21313748872E+04 0.  0.
        1    1    3    3  502    0  0.51927331844E+03  0.28370095258E+03 -0.10273476378E+04  0.11855691370E+04  0.50400001928E-02 0.  1.
       -1    1    3    3    0  502 -0.51927331844E+03 -0.28370095258E+03  0.75925526184E+03  0.96260041678E+03  0.50400001928E-02 0. -1.
</event>
<event>
 5   0  0.5843670E-05  0.2303883E+04  0.7818609E-02  0.8476392E-01
       -1   -1    0    0    0  501  0.00000000000E+00  0.00000000000E+00  0.10454124233E+04  0.10454124233E+04  0.50400001928E-02 0. -1.
        1   -1    0    0  501    0  0.00000000000E+00  0.00000000000E+00 -0.12693258636E+04  0.12693258636E+04  0.50400001928E-02 0.  1.
    10030    2    1    2    0    0  0.00000000000E+00  0.00000000000E+00 -0.22391344035E+03  0.23147382869E+04  0.23038828330E+04 0.  0.
        2    1    3    3  502    0 -0.27358528261E+03  0.17477709666E+03  0.99849897145E+03  0.10499505400E+04  0.25500000920E-02 0. -1.
       -2    1    3    3    0  502  0.27358528261E+03 -0.17477709666E+03 -0.12224124118E+04  0.12647877470E+04  0.25500000920E-02 0.  1.
</event>
<event>
 5   0  0.1281432E-04  0.2506772E+04  0.7818609E-02  0.8400577E-01
       -2   -1    0    0    0  501  0.00000000000E+00  0.00000000000E+00  0.96924387819E+03  0.96924387819E+03  0.25500000920E-02 0. -1.
        2   -1    0    0  501    0  0.00000000000E+00  0.00000000000E+00 -0.16208274399E+04  0.16208274399E+04  0.25500000920E-02 0.  1.
    10030    2    1    2    0    0  0.00000000000E+00  0.00000000000E+00 -0.65158356174E+03  0.25900713181E+04  0.25067724857E+04 0.  0.
        4    1    3    3  502    0 -0.45483845259E+03  0.75231174109E+03  0.59727287287E+03  0.10628205264E+04  0.12699999809E+01 0. -1.
       -4    1    3    3    0  502  0.45483845259E+03 -0.75231174109E+03 -0.12488564346E+04  0.15272507918E+04  0.12699999809E+01 0.  1.
</event>
<event>
 5   0  0.5632156E-05  0.2174792E+04  0.7818609E-02  0.8528994E-01
        1   -1    0    0  501    0  0.00000000000E+00  0.00000000000E+00  0.14603648725E+04  0.14603648725E+04  0.50400001928E-02 0. -1.
       -1   -1    0    0    0  501  0.00000000000E+00  0.00000000000E+00 -0.80968123446E+03  0.80968123447E+03  0.50400001928E-02 0.  1.
    10030    2    1    2    0    0  0.00000000000E+00  0.00000000000E+00  0.65068363799E+03  0.22700461069E+04  0.21747919742E+04 0.  0.
        4    1    3    3  502    0  0.38098843594E+03  0.57604500656E+03 -0.55135529613E+03  0.88372751082E+03  0.12699999809E+01 0.  1.
       -4    1    3    3    0  502 -0.38098843594E+03 -0.57604500656E+03  0.12020389341E+04  0.13863185961E+04  0.12699999809E+01 0. -1.
</event>
<event>
 5   0  0.4489500E-05  0.1541239E+04  0.7818609E-02  0.8857483E-01
        4   -1    0    0  501    0  0.00000000000E+00  0.00000000000E+00  0.92069573956E+03  0.92069661547E+03  0.12699999809E+01 0.  1.
       -4   -1    0    0    0  501  0.00000000000E+00  0.00000000000E+00 -0.64500465976E+03  0.64500591006E+03  0.12699999809E+01 0. -1.
    10030    2    1    2    0    0  0.00000000000E+00  0.00000000000E+00  0.27569107980E+03  0.15657025255E+04  0.15412393802E+04 0.  0.
        2    1    3    3  502    0 -0.23249767975E+03  0.62939114105E+03 -0.24720403621E+03  0.71505119750E+03  0.25500000920E-02 0. -1.
       -2    1    3    3    0  502  0.23249767975E+03 -0.62939114105E+03  0.52289511601E+03  0.85065132803E+03  0.25500000920E-02 0.  1.
</event>
<event>
 5   0  0.5663790E-05  0.2307231E+04  0.7818609E-02  0.8475075E-01
       -1   -1    0    0    0  501  0.00000000000E+00  0.00000000000E+00  0.97969074665E+03  0.97969074666E+03  0.50400001928E-02 0. -1.
        1   -1    0    0  501    0  0.00000000000E+00  0.00000000000E+00 -0.13584175317E+04  0.13584175317E+04  0.50400001928E-02 0.  1.
    10030    2    1    2    0    0  0.00000000000E+00  0.00000000000E+00 -0.37872678507E+03  0.23381082784E+04  0.23072313156E+04 0.  0.
        3    1    3    3  502    0  0.20643489124E+03 -0.63938300815E+03  0.76095136420E+03  0.10151221524E+04  0.10100000352E+00 0. -1.
       -3    1    3    3    0  502 -0.20643489124E+03  0.63938300815E+03 -0.11396781493E+04  0.13229861260E+04  0.10100000352E+00 0.  1.
</event>
<event>
 5   0  0.5843670E-05  0.2296012E+04  0.7818609E-02  0.8479495E-01
        1   -1    0    0  501    0  0.00000000000E+00  0.00000000000E+00  0.10272690715E+04  0.10272690715E+04  0.50400001928E-02 0.  1.
       -1   -1    0    0    0  501  0.00000000000E+00  0.00000000000E+00 -0.12829328569E+04  0.12829328569E+04  0.50400001928E-02 0. -1.
    10030    2    1    2    0    0  0.00000000000E+00  0.00000000000E+00 -0.25566378542E+03  0.23102019284E+04  0.22960115372E+04 0.  0.
        2    1    3    3  502    0 -0.67600272711E+03  0.90487715258E+03  0.78704620691E+02  0.11322441281E+04  0.25500000920E-02 0.  1.
       -2    1    3    3    0  502  0.67600272711E+03 -0.90487715258E+03 -0.33436840612E+03  0.11779578003E+04  0.25500000920E-02 0. -1.
</event>
<event>
 5   0  0.5663790E-05  0.2274091E+04  0.7818609E-02  0.8488207E-01
        1   -1    0    0  501    0  0.00000000000E+00  0.00000000000E+00  0.12184750471E+04  0.12184750471E+04  0.50400001928E-02 0.  1.
       -1   -1    0    0    0  501  0.00000000000E+00  0.00000000000E+00 -0.10610574672E+04  0.10610574673E+04  0.50400001928E-02 0. -1.
    10030    2    1    2    0    0  0.00000000000E+00  0.00000000000E+00  0.15741757988E+03  0.22795325144E+04  0.22740906292E+04 0.  0.
        3    1    3    3  502    0  0.10403931622E+03 -0.79824370539E+03 -0.72624139793E+03  0.10841788463E+04  0.10100000352E+00 0. -1.
       -3    1    3    3    0  502 -0.10403931622E+03  0.79824370539E+03  0.88365897782E+03  0.11953536681E+04  0.10100000352E+00 0.  1.
</event>
<event>
 5   0  0.5924654E-05  0.2291004E+04  0.7818609E-02  0.8481477E-01
       -1   -1    0    0    0  501  0.00000000000E+00  0.00000000000E+00  0.78220936692E+03  0.78220936694E+03  0.50400001928E-02 0.  1.
        1   -1    0    0  501    0  0.00000000000E+00  0.00000000000E+00 -0.16775236728E+04  0.16775236728E+04  0.50400001928E-02 0. -1.
    10030    2    1    2    0    0  0.00000000000E+00  0.00000000000E+00 -0.89531430588E+03  0.24597330397E+04  0.22910039111E+04 0.  0.
        5    1    3    3  502    0  0.71362527066E+03 -0.35012947876E+03  0.43789202953E+03  0.90753688539E+03  0.46999998093E+01 0.  1.
       -5    1    3    3    0  502 -0.71362527066E+03  0.35012947876E+03 -0.13332063354E+04  0.15521961544E+04  0.46999998093E+01 0. -1.
</event>
<event>
 5   0  0.5924654E-05  0.2274951E+04  0.7818609E-02  0.8487864E-01
        1   -1    0    0  501    0  0.00000000000E+00  0.00000000000E+00  0.10298316661E+04  0.10298316662E+04  0.50400001928E-02 0.  1.
       -1   -1    0    0    0  501  0.00000000000E+00  0.00000000000E+00 -0.12563705026E+04  0.12563705026E+04  0.50400001928E-02 0. -1.
    10030    2    1    2    0    0  0.00000000000E+00  0.00000000000E+00 -0.22653883644E+03  0.22862021688E+04  0.22749506614E+04 0.  0.
        5    1    3    3  502    0  0.66864841000E+03 -0.41900830785E+03 -0.93657055974E+03  0.12246816573E+04  0.46999998093E+01 0. -1.
       -5    1    3    3    0  502 -0.66864841000E+03  0.41900830785E+03  0.71003172329E+03  0.10615205115E+04  0.46999998093E+01 0.  1.
</event>
<event>
 5   0  0.5924654E-05  0.2320786E+04  0.7818609E-02  0.8469770E-01
       -1   -1    0    0    0  501  0.00000000000E+00  0.00000000000E+00  0.11243012997E+04  0.11243012998E+04  0.50400001928E-02 0.  1.
        1   -1    0    0  501    0  0.00000000000E+00  0.00000000000E+00 -0.11976429276E+04  0.11976429277E+04  0.50400001928E-02 0. -1.
    10030    2    1    2    0    0  0.00000000000E+00  0.00000000000E+00 -0.73341627894E+02  0.23219442274E+04  0.23207856430E+04 0.  0.
        5    1    3    3  502    0  0.51517843326E+03 -0.25553026270E+03 -0.10450354960E+04  0.11928226235E+04  0.46999998093E+01 0. -1.
       -5    1    3    3    0  502 -0.51517843326E+03  0.25553026270E+03  0.97169386807E+03  0.11291216039E+04  0.46999998093E+01 0.  1.
</event>
<event>
 5   0  0.1281432E-04  0.1135187E+04  0.7818609E-02  0.9171559E-01
        2   -1    0    0  501    0  0.00000000000E+00  0.00000000000E+00  0.13355865131E+04  0.13355865131E+04  0.25500000920E-02 0. -1.
       -2   -1    0    0    0  501  0.00000000000E+00  0.00000000000E+00 -0.24121432476E+03  0.24121432477E+03  0.25500000920E-02 0.  1.
    10030    2    1    2    0    0  0.00000000000E+00  0.00000000000E+00  0.10943721884E+04  0.15768008379E+04  0.11351873835E+04 0.  0.
        4    1    3    3  502    0  0.16627268317E+03 -0.95336189510E+02  0.12892744025E+04  0.13034437817E+04  0.12699999809E+01 0. -1.
       -4    1    3    3    0  502 -0.16627268317E+03  0.95336189510E+02 -0.19490221414E+03  0.27335705620E+03  0.12699999809E+01 0.  1.
</event>
<event>
 5   0  0.5632156E-05  0.2253995E+04  0.7818609E-02  0.8496284E-01
       -1   -1    0    0    0  501  0.00000000000E+00  0.00000000000E+00  0.18239464035E+04  0.18239464035E+04  0.50400001928E-02 0. -1.
        1   -1    0    0  501    0  0.00000000000E+00  0.00000000000E+00 -0.69636000514E+03  0.69636000516E+03  0.50400001928E-02 0.  1.
    10030    2    1    2    0    0  0.00000000000E+00  0.00000000000E+00  0.11275863984E+04  0.25203064087E+04  0.22539949662E+04 0.  0.
        4    1    3    3  502    0  0.83940032087E+02 -0.58887365979E+03 -0.50654271454E+03  0.78128435972E+03  0.12699999809E+01 0.  1.
       -4    1    3    3    0  502 -0.83940032087E+02  0.58887365979E+03  0.16341291129E+04  0.17390220490E+04  0.12699999809E+01 0. -1.
</event>
<event>
 5   0  0.1257524E-04  0.2341476E+04  0.7818609E-02  0.8461745E-01
       -2   -1    0    0    0  501  0.00000000000E+00  0.00000000000E+00  0.83081719894E+03  0.83081719895E+03  0.25500000920E-02 0.  1.
        2   -1    0    0  501    0  0.00000000000E+00  0.00000000000E+00 -0.16497341678E+04  0.16497341678E+04  0.25500000920E-02 0. -1.
    10030    2    1    2    0    0  0.00000000000E+00  0.00000000000E+00 -0.81891696886E+03  0.24805513667E+04  0.23414760475E+04 0.  0.
        3    1    3    3  502    0 -0.37129702459E+03  0.63183025121E+03  0.55776324110E+03  0.92096188311E+03  0.10100000352E+00 0.  1.
       -3    1    3    3    0  502  0.37129702459E+03 -0.63183025121E+03 -0.13766802100E+04  0.15595894836E+04  0.10100000352E+00 0. -1.
</event>
<event>
 5   0  0.1237296E-04  0.2324022E+04  0.7818609E-02  0.8468509E-01
       -2   -1    0    0    0  501  0.00000000000E+00  0.00000000000E+00  0.60809840263E+03  0.60809840263E+03  0.25500000920E-02 0. -1.
        2   -1    0    0  501    0  0.00000000000E+00  0.00000000000E+00 -0.22204790848E+04  0.22204790848E+04  0.25500000920E-02 0.  1.
    10030    2    1    2    0    0  0.00000000000E+00  0.00000000000E+00 -0.16123806822E+04  0.28285774874E+04  0.23240221897E+04 0.  0.
        1    1    3    3  502    0  0.32027544740E+02 -0.85566659469E+02  0.60372003313E+03  0.61059421490E+03  0.50400001928E-02 0. -1.
       -1    1    3    3    0  502 -0.32027544740E+02  0.85566659469E+02 -0.22161007153E+04  0.22179832725E+04  0.50400001928E-02 0.  1.
</event>
<event>
 5   0  0.5632156E-05  0.2273523E+04  0.7818609E-02  0.8488434E-01
       -1   -1    0    0    0  501  0.00000000000E+00  0.00000000000E+00  0.13148067157E+04  0.13148067157E+04  0.50400001928E-02 0. -1.
        1   -1    0    0  501    0  0.00000000000E+00  0.00000000000E+00 -0.98282663522E+03  0.98282663523E+03  0.50400001928E-02 0.  1.
    10030    2    1    2    0    0  0.00000000000E+00  0.00000000000E+00  0.33198008050E+03  0.22976333510E+04  0.22735233101E+04 0.  0.
        4    1    3    3  502    0 -0.85278889873E+03  0.34677639171E+03  0.83993736281E+03  0.12461938685E+04  0.12699999809E+01 0. -1.
       -4    1    3    3    0  502  0.85278889873E+03 -0.34677639171E+03 -0.50795728231E+03  0.10514394824E+04  0.12699999809E+01 0.  1.
</event>
<event>
 5   0  0.1237296E-04  0.2318680E+04  0.7818609E-02  0.8470592E-01
        2   -1    0    0  501    0  0.00000000000E+00  0.00000000000E+00  0.20545632546E+04  0.20545632546E+04  0.25500000920E-02 0. -1.
       -2   -1    0    0    0  501  0.00000000000E+00  0.00000000000E+00 -0.65418756718E+03  0.65418756718E+03  0.25500000920E-02 0.  1.
    10030    2    1    2    0    0  0.00000000000E+00  0.00000000000E+00  0.14003756874E+04  0.27087508217E+04  0.23186804326E+04 0.  0.
        1    1    3    3  502    0  0.26507348715E+03  0.82987894935E+03  0.15937930687E+04  0.18163533164E+04  0.50400001928E-02 0. -1.
       -1    1    3    3    0  502 -0.26507348715E+03 -0.82987894935E+03 -0.19341738130E+03  0.89239750536E+03  0.50400001928E-02 0.  1.
</event>
<event>
 5   0  0.1237296E-04  0.2330939E+04  0.7818609E-02  0.8465821E-01
        2   -1    0    0  501    0  0.00000000000E+00  0.00000000000E+00  0.11749305793E+04  0.11749305793E+04  0.25500000920E-02 0. -1.
       -2   -1    0    0    0  501  0.00000000000E+00  0.00000000000E+00 -0.11560848609E+04  0.11560848609E+04  0.25500000920E-02 0.  1.
    10030    2    1    2    0    0  0.00000000000E+00  0.00000000000E+00  0.18845718316E+02  0.23310154402E+04  0.23309392573E+04 0.  0.
        1    1    3    3  502    0 -0.85286508587E+03  0.36107464421E+03 -0.69810694431E+03  0.11597875060E+04  0.50400001928E-02 0.  1.
       -1    1    3    3    0  502  0.85286508587E+03 -0.36107464421E+03  0.71695266262E+03  0.11712279342E+04  0.50400001928E-02 0. -1.
</event>
<event>
 5   0  0.5843670E-05  0.2287998E+04  0.7818609E-02  0.8482668E-01
       -1   -1    0    0    0  501  0.00000000000E+00  0.00000000000E+00  0.74832494090E+03  0.74832494092E+03  0.50400001928E-02 0. -1.
        1   -1    0    0  501    0  0.00000000000E+00  0.00000000000E+00 -0.17488842921E+04  0.17488842921E+04  0.50400001928E-02 0.  1.
    10030    2    1    2    0    0  0.00000000000E+00  0.00000000000E+00 -0.10005593512E+04  0.24972092330E+04  0.22879980197E+04 0.  0.
        2    1    3    3  502    0  0.11142179730E+04  0.25909168542E+03 -0.48814841016E+03  0.12437439701E+04  0.25500000920E-02 0. -1.
       -2    1    3    3    0  502 -0.11142179730E+04 -0.25909168542E+03 -0.51241094105E+03  0.12534652629E+04  0.25500000920E-02 0.  1.
</event>
<event>
 5   0  0.1237296E-04  0.1684895E+04  0.7818609E-02  0.8770026E-01
        2   -1    0    0  501    0  0.00000000000E+00  0.00000000000E+00  0.16016125279E+04  0.16016125279E+04  0.25500000920E-02 0. -1.
       -2   -1    0    0    0  501  0.00000000000E+00  0.00000000000E+00 -0.44312704941E+03  0.44312704942E+03  0.25500000920E-02 0.  1.
    10030    2    1    2    0    0  0.00000000000E+00  0.00000000000E+00  0.11584854784E+04  0.20447395773E+04  0.16848950517E+04 0.  0.
        1    1    3    3  502    0  0.20514680454E+03  0.71544078375E+03  0.10582222828E+04  0.12937446140E+04  0.50400001928E-02 0. -1.
       -1    1    3    3    0  502 -0.20514680454E+03 -0.71544078375E+03  0.10026319569E+03  0.75099496329E+03  0.50400001928E-02 0.  1.
</event>
<event>
 5   0  0.5632156E-05  0.2209010E+04  0.7818609E-02  0.8514687E-01
        1   -1    0    0  501    0  0.00000000000E+00  0.00000000000E+00  0.11327269343E+04  0.11327269343E+04  0.50400001928E-02 0. -1.
       -1   -1    0    0    0  501  0.00000000000E+00  0.00000000000E+00 -0.10769858891E+04  0.10769858891E+04  0.50400001928E-02 0.  1.
    10030    2    1    2    0    0  0.00000000000E+00  0.00000000000E+00  0.55741045203E+02  0.22097128233E+04  0.22090096644E+04 0.  0.
        4    1    3    3  502    0  0.96704415574E+03 -0.53362000412E+03  0.30016785272E+02  0.11049105522E+04  0.12699999809E+01 0.  1.
       -4    1    3    3    0  502 -0.96704415574E+03  0.53362000412E+03  0.25724259931E+02  0.11048022712E+04  0.12699999809E+01 0. -1.
</event>
<event>
 5   0  0.4489500E-05  0.2316297E+04  0.7818609E-02  0.8471523E-01
       -4   -1    0    0    0  501  0.00000000000E+00  0.00000000000E+00  0.87481265790E+03  0.87481357976E+03  0.12699999809E+01 0. -1.
        4   -1    0    0  501    0  0.00000000000E+00  0.00000000000E+00 -0.15332491015E+04  0.15332496274E+04  0.12699999809E+01 0.  1.
    10030    2    1    2    0    0  0.00000000000E+00  0.00000000000E+00 -0.65843644355E+03  0.24080632072E+04  0.23162965828E+04 0.  0.
        5    1    3    3  502    0  0.63333986921E+03  0.93989277069E+03 -0.57691699006E+03  0.12717598491E+04  0.46999998093E+01 0.  1.
       -5    1    3    3    0  502 -0.63333986921E+03 -0.93989277069E+03 -0.81519453490E+02  0.11363033581E+04  0.46999998093E+01 0. -1.
</event>
<event>
 5   0  0.5632156E-05  0.2192244E+04  0.7818609E-02  0.8521663E-01
        1   -1    0    0  501    0  0.00000000000E+00  0.00000000000E+00  0.22642402553E+04  0.22642402553E+04  0.50400001928E-02 0.  1.
       -1   -1    0    0    0  501  0.00000000000E+00  0.00000000000E+00 -0.53063416878E+03  0.53063416880E+03  0.50400001928E-02 0. -1.
    10030    2    1    2    0    0  0.00000000000E+00  0.00000000000E+00  0.17336060866E+04  0.27948744241E+04  0.21922438239E+04 0.  0.
        4    1    3    3  502    0 -0.22081300508E+03 -0.12237812691E+03 -0.49306342159E+03  0.55393857040E+03  0.12699999809E+01 0. -1.
       -4    1    3    3    0  502  0.22081300508E+03  0.12237812691E+03  0.22266695082E+04  0.22409358537E+04  0.12699999809E+01 0.  1.
</event>
<event>
 5   0  0.1237296E-04  0.2198336E+04  0.7818609E-02  0.8519121E-01
        2   -1    0    0  501    0  0.00000000000E+00  0.00000000000E+00  0.10734964194E+04  0.10734964194E+04  0.25500000920E-02 0.  1.
       -2   -1    0    0    0  501  0.00000000000E+00  0.00000000000E+00 -0.11254530203E+04  0.11254530203E+04  0.25500000920E-02 0. -1.
    10030    2    1    2    0    0  0.00000000000E+00  0.00000000000E+00 -0.51956600909E+02  0.21989494398E+04  0.21983355409E+04 0.  0.
        1    1    3    3  502    0  0.15809698347E+03  0.10181074714E+04  0.35705461637E+03  0.10904244489E+04  0.50400001928E-02 0.  1.
       -1    1    3    3    0  502 -0.15809698347E+03 -0.10181074714E+04 -0.40901121727E+03  0.11085249909E+04  0.50400001928E-02 0. -1.
</event>
<event>
 5   0  0.5642466E-05  0.2231761E+04  0.7818609E-02  0.8505323E-01
       -1   -1    0    0    0  501  0.00000000000E+00  0.00000000000E+00  0.15613984691E+04  0.15613984691E+04  0.50400001928E-02 0.  1.
        1   -1    0    0  501    0  0.00000000000E+00  0.00000000000E+00 -0.79748355442E+03  0.79748355444E+03  0.50400001928E-02 0. -1.
    10030    2    1    2    0    0  0.00000000000E+00  0.00000000000E+00  0.76391491469E+03  0.23588820236E+04  0.22317612785E+04 0.  0.
        1    1    3    3  502    0 -0.34965785185E+03 -0.59139796424E+03  0.13113476131E+04  0.14804204565E+04  0.50400001928E-02 0.  1.
       -1    1    3    3    0  502  0.34965785185E+03  0.59139796424E+03 -0.54743269845E+03  0.87846156707E+03  0.50400001928E-02 0. -1.
</event>
<event>
 5   0  0.5843670E-05  0.2364382E+04  0.7818609E-02  0.8452960E-01
       -1   -1    0    0    0  501  0.00000000000E+00  0.00000000000E+00  0.83762789874E+03  0.83762789875E+03  0.50400001928E-02 0.  1.
        1   -1    0    0  501    0  0.00000000000E+00  0.00000000000E+00 -0.16684914470E+04  0.16684914470E+04  0.50400001928E-02 0. -1.
    10030    2    1    2    0    0  0.00000000000E+00  0.00000000000E+00 -0.83086354824E+03  0.25061193457E+04  0.23643815131E+04 0.  0.
        2    1    3    3  502    0 -0.41601465826E+03  0.13208103095E+03 -0.15799569267E+04  0.16391392512E+04  0.25500000920E-02 0. -1.
       -2    1    3    3    0  502  0.41601465826E+03 -0.13208103095E+03  0.74909337847E+03  0.86698009452E+03  0.25500000920E-02 0.  1.
</event>
<event>
 5   0  0.1270613E-04  0.2294715E+04  0.7818609E-02  0.8480008E-01
        2   -1    0    0  501    0  0.00000000000E+00  0.00000000000E+00  0.21190127086E+04  0.21190127086E+04  0.25500000920E-02 0. -1.
       -2   -1    0    0    0  501  0.00000000000E+00  0.00000000000E+00 -0.62124634157E+03  0.62124634157E+03  0.25500000920E-02 0.  1.
    10030    2    1    2    0    0  0.00000000000E+00  0.00000000000E+00  0.14977663670E+04  0.27402590502E+04  0.22947147038E+04 0.  0.
        2    1    3    3  502    0 -0.78406108453E+03 -0.66660731512E+03  0.13546322736E+04  0.17012188846E+04  0.25500000920E-02 0. -1.
       -2    1    3    3    0  502  0.78406108453E+03  0.66660731512E+03  0.14313409344E+03  0.10390401655E+04  0.25500000920E-02 0.  1.
</event>
<event>
 5   0  0.1270613E-04  0.2209363E+04  0.7818609E-02  0.8514541E-01
       -2   -1    0    0    0  501  0.00000000000E+00  0.00000000000E+00  0.12852314539E+04  0.12852314539E+04  0.25500000920E-02 0.  1.
        2   -1    0    0  501    0  0.00000000000E+00  0.00000000000E+00 -0.94949535667E+03  0.94949535667E+03  0.25500000920E-02 0. -1.
    10030    2    1    2    0    0  0.00000000000E+00  0.00000000000E+00  0.33573609720E+03  0.22347268105E+04  0.22093630736E+04 0.  0.
        2    1    3    3  502    0  0.61642091666E+03 -0.64718661600E+03 -0.48881241360E+03  0.10187064534E+04  0.25500000920E-02 0. -1.
       -2    1    3    3    0  502 -0.61642091666E+03  0.64718661600E+03  0.82454851080E+03  0.12160203572E+04  0.25500000920E-02 0.  1.
</event>
<event>
 5   0  0.1234988E-04  0.2473188E+04  0.7818609E-02  0.8412600E-01
        2   -1    0    0  501    0  0.00000000000E+00  0.00000000000E+00  0.10649831913E+04  0.10649831913E+04  0.25500000920E-02 0.  1.
       -2   -1    0    0    0  501  0.00000000000E+00  0.00000000000E+00 -0.14358584976E+04  0.14358584976E+04  0.25500000920E-02 0. -1.
    10030    2    1    2    0    0  0.00000000000E+00  0.00000000000E+00 -0.37087530628E+03  0.25008416889E+04  0.24731883592E+04 0.  0.
        5    1    3    3  502    0  0.15389575055E+03  0.12212723142E+04 -0.65993614696E+02  0.12327072704E+04  0.46999998093E+01 0. -1.
       -5    1    3    3    0  502 -0.15389575055E+03 -0.12212723142E+04 -0.30488169159E+03  0.12681344185E+04  0.46999998093E+01 0.  1.
</event>
<event>
 5   0  0.1237296E-04  0.1984252E+04  0.7818609E-02  0.8614019E-01
        2   -1    0    0  501    0  0.00000000000E+00  0.00000000000E+00  0.16357881754E+04  0.16357881754E+04  0.25500000920E-02 0. -1.
       -2   -1    0    0    0  501  0.00000000000E+00  0.00000000000E+00 -0.60173705207E+03  0.60173705208E+03  0.25500000920E-02 0.  1.
    10030    2    1    2    0    0  0.00000000000E+00  0.00000000000E+00  0.10340511233E+04  0.22375252275E+04  0.19842523574E+04 0.  0.
        1    1    3    3  502    0 -0.10705546504E+03  0.47283123217E+01  0.16292431641E+04  0.16327634604E+04  0.50400001928E-02 0. -1.
       -1    1    3    3    0  502  0.10705546504E+03 -0.47283123217E+01 -0.59519204080E+03  0.60476176714E+03  0.50400001928E-02 0.  1.
</event>
<event>
 5   0  0.5663790E-05  0.1133198E+04  0.7818609E-02  0.9173426E-01
        1   -1    0    0  501    0  0.00000000000E+00  0.00000000000E+00  0.83660619006E+03  0.83660619007E+03  0.50400001928E-02 0.  1.
       -1   -1    0    0    0  501  0.00000000000E+00  0.00000000000E+00 -0.38373409089E+03  0.38373409092E+03  0.50400001928E-02 0. -1.
    10030    2    1    2    0    0  0.00000000000E+00  0.00000000000E+00  0.45287209917E+03  0.12203402810E+04  0.11331978041E+04 0.  0.
        3    1    3    3  502    0 -0.25653823797E+03  0.48671692851E+03  0.37223199020E+03  0.66427547055E+03  0.10100000352E+00 0.  1.
       -3    1    3    3    0  502  0.25653823797E+03 -0.48671692851E+03  0.80640108963E+02  0.55606481044E+03  0.10100000352E+00 0. -1.
</event>
<event>
 5   0  0.1281432E-04  0.2321671E+04  0.7818609E-02  0.8469425E-01
        2   -1    0    0  501    0  0.00000000000E+00  0.00000000000E+00  0.15050708496E+04  0.15050708496E+04  0.25500000920E-02 0.  1.
       -2   -1    0    0    0  501  0.00000000000E+00  0.00000000000E+00 -0.89533238429E+03  0.89533238429E+03  0.25500000920E-02 0. -1.
    10030    2    1    2    0    0  0.00000000000E+00  0.00000000000E+00  0.60973846528E+03  0.24004032339E+04  0.23216706677E+04 0.  0.
        4    1    3    3  502    0 -0.11302538640E+04 -0.12376661666E+03  0.54678053706E+03  0.12616507207E+04  0.12699999809E+01 0.  1.
       -4    1    3    3    0  502  0.11302538640E+04  0.12376661666E+03  0.62957928222E+02  0.11387525131E+04  0.12699999809E+01 0. -1.
</event>
<event>
 5   0  0.1234988E-04  0.2336572E+04  0.7818609E-02  0.8463639E-01
        2   -1    0    0  501    0  0.00000000000E+00  0.00000000000E+00  0.12796320403E+04  0.12796320403E+04  0.25500000920E-02 0.  1.
       -2   -1    0    0    0  501  0.00000000000E+00  0.00000000000E+00 -0.10666288273E+04  0.10666288273E+04  0.25500000920E-02 0. -1.
    10030    2    1    2    0    0  0.00000000000E+00  0.00000000000E+00  0.21300321305E+03  0.23462608676E+04  0.23365722094E+04 0.  0.
        5    1    3    3  502    0 -0.57165377680E+03 -0.38125485648E+03  0.10552617489E+04  0.12592627823E+04  0.46999998093E+01 0.  1.
       -5    1    3    3    0  502  0.57165377680E+03  0.38125485648E+03 -0.84225853589E+03  0.10869980853E+04  0.46999998093E+01 0. -1.
</event>
<event>
 5   0  0.1237296E-04  0.2333318E+04  0.7818609E-02  0.8464899E-01
        2   -1    0    0  501    0  0.00000000000E+00  0.00000000000E+00  0.26850713160E+04  0.26850713160E+04  0.25500000920E-02 0. -1.
       -2   -1    0    0    0  501  0.00000000000E+00  0.00000000000E+00 -0.50691130868E+03  0.50691130869E+03  0.25500000920E-02 0.  1.
    10030    2    1    2    0    0  0.00000000000E+00  0.00000000000E+00  0.21781600073E+04  0.31919826247E+04  0.23333178221E+04 0.  0.
        1    1    3    3  502    0 -0.75809032322E+03  0.67840584286E+01 -0.12401126268E+03  0.76819642989E+03  0.50400001928E-02 0.  1.
       -1    1    3    3    0  502  0.75809032322E+03 -0.67840584286E+01  0.23021712700E+04  0.24237861948E+04  0.50400001928E-02 0. -1.
</event>
<event>
 5   0  0.5642466E-05  0.2032716E+04  0.7818609E-02  0.8591476E-01
       -1   -1    0    0    0  501  0.00000000000E+00  0.00000000000E+00  0.69486213052E+03  0.69486213053E+03  0.50400001928E-02 0. -1.
        1   -1    0    0  501    0  0.00000000000E+00  0.00000000000E+00 -0.14866020475E+04  0.14866020475E+04  0.50400001928E-02 0.  1.
    10030    2    1    2    0    0  0.00000000000E+00  0.00000000000E+00 -0.79173991695E+03  0.21814641780E+04  0.20327158837E+04 0.  0.
        1    1    3    3  502    0 -0.25166608972E+03  0.39067777826E+03  0.57416493179E+03  0.73866793356E+03  0.50400001928E-02 0. -1.
       -1    1    3    3    0  502  0.25166608972E+03 -0.39067777826E+03 -0.13659048487E+04  0.14427962444E+04  0.50400001928E-02 0.  1.
</event>
<event>
 5   0  0.4489500E-05  0.2266947E+04  0.7818609E-02  0.8491069E-01
        4   -1    0    0  501    0  0.00000000000E+00  0.00000000000E+00  0.83356844802E+03  0.83356941548E+03  0.12699999809E+01 0.  1.
       -4   -1    0    0    0  501  0.00000000000E+00  0.00000000000E+00 -0.15412780212E+04  0.15412785444E+04  0.12699999809E+01 0. -1.
    10030    2    1    2    0    0  0.00000000000E+00  0.00000000000E+00 -0.70770957319E+03  0.23748479599E+04  0.22669472850E+04 0.  0.
        4    1    3    3  502    0 -0.40521072771E+02  0.11325062346E+04 -0.32931871379E+03  0.11801121798E+04  0.12699999809E+01 0.  1.
       -4    1    3    3    0  502  0.40521072771E+02 -0.11325062346E+04 -0.37839085940E+03  0.11947357801E+04  0.12699999809E+01 0. -1.
</event>
<event>
 5   0  0.5843670E-05  0.1993210E+04  0.7818609E-02  0.8609802E-01
       -1   -1    0    0    0  501  0.00000000000E+00  0.00000000000E+00  0.74800947254E+03  0.74800947256E+03  0.50400001928E-02 0.  1.
        1   -1    0    0  501    0  0.00000000000E+00  0.00000000000E+00 -0.13278191718E+04  0.13278191718E+04  0.50400001928E-02 0. -1.
    10030    2    1    2    0    0  0.00000000000E+00  0.00000000000E+00 -0.57980969921E+03  0.20758286443E+04  0.19932097916E+04 0.  0.
        2    1    3    3  502    0 -0.39023359271E+03  0.21605772927E+03 -0.12180573094E+04  0.12971610572E+04  0.25500000920E-02 0. -1.
       -2    1    3    3    0  502  0.39023359271E+03 -0.21605772927E+03  0.63824761023E+03  0.77866758711E+03  0.25500000920E-02 0.  1.
</event>
<event>
 5   0  0.1270613E-04  0.2277857E+04  0.7818609E-02  0.8486703E-01
       -2   -1    0    0    0  501  0.00000000000E+00  0.00000000000E+00  0.73968979989E+03  0.73968979989E+03  0.25500000920E-02 0. -1.
        2   -1    0    0  501    0  0.00000000000E+00  0.00000000000E+00 -0.17536521470E+04  0.17536521470E+04  0.25500000920E-02 0.  1.
    10030    2    1    2    0    0  0.00000000000E+00  0.00000000000E+00 -0.10139623471E+04  0.24933419469E+04  0.22778574193E+04 0.  0.
        2    1    3    3  502    0 -0.38129219230E+03  0.10435407334E+04 -0.78128183612E+03  0.13582202714E+04  0.25500000920E-02 0.  1.
       -2    1    3    3    0  502  0.38129219230E+03 -0.10435407334E+04 -0.23268051102E+03  0.11351216756E+04  0.25500000920E-02 0. -1.
</event>
<event>
 5   0  0.1281432E-04  0.2271588E+04  0.7818609E-02  0.8489208E-01
       -2   -1    0    0    0  501  0.00000000000E+00  0.00000000000E+00  0.67517442765E+03  0.67517442765E+03  0.25500000920E-02 0.  1.
        2   -1    0    0  501    0  0.00000000000E+00  0.00000000000E+00 -0.19106596118E+04  0.19106596118E+04  0.25500000920E-02 0. -1.
    10030    2    1    2    0    0  0.00000000000E+00  0.00000000000E+00 -0.12354851842E+04  0.25858340395E+04  0.22715884397E+04 0.  0.
        4    1    3    3  502    0  0.74420002206E+03 -0.53363990620E+03 -0.13825678151E+04  0.16583427265E+04  0.12699999809E+01 0. -1.
       -4    1    3    3    0  502 -0.74420002206E+03  0.53363990620E+03  0.14708263097E+03  0.92749131293E+03  0.12699999809E+01 0.  1.
</event>
<event>
 5   0  0.1234988E-04  0.2301313E+04  0.7818609E-02  0.8477403E-01
        2   -1    0    0  501    0  0.00000000000E+00  0.00000000000E+00  0.14530116992E+04  0.14530116992E+04  0.25500000920E-02 0. -1.
       -2   -1    0    0    0  501  0.00000000000E+00  0.00000000000E+00 -0.91121823645E+03  0.91121823645E+03  0.25500000920E-02 0.  1.
    10030    2    1    2    0    0  0.00000000000E+00  0.00000000000E+00  0.54179346274E+03  0.23642299356E+04  0.23013133277E+04 0.  0.
        5    1    3    3  502    0  0.90580632065E+03  0.67479537502E+03  0.49633812386E+03  0.12337777401E+04  0.46999998093E+01 0.  1.
       -5    1    3    3    0  502 -0.90580632065E+03 -0.67479537502E+03  0.45455338882E+02  0.11304521956E+04  0.46999998093E+01 0. -1.
</event>
<event>
 5   0  0.5632156E-05  0.2419815E+04  0.7818609E-02  0.8432122E-01
       -1   -1    0    0    0  501  0.00000000000E+00  0.00000000000E+00  0.73638288866E+03  0.73638288868E+03  0.50400001928E-02 0. -1.
        1   -1    0    0  501    0  0.00000000000E+00  0.00000000000E+00 -0.19879279662E+04  0.19879279662E+04  0.50400001928E-02 0.  1.
    10030    2    1    2    0    0  0.00000000000E+00  0.00000000000E+00 -0.12515450775E+04  0.27243108549E+04  0.24198149832E+04 0.  0.
        4    1    3    3  502    0 -0.26453389649E+02  0.25173129423E+03  0.70624038950E+03  0.75023031596E+03  0.12699999809E+01 0. -1.
       -4    1    3    3    0  502  0.26453389649E+02 -0.25173129423E+03 -0.19577854670E+04  0.19740805389E+04  0.12699999809E+01 0.  1.
</event>
<event>
 5   0  0.5632156E-05  0.2309799E+04  0.7818609E-02  0.8474068E-01
       -1   -1    0    0    0  501  0.00000000000E+00  0.00000000000E+00  0.13885464275E+04  0.13885464275E+04  0.50400001928E-02 0. -1.
        1   -1    0    0  501    0  0.00000000000E+00  0.00000000000E+00 -0.96056732348E+03  0.96056732349E+03  0.50400001928E-02 0.  1.
    10030    2    1    2    0    0  0.00000000000E+00  0.00000000000E+00  0.42797910405E+03  0.23491137510E+04  0.23097985414E+04 0.  0.
        4    1    3    3  502    0 -0.67388363387E+03  0.90366749352E+03  0.46937449829E+03  0.12210848142E+04  0.12699999809E+01 0. -1.
       -4    1    3    3    0  502  0.67388363387E+03 -0.90366749352E+03 -0.41395394245E+02  0.11280289369E+04  0.12699999809E+01 0.  1.
</event>
<event>
 5   0  0.1270613E-04  0.2211553E+04  0.7818609E-02  0.8513635E-01
        2   -1    0    0  501    0  0.00000000000E+00  0.00000000000E+00  0.20765687086E+04  0.20765687086E+04  0.25500000920E-02 0. -1.
       -2   -1    0    0    0  501  0.00000000000E+00  0.00000000000E+00 -0.58882812556E+03  0.58882812557E+03  0.25500000920E-02 0.  1.
    10030    2    1    2    0    0  0.00000000000E+00  0.00000000000E+00  0.14877405830E+04  0.26653968342E+04  0.22115533548E+04 0.  0.
        2    1    3    3  502    0 -0.23547839441E+03 -0.14477792625E+03 -0.54651540010E+03  0.61244575655E+03  0.25500000920E-02 0.  1.
       -2    1    3    3    0  502  0.23547839441E+03  0.14477792625E+03  0.20342559831E+04  0.20529510776E+04  0.25500000920E-02 0. -1.
</event>
<event>
 5   0  0.1237296E-04  0.2321138E+04  0.7818609E-02  0.8469633E-01
        2   -1    0    0  501    0  0.00000000000E+00  0.00000000000E+00  0.16197103739E+04  0.16197103739E+04  0.25500000920E-02 0. -1.
       -2   -1    0    0    0  501  0.00000000000E+00  0.00000000000E+00 -0.83158107148E+03  0.83158107149E+03  0.25500000920E-02 0.  1.
    10030    2    1    2    0    0  0.00000000000E+00  0.00000000000E+00  0.78812930237E+03  0.24512914453E+04  0.23211380727E+04 0.  0.
        1    1    3    3  502    0  0.52024240953E+03 -0.33569054992E+03  0.14307283791E+04  0.15589496479E+04  0.50400001928E-02 0. -1.
       -1    1    3    3    0  502 -0.52024240953E+03  0.33569054992E+03 -0.64259907673E+03  0.89234179742E+03  0.50400001928E-02 0.  1.
</event>
<event>
 5   0  0.1237296E-04  0.2239707E+04  0.7818609E-02  0.8502080E-01
       -2   -1    0    0    0  501  0.00000000000E+00  0.00000000000E+00  0.85791178738E+03  0.85791178739E+03  0.25500000920E-02 0.  1.
        2   -1    0    0  501    0  0.00000000000E+00  0.00000000000E+00 -0.14617728473E+04  0.14617728473E+04  0.25500000920E-02 0. -1.
    10030    2    1    2    0    0  0.00000000000E+00  0.00000000000E+00 -0.60386105996E+03  0.23196846347E+04  0.22397072632E+04 0.  0.
        1    1    3    3  502    0 -0.99726337528E+03 -0.87440384765E+01 -0.82949326947E+03  0.12971776216E+04  0.50400001928E-02 0. -1.
       -1    1    3    3    0  502  0.99726337528E+03  0.87440384765E+01  0.22563220951E+03  0.10225070131E+04  0.50400001928E-02 0.  1.
</event>
<event>
 5   0  0.5843670E-05  0.2351751E+04  0.7818609E-02  0.8457791E-01
        1   -1    0    0  501    0  0.00000000000E+00  0.00000000000E+00  0.14315213819E+04  0.14315213819E+04  0.50400001928E-02 0.  1.
       -1   -1    0    0    0  501  0.00000000000E+00  0.00000000000E+00 -0.96588364793E+03  0.96588364794E+03  0.50400001928E-02 0. -1.
    10030    2    1    2    0    0  0.00000000000E+00  0.00000000000E+00  0.46563773393E+03  0.23974050298E+04  0.23517509174E+04 0.  0.
        2    1    3    3  502    0 -0.10997809896E+04  0.31929855519E+03 -0.39219808474E+02  0.11458656055E+04  0.25500000920E-02 0. -1.
       -2    1    3    3    0  502  0.10997809896E+04 -0.31929855519E+03  0.50485754240E+03  0.12515394243E+04  0.25500000920E-02 0.  1.
</event>
<event>
 5   0  0.1234988E-04  0.2306182E+04  0.7818609E-02  0.8475488E-01
       -2   -1    0    0    0  501  0.00000000000E+00  0.00000000000E+00  0.10201748377E+04  0.10201748377E+04  0.25500000920E-02 0.  1.
        2   -1    0    0  501    0  0.00000000000E+00  0.00000000000E+00 -0.13033246509E+04  0.13033246509E+04  0.25500000920E-02 0. -1.
    10030    2    1    2    0    0  0.00000000000E+00  0.00000000000E+00 -0.28314981316E+03  0.23234994886E+04  0.23061821387E+04 0.  0.
        5    1    3    3  502    0 -0.55839610722E+03 -0.64381569998E+03  0.64097632704E+03  0.10663853009E+04  0.46999998093E+01 0.  1.
       -5    1    3    3    0  502  0.55839610722E+03  0.64381569998E+03 -0.92412614020E+03  0.12571141878E+04  0.46999998093E+01 0. -1.
</event>
<event>
 5   0  0.5632156E-05  0.2180026E+04  0.7818609E-02  0.8526788E-01
       -1   -1    0    0    0  501  0.00000000000E+00  0.00000000000E+00  0.69020487958E+03  0.69020487959E+03  0.50400001928E-02 0. -1.
        1   -1    0    0  501    0  0.00000000000E+00  0.00000000000E+00 -0.17214135981E+04  0.17214135981E+04  0.50400001928E-02 0.  1.
    10030    2    1    2    0    0  0.00000000000E+00  0.00000000000E+00 -0.10312087186E+04  0.24116184777E+04  0.21800257478E+04 0.  0.
        4    1    3    3  502    0  0.26050177160E+03 -0.42134153507E+03  0.55848932160E+03  0.74652648809E+03  0.12699999809E+01 0. -1.
       -4    1    3    3    0  502 -0.26050177160E+03  0.42134153507E+03 -0.15896980402E+04  0.16650919896E+04  0.12699999809E+01 0.  1.
</event>
<event>
 5   0  0.5642466E-05  0.2204708E+04  0.7818609E-02  0.8516471E-01
        1   -1    0    0  501    0  0.00000000000E+00  0.00000000000E+00  0.18417284887E+04  0.18417284887E+04  0.50400001928E-02 0. -1.
       -1   -1    0    0    0  501  0.00000000000E+00  0.00000000000E+00 -0.65980650668E+03  0.65980650670E+03  0.50400001928E-02 0.  1.
    10030    2    1    2    0    0  0.00000000000E+00  0.00000000000E+00  0.11819219820E+04  0.25015349954E+04  0.22047080899E+04 0.  0.
        1    1    3    3  502    0 -0.23299361007E+03 -0.14215325458E+03 -0.62086278738E+03  0.67820658424E+03  0.50400001928E-02 0.  1.
       -1    1    3    3    0  502  0.23299361007E+03  0.14215325458E+03  0.18027847694E+04  0.18233284111E+04  0.50400001928E-02 0. -1.
</event>
<event>
 5   0  0.5642466E-05  0.2164327E+04  0.7818609E-02  0.8533425E-01
       -1   -1    0    0    0  501  0.00000000000E+00  0.00000000000E+00  0.99319801854E+03  0.99319801856E+03  0.50400001928E-02 0. -1.
        1   -1    0    0  501    0  0.00000000000E+00  0.00000000000E+00 -0.11790977193E+04  0.11790977194E+04  0.50400001928E-02 0.  1.
    10030    2    1    2    0    0  0.00000000000E+00  0.00000000000E+00 -0.18589970080E+03  0.21722957379E+04  0.21643267023E+04 0.  0.
        1    1    3    3  502    0  0.50004224304E+03  0.80164748229E+03  0.43662589547E+03  0.10408280854E+04  0.50400001928E-02 0. -1.
       -1    1    3    3    0  502 -0.50004224304E+03 -0.80164748229E+03 -0.62252559628E+03  0.11314676525E+04  0.50400001928E-02 0.  1.
</event>
<event>
 5   0  0.5843670E-05  0.1633850E+04  0.7818609E-02  0.8800018E-01
        1   -1    0    0  501    0  0.00000000000E+00  0.00000000000E+00  0.21421819383E+04  0.21421819383E+04  0.50400001928E-02 0. -1.
       -1   -1    0    0    0  501  0.00000000000E+00  0.00000000000E+00 -0.31153577582E+03  0.31153577586E+03  0.50400001928E-02 0.  1.
    10030    2    1    2    0    0  0.00000000000E+00  0.00000000000E+00  0.18306461625E+04  0.24537177142E+04  0.16338498244E+04 0.  0.
        2    1    3    3  502    0 -0.67319793894E+03  0.30748623574E+03  0.14347445786E+04  0.16143838627E+04  0.25500000920E-02 0. -1.
       -2    1    3    3    0  502  0.67319793894E+03 -0.30748623574E+03  0.39590158387E+03  0.83933385150E+03  0.25500000920E-02 0.  1.
</event>
<event>
 5   0  0.5642466E-05  0.1439470E+04  0.7818609E-02  0.8925734E-01
       -1   -1    0    0    0  501  0.00000000000E+00  0.00000000000E+00  0.12998884471E+04  0.12998884471E+04  0.50400001928E-02 0.  1.
        1   -1    0    0  501    0  0.00000000000E+00  0.00000000000E+00 -0.39850984202E+03  0.39850984205E+03  0.50400001928E-02 0. -1.
    10030    2    1    2    0    0  0.00000000000E+00  0.00000000000E+00  0.90137860510E+03  0.16983982892E+04  0.14394698187E+04 0.  0.
        1    1    3    3  502    0  0.71160650858E+03 -0.94477356665E+02  0.38928411432E+03  0.81661001443E+03  0.50400001928E-02 0. -1.
       -1    1    3    3    0  502 -0.71160650858E+03  0.94477356665E+02  0.51209449077E+03  0.88178827474E+03  0.50400001928E-02 0.  1.
</event>
<event>
 5   0  0.1237296E-04  0.2240516E+04  0.7818609E-02  0.8501751E-01
        2   -1    0    0  501    0  0.00000000000E+00  0.00000000000E+00  0.13283737576E+04  0.13283737576E+04  0.25500000920E-02 0.  1.
       -2   -1    0    0    0  501  0.00000000000E+00  0.00000000000E+00 -0.94474773655E+03  0.94474773655E+03  0.25500000920E-02 0. -1.
    10030    2    1    2    0    0  0.00000000000E+00  0.00000000000E+00  0.38362602103E+03  0.22731214941E+04  0.22405161019E+04 0.  0.
        1    1    3    3  502    0 -0.98625547918E+02 -0.10411974870E+04 -0.21547508814E+03  0.10678242923E+04  0.50400001928E-02 0. -1.
       -1    1    3    3    0  502  0.98625547918E+02  0.10411974870E+04  0.59910110916E+03  0.12052972018E+04  0.50400001928E-02 0.  1.
</event>
<event>
 5   0  0.5663790E-05  0.2329224E+04  0.7818609E-02  0.8466487E-01
       -1   -1    0    0    0  501  0.00000000000E+00  0.00000000000E+00  0.13228026431E+04  0.13228026431E+04  0.50400001928E-02 0. -1.
        1   -1    0    0  501    0  0.00000000000E+00  0.00000000000E+00 -0.10253386883E+04  0.10253386883E+04  0.50400001928E-02 0.  1.
    10030    2    1    2    0    0  0.00000000000E+00  0.00000000000E+00  0.29746395479E+03  0.23481413315E+04  0.23292236707E+04 0.  0.
        3    1    3    3  502    0  0.52053817278E+03  0.44609353516E+03  0.10978460818E+04  0.12943050108E+04  0.10100000352E+00 0. -1.
       -3    1    3    3    0  502 -0.52053817278E+03 -0.44609353516E+03 -0.80038212699E+03  0.10538363207E+04  0.10100000352E+00 0.  1.
</event>
<event>
 5   0  0.1281432E-04  0.1965294E+04  0.7818609E-02  0.8623021E-01
       -2   -1    0    0    0  501  0.00000000000E+00  0.00000000000E+00  0.60175841726E+03  0.60175841726E+03  0.25500000920E-02 0. -1.
        2   -1    0    0  501    0  0.00000000000E+00  0.00000000000E+00 -0.16046223459E+04  0.16046223459E+04  0.25500000920E-02 0.  1.
    10030    2    1    2    0    0  0.00000000000E+00  0.00000000000E+00 -0.10028639286E+04  0.22063807631E+04  0.19652938744E+04 0.  0.
        4    1    3    3  502    0  0.77150092134E+03 -0.45729273182E+03 -0.95226987827E+03  0.13081092646E+04  0.12699999809E+01 0.  1.
       -4    1    3    3    0  502 -0.77150092134E+03  0.45729273182E+03 -0.50594050328E+02  0.89827149851E+03  0.12699999809E+01 0. -1.
</event>
<event>
 5   0  0.1257524E-04  0.2190686E+04  0.7818609E-02  0.8522315E-01
        2   -1    0    0  501    0  0.00000000000E+00  0.00000000000E+00  0.21762549717E+04  0.21762549717E+04  0.25500000920E-02 0.  1.
       -2   -1    0    0    0  501  0.00000000000E+00  0.00000000000E+00 -0.55130297957E+03  0.55130297957E+03  0.25500000920E-02 0. -1.
    10030    2    1    2    0    0  0.00000000000E+00  0.00000000000E+00  0.16249519921E+04  0.27275579513E+04  0.21906856006E+04 0.  0.
        3    1    3    3  502    0 -0.45692300770E+03 -0.55744551075E+03 -0.21442542133E+03  0.75199893879E+03  0.10100000352E+00 0. -1.
       -3    1    3    3    0  502  0.45692300770E+03  0.55744551075E+03  0.18393774135E+04  0.19755590125E+04  0.10100000352E+00 0.  1.
</event>
<event>
 5   0  0.1270613E-04  0.2303215E+04  0.7818609E-02  0.8476655E-01
       -2   -1    0    0    0  501  0.00000000000E+00  0.00000000000E+00  0.63233206076E+03  0.63233206076E+03  0.25500000920E-02 0. -1.
        2   -1    0    0  501    0  0.00000000000E+00  0.00000000000E+00 -0.20973153854E+04  0.20973153854E+04  0.25500000920E-02 0.  1.
    10030    2    1    2    0    0  0.00000000000E+00  0.00000000000E+00 -0.14649833246E+04  0.27296474461E+04  0.23032149354E+04 0.  0.
        2    1    3    3  502    0  0.98908344542E+03 -0.47165929577E+03 -0.11522598393E+04  0.15901104649E+04  0.25500000920E-02 0. -1.
       -2    1    3    3    0  502 -0.98908344542E+03  0.47165929577E+03 -0.31272348525E+03  0.11395369812E+04  0.25500000920E-02 0.  1.
</event>
<event>
 5   0  0.5924654E-05  0.1290434E+04  0.7818609E-02  0.9037186E-01
        1   -1    0    0  501    0  0.00000000000E+00  0.00000000000E+00  0.96010850657E+03  0.96010850658E+03  0.50400001928E-02 0. -1.
       -1   -1    0    0    0  501  0.00000000000E+00  0.00000000000E+00 -0.43360201975E+03  0.43360201978E+03  0.50400001928E-02 0.  1.
    10030    2    1    2    0    0  0.00000000000E+00  0.00000000000E+00  0.52650648682E+03  0.13937105264E+04  0.12904340164E+04 0.  0.
        5    1    3    3  502    0  0.24862724621E+02 -0.63106634135E+03  0.40580121596E+03  0.75070606707E+03  0.46999998093E+01 0. -1.
       -5    1    3    3    0  502 -0.24862724621E+02  0.63106634135E+03  0.12070527086E+03  0.64300445930E+03  0.46999998093E+01 0.  1.
</event>
<event>
 5   0  0.5642466E-05  0.2256833E+04  0.7818609E-02  0.8495139E-01
        1   -1    0    0  501    0  0.00000000000E+00  0.00000000000E+00  0.10915579558E+04  0.10915579558E+04  0.50400001928E-02 0. -1.
       -1   -1    0    0    0  501  0.00000000000E+00  0.00000000000E+00 -0.11665192952E+04  0.11665192952E+04  0.50400001928E-02 0.  1.
    10030    2    1    2    0    0  0.00000000000E+00  0.00000000000E+00 -0.74961339432E+02  0.22580772510E+04  0.22568326631E+04 0.  0.
        1    1    3    3  502    0  0.48276103052E+03 -0.59276473887E+01 -0.10579598252E+04  0.11629154490E+04  0.50400001928E-02 0.  1.
       -1    1    3    3    0  502 -0.48276103052E+03  0.59276473887E+01  0.98299848581E+03  0.10951618021E+04  0.50400001928E-02 0. -1.
</event>
<event>
 5   0  0.1281432E-04  0.2640011E+04  0.7818609E-02  0.8354736E-01
       -2   -1    0    0    0  501  0.00000000000E+00  0.00000000000E+00  0.18781378336E+04  0.18781378336E+04  0.25500000920E-02 0. -1.
        2   -1    0    0  501    0  0.00000000000E+00  0.00000000000E+00 -0.92773496648E+03  0.92773496648E+03  0.25500000920E-02 0.  1.
    10030    2    1    2    0    0  0.00000000000E+00  0.00000000000E+00  0.95040286715E+03  0.28058728001E+04  0.26400107122E+04 0.  0.
        4    1    3    3  502    0 -0.10462117915E+04 -0.57085331208E+03  0.10782838658E+04  0.16072119726E+04  0.12699999809E+01 0. -1.
       -4    1    3    3    0  502  0.10462117915E+04  0.57085331208E+03 -0.12788099868E+03  0.11986608275E+04  0.12699999809E+01 0.  1.
</event>
<event>
 5   0  0.1281432E-04  0.2310322E+04  0.7818609E-02  0.8473862E-01
       -2   -1    0    0    0  501  0.00000000000E+00  0.00000000000E+00  0.83218759784E+03  0.83218759785E+03  0.25500000920E-02 0.  1.
        2   -1    0    0  501    0  0.00000000000E+00  0.00000000000E+00 -0.16034811177E+04  0.16034811177E+04  0.25500000920E-02 0. -1.
    10030    2    1    2    0    0  0.00000000000E+00  0.00000000000E+00 -0.77129351982E+03  0.24356687155E+04  0.23103221416E+04 0.  0.
        4    1    3    3  502    0  0.56789006353E+02 -0.37289502860E+03 -0.15367270750E+04  0.15823423806E+04  0.12699999809E+01 0. -1.
       -4    1    3    3    0  502 -0.56789006353E+02  0.37289502860E+03  0.76543355515E+03  0.85332633491E+03  0.12699999809E+01 0.  1.
</event>
<event>
 5   0  0.1234988E-04  0.2341476E+04  0.7818609E-02  0.8461745E-01
        2   -1    0    0  501    0  0.00000000000E+00  0.00000000000E+00  0.89114449714E+03  0.89114449714E+03  0.25500000920E-02 0. -1.
       -2   -1    0    0    0  501  0.00000000000E+00  0.00000000000E+00 -0.15380534655E+04  0.15380534655E+04  0.25500000920E-02 0.  1.
    10030    2    1    2    0    0  0.00000000000E+00  0.00000000000E+00 -0.64690896835E+03  0.24291979626E+04  0.23414763566E+04 0.  0.
        5    1    3    3  502    0  0.11678749344E+04 -0.80701548569E+02 -0.33662618590E+03  0.12181066790E+04  0.46999998093E+01 0. -1.
       -5    1    3    3    0  502 -0.11678749344E+04  0.80701548569E+02 -0.31028278245E+03  0.12110912837E+04  0.46999998093E+01 0.  1.
</event>
<event>
 5   0  0.1257524E-04  0.2315879E+04  0.7818609E-02  0.8471686E-01
        2   -1    0    0  501    0  0.00000000000E+00  0.00000000000E+00  0.22950630993E+04  0.22950630993E+04  0.25500000920E-02 0.  1.
       -2   -1    0    0    0  501  0.00000000000E+00  0.00000000000E+00 -0.58422087204E+03  0.58422087204E+03  0.25500000920E-02 0. -1.
    10030    2    1    2    0    0  0.00000000000E+00  0.00000000000E+00  0.17108422273E+04  0.28792839714E+04  0.23158788960E+04 0.  0.
        3    1    3    3  502    0  0.63544203787E+03 -0.25577260936E+03  0.20161522541E+04  0.21293370173E+04  0.10100000352E+00 0.  1.
       -3    1    3    3    0  502 -0.63544203787E+03  0.25577260936E+03 -0.30531002687E+03  0.74994695405E+03  0.10100000352E+00 0. -1.
</event>
<event>
 5   0  0.1281432E-04  0.2319536E+04  0.7818609E-02  0.8470258E-01
        2   -1    0    0  501    0  0.00000000000E+00  0.00000000000E+00  0.15467576538E+04  0.15467576538E+04  0.25500000920E-02 0. -1.
       -2   -1    0    0    0  501  0.00000000000E+00  0.00000000000E+00 -0.86960060378E+03  0.86960060378E+03  0.25500000920E-02 0.  1.
    10030    2    1    2    0    0  0.00000000000E+00  0.00000000000E+00  0.67715704998E+03  0.24163582575E+04  0.23195356342E+04 0.  0.
        4    1    3    3  502    0  0.35803575372E+03 -0.61046543041E+03 -0.61857917782E+03  0.93994651699E+03  0.12699999809E+01 0.  1.
       -4    1    3    3    0  502 -0.35803575372E+03  0.61046543041E+03  0.12957362278E+04  0.14764117405E+04  0.12699999809E+01 0. -1.
</event>
<event>
 5   0  0.5924654E-05  0.2379389E+04  0.7818609E-02  0.8447261E-01
       -1   -1    0    0    0  501  0.00000000000E+00  0.00000000000E+00  0.79295713916E+03  0.79295713918E+03  0.50400001928E-02 0.  1.
        1   -1    0    0  501    0  0.00000000000E+00  0.00000000000E+00 -0.17849297681E+04  0.17849297681E+04  0.50400001928E-02 0. -1.
    10030    2    1    2    0    0  0.00000000000E+00  0.00000000000E+00 -0.99197262889E+03  0.25778869072E+04  0.23793888312E+04 0.  0.
        5    1    3    3  502    0 -0.57108421691E+03 -0.16442026148E+03  0.62061311412E+03  0.85927523681E+03  0.46999998093E+01 0.  1.
       -5    1    3    3    0  502  0.57108421691E+03  0.16442026148E+03 -0.16125857430E+04  0.17186116704E+04  0.46999998093E+01 0. -1.
</event>
<event>
 5   0  0.5843670E-05  0.2281491E+04  0.7818609E-02  0.8485255E-01
       -1   -1    0    0    0  501  0.00000000000E+00  0.00000000000E+00  0.87953316658E+03  0.87953316660E+03  0.50400001928E-02 0.  1.
        1   -1    0    0  501    0  0.00000000000E+00  0.00000000000E+00 -0.14795351992E+04  0.14795351993E+04  0.50400001928E-02 0. -1.
    10030    2    1    2    0    0  0.00000000000E+00  0.00000000000E+00 -0.60000203267E+03  0.23590683659E+04  0.22814909852E+04 0.  0.
        2    1    3    3  502    0 -0.73544093673E+03 -0.87138350818E+03 -0.26543237706E+03  0.11707420453E+04  0.25500000920E-02 0.  1.
       -2    1    3    3    0  502  0.73544093673E+03  0.87138350818E+03 -0.33456965561E+03  0.11883263206E+04  0.25500000920E-02 0. -1.
</event>
<event>
 5   0  0.1281432E-04  0.2366301E+04  0.7818609E-02  0.8452229E-01
        2   -1    0    0  501    0  0.00000000000E+00  0.00000000000E+00  0.95586282626E+03  0.95586282626E+03  0.25500000920E-02 0. -1.
       -2   -1    0    0    0  501  0.00000000000E+00  0.00000000000E+00 -0.14644826781E+04  0.14644826781E+04  0.25500000920E-02 0.  1.
    10030    2    1    2    0    0  0.00000000000E+00  0.00000000000E+00 -0.50861985183E+03  0.24203455044E+04  0.23663005318E+04 0.  0.
        4    1    3    3  502    0 -0.76210639691E+03  0.17854934651E+03 -0.11617921371E+04  0.14008742313E+04  0.12699999809E+01 0.  1.
       -4    1    3    3    0  502  0.76210639691E+03 -0.17854934651E+03  0.65317228526E+03  0.10194712730E+04  0.12699999809E+01 0. -1.
</event>
<event>
 5   0  0.1257524E-04  0.2393275E+04  0.7818609E-02  0.8442025E-01
        2   -1    0    0  501    0  0.00000000000E+00  0.00000000000E+00  0.16812083012E+04  0.16812083012E+04  0.25500000920E-02 0.  1.
       -2   -1    0    0    0  501  0.00000000000E+00  0.00000000000E+00 -0.85173376565E+03  0.85173376566E+03  0.25500000920E-02 0. -1.
    10030    2    1    2    0    0  0.00000000000E+00  0.00000000000E+00  0.82947453553E+03  0.25329420668E+04  0.23932754770E+04 0.  0.
        3    1    3    3  502    0 -0.15682700275E+03 -0.35236662073E+03  0.16136213389E+04  0.16590752785E+04  0.10100000352E+00 0.  1.
       -3    1    3    3    0  502  0.15682700275E+03  0.35236662073E+03 -0.78414680341E+03  0.87386678830E+03  0.10100000352E+00 0. -1.
</event>
<event>
 5   0  0.5924654E-05  0.2209945E+04  0.7818609E-02  0.8514300E-01
        1   -1    0    0  501    0  0.00000000000E+00  0.00000000000E+00  0.19474831732E+04  0.19474831732E+04  0.50400001928E-02 0. -1.
       -1   -1    0    0    0  501  0.00000000000E+00  0.00000000000E+00 -0.62694460132E+03  0.62694460134E+03  0.50400001928E-02 0.  1.
    10030    2    1    2    0    0  0.00000000000E+00  0.00000000000E+00  0.13205385719E+04  0.25744277745E+04  0.22099448515E+04 0.  0.
        5    1    3    3  502    0  0.91213507963E+03  0.54634038067E+03  0.10106470890E+04  0.14669382549E+04  0.46999998093E+01 0. -1.
       -5    1    3    3    0  502 -0.91213507963E+03 -0.54634038067E+03  0.30989148285E+03  0.11074895197E+04  0.46999998093E+01 0.  1.
</event>
<event>
 5   0  0.1270613E-04  0.2240600E+04  0.7818609E-02  0.8501717E-01
       -2   -1    0    0    0  501  0.00000000000E+00  0.00000000000E+00  0.11138382170E+04  0.11138382170E+04  0.25500000920E-02 0. -1.
        2   -1    0    0  501    0  0.00000000000E+00  0.00000000000E+00 -0.11267993305E+04  0.11267993305E+04  0.25500000920E-02 0.  1.
    10030    2    1    2    0    0  0.00000000000E+00  0.00000000000E+00 -0.12961113504E+02  0.22406375474E+04  0.22406000599E+04 0.  0.
        2    1    3    3  502    0  0.10476349046E+04  0.38190181400E+03 -0.11457615924E+03  0.11209440598E+04  0.25500000920E-02 0. -1.
       -2    1    3    3    0  502 -0.10476349046E+04 -0.38190181400E+03  0.10161504574E+03  0.11196934877E+04  0.25500000920E-02 0.  1.
</event>
<event>
 5   0  0.1281432E-04  0.2020370E+04  0.7818609E-02  0.8597156E-01
        2   -1    0    0  501    0  0.00000000000E+00  0.00000000000E+00  0.12729507987E+04  0.12729507987E+04  0.25500000920E-02 0.  1.
       -2   -1    0    0    0  501  0.00000000000E+00  0.00000000000E+00 -0.80165964577E+03  0.80165964578E+03  0.25500000920E-02 0. -1.
    10030    2    1    2    0    0  0.00000000000E+00  0.00000000000E+00  0.47129115291E+03  0.20746104445E+04  0.20203695567E+04 0.  0.
        4    1    3    3  502    0  0.96444094841E+03 -0.30052978471E+03  0.23839687520E+03  0.10379302373E+04  0.12699999809E+01 0.  1.
       -4    1    3    3    0  502 -0.96444094841E+03  0.30052978471E+03  0.23289427771E+03  0.10366802072E+04  0.12699999809E+01 0. -1.
</event>
<event>
 5   0  0.5642466E-05  0.2348801E+04  0.7818609E-02  0.8458924E-01
        1   -1    0    0  501    0  0.00000000000E+00  0.00000000000E+00  0.67447484709E+03  0.67447484711E+03  0.50400001928E-02 0.  1.
       -1   -1    0    0    0  501  0.00000000000E+00  0.00000000000E+00 -0.20448745655E+04  0.20448745655E+04  0.50400001928E-02 0. -1.
    10030    2    1    2    0    0  0.00000000000E+00  0.00000000000E+00 -0.13703997184E+04  0.27193494126E+04  0.23488009366E+04 0.  0.
        1    1    3    3  502    0  0.82088577952E+03 -0.18624650401E+03  0.26294553208E+03  0.88186256080E+03  0.50400001928E-02 0.  1.
       -1    1    3    3    0  502 -0.82088577952E+03  0.18624650401E+03 -0.16333452504E+04  0.18374868518E+04  0.50400001928E-02 0. -1.
</event>
<event>
 5   0  0.1270613E-04  0.2301817E+04  0.7818609E-02  0.8477205E-01
       -2   -1    0    0    0  501  0.00000000000E+00  0.00000000000E+00  0.55699228198E+03  0.55699228199E+03  0.25500000920E-02 0.  1.
        2   -1    0    0  501    0  0.00000000000E+00  0.00000000000E+00 -0.23781132907E+04  0.23781132907E+04  0.25500000920E-02 0. -1.
    10030    2    1    2    0    0  0.00000000000E+00  0.00000000000E+00 -0.18211210087E+04  0.29351055727E+04  0.23018173243E+04 0.  0.
        2    1    3    3  502    0  0.85002944275E+03 -0.77175364280E+03 -0.10128650570E+04  0.15310288575E+04  0.25500000920E-02 0.  1.
       -2    1    3    3    0  502 -0.85002944275E+03  0.77175364280E+03 -0.80825595171E+03  0.14040767152E+04  0.25500000920E-02 0. -1.
</event>
<event>
 5   0  0.5924654E-05  0.2293330E+04  0.7818609E-02  0.8480556E-01
        1   -1    0    0  501    0  0.00000000000E+00  0.00000000000E+00  0.13450957912E+04  0.13450957912E+04  0.50400001928E-02 0.  1.
       -1   -1    0    0    0  501  0.00000000000E+00  0.00000000000E+00 -0.97750725705E+03  0.97750725706E+03  0.50400001928E-02 0. -1.
    10030    2    1    2    0    0  0.00000000000E+00  0.00000000000E+00  0.36758853414E+03  0.23226030483E+04  0.22933302399E+04 0.  0.
        5    1    3    3  502    0 -0.73497628011E+03  0.81203800560E+03  0.52757211905E+03  0.12157097868E+04  0.46999998093E+01 0.  1.
       -5    1    3    3    0  502  0.73497628011E+03 -0.81203800560E+03 -0.15998358490E+03  0.11068932615E+04  0.46999998093E+01 0. -1.
</event>
<event>
 5   0  0.4489500E-05  0.2225837E+04  0.7818609E-02  0.8507751E-01
       -3   -1    0    0    0  501  0.00000000000E+00  0.00000000000E+00  0.82300965003E+03  0.82300965623E+03  0.10100000352E+00 0. -1.
        3   -1    0    0  501    0  0.00000000000E+00  0.00000000000E+00 -0.15049483915E+04  0.15049483948E+04  0.10100000352E+00 0.  1.
    10030    2    1    2    0    0  0.00000000000E+00  0.00000000000E+00 -0.68193874143E+03  0.23279580511E+04  0.22258365260E+04 0.  0.
        5    1    3    3  502    0  0.28496172001E+03  0.90764886012E+03 -0.94499144497E+03  0.13409178037E+04  0.46999998093E+01 0.  1.
       -5    1    3    3    0  502 -0.28496172001E+03 -0.90764886012E+03  0.26305270354E+03  0.98704024740E+03  0.46999998093E+01 0. -1.
</event>
<event>
 5   0  0.5642466E-05  0.2262035E+04  0.7818609E-02  0.8493043E-01
       -1   -1    0    0    0  501  0.00000000000E+00  0.00000000000E+00  0.89378592831E+03  0.89378592832E+03  0.50400001928E-02 0. -1.
        1   -1    0    0  501    0  0.00000000000E+00  0.00000000000E+00 -0.14312154389E+04  0.14312154389E+04  0.50400001928E-02 0.  1.
    10030    2    1    2    0    0  0.00000000000E+00  0.00000000000E+00 -0.53742951056E+03  0.23250013672E+04  0.22620346767E+04 0.  0.
        1    1    3    3  502    0 -0.16867942690E+02 -0.64212887345E+03 -0.12255338621E+04  0.13836716608E+04  0.50400001928E-02 0.  1.
       -1    1    3    3    0  502  0.16867942690E+02  0.64212887345E+03  0.68810435154E+03  0.94132970645E+03  0.50400001928E-02 0. -1.
</event>
<event>
 5   0  0.1234988E-04  0.2318413E+04  0.7818609E-02  0.8470696E-01
       -2   -1    0    0    0  501  0.00000000000E+00  0.00000000000E+00  0.75243827793E+03  0.75243827793E+03  0.25500000920E-02 0. -1.
        2   -1    0    0  501    0  0.00000000000E+00  0.00000000000E+00 -0.17858733217E+04  0.17858733217E+04  0.25500000920E-02 0.  1.
    10030    2    1    2    0    0  0.00000000000E+00  0.00000000000E+00 -0.10334350437E+04  0.25383115996E+04  0.23184127732E+04 0.  0.
        5    1    3    3  502    0  0.10956358541E+04  0.37843361502E+03 -0.52806551460E+03  0.12737759628E+04  0.46999998093E+01 0. -1.
       -5    1    3    3    0  502 -0.10956358541E+04 -0.37843361502E+03 -0.50536952914E+03  0.12645356368E+04  0.46999998093E+01 0.  1.
</event>
<event>
 5   0  0.5924654E-05  0.2136489E+04  0.7818609E-02  0.8545338E-01
       -1   -1    0    0    0  501  0.00000000000E+00  0.00000000000E+00  0.11352629041E+04  0.11352629041E+04  0.50400001928E-02 0. -1.
        1   -1    0    0  501    0  0.00000000000E+00  0.00000000000E+00 -0.10051820123E+04  0.10051820123E+04  0.50400001928E-02 0.  1.
    10030    2    1    2    0    0  0.00000000000E+00  0.00000000000E+00  0.13008089177E+03  0.21404449164E+04  0.21364885682E+04 0.  0.
        5    1    3    3  502    0  0.10244107846E+04 -0.47092969888E+02 -0.23465989378E+03  0.10520088209E+04  0.46999998093E+01 0.  1.
       -5    1    3    3    0  502 -0.10244107846E+04  0.47092969888E+02  0.36474078555E+03  0.10884360955E+04  0.46999998093E+01 0. -1.
</event>
<event>
 5   0  0.1257524E-04  0.2344450E+04  0.7818609E-02  0.8460599E-01
       -2   -1    0    0    0  501  0.00000000000E+00  0.00000000000E+00  0.13342764332E+04  0.13342764332E+04  0.25500000920E-02 0. -1.
        2   -1    0    0  501    0  0.00000000000E+00  0.00000000000E+00 -0.10298547299E+04  0.10298547299E+04  0.25500000920E-02 0.  1.
    10030    2    1    2    0    0  0.00000000000E+00  0.00000000000E+00  0.30442170330E+03  0.23641311630E+04  0.23444495265E+04 0.  0.
        3    1    3    3  502    0 -0.61091068446E+03  0.54370431718E+03 -0.69465162875E+03  0.10730177745E+04  0.10100000352E+00 0.  1.
       -3    1    3    3    0  502  0.61091068446E+03 -0.54370431718E+03  0.99907333206E+03  0.12911133885E+04  0.10100000352E+00 0. -1.
</event>
<event>
 5   0  0.5642466E-05  0.2257051E+04  0.7818609E-02  0.8495050E-01
       -1   -1    0    0    0  501  0.00000000000E+00  0.00000000000E+00  0.58304400051E+03  0.58304400053E+03  0.50400001928E-02 0. -1.
        1   -1    0    0  501    0  0.00000000000E+00  0.00000000000E+00 -0.21843464265E+04  0.21843464265E+04  0.50400001928E-02 0.  1.
    10030    2    1    2    0    0  0.00000000000E+00  0.00000000000E+00 -0.16013024260E+04  0.27673904270E+04  0.22570512436E+04 0.  0.
        1    1    3    3  502    0 -0.63002633382E+03 -0.71191606922E+03 -0.15462749997E+04  0.18151374729E+04  0.50400001928E-02 0.  1.
       -1    1    3    3    0  502  0.63002633382E+03  0.71191606922E+03 -0.55027426284E+02  0.95225295410E+03  0.50400001928E-02 0. -1.
</event>
<event>
 5   0  0.5663790E-05  0.2333653E+04  0.7818609E-02  0.8464769E-01
        1   -1    0    0  501    0  0.00000000000E+00  0.00000000000E+00  0.59149389317E+03  0.59149389319E+03  0.50400001928E-02 0. -1.
       -1   -1    0    0    0  501  0.00000000000E+00  0.00000000000E+00 -0.23017715774E+04  0.23017715774E+04  0.50400001928E-02 0.  1.
    10030    2    1    2    0    0  0.00000000000E+00  0.00000000000E+00 -0.17102776843E+04  0.28932654706E+04  0.23336527861E+04 0.  0.
        3    1    3    3  502    0  0.86450610904E+03  0.67869740128E+03 -0.13408543463E+04  0.17337506635E+04  0.10100000352E+00 0.  1.
       -3    1    3    3    0  502 -0.86450610904E+03 -0.67869740128E+03 -0.36942333798E+03  0.11595148071E+04  0.10100000352E+00 0. -1.
</event>
<event>
 5   0  0.1257524E-04  0.2253472E+04  0.7818609E-02  0.8496496E-01
        2   -1    0    0  501    0  0.00000000000E+00  0.00000000000E+00  0.15866127030E+04  0.15866127030E+04  0.25500000920E-02 0.  1.
       -2   -1    0    0    0  501  0.00000000000E+00  0.00000000000E+00 -0.80015335901E+03  0.80015335901E+03  0.25500000920E-02 0. -1.
    10030    2    1    2    0    0  0.00000000000E+00  0.00000000000E+00  0.78645934397E+03  0.23867660620E+04  0.22534715297E+04 0.  0.
        3    1    3    3  502    0 -0.36784520084E+03  0.29494231997E+03 -0.69064561803E+03  0.83623707392E+03  0.10100000352E+00 0. -1.
       -3    1    3    3    0  502  0.36784520084E+03 -0.29494231997E+03  0.14771049620E+04  0.15505289881E+04  0.10100000352E+00 0.  1.
</event>
<event>
 5   0  0.1234988E-04  0.2421951E+04  0.7818609E-02  0.8431331E-01
        2   -1    0    0  501    0  0.00000000000E+00  0.00000000000E+00  0.15867722268E+04  0.15867722268E+04  0.25500000920E-02 0. -1.
       -2   -1    0    0    0  501  0.00000000000E+00  0.00000000000E+00 -0.92417902835E+03  0.92417902836E+03  0.25500000920E-02 0.  1.
    10030    2    1    2    0    0  0.00000000000E+00  0.00000000000E+00  0.66259319843E+03  0.25109512551E+04  0.24219509613E+04 0.  0.
        5    1    3    3  502    0  0.12039147988E+04 -0.12983264619E+03  0.31769322121E+03  0.12518859499E+04  0.46999998093E+01 0. -1.
       -5    1    3    3    0  502 -0.12039147988E+04  0.12983264619E+03  0.34489997723E+03  0.12590653053E+04  0.46999998093E+01 0.  1.
</event>
<event>
 5   0  0.1234988E-04  0.2376573E+04  0.7818609E-02  0.8448327E-01
       -2   -1    0    0    0  501  0.00000000000E+00  0.00000000000E+00  0.92605992196E+03  0.92605992197E+03  0.25500000920E-02 0. -1.
        2   -1    0    0  501    0  0.00000000000E+00  0.00000000000E+00 -0.15247665821E+04  0.15247665821E+04  0.25500000920E-02 0.  1.
    10030    2    1    2    0    0  0.00000000000E+00  0.00000000000E+00 -0.59870666009E+03  0.24508265040E+04  0.23765733500E+04 0.  0.
        5    1    3    3  502    0 -0.18514631238E+03 -0.33720461757E+03 -0.14587653714E+04  0.15086433011E+04  0.46999998093E+01 0.  1.
       -5    1    3    3    0  502  0.18514631238E+03  0.33720461757E+03  0.86005871129E+03  0.94218320297E+03  0.46999998093E+01 0. -1.
</event>
<event>
 5   0  0.5632156E-05  0.2264748E+04  0.7818609E-02  0.8491952E-01
        1   -1    0    0  501    0  0.00000000000E+00  0.00000000000E+00  0.12586751849E+04  0.12586751849E+04  0.50400001928E-02 0. -1.
       -1   -1    0    0    0  501  0.00000000000E+00  0.00000000000E+00 -0.10187461528E+04  0.10187461528E+04  0.50400001928E-02 0.  1.
    10030    2    1    2    0    0  0.00000000000E+00  0.00000000000E+00  0.23992903205E+03  0.22774213377E+04  0.22647476701E+04 0.  0.
        4    1    3    3  502    0 -0.20397175849E+03 -0.20497123718E+03  0.12209205515E+04  0.12546976896E+04  0.12699999809E+01 0. -1.
       -4    1    3    3    0  502  0.20397175849E+03  0.20497123718E+03 -0.98099151943E+03  0.10227236481E+04  0.12699999809E+01 0.  1.
</event>
<event>
 5   0  0.5924654E-05  0.2220666E+04  0.7818609E-02  0.8509876E-01
        1   -1    0    0  501    0  0.00000000000E+00  0.00000000000E+00  0.95805732651E+03  0.95805732652E+03  0.50400001928E-02 0.  1.
       -1   -1    0    0    0  501  0.00000000000E+00  0.00000000000E+00 -0.12868113462E+04  0.12868113462E+04  0.50400001928E-02 0. -1.
    10030    2    1    2    0    0  0.00000000000E+00  0.00000000000E+00 -0.32875401964E+03  0.22448686727E+04  0.22206657002E+04 0.  0.
        5    1    3    3  502    0 -0.16134422022E+03 -0.70412176180E+03 -0.10167737935E+04  0.12472651883E+04  0.46999998093E+01 0. -1.
       -5    1    3    3    0  502  0.16134422022E+03  0.70412176180E+03  0.68801977384E+03  0.99760348438E+03  0.46999998093E+01 0.  1.
</event>
<event>
 5   0  0.5632156E-05  0.2276655E+04  0.7818609E-02  0.8487183E-01
       -1   -1    0    0    0  501  0.00000000000E+00  0.00000000000E+00  0.74494141640E+03  0.74494141642E+03  0.50400001928E-02 0. -1.
        1   -1    0    0  501    0  0.00000000000E+00  0.00000000000E+00 -0.17394514859E+04  0.17394514859E+04  0.50400001928E-02 0.  1.
    10030    2    1    2    0    0  0.00000000000E+00  0.00000000000E+00 -0.99451006945E+03  0.24843929023E+04  0.22766549617E+04 0.  0.
        4    1    3    3  502    0 -0.57705906795E+03  0.82334845585E+03 -0.10797070290E+04  0.14753537641E+04  0.12699999809E+01 0.  1.
       -4    1    3    3    0  502  0.57705906795E+03 -0.82334845585E+03  0.85196959600E+02  0.10090391382E+04  0.12699999809E+01 0. -1.
</event>
<event>
 5   0  0.5642466E-05  0.2124518E+04  0.7818609E-02  0.8550519E-01
        1   -1    0    0  501    0  0.00000000000E+00  0.00000000000E+00  0.11092412534E+04  0.11092412534E+04  0.50400001928E-02 0.  1.
       -1   -1    0    0    0  501  0.00000000000E+00  0.00000000000E+00 -0.10172667228E+04  0.10172667228E+04  0.50400001928E-02 0. -1.
    10030    2    1    2    0    0  0.00000000000E+00  0.00000000000E+00  0.91974530572E+02  0.21265079762E+04  0.21245180297E+04 0.  0.
        1    1    3    3  502    0 -0.42495595525E+03 -0.35732195408E+03 -0.86046998655E+03  0.10240484073E+04  0.50400001928E-02 0. -1.
       -1    1    3    3    0  502  0.42495595525E+03  0.35732195408E+03  0.95244451712E+03  0.11024595689E+04  0.50400001928E-02 0.  1.
</event>
<event>
 5   0  0.5632156E-05  0.2333012E+04  0.7818609E-02  0.8465017E-01
        1   -1    0    0  501    0  0.00000000000E+00  0.00000000000E+00  0.12545295813E+04  0.12545295813E+04  0.50400001928E-02 0.  1.
       -1   -1    0    0    0  501  0.00000000000E+00  0.00000000000E+00 -0.10846588464E+04  0.10846588464E+04  0.50400001928E-02 0. -1.
    10030    2    1    2    0    0  0.00000000000E+00  0.00000000000E+00  0.16987073490E+03  0.23391884276E+04  0.23330123089E+04 0.  0.
        4    1    3    3  502    0 -0.68567958122E+03  0.81918771498E+03  0.55469460232E+03  0.12037079028E+04  0.12699999809E+01 0.  1.
       -4    1    3    3    0  502  0.68567958122E+03 -0.81918771498E+03 -0.38482386742E+03  0.11354805248E+04  0.12699999809E+01 0. -1.
</event>
<event>
 5   0  0.1257524E-04  0.2413072E+04  0.7818609E-02  0.8434626E-01
        2   -1    0    0  501    0  0.00000000000E+00  0.00000000000E+00  0.14331970113E+04  0.14331970113E+04  0.25500000920E-02 0. -1.
       -2   -1    0    0    0  501  0.00000000000E+00  0.00000000000E+00 -0.10157217422E+04  0.10157217422E+04  0.25500000920E-02 0.  1.
    10030    2    1    2    0    0  0.00000000000E+00  0.00000000000E+00  0.41747526918E+03  0.24489187535E+04  0.24130722038E+04 0.  0.
        3    1    3    3  502    0 -0.34842302773E+03  0.10099253138E+04  0.77776431015E+03  0.13214632337E+04  0.10100000352E+00 0. -1.
       -3    1    3    3    0  502  0.34842302773E+03 -0.10099253138E+04 -0.36028904097E+03  0.11274555198E+04  0.10100000352E+00 0.  1.
</event>
<event>
 5   0  0.1234988E-04  0.2569540E+04  0.7818609E-02  0.8378622E-01
        2   -1    0    0  501    0  0.00000000000E+00  0.00000000000E+00  0.23049129367E+04  0.23049129367E+04  0.25500000920E-02 0.  1.
       -2   -1    0    0    0  501  0.00000000000E+00  0.00000000000E+00 -0.71613708233E+03  0.71613708234E+03  0.25500000920E-02 0. -1.
    10030    2    1    2    0    0  0.00000000000E+00  0.00000000000E+00  0.15887758544E+04  0.30210500190E+04  0.25695397452E+04 0.  0.
        5    1    3    3  502    0  0.54002283645E+03 -0.61914850984E+03  0.19556969996E+04  0.21212596224E+04  0.46999998093E+01 0.  1.
       -5    1    3    3    0  502 -0.54002283645E+03  0.61914850984E+03 -0.36692114525E+03  0.89979039668E+03  0.46999998093E+01 0. -1.
</event>
<event>
 5   0  0.1234988E-04  0.2286840E+04  0.7818609E-02  0.8483128E-01
       -2   -1    0    0    0  501  0.00000000000E+00  0.00000000000E+00  0.79785025585E+03  0.79785025586E+03  0.25500000920E-02 0.  1.
        2   -1    0    0  501    0  0.00000000000E+00  0.00000000000E+00 -0.16386644516E+04  0.16386644516E+04  0.25500000920E-02 0. -1.
    10030    2    1    2    0    0  0.00000000000E+00  0.00000000000E+00 -0.84081419571E+03  0.24365147074E+04  0.22868396113E+04 0.  0.
        5    1    3    3  502    0  0.10396541623E+02 -0.23121204667E+03 -0.16134357372E+04  0.16299583021E+04  0.46999998093E+01 0. -1.
       -5    1    3    3    0  502 -0.10396541623E+02  0.23121204667E+03  0.77262154147E+03  0.80655640531E+03  0.46999998093E+01 0.  1.
</event>
<event>
 5   0  0.5642466E-05  0.2190880E+04  0.7818609E-02  0.8522234E-01
        1   -1    0    0  501    0  0.00000000000E+00  0.00000000000E+00  0.91592650412E+03  0.91592650413E+03  0.50400001928E-02 0.  1.
       -1   -1    0    0    0  501  0.00000000000E+00  0.00000000000E+00 -0.13101361832E+04  0.13101361833E+04  0.50400001928E-02 0. -1.
    10030    2    1    2    0    0  0.00000000000E+00  0.00000000000E+00 -0.39420967912E+03  0.22260626874E+04  0.21908796902E+04 0.  0.
        1    1    3    3  502    0 -0.34288922501E+03  0.82231467321E+03 -0.84468913877E+03  0.12277109528E+04  0.50400001928E-02 0. -1.
       -1    1    3    3    0  502  0.34288922501E+03 -0.82231467321E+03  0.45047945965E+03  0.99835173461E+03  0.50400001928E-02 0.  1.
</event>
<event>
 5   0  0.1237296E-04  0.2284584E+04  0.7818609E-02  0.8484024E-01
       -2   -1    0    0    0  501  0.00000000000E+00  0.00000000000E+00  0.19399585705E+04  0.19399585705E+04  0.25500000920E-02 0. -1.
        2   -1    0    0  501    0  0.00000000000E+00  0.00000000000E+00 -0.67260782437E+03  0.67260782437E+03  0.25500000920E-02 0.  1.
    10030    2    1    2    0    0  0.00000000000E+00  0.00000000000E+00  0.12673507461E+04  0.26125663949E+04  0.22845842628E+04 0.  0.
        1    1    3    3  502    0  0.34256946779E+03  0.82936280136E+03 -0.17465054210E+03  0.91416590859E+03  0.50400001928E-02 0.  1.
       -1    1    3    3    0  502 -0.34256946779E+03 -0.82936280136E+03  0.14420012882E+04  0.16984004863E+04  0.50400001928E-02 0. -1.
</event>
<event>
 5   0  0.1237296E-04  0.2318986E+04  0.7818609E-02  0.8470473E-01
       -2   -1    0    0    0  501  0.00000000000E+00  0.00000000000E+00  0.90583926564E+03  0.90583926565E+03  0.25500000920E-02 0. -1.
        2   -1    0    0  501    0  0.00000000000E+00  0.00000000000E+00 -0.14841744190E+04  0.14841744190E+04  0.25500000920E-02 0.  1.
    10030    2    1    2    0    0  0.00000000000E+00  0.00000000000E+00 -0.57833515335E+03  0.23900136846E+04  0.23189855246E+04 0.  0.
        1    1    3    3  502    0  0.65999655880E+02  0.80089750428E+03  0.57227470171E+03  0.98655516885E+03  0.50400001928E-02 0. -1.
       -1    1    3    3    0  502 -0.65999655880E+02 -0.80089750428E+03 -0.11506098551E+04  0.14034585158E+04  0.50400001928E-02 0.  1.
</event>
<event>
 5   0  0.5663790E-05  0.2348503E+04  0.7818609E-02  0.8459039E-01
        1   -1    0    0  501    0  0.00000000000E+00  0.00000000000E+00  0.14630437902E+04  0.14630437902E+04  0.50400001928E-02 0. -1.
       -1   -1    0    0    0  501  0.00000000000E+00  0.00000000000E+00 -0.94246433099E+03  0.94246433100E+03  0.50400001928E-02 0.  1.
    10030    2    1    2    0    0  0.00000000000E+00  0.00000000000E+00  0.52057945924E+03  0.24055081212E+04  0.23485030015E+04 0.  0.
        3    1    3    3  502    0 -0.63652274568E+03 -0.98099327662E+03  0.36944840857E+03  0.12263772467E+04  0.10100000352E+00 0. -1.
       -3    1    3    3    0  502  0.63652274568E+03  0.98099327662E+03  0.15113105067E+03  0.11791308745E+04  0.10100000352E+00 0.  1.
</event>
<event>
 5   0  0.1281432E-04  0.2331444E+04  0.7818609E-02  0.8465625E-01
       -2   -1    0    0    0  501  0.00000000000E+00  0.00000000000E+00  0.86695446013E+03  0.86695446013E+03  0.25500000920E-02 0. -1.
        2   -1    0    0  501    0  0.00000000000E+00  0.00000000000E+00 -0.15674505007E+04  0.15674505007E+04  0.25500000920E-02 0.  1.
    10030    2    1    2    0    0  0.00000000000E+00  0.00000000000E+00 -0.70049604053E+03  0.24344049608E+04  0.23314443614E+04 0.  0.
        4    1    3    3  502    0 -0.94105303863E+03  0.45563172663E+03  0.18800240712E+03  0.10623218014E+04  0.12699999809E+01 0. -1.
       -4    1    3    3    0  502  0.94105303863E+03 -0.45563172663E+03 -0.88849844765E+03  0.13720831594E+04  0.12699999809E+01 0.  1.
</event>
<event>
 5   0  0.5843670E-05  0.2273235E+04  0.7818609E-02  0.8488550E-01
        1   -1    0    0  501    0  0.00000000000E+00  0.00000000000E+00  0.38407206728E+03  0.38407206731E+03  0.50400001928E-02 0. -1.
       -1   -1    0    0    0  501  0.00000000000E+00  0.00000000000E+00 -0.33636899761E+04  0.33636899761E+04  0.50400001928E-02 0.  1.
    10030    2    1    2    0    0  0.00000000000E+00  0.00000000000E+00 -0.29796179088E+04  0.37477620434E+04  0.22732350190E+04 0.  0.
        2    1    3    3  502    0 -0.10893929925E+04  0.96911694640E+02 -0.19999057490E+04  0.22794279926E+04  0.25500000920E-02 0.  1.
       -2    1    3    3    0  502  0.10893929925E+04 -0.96911694640E+02 -0.97971215980E+03  0.14683340508E+04  0.25500000920E-02 0. -1.
</event>
<event>
 5   0  0.1270613E-04  0.2061930E+04  0.7818609E-02  0.8578201E-01
        2   -1    0    0  501    0  0.00000000000E+00  0.00000000000E+00  0.14397145548E+04  0.14397145548E+04  0.25500000920E-02 0. -1.
       -2   -1    0    0    0  501  0.00000000000E+00  0.00000000000E+00 -0.73826378512E+03  0.73826378513E+03  0.25500000920E-02 0.  1.
    10030    2    1    2    0    0  0.00000000000E+00  0.00000000000E+00  0.70145076964E+03  0.21779783399E+04  0.20619302769E+04 0.  0.
        2    1    3    3  502    0 -0.89851669665E+03  0.46169538548E+03  0.13323854908E+03  0.10189442547E+04  0.25500000920E-02 0.  1.
       -2    1    3    3    0  502  0.89851669665E+03 -0.46169538548E+03  0.56821222056E+03  0.11590340852E+04  0.25500000920E-02 0. -1.
</event>
<event>
 5   0  0.5642466E-05  0.1609849E+04  0.7818609E-02  0.8814520E-01
       -1   -1    0    0    0  501  0.00000000000E+00  0.00000000000E+00  0.52107658579E+03  0.52107658581E+03  0.50400001928E-02 0. -1.
        1   -1    0    0  501    0  0.00000000000E+00  0.00000000000E+00 -0.12433931405E+04  0.12433931405E+04  0.50400001928E-02 0.  1.
    10030    2    1    2    0    0  0.00000000000E+00  0.00000000000E+00 -0.72231655468E+03  0.17644697263E+04  0.16098485052E+04 0.  0.
        1    1    3    3  502    0  0.15678006833E+03 -0.66654900656E+03 -0.82492412196E+03  0.10720855260E+04  0.50400001928E-02 0.  1.
       -1    1    3    3    0  502 -0.15678006833E+03  0.66654900656E+03  0.10260756728E+03  0.69238420033E+03  0.50400001928E-02 0. -1.
</event>
<event>
 5   0  0.1270613E-04  0.2277119E+04  0.7818609E-02  0.8486998E-01
        2   -1    0    0  501    0  0.00000000000E+00  0.00000000000E+00  0.15127439413E+04  0.15127439413E+04  0.25500000920E-02 0.  1.
       -2   -1    0    0    0  501  0.00000000000E+00  0.00000000000E+00 -0.85693112452E+03  0.85693112452E+03  0.25500000920E-02 0. -1.
    10030    2    1    2    0    0  0.00000000000E+00  0.00000000000E+00  0.65581281682E+03  0.23696750659E+04  0.22771186765E+04 0.  0.
        2    1    3    3  502    0 -0.86022506120E+03 -0.51278221468E+03 -0.23575953885E+03  0.10288417351E+04  0.25500000920E-02 0. -1.
       -2    1    3    3    0  502  0.86022506120E+03  0.51278221468E+03  0.89157235567E+03  0.13408333308E+04  0.25500000920E-02 0.  1.
</event>
<event>
 5   0  0.1234988E-04  0.2196829E+04  0.7818609E-02  0.8519749E-01
       -2   -1    0    0    0  501  0.00000000000E+00  0.00000000000E+00  0.84550545416E+03  0.84550545416E+03  0.25500000920E-02 0.  1.
        2   -1    0    0  501    0  0.00000000000E+00  0.00000000000E+00 -0.14269737402E+04  0.14269737402E+04  0.25500000920E-02 0. -1.
    10030    2    1    2    0    0  0.00000000000E+00  0.00000000000E+00 -0.58146828607E+03  0.22724791944E+04  0.21968286964E+04 0.  0.
        5    1    3    3  502    0 -0.78190350352E+03 -0.19866588265E+03 -0.10618234533E+04  0.13335412846E+04  0.46999998093E+01 0. -1.
       -5    1    3    3    0  502  0.78190350352E+03  0.19866588265E+03  0.48035516724E+03  0.93893790979E+03  0.46999998093E+01 0.  1.
</event>
<event>
 5   0  0.1234988E-04  0.2259701E+04  0.7818609E-02  0.8493982E-01
        2   -1    0    0  501    0  0.00000000000E+00  0.00000000000E+00  0.12331156455E+04  0.12331156455E+04  0.25500000920E-02 0. -1.
       -2   -1    0    0    0  501  0.00000000000E+00  0.00000000000E+00 -0.10352334823E+04  0.10352334823E+04  0.25500000920E-02 0.  1.
    10030    2    1    2    0    0  0.00000000000E+00  0.00000000000E+00  0.19788216321E+03  0.22683491277E+04  0.22597013995E+04 0.  0.
        5    1    3    3  502    0 -0.44807289400E+03 -0.10250197425E+04  0.25799530654E+03  0.11480498504E+04  0.46999998093E+01 0.  1.
       -5    1    3    3    0  502  0.44807289400E+03  0.10250197425E+04 -0.60113143330E+02  0.11202992773E+04  0.46999998093E+01 0. -1.
</event>
<event>
 5   0  0.1234988E-04  0.2347850E+04  0.7818609E-02  0.8459290E-01
       -2   -1    0    0    0  501  0.00000000000E+00  0.00000000000E+00  0.54548136970E+03  0.54548136971E+03  0.25500000920E-02 0.  1.
        2   -1    0    0  501    0  0.00000000000E+00  0.00000000000E+00 -0.25263921212E+04  0.25263921212E+04  0.25500000920E-02 0. -1.
    10030    2    1    2    0    0  0.00000000000E+00  0.00000000000E+00 -0.19809107515E+04  0.30718734909E+04  0.23478499396E+04 0.  0.
        5    1    3    3  502    0  0.10498139442E+04 -0.50685404370E+03 -0.11711223590E+04  0.16524406219E+04  0.46999998093E+01 0.  1.
       -5    1    3    3    0  502 -0.10498139442E+04  0.50685404370E+03 -0.80978839254E+03  0.14194328691E+04  0.46999998093E+01 0. -1.
</event>
<event>
 5   0  0.5642466E-05  0.2182264E+04  0.7818609E-02  0.8525847E-01
        1   -1    0    0  501    0  0.00000000000E+00  0.00000000000E+00  0.12100879905E+04  0.12100879905E+04  0.50400001928E-02 0.  1.
       -1   -1    0    0    0  501  0.00000000000E+00  0.00000000000E+00 -0.98387008327E+03  0.98387008328E+03  0.50400001928E-02 0. -1.
    10030    2    1    2    0    0  0.00000000000E+00  0.00000000000E+00  0.22621790720E+03  0.21939580738E+04  0.21822643029E+04 0.  0.
        1    1    3    3  502    0 -0.22152317868E+03 -0.10885045154E+03  0.11816534884E+04  0.12071561234E+04  0.50400001928E-02 0.  1.
       -1    1    3    3    0  502  0.22152317868E+03  0.10885045154E+03 -0.95543558119E+03  0.98680195041E+03  0.50400001928E-02 0. -1.
</event>
<event>
 5   0  0.5642466E-05  0.2379803E+04  0.7818609E-02  0.8447104E-01
        1   -1    0    0  501    0  0.00000000000E+00  0.00000000000E+00  0.19034962348E+04  0.19034962348E+04  0.50400001928E-02 0. -1.
       -1   -1    0    0    0  501  0.00000000000E+00  0.00000000000E+00 -0.74382364808E+03  0.74382364810E+03  0.50400001928E-02 0.  1.
    10030    2    1    2    0    0  0.00000000000E+00  0.00000000000E+00  0.11596725867E+04  0.26473198829E+04  0.23798029444E+04 0.  0.
        1    1    3    3  502    0  0.21784956011E+03  0.15351326128E+03  0.18698693998E+04  0.18887658205E+04  0.50400001928E-02 0. -1.
       -1    1    3    3    0  502 -0.21784956011E+03 -0.15351326128E+03 -0.71019681311E+03  0.75855406241E+03  0.50400001928E-02 0.  1.
</event>
<event>
 5   0  0.5663790E-05  0.2252648E+04  0.7818609E-02  0.8496829E-01
        1   -1    0    0  501    0  0.00000000000E+00  0.00000000000E+00  0.11639413042E+04  0.11639413042E+04  0.50400001928E-02 0. -1.
       -1   -1    0    0    0  501  0.00000000000E+00  0.00000000000E+00 -0.10899226621E+04  0.10899226621E+04  0.50400001928E-02 0.  1.
    10030    2    1    2    0    0  0.00000000000E+00  0.00000000000E+00  0.74018642118E+02  0.22538639663E+04  0.22526482236E+04 0.  0.
        3    1    3    3  502    0  0.53752193454E+03 -0.16829788485E+03  0.10129084670E+04  0.11589812686E+04  0.10100000352E+00 0. -1.
       -3    1    3    3    0  502 -0.53752193454E+03  0.16829788485E+03 -0.93888982492E+03  0.10948826977E+04  0.10100000352E+00 0.  1.
</event>
<event>
 5   0  0.1237296E-04  0.2265564E+04  0.7818609E-02  0.8491624E-01
       -2   -1    0    0    0  501  0.00000000000E+00  0.00000000000E+00  0.11095833573E+04  0.11095833573E+04  0.25500000920E-02 0.  1.
        2   -1    0    0  501    0  0.00000000000E+00  0.00000000000E+00 -0.11564659123E+04  0.11564659123E+04  0.25500000920E-02 0. -1.
    10030    2    1    2    0    0  0.00000000000E+00  0.00000000000E+00 -0.46882555010E+02  0.22660492697E+04  0.22655642385E+04 0.  0.
        1    1    3    3  502    0  0.59603911981E+02 -0.50092958081E+03 -0.10379129510E+04  0.11540131564E+04  0.50400001928E-02 0. -1.
       -1    1    3    3    0  502 -0.59603911981E+02  0.50092958081E+03  0.99103039604E+03  0.11120361132E+04  0.50400001928E-02 0.  1.
</event>
<event>
 5   0  0.5924654E-05  0.2285402E+04  0.7818609E-02  0.8483699E-01
       -1   -1    0    0    0  501  0.00000000000E+00  0.00000000000E+00  0.72182961371E+03  0.72182961373E+03  0.50400001928E-02 0. -1.
        1   -1    0    0  501    0  0.00000000000E+00  0.00000000000E+00 -0.18089668116E+04  0.18089668116E+04  0.50400001928E-02 0.  1.
    10030    2    1    2    0    0  0.00000000000E+00  0.00000000000E+00 -0.10871371978E+04  0.25307964253E+04  0.22854022095E+04 0.  0.
        5    1    3    3  502    0 -0.36834529839E+03  0.55253716661E+03  0.48621130238E+03  0.82304258692E+03  0.46999998093E+01 0. -1.
       -5    1    3    3    0  502  0.36834529839E+03 -0.55253716661E+03 -0.15733485002E+04  0.17077538384E+04  0.46999998093E+01 0.  1.
</event>
<event>
 5   0  0.1237296E-04  0.1453113E+04  0.7818609E-02  0.8916245E-01
        2   -1    0    0  501    0  0.00000000000E+00  0.00000000000E+00  0.11636660879E+04  0.11636660879E+04  0.25500000920E-02 0.  1.
       -2   -1    0    0    0  501  0.00000000000E+00  0.00000000000E+00 -0.45363878445E+03  0.45363878446E+03  0.25500000920E-02 0. -1.
    10030    2    1    2    0    0  0.00000000000E+00  0.00000000000E+00  0.71002730341E+03  0.16173048723E+04  0.14531126173E+04 0.  0.
        1    1    3    3  502    0  0.12703942666E+03 -0.67383065640E+03  0.62235760573E+03  0.92602146782E+03  0.50400001928E-02 0.  1.
       -1    1    3    3    0  502 -0.12703942666E+03  0.67383065640E+03  0.87669697675E+02  0.69128340450E+03  0.50400001928E-02 0. -1.
</event>
<event>
 5   0  0.1257524E-04  0.2335959E+04  0.7818609E-02  0.8463876E-01
        2   -1    0    0  501    0  0.00000000000E+00  0.00000000000E+00  0.20556085257E+04  0.20556085257E+04  0.25500000920E-02 0. -1.
       -2   -1    0    0    0  501  0.00000000000E+00  0.00000000000E+00 -0.66363621126E+03  0.66363621126E+03  0.25500000920E-02 0.  1.
    10030    2    1    2    0    0  0.00000000000E+00  0.00000000000E+00  0.13919723145E+04  0.27192447370E+04  0.23359591211E+04 0.  0.
        3    1    3    3  502    0 -0.91711714386E+02 -0.38918512777E+03  0.19734553245E+04  0.20135545760E+04  0.10100000352E+00 0. -1.
       -3    1    3    3    0  502  0.91711714386E+02  0.38918512777E+03 -0.58148301004E+03  0.70569016105E+03  0.10100000352E+00 0.  1.
</event>
<event>
 5   0  0.1270613E-04  0.2179458E+04  0.7818609E-02  0.8527027E-01
       -2   -1    0    0    0  501  0.00000000000E+00  0.00000000000E+00  0.77056716462E+03  0.77056716462E+03  0.25500000920E-02 0.  1.
        2   -1    0    0  501    0  0.00000000000E+00  0.00000000000E+00 -0.15410854384E+04  0.15410854384E+04  0.25500000920E-02 0. -1.
    10030    2    1    2    0    0  0.00000000000E+00  0.00000000000E+00 -0.77051827377E+03  0.23116526030E+04  0.21794584985E+04 0.  0.
        2    1    3    3  502    0 -0.21484220077E+03 -0.80894395854E+03 -0.11254123889E+04  0.14025336161E+04  0.25500000920E-02 0. -1.
       -2    1    3    3    0  502  0.21484220077E+03  0.80894395854E+03  0.35489411515E+03  0.90911898686E+03  0.25500000920E-02 0.  1.
</event>
<event>
 5   0  0.5843670E-05  0.2352460E+04  0.7818609E-02  0.8457519E-01
       -1   -1    0    0    0  501  0.00000000000E+00  0.00000000000E+00  0.98602363122E+03  0.98602363123E+03  0.50400001928E-02 0.  1.
        1   -1    0    0  501    0  0.00000000000E+00  0.00000000000E+00 -0.14031273281E+04  0.14031273281E+04  0.50400001928E-02 0. -1.
    10030    2    1    2    0    0  0.00000000000E+00  0.00000000000E+00 -0.41710369688E+03  0.23891509593E+04  0.23524597366E+04 0.  0.
        2    1    3    3  502    0  0.11035960180E+04  0.51993161342E+02  0.20133840887E+03  0.11230158568E+04  0.25500000920E-02 0.  1.
       -2    1    3    3    0  502 -0.11035960180E+04 -0.51993161342E+02 -0.61844210575E+03  0.12661351025E+04  0.25500000920E-02 0. -1.
</event>
<event>
 5   0  0.1234988E-04  0.2331483E+04  0.7818609E-02  0.8465610E-01
        2   -1    0    0  501    0  0.00000000000E+00  0.00000000000E+00  0.10940906947E+04  0.10940906947E+04  0.25500000920E-02 0.  1.
       -2   -1    0    0    0  501  0.00000000000E+00  0.00000000000E+00 -0.12420846465E+04  0.12420846465E+04  0.25500000920E-02 0. -1.
    10030    2    1    2    0    0  0.00000000000E+00  0.00000000000E+00 -0.14799395181E+03  0.23361753413E+04  0.23314830077E+04 0.  0.
        5    1    3    3  502    0 -0.42420285669E+03 -0.10857326709E+04 -0.61022268299E+02  0.11672657382E+04  0.46999998093E+01 0. -1.
       -5    1    3    3    0  502  0.42420285669E+03  0.10857326709E+04 -0.86971683514E+02  0.11689096031E+04  0.46999998093E+01 0.  1.
</event>
<event>
 5   0  0.4489500E-05  0.2139958E+04  0.7818609E-02  0.8543843E-01
        3   -1    0    0  501    0  0.00000000000E+00  0.00000000000E+00  0.12947212135E+04  0.12947212175E+04  0.10100000352E+00 0.  1.
       -3   -1    0    0    0  501  0.00000000000E+00  0.00000000000E+00 -0.88424801190E+03  0.88424801766E+03  0.10100000352E+00 0. -1.
    10030    2    1    2    0    0  0.00000000000E+00  0.00000000000E+00  0.41047320165E+03  0.21789692352E+04  0.21399576347E+04 0.  0.
        4    1    3    3  502    0 -0.22073720590E+03 -0.77704831582E+03 -0.50921275992E+03  0.95489698238E+03  0.12699999809E+01 0. -1.
       -4    1    3    3    0  502  0.22073720590E+03  0.77704831582E+03  0.91968596157E+03  0.12240722528E+04  0.12699999809E+01 0.  1.
</event>
<event>
 5   0  0.1234988E-04  0.2283091E+04  0.7818609E-02  0.8484618E-01
       -2   -1    0    0    0  501  0.00000000000E+00  0.00000000000E+00  0.75959807703E+03  0.75959807704E+03  0.25500000920E-02 0. -1.
        2   -1    0    0  501    0  0.00000000000E+00  0.00000000000E+00 -0.17155471477E+04  0.17155471477E+04  0.25500000920E-02 0.  1.
    10030    2    1    2    0    0  0.00000000000E+00  0.00000000000E+00 -0.95594907063E+03  0.24751452247E+04  0.22830911628E+04 0.  0.
        5    1    3    3  502    0 -0.55577308974E+03 -0.99702128139E+03 -0.46387840423E+03  0.12321284132E+04  0.46999998093E+01 0.  1.
       -5    1    3    3    0  502  0.55577308974E+03  0.99702128139E+03 -0.49207066640E+03  0.12430168115E+04  0.46999998093E+01 0. -1.
</event>
<event>
 5   0  0.1237296E-04  0.2334907E+04  0.7818609E-02  0.8464283E-01
        2   -1    0    0  501    0  0.00000000000E+00  0.00000000000E+00  0.97206321937E+03  0.97206321937E+03  0.25500000920E-02 0. -1.
       -2   -1    0    0    0  501  0.00000000000E+00  0.00000000000E+00 -0.14021186121E+04  0.14021186122E+04  0.25500000920E-02 0.  1.
    10030    2    1    2    0    0  0.00000000000E+00  0.00000000000E+00 -0.43005539278E+03  0.23741818315E+04  0.23349072205E+04 0.  0.
        1    1    3    3  502    0  0.68472130331E+03  0.49065706789E+03  0.60687560241E+03  0.10382127038E+04  0.50400001928E-02 0. -1.
       -1    1    3    3    0  502 -0.68472130331E+03 -0.49065706789E+03 -0.10369309952E+04  0.13359691277E+04  0.50400001928E-02 0.  1.
</event>
<event>
 5   0  0.1281432E-04  0.2213941E+04  0.7818609E-02  0.8512648E-01
        2   -1    0    0  501    0  0.00000000000E+00  0.00000000000E+00  0.51229045194E+03  0.51229045194E+03  0.25500000920E-02 0. -1.
       -2   -1    0    0    0  501  0.00000000000E+00  0.00000000000E+00 -0.23919712096E+04  0.23919712096E+04  0.25500000920E-02 0.  1.
    10030    2    1    2    0    0  0.00000000000E+00  0.00000000000E+00 -0.18796807577E+04  0.29042616616E+04  0.22139412928E+04 0.  0.
        4    1    3    3  502    0 -0.74163716808E+03  0.81384255348E+01 -0.20178309289E+04  0.21498221307E+04  0.12699999809E+01 0.  1.
       -4    1    3    3    0  502  0.74163716808E+03 -0.81384255348E+01  0.13815017121E+03  0.75443953088E+03  0.12699999809E+01 0. -1.
</event>
<event>
 5   0  0.5843670E-05  0.2282024E+04  0.7818609E-02  0.8485043E-01
       -1   -1    0    0    0  501  0.00000000000E+00  0.00000000000E+00  0.55801511895E+03  0.55801511897E+03  0.50400001928E-02 0.  1.
        1   -1    0    0  501    0  0.00000000000E+00  0.00000000000E+00 -0.23331053133E+04  0.23331053133E+04  0.50400001928E-02 0. -1.
    10030    2    1    2    0    0  0.00000000000E+00  0.00000000000E+00 -0.17750901944E+04  0.28911204323E+04  0.22820236975E+04 0.  0.
        2    1    3    3  502    0  0.36493865477E+03  0.43057136430E+03 -0.21438557097E+04  0.22169098370E+04  0.25500000920E-02 0. -1.
       -2    1    3    3    0  502 -0.36493865477E+03 -0.43057136430E+03  0.36876551531E+03  0.67421059528E+03  0.25500000920E-02 0.  1.
</event>
<event>
 5   0  0.5843670E-05  0.2306276E+04  0.7818609E-02  0.8475451E-01
       -1   -1    0    0    0  501  0.00000000000E+00  0.00000000000E+00  0.13263150456E+04  0.13263150456E+04  0.50400001928E-02 0. -1.
        1   -1    0    0  501    0  0.00000000000E+00  0.00000000000E+00 -0.10025730792E+04  0.10025730792E+04  0.50400001928E-02 0.  1.
    10030    2    1    2    0    0  0.00000000000E+00  0.00000000000E+00  0.32374196645E+03  0.23288881248E+04  0.23062764442E+04 0.  0.
        2    1    3    3  502    0 -0.12423726609E+03 -0.39272540185E+03 -0.92574960009E+03  0.10132524175E+04  0.25500000920E-02 0.  1.
       -2    1    3    3    0  502  0.12423726609E+03  0.39272540185E+03  0.12494915665E+04  0.13156357073E+04  0.25500000920E-02 0. -1.
</event>
<event>
 5   0  0.1234988E-04  0.2427028E+04  0.7818609E-02  0.8429454E-01
        2   -1    0    0  501    0  0.00000000000E+00  0.00000000000E+00  0.16273712547E+04  0.16273712547E+04  0.25500000920E-02 0.  1.
       -2   -1    0    0    0  501  0.00000000000E+00  0.00000000000E+00 -0.90490457178E+03  0.90490457178E+03  0.25500000920E-02 0. -1.
    10030    2    1    2    0    0  0.00000000000E+00  0.00000000000E+00  0.72246668295E+03  0.25322758265E+04  0.24270275552E+04 0.  0.
        5    1    3    3  502    0  0.35705777607E+03  0.11397988864E+04  0.58491738864E+03  0.13299557130E+04  0.46999998093E+01 0.  1.
       -5    1    3    3    0  502 -0.35705777607E+03 -0.11397988864E+04  0.13754929431E+03  0.12023201135E+04  0.46999998093E+01 0. -1.
</event>
<event>
 5   0  0.1257524E-04  0.2228075E+04  0.7818609E-02  0.8506833E-01
        2   -1    0    0  501    0  0.00000000000E+00  0.00000000000E+00  0.16232228408E+04  0.16232228408E+04  0.25500000920E-02 0.  1.
       -2   -1    0    0    0  501  0.00000000000E+00  0.00000000000E+00 -0.76457774397E+03  0.76457774398E+03  0.25500000920E-02 0. -1.
    10030    2    1    2    0    0  0.00000000000E+00  0.00000000000E+00  0.85864509687E+03  0.23878005848E+04  0.22280754544E+04 0.  0.
        3    1    3    3  502    0  0.46408086131E+03 -0.19334611766E+03 -0.63609128609E+03  0.81078104411E+03  0.10100000352E+00 0. -1.
       -3    1    3    3    0  502 -0.46408086131E+03  0.19334611766E+03  0.14947363830E+04  0.15770195407E+04  0.10100000352E+00 0.  1.
</event>
<event>
 5   0  0.5843670E-05  0.2172049E+04  0.7818609E-02  0.8530153E-01
        1   -1    0    0  501    0  0.00000000000E+00  0.00000000000E+00  0.14332418865E+04  0.14332418865E+04  0.50400001928E-02 0. -1.
       -1   -1    0    0    0  501  0.00000000000E+00  0.00000000000E+00 -0.82292388437E+03  0.82292388438E+03  0.50400001928E-02 0.  1.
    10030    2    1    2    0    0  0.00000000000E+00  0.00000000000E+00  0.61031800209E+03  0.22561657709E+04  0.21720487844E+04 0.  0.
        2    1    3    3  502    0  0.28028936010E+03 -0.63089700422E+03  0.11759913531E+04  0.13636527483E+04  0.25500000920E-02 0. -1.
       -2    1    3    3    0  502 -0.28028936010E+03  0.63089700422E+03 -0.56567335104E+03  0.89251302254E+03  0.25500000920E-02 0.  1.
</event>
<event>
 5   0  0.1281432E-04  0.2338289E+04  0.7818609E-02  0.8462975E-01
        2   -1    0    0  501    0  0.00000000000E+00  0.00000000000E+00  0.15088785728E+04  0.15088785728E+04  0.25500000920E-02 0.  1.
       -2   -1    0    0    0  501  0.00000000000E+00  0.00000000000E+00 -0.90590396232E+03  0.90590396232E+03  0.25500000920E-02 0. -1.
    10030    2    1    2    0    0  0.00000000000E+00  0.00000000000E+00  0.60297461047E+03  0.24147825351E+04  0.23382891846E+04 0.  0.
        4    1    3    3  502    0 -0.91824006845E+03  0.12845868279E+03  0.10369873489E+04  0.13910466675E+04  0.12699999809E+01 0.  1.
       -4    1    3    3    0  502  0.91824006845E+03 -0.12845868279E+03 -0.43401273848E+03  0.10237358676E+04  0.12699999809E+01 0. -1.
</event>
<event>
 5   0  0.5843670E-05  0.2451633E+04  0.7818609E-02  0.8420422E-01
       -1   -1    0    0    0  501  0.00000000000E+00  0.00000000000E+00  0.83971966903E+03  0.83971966905E+03  0.50400001928E-02 0. -1.
        1   -1    0    0  501    0  0.00000000000E+00  0.00000000000E+00 -0.17894381238E+04  0.17894381239E+04  0.50400001928E-02 0.  1.
    10030    2    1    2    0    0  0.00000000000E+00  0.00000000000E+00 -0.94971845481E+03  0.26291577929E+04  0.24516332427E+04 0.  0.
        2    1    3    3  502    0 -0.21735894696E+03 -0.83569597786E+03 -0.14079143158E+04  0.16516220512E+04  0.25500000920E-02 0.  1.
       -2    1    3    3    0  502  0.21735894696E+03  0.83569597786E+03  0.45819586103E+03  0.97753574170E+03  0.25500000920E-02 0. -1.
</event>
<event>
 5   0  0.5663790E-05  0.2240173E+04  0.7818609E-02  0.8501891E-01
       -1   -1    0    0    0  501  0.00000000000E+00  0.00000000000E+00  0.76326173575E+03  0.76326173576E+03  0.50400001928E-02 0. -1.
        1   -1    0    0  501    0  0.00000000000E+00  0.00000000000E+00 -0.16437263531E+04  0.16437263531E+04  0.50400001928E-02 0.  1.
    10030    2    1    2    0    0  0.00000000000E+00  0.00000000000E+00 -0.88046461738E+03  0.24069880889E+04  0.22401726982E+04 0.  0.
        3    1    3    3  502    0  0.15154288709E+03  0.96846070930E+03 -0.10225410459E+04  0.14164997680E+04  0.10100000352E+00 0.  1.
       -3    1    3    3    0  502 -0.15154288709E+03 -0.96846070930E+03  0.14207642848E+03  0.99048832089E+03  0.10100000352E+00 0. -1.
</event>
<event>
 5   0  0.1237296E-04  0.2239160E+04  0.7818609E-02  0.8502303E-01
        2   -1    0    0  501    0  0.00000000000E+00  0.00000000000E+00  0.14214711343E+04  0.14214711343E+04  0.25500000920E-02 0. -1.
       -2   -1    0    0    0  501  0.00000000000E+00  0.00000000000E+00 -0.88180463863E+03  0.88180463864E+03  0.25500000920E-02 0.  1.
    10030    2    1    2    0    0  0.00000000000E+00  0.00000000000E+00  0.53966649565E+03  0.23032757729E+04  0.22391604140E+04 0.  0.
        1    1    3    3  502    0  0.20053578568E+03  0.50838681281E+03 -0.73527821897E+03  0.91613635017E+03  0.50400001928E-02 0.  1.
       -1    1    3    3    0  502 -0.20053578568E+03 -0.50838681281E+03  0.12749447146E+04  0.13871394227E+04  0.50400001928E-02 0. -1.
</event>
<event>
 5   0  0.5843670E-05  0.2292777E+04  0.7818609E-02  0.8480774E-01
        1   -1    0    0  501    0  0.00000000000E+00  0.00000000000E+00  0.12097210529E+04  0.12097210529E+04  0.50400001928E-02 0.  1.
       -1   -1    0    0    0  501  0.00000000000E+00  0.00000000000E+00 -0.10863719700E+04  0.10863719700E+04  0.50400001928E-02 0. -1.
    10030    2    1    2    0    0  0.00000000000E+00  0.00000000000E+00  0.12334908287E+03  0.22960930229E+04  0.22927773930E+04 0.  0.
        2    1    3    3  502    0  0.57594293743E+03 -0.84538562835E+02 -0.92735174363E+03  0.10949147420E+04  0.25500000920E-02 0. -1.
       -2    1    3    3    0  502 -0.57594293743E+03  0.84538562835E+02  0.10507008265E+04  0.12011782809E+04  0.25500000920E-02 0.  1.
</event>
<event>
 5   0  0.1237296E-04  0.2333466E+04  0.7818609E-02  0.8464842E-01
       -2   -1    0    0    0  501  0.00000000000E+00  0.00000000000E+00  0.68901036651E+03  0.68901036652E+03  0.25500000920E-02 0.  1.
        2   -1    0    0  501    0  0.00000000000E+00  0.00000000000E+00 -0.19756828421E+04  0.19756828421E+04  0.25500000920E-02 0. -1.
    10030    2    1    2    0    0  0.00000000000E+00  0.00000000000E+00 -0.12866724756E+04  0.26646932086E+04  0.23334660565E+04 0.  0.
        1    1    3    3  502    0 -0.89589533193E+03  0.72147187194E+03 -0.86628164989E+03  0.14399979183E+04  0.50400001928E-02 0.  1.
       -1    1    3    3    0  502  0.89589533193E+03 -0.72147187194E+03 -0.42039082572E+03  0.12246952903E+04  0.50400001928E-02 0. -1.
</event>
<event>
 5   0  0.1257524E-04  0.2285381E+04  0.7818609E-02  0.8483708E-01
        2   -1    0    0  501    0  0.00000000000E+00  0.00000000000E+00  0.91203978664E+03  0.91203978664E+03  0.25500000920E-02 0. -1.
       -2   -1    0    0    0  501  0.00000000000E+00  0.00000000000E+00 -0.14316718075E+04  0.14316718075E+04  0.25500000920E-02 0.  1.
    10030    2    1    2    0    0  0.00000000000E+00  0.00000000000E+00 -0.51963202089E+03  0.23437115942E+04  0.22853810622E+04 0.  0.
        3    1    3    3  502    0 -0.98181511167E+03  0.58398132127E+03 -0.28783631386E+03  0.11780682709E+04  0.10100000352E+00 0.  1.
       -3    1    3    3    0  502  0.98181511167E+03 -0.58398132127E+03 -0.23179570703E+03  0.11656433233E+04  0.10100000352E+00 0. -1.
</event>
<event>
 5   0  0.5642466E-05  0.2247655E+04  0.7818609E-02  0.8498851E-01
        1   -1    0    0  501    0  0.00000000000E+00  0.00000000000E+00  0.14902236280E+04  0.14902236280E+04  0.50400001928E-02 0.  1.
       -1   -1    0    0    0  501  0.00000000000E+00  0.00000000000E+00 -0.84751559072E+03  0.84751559073E+03  0.50400001928E-02 0. -1.
    10030    2    1    2    0    0  0.00000000000E+00  0.00000000000E+00  0.64270803726E+03  0.23377392187E+04  0.22476545628E+04 0.  0.
        1    1    3    3  502    0  0.43502277682E+03  0.29791550632E+03 -0.71088970617E+03  0.88507775908E+03  0.50400001928E-02 0. -1.
       -1    1    3    3    0  502 -0.43502277682E+03 -0.29791550632E+03  0.13535977434E+04  0.14526614596E+04  0.50400001928E-02 0.  1.
</event>
<event>
 5   0  0.5642466E-05  0.2313857E+04  0.7818609E-02  0.8472477E-01
       -1   -1    0    0    0  501  0.00000000000E+00  0.00000000000E+00  0.76325641571E+03  0.76325641573E+03  0.50400001928E-02 0.  1.
        1   -1    0    0  501    0  0.00000000000E+00  0.00000000000E+00 -0.17536486333E+04  0.17536486333E+04  0.50400001928E-02 0. -1.
    10030    2    1    2    0    0  0.00000000000E+00  0.00000000000E+00 -0.99039221757E+03  0.25169050490E+04  0.23138570140E+04 0.  0.
        1    1    3    3  502    0 -0.34411156559E+03 -0.95266515396E+02  0.70182416329E+03  0.78742976495E+03  0.50400001928E-02 0.  1.
       -1    1    3    3    0  502  0.34411156559E+03  0.95266515396E+02 -0.16922163809E+04  0.17294752841E+04  0.50400001928E-02 0. -1.
</event>
<event>
 5   0  0.1237296E-04  0.2249600E+04  0.7818609E-02  0.8498063E-01
        2   -1    0    0  501    0  0.00000000000E+00  0.00000000000E+00  0.10635806914E+04  0.10635806914E+04  0.25500000920E-02 0.  1.
       -2   -1    0    0    0  501  0.00000000000E+00  0.00000000000E+00 -0.11895429219E+04  0.11895429220E+04  0.25500000920E-02 0. -1.
    10030    2    1    2    0    0  0.00000000000E+00  0.00000000000E+00 -0.12596223060E+03  0.22531236133E+04  0.22495998607E+04 0.  0.
        1    1    3    3  502    0  0.85584591062E+03  0.57451856659E+03  0.38786960647E+03  0.11013567259E+04  0.50400001928E-02 0.  1.
       -1    1    3    3    0  502 -0.85584591062E+03 -0.57451856659E+03 -0.51383183707E+03  0.11517668874E+04  0.50400001928E-02 0. -1.
</event>
<event>
 5   0  0.5843670E-05  0.1557489E+04  0.7818609E-02  0.8847098E-01
        1   -1    0    0  501    0  0.00000000000E+00  0.00000000000E+00  0.59572956548E+03  0.59572956550E+03  0.50400001928E-02 0. -1.
       -1   -1    0    0    0  501  0.00000000000E+00  0.00000000000E+00 -0.10179837520E+04  0.10179837520E+04  0.50400001928E-02 0.  1.
    10030    2    1    2    0    0  0.00000000000E+00  0.00000000000E+00 -0.42225418647E+03  0.16137133175E+04  0.15574890282E+04 0.  0.
        2    1    3    3  502    0 -0.38186661409E+03 -0.51910623423E+03 -0.66411656896E+03  0.92538868080E+03  0.25500000920E-02 0.  1.
       -2    1    3    3    0  502  0.38186661409E+03  0.51910623423E+03  0.24186238249E+03  0.68832463667E+03  0.25500000920E-02 0. -1.
</event>
<event>
 5   0  0.5642466E-05  0.1395006E+04  0.7818609E-02  0.8957442E-01
       -1   -1    0    0    0  501  0.00000000000E+00  0.00000000000E+00  0.53298324744E+03  0.53298324747E+03  0.50400001928E-02 0. -1.
        1   -1    0    0  501    0  0.00000000000E+00  0.00000000000E+00 -0.91280565348E+03  0.91280565349E+03  0.50400001928E-02 0.  1.
    10030    2    1    2    0    0  0.00000000000E+00  0.00000000000E+00 -0.37982240604E+03  0.14457889010E+04  0.13950055505E+04 0.  0.
        1    1    3    3  502    0 -0.19584809272E+03  0.27020671568E+03 -0.82469638768E+03  0.88965851680E+03  0.50400001928E-02 0.  1.
       -1    1    3    3    0  502  0.19584809272E+03 -0.27020671568E+03  0.44487398165E+03  0.55613038417E+03  0.50400001928E-02 0. -1.
</event>
<event>
 5   0  0.1257524E-04  0.1928017E+04  0.7818609E-02  0.8641035E-01
       -2   -1    0    0    0  501  0.00000000000E+00  0.00000000000E+00  0.54727847357E+03  0.54727847358E+03  0.25500000920E-02 0. -1.
        2   -1    0    0  501    0  0.00000000000E+00  0.00000000000E+00 -0.16980610063E+04  0.16980610063E+04  0.25500000920E-02 0.  1.
    10030    2    1    2    0    0  0.00000000000E+00  0.00000000000E+00 -0.11507825328E+04  0.22453394799E+04  0.19280168418E+04 0.  0.
        3    1    3    3  502    0  0.79149154796E+03 -0.27968574389E+03 -0.11273471064E+04  0.14055584280E+04  0.10100000352E+00 0.  1.
       -3    1    3    3    0  502 -0.79149154796E+03  0.27968574389E+03 -0.23435426331E+02  0.83978105196E+03  0.10100000352E+00 0. -1.
</event>
<event>
 5   0  0.5632156E-05  0.2288163E+04  0.7818609E-02  0.8482603E-01
        1   -1    0    0  501    0  0.00000000000E+00  0.00000000000E+00  0.12525915560E+04  0.12525915560E+04  0.50400001928E-02 0. -1.
       -1   -1    0    0    0  501  0.00000000000E+00  0.00000000000E+00 -0.10449714366E+04  0.10449714366E+04  0.50400001928E-02 0.  1.
    10030    2    1    2    0    0  0.00000000000E+00  0.00000000000E+00  0.20762011940E+03  0.22975629926E+04  0.22881629292E+04 0.  0.
        4    1    3    3  502    0 -0.99050987296E+03  0.51044520579E+03 -0.15659424358E+03  0.11252499663E+04  0.12699999809E+01 0. -1.
       -4    1    3    3    0  502  0.99050987296E+03 -0.51044520579E+03  0.36421436298E+03  0.11723130263E+04  0.12699999809E+01 0.  1.
</event>
<event>
 5   0  0.5632156E-05  0.2312086E+04  0.7818609E-02  0.8473171E-01
       -1   -1    0    0    0  501  0.00000000000E+00  0.00000000000E+00  0.19764770961E+04  0.19764770961E+04  0.50400001928E-02 0. -1.
        1   -1    0    0  501    0  0.00000000000E+00  0.00000000000E+00 -0.67617058209E+03  0.67617058211E+03  0.50400001928E-02 0.  1.
    10030    2    1    2    0    0  0.00000000000E+00  0.00000000000E+00  0.13003065140E+04  0.26526476782E+04  0.23120862169E+04 0.  0.
        4    1    3    3  502    0 -0.88766758024E+02 -0.11406945481E+04  0.46034432582E+03  0.12332810307E+04  0.12699999809E+01 0. -1.
       -4    1    3    3    0  502  0.88766758024E+02  0.11406945481E+04  0.83996218815E+03  0.14193666475E+04  0.12699999809E+01 0.  1.
</event>
<event>
 5   0  0.5632156E-05  0.1417772E+04  0.7818609E-02  0.8941053E-01
        1   -1    0    0  501    0  0.00000000000E+00  0.00000000000E+00  0.59469840354E+03  0.59469840356E+03  0.50400001928E-02 0.  1.
       -1   -1    0    0    0  501  0.00000000000E+00  0.00000000000E+00 -0.84499922975E+03  0.84499922976E+03  0.50400001928E-02 0. -1.
    10030    2    1    2    0    0  0.00000000000E+00  0.00000000000E+00 -0.25030082621E+03  0.14396976333E+04  0.14177724683E+04 0.  0.
        4    1    3    3  502    0  0.60462045324E+03 -0.47979713256E+02  0.24747129154E+03  0.65506610231E+03  0.12699999809E+01 0.  1.
       -4    1    3    3    0  502 -0.60462045324E+03  0.47979713256E+02 -0.49777211775E+03  0.78463153102E+03  0.12699999809E+01 0. -1.
</event>
<event>
 5   0  0.1270613E-04  0.2305782E+04  0.7818609E-02  0.8475645E-01
       -2   -1    0    0    0  501  0.00000000000E+00  0.00000000000E+00  0.72382044528E+03  0.72382044528E+03  0.25500000920E-02 0.  1.
        2   -1    0    0  501    0  0.00000000000E+00  0.00000000000E+00 -0.18363082247E+04  0.18363082247E+04  0.25500000920E-02 0. -1.
    10030    2    1    2    0    0  0.00000000000E+00  0.00000000000E+00 -0.11124877795E+04  0.25601286700E+04  0.23057818083E+04 0.  0.
        2    1    3    3  502    0  0.69777961458E+03  0.69072100987E+02  0.45984902587E+03  0.83852756202E+03  0.25500000920E-02 0.  1.
       -2    1    3    3    0  502 -0.69777961458E+03 -0.69072100987E+02 -0.15723368053E+04  0.17216011080E+04  0.25500000920E-02 0. -1.
</event>
<event>
 5   0  0.1281432E-04  0.2296029E+04  0.7818609E-02  0.8479488E-01
        2   -1    0    0  501    0  0.00000000000E+00  0.00000000000E+00  0.82363757895E+03  0.82363757895E+03  0.25500000920E-02 0. -1.
       -2   -1    0    0    0  501  0.00000000000E+00  0.00000000000E+00 -0.16001422092E+04  0.16001422092E+04  0.25500000920E-02 0.  1.
    10030    2    1    2    0    0  0.00000000000E+00  0.00000000000E+00 -0.77650463026E+03  0.24237797882E+04  0.22960289677E+04 0.  0.
        4    1    3    3  502    0 -0.14153897474E+03  0.73037864963E+03 -0.13112277992E+04  0.15075829024E+04  0.12699999809E+01 0.  1.
       -4    1    3    3    0  502  0.14153897474E+03 -0.73037864963E+03  0.53472316896E+03  0.91619688579E+03  0.12699999809E+01 0. -1.
</event>
<event>
 5   0  0.1257524E-04  0.1912676E+04  0.7818609E-02  0.8648572E-01
        2   -1    0    0  501    0  0.00000000000E+00  0.00000000000E+00  0.11938100357E+04  0.11938100357E+04  0.25500000920E-02 0.  1.
       -2   -1    0    0    0  501  0.00000000000E+00  0.00000000000E+00 -0.76610400765E+03  0.76610400766E+03  0.25500000920E-02 0. -1.
    10030    2    1    2    0    0  0.00000000000E+00  0.00000000000E+00  0.42770602801E+03  0.19599140433E+04  0.19126762954E+04 0.  0.
        3    1    3    3  502    0  0.42650094177E+03  0.13935369265E+03 -0.65155223644E+03  0.79110228921E+03  0.10100000352E+00 0. -1.
       -3    1    3    3    0  502 -0.42650094177E+03 -0.13935369265E+03  0.10792582644E+04  0.11688117541E+04  0.10100000352E+00 0.  1.
</event>
<event>
 5   0  0.5663790E-05  0.2330806E+04  0.7818609E-02  0.8465873E-01
       -1   -1    0    0    0  501  0.00000000000E+00  0.00000000000E+00  0.88518974406E+03  0.88518974407E+03  0.50400001928E-02 0.  1.
        1   -1    0    0  501    0  0.00000000000E+00  0.00000000000E+00 -0.15343198542E+04  0.15343198542E+04  0.50400001928E-02 0. -1.
    10030    2    1    2    0    0  0.00000000000E+00  0.00000000000E+00 -0.64913011015E+03  0.24195095983E+04  0.23308060400E+04 0.  0.
        3    1    3    3  502    0 -0.10889949849E+03 -0.41030752189E+03 -0.14512050481E+04  0.15120209870E+04  0.10100000352E+00 0. -1.
       -3    1    3    3    0  502  0.10889949849E+03  0.41030752189E+03  0.80207493796E+03  0.90748861128E+03  0.10100000352E+00 0.  1.
</event>
<event>
 5   0  0.1257524E-04  0.2301526E+04  0.7818609E-02  0.8477320E-01
       -2   -1    0    0    0  501  0.00000000000E+00  0.00000000000E+00  0.66555154544E+03  0.66555154545E+03  0.25500000920E-02 0. -1.
        2   -1    0    0  501    0  0.00000000000E+00  0.00000000000E+00 -0.19897110014E+04  0.19897110014E+04  0.25500000920E-02 0.  1.
    10030    2    1    2    0    0  0.00000000000E+00  0.00000000000E+00 -0.13241594560E+04  0.26552625469E+04  0.23015257826E+04 0.  0.
        3    1    3    3  502    0  0.72165069912E+02 -0.59296949811E+03 -0.17968355847E+04  0.18935254821E+04  0.10100000352E+00 0.  1.
       -3    1    3    3    0  502 -0.72165069912E+02  0.59296949811E+03  0.47267612867E+03  0.76173706475E+03  0.10100000352E+00 0. -1.
</event>
<event>
 5   0  0.1270613E-04  0.2321730E+04  0.7818609E-02  0.8469402E-01
       -2   -1    0    0    0  501  0.00000000000E+00  0.00000000000E+00  0.61453396135E+03  0.61453396136E+03  0.25500000920E-02 0.  1.
        2   -1    0    0  501    0  0.00000000000E+00  0.00000000000E+00 -0.21928931375E+04  0.21928931375E+04  0.25500000920E-02 0. -1.
    10030    2    1    2    0    0  0.00000000000E+00  0.00000000000E+00 -0.15783591762E+04  0.28074270989E+04  0.23217297919E+04 0.  0.
        2    1    3    3  502    0  0.58262675193E+03 -0.20092081451E+03  0.40037965928E+03  0.73493331489E+03  0.25500000920E-02 0.  1.
       -2    1    3    3    0  502 -0.58262675193E+03  0.20092081451E+03 -0.19787388354E+04  0.20724937840E+04  0.25500000920E-02 0. -1.
</event>
<event>
 5   0  0.5663790E-05  0.2246971E+04  0.7818609E-02  0.8499128E-01
        1   -1    0    0  501    0  0.00000000000E+00  0.00000000000E+00  0.85960418679E+03  0.85960418681E+03  0.50400001928E-02 0. -1.
       -1   -1    0    0    0  501  0.00000000000E+00  0.00000000000E+00 -0.14683736242E+04  0.14683736243E+04  0.50400001928E-02 0.  1.
    10030    2    1    2    0    0  0.00000000000E+00  0.00000000000E+00 -0.60876943745E+03  0.23279778111E+04  0.22469713974E+04 0.  0.
        3    1    3    3  502    0  0.83832839314E+03 -0.26645588620E+03  0.41968613628E+03  0.97464336925E+03  0.10100000352E+00 0. -1.
       -3    1    3    3    0  502 -0.83832839314E+03  0.26645588620E+03 -0.10284555737E+04  0.13533344418E+04  0.10100000352E+00 0.  1.
</event>
<event>
 5   0  0.1234988E-04  0.2223699E+04  0.7818609E-02  0.8508628E-01
       -2   -1    0    0    0  501  0.00000000000E+00  0.00000000000E+00  0.91997046988E+03  0.91997046989E+03  0.25500000920E-02 0.  1.
        2   -1    0    0  501    0  0.00000000000E+00  0.00000000000E+00 -0.13437493835E+04  0.13437493835E+04  0.25500000920E-02 0. -1.
    10030    2    1    2    0    0  0.00000000000E+00  0.00000000000E+00 -0.42377891362E+03  0.22637198534E+04  0.22236993967E+04 0.  0.
        5    1    3    3  502    0  0.44959292938E+03  0.28582330492E+03 -0.12053415368E+04  0.13178387891E+04  0.46999998093E+01 0. -1.
       -5    1    3    3    0  502 -0.44959292938E+03 -0.28582330492E+03  0.78156262318E+03  0.94588106427E+03  0.46999998093E+01 0.  1.
</event>
<event>
 5   0  0.5924654E-05  0.2357060E+04  0.7818609E-02  0.8455757E-01
       -1   -1    0    0    0  501  0.00000000000E+00  0.00000000000E+00  0.21698531143E+04  0.21698531143E+04  0.50400001928E-02 0. -1.
        1   -1    0    0  501    0  0.00000000000E+00  0.00000000000E+00 -0.64010483463E+03  0.64010483465E+03  0.50400001928E-02 0.  1.
    10030    2    1    2    0    0  0.00000000000E+00  0.00000000000E+00  0.15297482797E+04  0.28099579490E+04  0.23570604311E+04 0.  0.
        5    1    3    3  502    0  0.39333322131E+03  0.95099375974E+03  0.80234848338E+02  0.10322595967E+04  0.46999998093E+01 0.  1.
       -5    1    3    3    0  502 -0.39333322131E+03 -0.95099375974E+03  0.14495134314E+04  0.17776983523E+04  0.46999998093E+01 0. -1.
</event>
<event>
 5   0  0.1234988E-04  0.1177122E+04  0.7818609E-02  0.9133120E-01
        2   -1    0    0  501    0  0.00000000000E+00  0.00000000000E+00  0.78541273167E+03  0.78541273168E+03  0.25500000920E-02 0.  1.
       -2   -1    0    0    0  501  0.00000000000E+00  0.00000000000E+00 -0.44104730398E+03  0.44104730398E+03  0.25500000920E-02 0. -1.
    10030    2    1    2    0    0  0.00000000000E+00  0.00000000000E+00  0.34436542770E+03  0.12264600357E+04  0.11771221990E+04 0.  0.
        5    1    3    3  502    0  0.21960751392E+03 -0.68017452243E+01  0.74106043312E+03  0.77295949405E+03  0.46999998093E+01 0.  1.
       -5    1    3    3    0  502 -0.21960751392E+03  0.68017452243E+01 -0.39669500543E+03  0.45350054161E+03  0.46999998093E+01 0. -1.
</event>
<event>
 5   0  0.1237296E-04  0.1888543E+04  0.7818609E-02  0.8660580E-01
        2   -1    0    0  501    0  0.00000000000E+00  0.00000000000E+00  0.16098339876E+04  0.16098339876E+04  0.25500000920E-02 0. -1.
       -2   -1    0    0    0  501  0.00000000000E+00  0.00000000000E+00 -0.55387633295E+03  0.55387633296E+03  0.25500000920E-02 0.  1.
    10030    2    1    2    0    0  0.00000000000E+00  0.00000000000E+00  0.10559576546E+04  0.21637103205E+04  0.18885432965E+04 0.  0.
        1    1    3    3  502    0 -0.88401254244E+03  0.29921668483E+03  0.69257834311E+03  0.11621848222E+04  0.50400001928E-02 0. -1.
       -1    1    3    3    0  502  0.88401254244E+03 -0.29921668483E+03  0.36337931149E+03  0.10015254983E+04  0.50400001928E-02 0.  1.
</event>
<event>
 5   0  0.1281432E-04  0.2352408E+04  0.7818609E-02  0.8457539E-01
       -2   -1    0    0    0  501  0.00000000000E+00  0.00000000000E+00  0.12924877471E+04  0.12924877471E+04  0.25500000920E-02 0. -1.
        2   -1    0    0  501    0  0.00000000000E+00  0.00000000000E+00 -0.10703821624E+04  0.10703821624E+04  0.25500000920E-02 0.  1.
    10030    2    1    2    0    0  0.00000000000E+00  0.00000000000E+00  0.22210558467E+03  0.23628699095E+04  0.23524079830E+04 0.  0.
        4    1    3    3  502    0 -0.10106749095E+03 -0.31429929144E+03  0.12449913186E+04  0.12880231670E+04  0.12699999809E+01 0. -1.
       -4    1    3    3    0  502  0.10106749095E+03  0.31429929144E+03 -0.10228857340E+04  0.10748467425E+04  0.12699999809E+01 0.  1.
</event>
<event>
 5   0  0.5663790E-05  0.2253928E+04  0.7818609E-02  0.8496312E-01
       -1   -1    0    0    0  501  0.00000000000E+00  0.00000000000E+00  0.83243546664E+03  0.83243546666E+03  0.50400001928E-02 0. -1.
        1   -1    0    0  501    0  0.00000000000E+00  0.00000000000E+00 -0.15257007742E+04  0.15257007742E+04  0.50400001928E-02 0.  1.
    10030    2    1    2    0    0  0.00000000000E+00  0.00000000000E+00 -0.69326530753E+03  0.23581362408E+04  0.22539276261E+04 0.  0.
        3    1    3    3  502    0  0.46489352426E+03 -0.98397105035E+03 -0.40312120484E+02  0.10890133581E+04  0.10100000352E+00 0. -1.
       -3    1    3    3    0  502 -0.46489352426E+03  0.98397105035E+03 -0.65295318705E+03  0.12691228827E+04  0.10100000352E+00 0.  1.
</event>
<event>
 5   0  0.5632156E-05  0.2303838E+04  0.7818609E-02  0.8476409E-01
        1   -1    0    0  501    0  0.00000000000E+00  0.00000000000E+00  0.88598581200E+03  0.88598581201E+03  0.50400001928E-02 0. -1.
       -1   -1    0    0    0  501  0.00000000000E+00  0.00000000000E+00 -0.14976731655E+04  0.14976731655E+04  0.50400001928E-02 0.  1.
    10030    2    1    2    0    0  0.00000000000E+00  0.00000000000E+00 -0.61168735347E+03  0.23836589775E+04  0.23038378204E+04 0.  0.
        4    1    3    3  502    0 -0.80886351140E+03  0.27361705824E+03 -0.11057998801E+04  0.13971118288E+04  0.12699999809E+01 0.  1.
       -4    1    3    3    0  502  0.80886351140E+03 -0.27361705824E+03  0.49411252660E+03  0.98654714864E+03  0.12699999809E+01 0. -1.
</event>
<event>
 5   0  0.1237296E-04  0.2354137E+04  0.7818609E-02  0.8456876E-01
       -2   -1    0    0    0  501  0.00000000000E+00  0.00000000000E+00  0.98781522687E+03  0.98781522687E+03  0.25500000920E-02 0.  1.
        2   -1    0    0  501    0  0.00000000000E+00  0.00000000000E+00 -0.14025804891E+04  0.14025804891E+04  0.25500000920E-02 0. -1.
    10030    2    1    2    0    0  0.00000000000E+00  0.00000000000E+00 -0.41476526219E+03  0.23903957159E+04  0.23541370937E+04 0.  0.
        1    1    3    3  502    0  0.37730634991E+03  0.76531161791E+03 -0.10306905357E+04  0.13380526651E+04  0.50400001928E-02 0. -1.
       -1    1    3    3    0  502 -0.37730634991E+03 -0.76531161791E+03  0.61592527347E+03  0.10523430509E+04  0.50400001928E-02 0.  1.
</event>
<event>
 5   0  0.5642466E-05  0.2017775E+04  0.7818609E-02  0.8598355E-01
       -1   -1    0    0    0  501  0.00000000000E+00  0.00000000000E+00  0.67046508733E+03  0.67046508735E+03  0.50400001928E-02 0.  1.
        1   -1    0    0  501    0  0.00000000000E+00  0.00000000000E+00 -0.15181310055E+04  0.15181310055E+04  0.50400001928E-02 0. -1.
    10030    2    1    2    0    0  0.00000000000E+00  0.00000000000E+00 -0.84766591816E+03  0.21885960929E+04  0.20177748509E+04 0.  0.
        1    1    3    3  502    0 -0.25306237280E+03 -0.92997654499E+03 -0.10032666773E+03  0.96900071158E+03  0.50400001928E-02 0. -1.
       -1    1    3    3    0  502  0.25306237280E+03  0.92997654499E+03 -0.74733925043E+03  0.12195953813E+04  0.50400001928E-02 0.  1.
</event>
<event>
 5   0  0.1281432E-04  0.2247666E+04  0.7818609E-02  0.8498846E-01
        2   -1    0    0  501    0  0.00000000000E+00  0.00000000000E+00  0.95119865769E+03  0.95119865770E+03  0.25500000920E-02 0. -1.
       -2   -1    0    0    0  501  0.00000000000E+00  0.00000000000E+00 -0.13277986969E+04  0.13277986969E+04  0.25500000920E-02 0.  1.
    10030    2    1    2    0    0  0.00000000000E+00  0.00000000000E+00 -0.37660003924E+03  0.22789973546E+04  0.22476657565E+04 0.  0.
        4    1    3    3  502    0  0.45509668575E+03 -0.95960614559E+03 -0.56090286281E+03  0.12010705984E+04  0.12699999809E+01 0.  1.
       -4    1    3    3    0  502 -0.45509668575E+03  0.95960614559E+03  0.18430282357E+03  0.10779267562E+04  0.12699999809E+01 0. -1.
</event>
<event>
 5   0  0.1234988E-04  0.2285151E+04  0.7818609E-02  0.8483799E-01
       -2   -1    0    0    0  501  0.00000000000E+00  0.00000000000E+00  0.11127272544E+04  0.11127272544E+04  0.25500000920E-02 0.  1.
        2   -1    0    0  501    0  0.00000000000E+00  0.00000000000E+00 -0.11732244706E+04  0.11732244706E+04  0.25500000920E-02 0. -1.
    10030    2    1    2    0    0  0.00000000000E+00  0.00000000000E+00 -0.60497216177E+02  0.22859517249E+04  0.22851510619E+04 0.  0.
        5    1    3    3  502    0  0.95535414343E+03 -0.62076242757E+03  0.55858395113E+02  0.11406970593E+04  0.46999998093E+01 0.  1.
       -5    1    3    3    0  502 -0.95535414343E+03  0.62076242757E+03 -0.11635561129E+03  0.11452546656E+04  0.46999998093E+01 0. -1.
</event>
<event>
 5   0  0.1234988E-04  0.2058584E+04  0.7818609E-02  0.8579710E-01
       -2   -1    0    0    0  501  0.00000000000E+00  0.00000000000E+00  0.74191336202E+03  0.74191336202E+03  0.25500000920E-02 0.  1.
        2   -1    0    0  501    0  0.00000000000E+00  0.00000000000E+00 -0.14279855100E+04  0.14279855100E+04  0.25500000920E-02 0. -1.
    10030    2    1    2    0    0  0.00000000000E+00  0.00000000000E+00 -0.68607214796E+03  0.21698988720E+04  0.20585835233E+04 0.  0.
        5    1    3    3  502    0 -0.47945703366E+03  0.56269282090E+00 -0.13030768690E+04  0.13884922688E+04  0.46999998093E+01 0. -1.
       -5    1    3    3    0  502  0.47945703366E+03 -0.56269282090E+00  0.61700472109E+03  0.78140660324E+03  0.46999998093E+01 0.  1.
</event>
<event>
 5   0  0.5632156E-05  0.2337538E+04  0.7818609E-02  0.8463266E-01
       -1   -1    0    0    0  501  0.00000000000E+00  0.00000000000E+00  0.10842337366E+04  0.10842337366E+04  0.50400001928E-02 0. -1.
        1   -1    0    0  501    0  0.00000000000E+00  0.00000000000E+00 -0.12598956425E+04  0.12598956425E+04  0.50400001928E-02 0.  1.
    10030    2    1    2    0    0  0.00000000000E+00  0.00000000000E+00 -0.17566190596E+03  0.23441293791E+04  0.23375383293E+04 0.  0.
        4    1    3    3  502    0  0.50959776395E+03  0.64688832616E+03  0.74388409048E+03  0.11097385010E+04  0.12699999809E+01 0. -1.
       -4    1    3    3    0  502 -0.50959776395E+03 -0.64688832616E+03 -0.91954599644E+03  0.12343908781E+04  0.12699999809E+01 0.  1.
</event>
<event>
 5   0  0.5632156E-05  0.2212224E+04  0.7818609E-02  0.8513357E-01
       -1   -1    0    0    0  501  0.00000000000E+00  0.00000000000E+00  0.93194355224E+03  0.93194355226E+03  0.50400001928E-02 0.  1.
        1   -1    0    0  501    0  0.00000000000E+00  0.00000000000E+00 -0.13128305143E+04  0.13128305143E+04  0.50400001928E-02 0. -1.
    10030    2    1    2    0    0  0.00000000000E+00  0.00000000000E+00 -0.38088696205E+03  0.22447740666E+04  0.22122241595E+04 0.  0.
        4    1    3    3  502    0 -0.40593436989E+03 -0.43200276510E+03 -0.11380324146E+04  0.12831712634E+04  0.12699999809E+01 0. -1.
       -4    1    3    3    0  502  0.40593436989E+03  0.43200276510E+03  0.75714545257E+03  0.96160280311E+03  0.12699999809E+01 0.  1.
</event>
<event>
 5   0  0.5642466E-05  0.2285668E+04  0.7818609E-02  0.8483594E-01
       -1   -1    0    0    0  501  0.00000000000E+00  0.00000000000E+00  0.10306624937E+04  0.10306624937E+04  0.50400001928E-02 0. -1.
        1   -1    0    0  501    0  0.00000000000E+00  0.00000000000E+00 -0.12672131337E+04  0.12672131337E+04  0.50400001928E-02 0.  1.
    10030    2    1    2    0    0  0.00000000000E+00  0.00000000000E+00 -0.23655063994E+03  0.22978756274E+04  0.22856675598E+04 0.  0.
        1    1    3    3  502    0 -0.52581198964E+03  0.13161249616E+03 -0.11297648980E+04  0.12530637743E+04  0.50400001928E-02 0.  1.
       -1    1    3    3    0  502  0.52581198964E+03 -0.13161249616E+03  0.89321425808E+03  0.10448118531E+04  0.50400001928E-02 0. -1.
</event>
<event>
 5   0  0.1234988E-04  0.2281205E+04  0.7818609E-02  0.8485369E-01
       -2   -1    0    0    0  501  0.00000000000E+00  0.00000000000E+00  0.10300581657E+04  0.10300581657E+04  0.25500000920E-02 0.  1.
        2   -1    0    0  501    0  0.00000000000E+00  0.00000000000E+00 -0.12630100590E+04  0.12630100590E+04  0.25500000920E-02 0. -1.
    10030    2    1    2    0    0  0.00000000000E+00  0.00000000000E+00 -0.23295189334E+03  0.22930682247E+04  0.22812047910E+04 0.  0.
        5    1    3    3  502    0 -0.30113625169E+03 -0.94045193653E+03  0.45729797165E+03  0.10882446471E+04  0.46999998093E+01 0.  1.
       -5    1    3    3    0  502  0.30113625169E+03  0.94045193653E+03 -0.69024986499E+03  0.12048235776E+04  0.46999998093E+01 0. -1.
</event>
<event>
 5   0  0.1281432E-04  0.2332326E+04  0.7818609E-02  0.8465283E-01
       -2   -1    0    0    0  501  0.00000000000E+00  0.00000000000E+00  0.69451383418E+03  0.69451383418E+03  0.25500000920E-02 0.  1.
        2   -1    0    0  501    0  0.00000000000E+00  0.00000000000E+00 -0.19581125130E+04  0.19581125130E+04  0.25500000920E-02 0. -1.
    10030    2    1    2    0    0  0.00000000000E+00  0.00000000000E+00 -0.12635986788E+04  0.26526263472E+04  0.23323260743E+04 0.  0.
        4    1    3    3  502    0 -0.45149010234E+03  0.93672660024E+03 -0.12321490676E+04  0.16122943199E+04  0.12699999809E+01 0. -1.
       -4    1    3    3    0  502  0.45149010234E+03 -0.93672660024E+03 -0.31449611182E+02  0.10403320273E+04  0.12699999809E+01 0.  1.
</event>
<event>
 5   0  0.1237296E-04  0.2239030E+04  0.7818609E-02  0.8502356E-01
       -2   -1    0    0    0  501  0.00000000000E+00  0.00000000000E+00  0.79120299540E+03  0.79120299541E+03  0.25500000920E-02 0. -1.
        2   -1    0    0  501    0  0.00000000000E+00  0.00000000000E+00 -0.15840614987E+04  0.15840614987E+04  0.25500000920E-02 0.  1.
    10030    2    1    2    0    0  0.00000000000E+00  0.00000000000E+00 -0.79285850328E+03  0.23752644941E+04  0.22390303282E+04 0.  0.
        1    1    3    3  502    0 -0.12687294314E+03  0.88601342113E+03  0.31694292036E+03  0.94951005308E+03  0.50400001928E-02 0. -1.
       -1    1    3    3    0  502  0.12687294314E+03 -0.88601342113E+03 -0.11098014236E+04  0.14257544410E+04  0.50400001928E-02 0.  1.
</event>
<event>
 5   0  0.1237296E-04  0.2241143E+04  0.7818609E-02  0.8501496E-01
       -2   -1    0    0    0  501  0.00000000000E+00  0.00000000000E+00  0.14903948838E+04  0.14903948838E+04  0.25500000920E-02 0.  1.
        2   -1    0    0  501    0  0.00000000000E+00  0.00000000000E+00 -0.84251548597E+03  0.84251548598E+03  0.25500000920E-02 0. -1.
    10030    2    1    2    0    0  0.00000000000E+00  0.00000000000E+00  0.64787939778E+03  0.23329103697E+04  0.22411432527E+04 0.  0.
        1    1    3    3  502    0 -0.59810437283E+03  0.47286958558E+03  0.11787503414E+04  0.14038471616E+04  0.50400001928E-02 0.  1.
       -1    1    3    3    0  502  0.59810437283E+03 -0.47286958558E+03 -0.53087094367E+03  0.92906320809E+03  0.50400001928E-02 0. -1.
</event>
<event>
 5   0  0.5843670E-05  0.2231095E+04  0.7818609E-02  0.8505596E-01
       -1   -1    0    0    0  501  0.00000000000E+00  0.00000000000E+00  0.59756405468E+03  0.59756405470E+03  0.50400001928E-02 0. -1.
        1   -1    0    0  501    0  0.00000000000E+00  0.00000000000E+00 -0.20825323300E+04  0.20825323300E+04  0.50400001928E-02 0.  1.
    10030    2    1    2    0    0  0.00000000000E+00  0.00000000000E+00 -0.14849682753E+04  0.26800963847E+04  0.22310952137E+04 0.  0.
        2    1    3    3  502    0  0.35636865572E+03  0.24678512552E+03 -0.19772263533E+04  0.20241851618E+04  0.25500000920E-02 0.  1.
       -2    1    3    3    0  502 -0.35636865572E+03 -0.24678512552E+03  0.49225807801E+03  0.65591122290E+03  0.25500000920E-02 0. -1.
</event>
<event>
 5   0  0.5924654E-05  0.2339730E+04  0.7818609E-02  0.8462419E-01
       -1   -1    0    0    0  501  0.00000000000E+00  0.00000000000E+00  0.65052199808E+03  0.65052199810E+03  0.50400001928E-02 0. -1.
        1   -1    0    0  501    0  0.00000000000E+00  0.00000000000E+00 -0.21038252926E+04  0.21038252926E+04  0.50400001928E-02 0.  1.
    10030    2    1    2    0    0  0.00000000000E+00  0.00000000000E+00 -0.14533032945E+04  0.27543472907E+04  0.23397304400E+04 0.  0.
        5    1    3    3  502    0 -0.43907242261E+02  0.58786746355E+03  0.46287901981E+03  0.74952990441E+03  0.46999998093E+01 0. -1.
       -5    1    3    3    0  502  0.43907242261E+02 -0.58786746355E+03 -0.19161823143E+04  0.20048173863E+04  0.46999998093E+01 0.  1.
</event>
<event>
 5   0  0.1234988E-04  0.1839724E+04  0.7818609E-02  0.8685455E-01
       -2   -1    0    0    0  501  0.00000000000E+00  0.00000000000E+00  0.57293496846E+03  0.57293496846E+03  0.25500000920E-02 0.  1.
        2   -1    0    0  501    0  0.00000000000E+00  0.00000000000E+00 -0.14768630693E+04  0.14768630693E+04  0.25500000920E-02 0. -1.
    10030    2    1    2    0    0  0.00000000000E+00  0.00000000000E+00 -0.90392810085E+03  0.20497980378E+04  0.18397244316E+04 0.  0.
        5    1    3    3  502    0 -0.87064715973E+02 -0.28580413944E+03 -0.14212816825E+04  0.14523525680E+04  0.46999998093E+01 0. -1.
       -5    1    3    3    0  502  0.87064715973E+02  0.28580413944E+03  0.51735358164E+03  0.59744546975E+03  0.46999998093E+01 0.  1.
</event>
<event>
 5   0  0.5632156E-05  0.1133247E+04  0.7818609E-02  0.9173379E-01
       -1   -1    0    0    0  501  0.00000000000E+00  0.00000000000E+00  0.55622995267E+03  0.55622995269E+03  0.50400001928E-02 0.  1.
        1   -1    0    0  501    0  0.00000000000E+00  0.00000000000E+00 -0.57721162396E+03  0.57721162398E+03  0.50400001928E-02 0. -1.
    10030    2    1    2    0    0  0.00000000000E+00  0.00000000000E+00 -0.20981671289E+02  0.11334415767E+04  0.11332473592E+04 0.  0.
        4    1    3    3  502    0 -0.10041067804E+03  0.15985821106E+03  0.52385144278E+03  0.55682932655E+03  0.12699999809E+01 0.  1.
       -4    1    3    3    0  502  0.10041067804E+03 -0.15985821106E+03 -0.54483311406E+03  0.57661225012E+03  0.12699999809E+01 0. -1.
</event>
<event>
 5   0  0.1270613E-04  0.2269523E+04  0.7818609E-02  0.8490036E-01
       -2   -1    0    0    0  501  0.00000000000E+00  0.00000000000E+00  0.74755818895E+03  0.74755818896E+03  0.25500000920E-02 0. -1.
        2   -1    0    0  501    0  0.00000000000E+00  0.00000000000E+00 -0.17225199162E+04  0.17225199162E+04  0.25500000920E-02 0.  1.
    10030    2    1    2    0    0  0.00000000000E+00  0.00000000000E+00 -0.97496172725E+03  0.24700781052E+04  0.22695231825E+04 0.  0.
        2    1    3    3  502    0 -0.25720370844E+03 -0.80431443636E+03 -0.13124962562E+04  0.15606799424E+04  0.25500000920E-02 0.  1.
       -2    1    3    3    0  502  0.25720370844E+03  0.80431443636E+03  0.33753452893E+03  0.90939816274E+03  0.25500000920E-02 0. -1.
</event>
<event>
 5   0  0.5642466E-05  0.2355159E+04  0.7818609E-02  0.8456485E-01
       -1   -1    0    0    0  501  0.00000000000E+00  0.00000000000E+00  0.10481480993E+04  0.10481480993E+04  0.50400001928E-02 0.  1.
        1   -1    0    0  501    0  0.00000000000E+00  0.00000000000E+00 -0.13229933606E+04  0.13229933606E+04  0.50400001928E-02 0. -1.
    10030    2    1    2    0    0  0.00000000000E+00  0.00000000000E+00 -0.27484526126E+03  0.23711414599E+04  0.23551585733E+04 0.  0.
        1    1    3    3  502    0  0.28626808403E+03 -0.11225894101E+04  0.75046444053E+02  0.11609428791E+04  0.50400001928E-02 0.  1.
       -1    1    3    3    0  502 -0.28626808403E+03  0.11225894101E+04 -0.34989170531E+03  0.12101985809E+04  0.50400001928E-02 0. -1.
</event>
<event>
 5   0  0.1257524E-04  0.1600506E+04  0.7818609E-02  0.8820238E-01
       -2   -1    0    0    0  501  0.00000000000E+00  0.00000000000E+00  0.10103352737E+04  0.10103352737E+04  0.25500000920E-02 0. -1.
        2   -1    0    0  501    0  0.00000000000E+00  0.00000000000E+00 -0.63385343621E+03  0.63385343622E+03  0.25500000920E-02 0.  1.
    10030    2    1    2    0    0  0.00000000000E+00  0.00000000000E+00  0.37648183751E+03  0.16441887099E+04  0.16005055264E+04 0.  0.
        3    1    3    3  502    0  0.17252464476E+03 -0.65236813884E+03 -0.25368097827E+03  0.72090428669E+03  0.10100000352E+00 0.  1.
       -3    1    3    3    0  502 -0.17252464476E+03  0.65236813884E+03  0.63016281579E+03  0.92328442326E+03  0.10100000352E+00 0. -1.
</event>
<event>
 5   0  0.1234988E-04  0.2292260E+04  0.7818609E-02  0.8480979E-01
       -2   -1    0    0    0  501  0.00000000000E+00  0.00000000000E+00  0.88827633965E+03  0.88827633966E+03  0.25500000920E-02 0.  1.
        2   -1    0    0  501    0  0.00000000000E+00  0.00000000000E+00 -0.14788347492E+04  0.14788347492E+04  0.25500000920E-02 0. -1.
    10030    2    1    2    0    0  0.00000000000E+00  0.00000000000E+00 -0.59055840956E+03  0.23671110889E+04  0.22922599486E+04 0.  0.
        5    1    3    3  502    0  0.96311500097E+03 -0.36504036854E+03  0.22387652477E+03  0.10540340431E+04  0.46999998093E+01 0.  1.
       -5    1    3    3    0  502 -0.96311500097E+03  0.36504036854E+03 -0.81443493433E+03  0.13130770457E+04  0.46999998093E+01 0. -1.
</event>
<event>
 5   0  0.5642466E-05  0.2235402E+04  0.7818609E-02  0.8503836E-01
        1   -1    0    0  501    0  0.00000000000E+00  0.00000000000E+00  0.65723100706E+03  0.65723100708E+03  0.50400001928E-02 0.  1.
       -1   -1    0    0    0  501  0.00000000000E+00  0.00000000000E+00 -0.19007857356E+04  0.19007857356E+04  0.50400001928E-02 0. -1.
    10030    2    1    2    0    0  0.00000000000E+00  0.00000000000E+00 -0.12435547285E+04  0.25580167427E+04  0.22354018191E+04 0.  0.
        1    1    3    3  502    0 -0.79681913217E+01 -0.10852568550E+04 -0.31598584024E+03  0.11303508238E+04  0.50400001928E-02 0.  1.
       -1    1    3    3    0  502  0.79681913217E+01  0.10852568550E+04 -0.92756888826E+03  0.14276659189E+04  0.50400001928E-02 0. -1.
</event>
<event>
 5   0  0.5632156E-05  0.2321713E+04  0.7818609E-02  0.8469409E-01
       -1   -1    0    0    0  501  0.00000000000E+00  0.00000000000E+00  0.65991026312E+03  0.65991026313E+03  0.50400001928E-02 0. -1.
        1   -1    0    0  501    0  0.00000000000E+00  0.00000000000E+00 -0.20420765436E+04  0.20420765436E+04  0.50400001928E-02 0.  1.
    10030    2    1    2    0    0  0.00000000000E+00  0.00000000000E+00 -0.13821662805E+04  0.27019868068E+04  0.23217125311E+04 0.  0.
        4    1    3    3  502    0  0.71364652065E+02 -0.62029811675E+03 -0.18300071144E+04  0.19335951797E+04  0.12699999809E+01 0.  1.
       -4    1    3    3    0  502 -0.71364652065E+02  0.62029811675E+03  0.44784083388E+03  0.76839162710E+03  0.12699999809E+01 0. -1.
</event>
<event>
 5   0  0.5924654E-05  0.2271855E+04  0.7818609E-02  0.8489101E-01
       -1   -1    0    0    0  501  0.00000000000E+00  0.00000000000E+00  0.13837951862E+04  0.13837951862E+04  0.50400001928E-02 0.  1.
        1   -1    0    0  501    0  0.00000000000E+00  0.00000000000E+00 -0.93245864664E+03  0.93245864666E+03  0.50400001928E-02 0. -1.
    10030    2    1    2    0    0  0.00000000000E+00  0.00000000000E+00  0.45133653957E+03  0.23162538329E+04  0.22718554413E+04 0.  0.
        5    1    3    3  502    0 -0.14885177207E+03  0.44602185833E+02 -0.92156134865E+03  0.93458205330E+03  0.46999998093E+01 0. -1.
       -5    1    3    3    0  502  0.14885177207E+03 -0.44602185833E+02  0.13728978882E+04  0.13816717796E+04  0.46999998093E+01 0.  1.
</event>
<event>
 5   0  0.5924654E-05  0.2283716E+04  0.7818609E-02  0.8484369E-01
       -1   -1    0    0    0  501  0.00000000000E+00  0.00000000000E+00  0.68101633050E+03  0.68101633052E+03  0.50400001928E-02 0. -1.
        1   -1    0    0  501    0  0.00000000000E+00  0.00000000000E+00 -0.19145497060E+04  0.19145497060E+04  0.50400001928E-02 0.  1.
    10030    2    1    2    0    0  0.00000000000E+00  0.00000000000E+00 -0.12335333755E+04  0.25955660365E+04  0.22837159328E+04 0.  0.
        5    1    3    3  502    0  0.53401755046E+03  0.92456882292E+03 -0.10767766060E+04  0.15164010689E+04  0.46999998093E+01 0.  1.
       -5    1    3    3    0  502 -0.53401755046E+03 -0.92456882292E+03 -0.15675676944E+03  0.10791649676E+04  0.46999998093E+01 0. -1.
</event>
<event>
 5   0  0.1234988E-04  0.2295381E+04  0.7818609E-02  0.8479744E-01
        2   -1    0    0  501    0  0.00000000000E+00  0.00000000000E+00  0.18604579472E+04  0.18604579472E+04  0.25500000920E-02 0.  1.
       -2   -1    0    0    0  501  0.00000000000E+00  0.00000000000E+00 -0.70799441261E+03  0.70799441262E+03  0.25500000920E-02 0. -1.
    10030    2    1    2    0    0  0.00000000000E+00  0.00000000000E+00  0.11524635346E+04  0.25684523599E+04  0.22953813030E+04 0.  0.
        5    1    3    3  502    0 -0.90927895563E+03 -0.70019543347E+03  0.56450250355E+03  0.12789632640E+04  0.46999998093E+01 0.  1.
       -5    1    3    3    0  502  0.90927895563E+03  0.70019543347E+03  0.58796103108E+03  0.12894890958E+04  0.46999998093E+01 0. -1.
</event>
<event>
 5   0  0.1234988E-04  0.2366991E+04  0.7818609E-02  0.8451966E-01
        2   -1    0    0  501    0  0.00000000000E+00  0.00000000000E+00  0.16800857195E+04  0.16800857195E+04  0.25500000920E-02 0.  1.
       -2   -1    0    0    0  501  0.00000000000E+00  0.00000000000E+00 -0.83368473538E+03  0.83368473538E+03  0.25500000920E-02 0. -1.
    10030    2    1    2    0    0  0.00000000000E+00  0.00000000000E+00  0.84640098408E+03  0.25137704548E+04  0.23669911858E+04 0.  0.
        5    1    3    3  502    0  0.51985859144E+03 -0.10631291305E+04  0.43591029358E+03  0.12611646908E+04  0.46999998093E+01 0.  1.
       -5    1    3    3    0  502 -0.51985859144E+03  0.10631291305E+04  0.41049069050E+03  0.12526057641E+04  0.46999998093E+01 0. -1.
</event>
<event>
 5   0  0.1257524E-04  0.2279414E+04  0.7818609E-02  0.8486082E-01
        2   -1    0    0  501    0  0.00000000000E+00  0.00000000000E+00  0.18913299067E+04  0.18913299067E+04  0.25500000920E-02 0.  1.
       -2   -1    0    0    0  501  0.00000000000E+00  0.00000000000E+00 -0.68678259898E+03  0.68678259898E+03  0.25500000920E-02 0. -1.
    10030    2    1    2    0    0  0.00000000000E+00  0.00000000000E+00  0.12045473078E+04  0.25781125057E+04  0.22794143712E+04 0.  0.
        3    1    3    3  502    0  0.42859646631E+03 -0.10152235185E+04  0.93116907160E+03  0.14427229719E+04  0.10100000352E+00 0.  1.
       -3    1    3    3    0  502 -0.42859646631E+03  0.10152235185E+04  0.27337823616E+03  0.11353895339E+04  0.10100000352E+00 0. -1.
</event>
<event>
 5   0  0.1234988E-04  0.2212284E+04  0.7818609E-02  0.8513332E-01
       -2   -1    0    0    0  501  0.00000000000E+00  0.00000000000E+00  0.16333703059E+04  0.16333703059E+04  0.25500000920E-02 0.  1.
        2   -1    0    0  501    0  0.00000000000E+00  0.00000000000E+00 -0.74909569136E+03  0.74909569137E+03  0.25500000920E-02 0. -1.
    10030    2    1    2    0    0  0.00000000000E+00  0.00000000000E+00  0.88427461451E+03  0.23824659972E+04  0.22122844831E+04 0.  0.
        5    1    3    3  502    0 -0.67946908900E+03  0.40364667748E+03  0.12755690393E+04  0.15005690078E+04  0.46999998093E+01 0.  1.
       -5    1    3    3    0  502  0.67946908900E+03 -0.40364667748E+03 -0.39129442478E+03  0.88189698945E+03  0.46999998093E+01 0. -1.
</event>
<event>
 5   0  0.5843670E-05  0.2306895E+04  0.7818609E-02  0.8475207E-01
        1   -1    0    0  501    0  0.00000000000E+00  0.00000000000E+00  0.11341677627E+04  0.11341677627E+04  0.50400001928E-02 0.  1.
       -1   -1    0    0    0  501  0.00000000000E+00  0.00000000000E+00 -0.11730554434E+04  0.11730554434E+04  0.50400001928E-02 0. -1.
    10030    2    1    2    0    0  0.00000000000E+00  0.00000000000E+00 -0.38887680722E+02  0.23072232061E+04  0.23068954617E+04 0.  0.
        2    1    3    3  502    0  0.89717917175E+03 -0.47014397237E+03 -0.57131553531E+03  0.11629132650E+04  0.25500000920E-02 0. -1.
       -2    1    3    3    0  502 -0.89717917175E+03  0.47014397237E+03  0.53242785459E+03  0.11443099411E+04  0.25500000920E-02 0.  1.
</event>
<event>
 5   0  0.1257524E-04  0.2313384E+04  0.7818609E-02  0.8472662E-01
        2   -1    0    0  501    0  0.00000000000E+00  0.00000000000E+00  0.22716874563E+04  0.22716874563E+04  0.25500000920E-02 0.  1.
       -2   -1    0    0    0  501  0.00000000000E+00  0.00000000000E+00 -0.58896163662E+03  0.58896163663E+03  0.25500000920E-02 0. -1.
    10030    2    1    2    0    0  0.00000000000E+00  0.00000000000E+00  0.16827258196E+04  0.28606490929E+04  0.23133843279E+04 0.  0.
        3    1    3    3  502    0  0.81423565928E+03 -0.26512036724E+03 -0.12019484609E+03  0.86470534241E+03  0.10100000352E+00 0. -1.
       -3    1    3    3    0  502 -0.81423565928E+03  0.26512036724E+03  0.18029206657E+04  0.19959437505E+04  0.10100000352E+00 0.  1.
</event>
<event>
 5   0  0.1270613E-04  0.1921375E+04  0.7818609E-02  0.8644289E-01
       -2   -1    0    0    0  501  0.00000000000E+00  0.00000000000E+00  0.35065719011E+03  0.35065719012E+03  0.25500000920E-02 0. -1.
        2   -1    0    0  501    0  0.00000000000E+00  0.00000000000E+00 -0.26319722890E+04  0.26319722890E+04  0.25500000920E-02 0.  1.
    10030    2    1    2    0    0  0.00000000000E+00  0.00000000000E+00 -0.22813150989E+04  0.29826294792E+04  0.19213745156E+04 0.  0.
        2    1    3    3  502    0  0.40483124027E+03 -0.85314083710E+03 -0.14147783261E+04  0.17009806974E+04  0.25500000920E-02 0.  1.
       -2    1    3    3    0  502 -0.40483124027E+03  0.85314083710E+03 -0.86653677280E+03  0.12816487817E+04  0.25500000920E-02 0. -1.
</event>
<event>
 5   0  0.1257524E-04  0.2241678E+04  0.7818609E-02  0.8501278E-01
       -2   -1    0    0    0  501  0.00000000000E+00  0.00000000000E+00  0.92941626932E+03  0.92941626932E+03  0.25500000920E-02 0.  1.
        2   -1    0    0  501    0  0.00000000000E+00  0.00000000000E+00 -0.13516873348E+04  0.13516873348E+04  0.25500000920E-02 0. -1.
    10030    2    1    2    0    0  0.00000000000E+00  0.00000000000E+00 -0.42227106545E+03  0.22811036041E+04  0.22416781214E+04 0.  0.
        3    1    3    3  502    0  0.10156801860E+04 -0.12153455515E+03  0.25507426058E+03  0.10542484418E+04  0.10100000352E+00 0.  1.
       -3    1    3    3    0  502 -0.10156801860E+04  0.12153455515E+03 -0.67734532603E+03  0.12268551623E+04  0.10100000352E+00 0. -1.
</event>
<event>
 5   0  0.5843670E-05  0.1395066E+04  0.7818609E-02  0.8957397E-01
        1   -1    0    0  501    0  0.00000000000E+00  0.00000000000E+00  0.43405954801E+03  0.43405954804E+03  0.50400001928E-02 0.  1.
       -1   -1    0    0    0  501  0.00000000000E+00  0.00000000000E+00 -0.11209350944E+04  0.11209350944E+04  0.50400001928E-02 0. -1.
    10030    2    1    2    0    0  0.00000000000E+00  0.00000000000E+00 -0.68687554642E+03  0.15549946425E+04  0.13950664220E+04 0.  0.
        2    1    3    3  502    0  0.61642102664E+03 -0.31219826063E+03 -0.44982558479E+03  0.82449117203E+03  0.25500000920E-02 0. -1.
       -2    1    3    3    0  502 -0.61642102664E+03  0.31219826063E+03 -0.23704996163E+03  0.73050347045E+03  0.25500000920E-02 0.  1.
</event>
<event>
 5   0  0.1270613E-04  0.2195880E+04  0.7818609E-02  0.8520145E-01
        2   -1    0    0  501    0  0.00000000000E+00  0.00000000000E+00  0.16068507675E+04  0.16068507675E+04  0.25500000920E-02 0.  1.
       -2   -1    0    0    0  501  0.00000000000E+00  0.00000000000E+00 -0.75020775885E+03  0.75020775886E+03  0.25500000920E-02 0. -1.
    10030    2    1    2    0    0  0.00000000000E+00  0.00000000000E+00  0.85664300868E+03  0.23570585264E+04  0.21958796990E+04 0.  0.
        2    1    3    3  502    0 -0.28689994376E+03  0.15987903007E+03 -0.69624121018E+03  0.76982121610E+03  0.25500000920E-02 0. -1.
       -2    1    3    3    0  502  0.28689994376E+03 -0.15987903007E+03  0.15528842189E+04  0.15872373103E+04  0.25500000920E-02 0.  1.
</event>
<event>
 5   0  0.5632156E-05  0.2295204E+04  0.7818609E-02  0.8479814E-01
        1   -1    0    0  501    0  0.00000000000E+00  0.00000000000E+00  0.15477562604E+04  0.15477562604E+04  0.50400001928E-02 0.  1.
       -1   -1    0    0    0  501  0.00000000000E+00  0.00000000000E+00 -0.85090329363E+03  0.85090329364E+03  0.50400001928E-02 0. -1.
    10030    2    1    2    0    0  0.00000000000E+00  0.00000000000E+00  0.69685296679E+03  0.23986595541E+04  0.22952044787E+04 0.  0.
        4    1    3    3  502    0  0.35239162626E+01  0.55070611476E+03 -0.70378218780E+03  0.89364457341E+03  0.12699999809E+01 0. -1.
       -4    1    3    3    0  502 -0.35239162626E+01 -0.55070611476E+03  0.14006351546E+04  0.15050149807E+04  0.12699999809E+01 0.  1.
</event>
<event>
 5   0  0.5632156E-05  0.2433414E+04  0.7818609E-02  0.8427099E-01
        1   -1    0    0  501    0  0.00000000000E+00  0.00000000000E+00  0.16392566733E+04  0.16392566734E+04  0.50400001928E-02 0. -1.
       -1   -1    0    0    0  501  0.00000000000E+00  0.00000000000E+00 -0.90307759234E+03  0.90307759235E+03  0.50400001928E-02 0.  1.
    10030    2    1    2    0    0  0.00000000000E+00  0.00000000000E+00  0.73617908101E+03  0.25423342657E+04  0.24334140378E+04 0.  0.
        4    1    3    3  502    0 -0.11422422450E+04  0.23141781732E+03  0.73316232751E+03  0.13768805917E+04  0.12699999809E+01 0. -1.
       -4    1    3    3    0  502  0.11422422450E+04 -0.23141781732E+03  0.30167534999E+01  0.11654536740E+04  0.12699999809E+01 0.  1.
</event>
<event>
 5   0  0.1281432E-04  0.2239059E+04  0.7818609E-02  0.8502345E-01
        2   -1    0    0  501    0  0.00000000000E+00  0.00000000000E+00  0.16070397808E+04  0.16070397808E+04  0.25500000920E-02 0.  1.
       -2   -1    0    0    0  501  0.00000000000E+00  0.00000000000E+00 -0.77990977446E+03  0.77990977446E+03  0.25500000920E-02 0. -1.
    10030    2    1    2    0    0  0.00000000000E+00  0.00000000000E+00  0.82713000636E+03  0.23869495553E+04  0.22390587603E+04 0.  0.
        4    1    3    3  502    0 -0.28915882651E+03  0.10408690356E+04  0.72677933481E+03  0.13020103651E+04  0.12699999809E+01 0. -1.
       -4    1    3    3    0  502  0.28915882651E+03 -0.10408690356E+04  0.10035067155E+03  0.10849391902E+04  0.12699999809E+01 0.  1.
</event>
<event>
 5   0  0.5663790E-05  0.2277607E+04  0.7818609E-02  0.8486803E-01
       -1   -1    0    0    0  501  0.00000000000E+00  0.00000000000E+00  0.89470930022E+03  0.89470930023E+03  0.50400001928E-02 0. -1.
        1   -1    0    0  501    0  0.00000000000E+00  0.00000000000E+00 -0.14494910992E+04  0.14494910992E+04  0.50400001928E-02 0.  1.
    10030    2    1    2    0    0  0.00000000000E+00  0.00000000000E+00 -0.55478179900E+03  0.23442003995E+04  0.22776067853E+04 0.  0.
        3    1    3    3  502    0  0.67950071300E+03  0.65730179634E+03 -0.93086107811E+03  0.13267513812E+04  0.10100000352E+00 0.  1.
       -3    1    3    3    0  502 -0.67950071300E+03 -0.65730179634E+03  0.37607927912E+03  0.10174490183E+04  0.10100000352E+00 0. -1.
</event>
<event>
 5   0  0.4489500E-05  0.2111563E+04  0.7818609E-02  0.8556167E-01
        4   -1    0    0  501    0  0.00000000000E+00  0.00000000000E+00  0.79183377278E+03  0.79183479124E+03  0.12699999809E+01 0. -1.
       -4   -1    0    0    0  501  0.00000000000E+00  0.00000000000E+00 -0.14077104995E+04  0.14077110724E+04  0.12699999809E+01 0.  1.
    10030    2    1    2    0    0  0.00000000000E+00  0.00000000000E+00 -0.61587672671E+03  0.21995458636E+04  0.21115628960E+04 0.  0.
        1    1    3    3  502    0 -0.95056938296E+03  0.35142280829E+03 -0.61623371904E+03  0.11860961759E+04  0.50400001928E-02 0.  1.
       -1    1    3    3    0  502  0.95056938296E+03 -0.35142280829E+03  0.35699232975E+00  0.10134496877E+04  0.50400001928E-02 0. -1.
</event>
<event>
 5   0  0.1237296E-04  0.2344861E+04  0.7818609E-02  0.8460440E-01
       -2   -1    0    0    0  501  0.00000000000E+00  0.00000000000E+00  0.91792750212E+03  0.91792750212E+03  0.25500000920E-02 0.  1.
        2   -1    0    0  501    0  0.00000000000E+00  0.00000000000E+00 -0.14974971610E+04  0.14974971610E+04  0.25500000920E-02 0. -1.
    10030    2    1    2    0    0  0.00000000000E+00  0.00000000000E+00 -0.57956965889E+03  0.24154246631E+04  0.23448614701E+04 0.  0.
        1    1    3    3  502    0  0.10730382183E+04 -0.12643642532E+03  0.17910159717E+03  0.10952052638E+04  0.50400001928E-02 0.  1.
       -1    1    3    3    0  502 -0.10730382183E+04  0.12643642532E+03 -0.75867125607E+03  0.13202193994E+04  0.50400001928E-02 0. -1.
</event>
<event>
 5   0  0.1257524E-04  0.2342600E+04  0.7818609E-02  0.8461311E-01
       -2   -1    0    0    0  501  0.00000000000E+00  0.00000000000E+00  0.69304976883E+03  0.69304976884E+03  0.25500000920E-02 0.  1.
        2   -1    0    0  501    0  0.00000000000E+00  0.00000000000E+00 -0.19795742701E+04  0.19795742701E+04  0.25500000920E-02 0. -1.
    10030    2    1    2    0    0  0.00000000000E+00  0.00000000000E+00 -0.12865245013E+04  0.26726240390E+04  0.23425998295E+04 0.  0.
        3    1    3    3  502    0  0.11474337800E+02 -0.10893222980E+04 -0.11342233289E+04  0.15726465908E+04  0.10100000352E+00 0.  1.
       -3    1    3    3    0  502 -0.11474337800E+02  0.10893222980E+04 -0.15230117235E+03  0.10999774482E+04  0.10100000352E+00 0. -1.
</event>
<event>
 5   0  0.1281432E-04  0.2320111E+04  0.7818609E-02  0.8470033E-01
       -2   -1    0    0    0  501  0.00000000000E+00  0.00000000000E+00  0.88887409082E+03  0.88887409082E+03  0.25500000920E-02 0.  1.
        2   -1    0    0  501    0  0.00000000000E+00  0.00000000000E+00 -0.15139706314E+04  0.15139706314E+04  0.25500000920E-02 0. -1.
    10030    2    1    2    0    0  0.00000000000E+00  0.00000000000E+00 -0.62509654055E+03  0.24028447222E+04  0.23201114357E+04 0.  0.
        4    1    3    3  502    0 -0.85149113798E+03 -0.26340658486E+03  0.45642952560E+03  0.10013739121E+04  0.12699999809E+01 0.  1.
       -4    1    3    3    0  502  0.85149113798E+03  0.26340658486E+03 -0.10815260662E+04  0.14014708101E+04  0.12699999809E+01 0. -1.
</event>
<event>
 5   0  0.5642466E-05  0.2251028E+04  0.7818609E-02  0.8497484E-01
       -1   -1    0    0    0  501  0.00000000000E+00  0.00000000000E+00  0.51798872181E+03  0.51798872184E+03  0.50400001928E-02 0. -1.
        1   -1    0    0  501    0  0.00000000000E+00  0.00000000000E+00 -0.24455780190E+04  0.24455780190E+04  0.50400001928E-02 0.  1.
    10030    2    1    2    0    0  0.00000000000E+00  0.00000000000E+00 -0.19275892972E+04  0.29635667409E+04  0.22510280604E+04 0.  0.
        1    1    3    3  502    0  0.88034651437E+03 -0.35425791499E+03 -0.16701843434E+03  0.96353713636E+03  0.50400001928E-02 0. -1.
       -1    1    3    3    0  502 -0.88034651437E+03  0.35425791499E+03 -0.17605708629E+04  0.20000296045E+04  0.50400001928E-02 0.  1.
</event>
<event>
 5   0  0.1281432E-04  0.2353382E+04  0.7818609E-02  0.8457166E-01
        2   -1    0    0  501    0  0.00000000000E+00  0.00000000000E+00  0.17145419680E+04  0.17145419680E+04  0.25500000920E-02 0.  1.
       -2   -1    0    0    0  501  0.00000000000E+00  0.00000000000E+00 -0.80756345088E+03  0.80756345088E+03  0.25500000920E-02 0. -1.
    10030    2    1    2    0    0  0.00000000000E+00  0.00000000000E+00  0.90697851708E+03  0.25221054188E+04  0.23533817611E+04 0.  0.
        4    1    3    3  502    0  0.10608373474E+04 -0.14041730013E+03  0.97797040899E+03  0.14496622467E+04  0.12699999809E+01 0.  1.
       -4    1    3    3    0  502 -0.10608373474E+04  0.14041730013E+03 -0.70991891907E+02  0.10724431721E+04  0.12699999809E+01 0. -1.
</event>
<event>
 5   0  0.5663790E-05  0.2281505E+04  0.7818609E-02  0.8485249E-01
       -1   -1    0    0    0  501  0.00000000000E+00  0.00000000000E+00  0.68468257855E+03  0.68468257857E+03  0.50400001928E-02 0. -1.
        1   -1    0    0  501    0  0.00000000000E+00  0.00000000000E+00 -0.19006122447E+04  0.19006122447E+04  0.50400001928E-02 0.  1.
    10030    2    1    2    0    0  0.00000000000E+00  0.00000000000E+00 -0.12159296662E+04  0.25852948233E+04  0.22815048477E+04 0.  0.
        3    1    3    3  502    0 -0.53402360802E+03  0.10341713091E+03  0.52826636443E+03  0.75824908762E+03  0.10100000352E+00 0. -1.
       -3    1    3    3    0  502  0.53402360802E+03 -0.10341713091E+03 -0.17441960306E+04  0.18270457357E+04  0.10100000352E+00 0.  1.
</event>
<event>
 5   0  0.1257524E-04  0.2314232E+04  0.7818609E-02  0.8472331E-01
       -2   -1    0    0    0  501  0.00000000000E+00  0.00000000000E+00  0.95063106220E+03  0.95063106221E+03  0.25500000920E-02 0. -1.
        2   -1    0    0  501    0  0.00000000000E+00  0.00000000000E+00 -0.14084511051E+04  0.14084511051E+04  0.25500000920E-02 0.  1.
    10030    2    1    2    0    0  0.00000000000E+00  0.00000000000E+00 -0.45782004287E+03  0.23590821673E+04  0.23142319418E+04 0.  0.
        3    1    3    3  502    0 -0.96690126940E+03 -0.48909126851E+03 -0.64274450929E+03  0.12598527089E+04  0.10100000352E+00 0.  1.
       -3    1    3    3    0  502  0.96690126940E+03  0.48909126851E+03  0.18492446642E+03  0.10992294584E+04  0.10100000352E+00 0. -1.
</event>
<event>
 5   0  0.1257524E-04  0.2281083E+04  0.7818609E-02  0.8485417E-01
       -2   -1    0    0    0  501  0.00000000000E+00  0.00000000000E+00  0.72696035591E+03  0.72696035591E+03  0.25500000920E-02 0.  1.
        2   -1    0    0  501    0  0.00000000000E+00  0.00000000000E+00 -0.17894163722E+04  0.17894163722E+04  0.25500000920E-02 0. -1.
    10030    2    1    2    0    0  0.00000000000E+00  0.00000000000E+00 -0.10624560163E+04  0.25163767281E+04  0.22810828681E+04 0.  0.
        3    1    3    3  502    0  0.87753878102E+03  0.51571361115E+02 -0.13328931952E+04  0.15966647104E+04  0.10100000352E+00 0. -1.
       -3    1    3    3    0  502 -0.87753878102E+03 -0.51571361115E+02  0.27043717894E+03  0.91971201766E+03  0.10100000352E+00 0.  1.
</event>
<event>
 5   0  0.5632156E-05  0.1273561E+04  0.7818609E-02  0.9050798E-01
        1   -1    0    0  501    0  0.00000000000E+00  0.00000000000E+00  0.84184773357E+03  0.84184773358E+03  0.50400001928E-02 0.  1.
       -1   -1    0    0    0  501  0.00000000000E+00  0.00000000000E+00 -0.48166617438E+03  0.48166617440E+03  0.50400001928E-02 0. -1.
    10030    2    1    2    0    0  0.00000000000E+00  0.00000000000E+00  0.36018155919E+03  0.13235139080E+04  0.12735612702E+04 0.  0.
        4    1    3    3  502    0 -0.36052043634E+03  0.18192762244E+03 -0.33157773885E+03  0.52251129617E+03  0.12699999809E+01 0. -1.
       -4    1    3    3    0  502  0.36052043634E+03 -0.18192762244E+03  0.69175929804E+03  0.80100261182E+03  0.12699999809E+01 0.  1.
</event>
<event>
 5   0  0.5642466E-05  0.1446260E+04  0.7818609E-02  0.8920997E-01
       -1   -1    0    0    0  501  0.00000000000E+00  0.00000000000E+00  0.46038731984E+03  0.46038731986E+03  0.50400001928E-02 0. -1.
        1   -1    0    0  501    0  0.00000000000E+00  0.00000000000E+00 -0.11358197335E+04  0.11358197335E+04  0.50400001928E-02 0.  1.
    10030    2    1    2    0    0  0.00000000000E+00  0.00000000000E+00 -0.67543241370E+03  0.15962070534E+04  0.14462600084E+04 0.  0.
        1    1    3    3  502    0  0.64762765432E+03 -0.31289750948E+03 -0.25519396753E+03  0.76318437560E+03  0.50400001928E-02 0.  1.
       -1    1    3    3    0  502 -0.64762765432E+03  0.31289750948E+03 -0.42023844618E+03  0.83302267781E+03  0.50400001928E-02 0. -1.
</event>
<event>
 5   0  0.1237296E-04  0.2291837E+04  0.7818609E-02  0.8481147E-01
       -2   -1    0    0    0  501  0.00000000000E+00  0.00000000000E+00  0.72656361879E+03  0.72656361879E+03  0.25500000920E-02 0.  1.
        2   -1    0    0  501    0  0.00000000000E+00  0.00000000000E+00 -0.18073145924E+04  0.18073145924E+04  0.25500000920E-02 0. -1.
    10030    2    1    2    0    0  0.00000000000E+00  0.00000000000E+00 -0.10807509736E+04  0.25338782112E+04  0.22918368446E+04 0.  0.
        1    1    3    3  502    0 -0.11061416917E+03  0.33698333426E+02 -0.18008477187E+04  0.18045563383E+04  0.50400001928E-02 0. -1.
       -1    1    3    3    0  502  0.11061416917E+03 -0.33698333426E+02  0.72009674505E+03  0.72932187294E+03  0.50400001928E-02 0.  1.
</event>
<event>
 5   0  0.5632156E-05  0.2288892E+04  0.7818609E-02  0.8482314E-01
        1   -1    0    0  501    0  0.00000000000E+00  0.00000000000E+00  0.14043135550E+04  0.14043135550E+04  0.50400001928E-02 0.  1.
       -1   -1    0    0    0  501  0.00000000000E+00  0.00000000000E+00 -0.93266657330E+03  0.93266657331E+03  0.50400001928E-02 0. -1.
    10030    2    1    2    0    0  0.00000000000E+00  0.00000000000E+00  0.47164698167E+03  0.23369801283E+04  0.22888917066E+04 0.  0.
        4    1    3    3  502    0  0.22010975450E+02 -0.26812199010E+03  0.13715701365E+04  0.13977053112E+04  0.12699999809E+01 0.  1.
       -4    1    3    3    0  502 -0.22010975450E+02  0.26812199010E+03 -0.89992315482E+03  0.93927481713E+03  0.12699999809E+01 0. -1.
</event>
<event>
 5   0  0.1234988E-04  0.2340302E+04  0.7818609E-02  0.8462198E-01
       -2   -1    0    0    0  501  0.00000000000E+00  0.00000000000E+00  0.12834214189E+04  0.12834214189E+04  0.25500000920E-02 0. -1.
        2   -1    0    0  501    0  0.00000000000E+00  0.00000000000E+00 -0.10668770652E+04  0.10668770652E+04  0.25500000920E-02 0.  1.
    10030    2    1    2    0    0  0.00000000000E+00  0.00000000000E+00  0.21654435372E+03  0.23502984841E+04  0.23403015847E+04 0.  0.
        5    1    3    3  502    0  0.54503232310E+03 -0.10252824619E+04 -0.37144228760E+02  0.11617513261E+04  0.46999998093E+01 0.  1.
       -5    1    3    3    0  502 -0.54503232310E+03  0.10252824619E+04  0.25368858248E+03  0.11885471580E+04  0.46999998093E+01 0. -1.
</event>
<event>
 5   0  0.5843670E-05  0.2352583E+04  0.7818609E-02  0.8457472E-01
       -1   -1    0    0    0  501  0.00000000000E+00  0.00000000000E+00  0.11701422575E+04  0.11701422575E+04  0.50400001928E-02 0. -1.
        1   -1    0    0  501    0  0.00000000000E+00  0.00000000000E+00 -0.11824727143E+04  0.11824727143E+04  0.50400001928E-02 0.  1.
    10030    2    1    2    0    0  0.00000000000E+00  0.00000000000E+00 -0.12330456787E+02  0.23526149718E+04  0.23525826585E+04 0.  0.
        2    1    3    3  502    0 -0.10546379008E+04 -0.33596160378E+03  0.39199848804E+03  0.11742206419E+04  0.25500000920E-02 0.  1.
       -2    1    3    3    0  502  0.10546379008E+04  0.33596160378E+03 -0.40432894483E+03  0.11783943299E+04  0.25500000920E-02 0. -1.
</event>
<event>
 5   0  0.5924654E-05  0.1452883E+04  0.7818609E-02  0.8916404E-01
       -1   -1    0    0    0  501  0.00000000000E+00  0.00000000000E+00  0.12973625540E+04  0.12973625540E+04  0.50400001928E-02 0.  1.
        1   -1    0    0  501    0  0.00000000000E+00  0.00000000000E+00 -0.40676152051E+03  0.40676152054E+03  0.50400001928E-02 0. -1.
    10030    2    1    2    0    0  0.00000000000E+00  0.00000000000E+00  0.89060103350E+03  0.17041240746E+04  0.14528828792E+04 0.  0.
        5    1    3    3  502    0 -0.72499507819E+03 -0.33477791226E+02  0.40902600532E+03  0.83310442859E+03  0.46999998093E+01 0.  1.
       -5    1    3    3    0  502  0.72499507819E+03  0.33477791226E+02  0.48157502818E+03  0.87101964597E+03  0.46999998093E+01 0. -1.
</event>
<event>
 5   0  0.5642466E-05  0.2336786E+04  0.7818609E-02  0.8463556E-01
        1   -1    0    0  501    0  0.00000000000E+00  0.00000000000E+00  0.13294933003E+04  0.13294933003E+04  0.50400001928E-02 0.  1.
       -1   -1    0    0    0  501  0.00000000000E+00  0.00000000000E+00 -0.10268140002E+04  0.10268140002E+04  0.50400001928E-02 0. -1.
    10030    2    1    2    0    0  0.00000000000E+00  0.00000000000E+00  0.30267930010E+03  0.23563073006E+04  0.23367861126E+04 0.  0.
        1    1    3    3  502    0  0.96430385662E+03  0.26496054874E+03  0.76058594653E+03  0.12564143434E+04  0.50400001928E-02 0.  1.
       -1    1    3    3    0  502 -0.96430385662E+03 -0.26496054874E+03 -0.45790664644E+03  0.10998929571E+04  0.50400001928E-02 0. -1.
</event>
<event>
 5   0  0.1234988E-04  0.2330098E+04  0.7818609E-02  0.8466148E-01
       -2   -1    0    0    0  501  0.00000000000E+00  0.00000000000E+00  0.76235379997E+03  0.76235379998E+03  0.25500000920E-02 0.  1.
        2   -1    0    0  501    0  0.00000000000E+00  0.00000000000E+00 -0.17804581629E+04  0.17804581629E+04  0.25500000920E-02 0. -1.
    10030    2    1    2    0    0  0.00000000000E+00  0.00000000000E+00 -0.10181043629E+04  0.25428119629E+04  0.23300978917E+04 0.  0.
        5    1    3    3  502    0  0.59342488621E+03  0.24319133244E+03 -0.15704804738E+04  0.16963861967E+04  0.46999998093E+01 0. -1.
       -5    1    3    3    0  502 -0.59342488621E+03 -0.24319133244E+03  0.55237611090E+03  0.84642576616E+03  0.46999998093E+01 0.  1.
</event>
<event>
 5   0  0.5843670E-05  0.2358915E+04  0.7818609E-02  0.8455047E-01
        1   -1    0    0  501    0  0.00000000000E+00  0.00000000000E+00  0.17424728158E+04  0.17424728158E+04  0.50400001928E-02 0. -1.
       -1   -1    0    0    0  501  0.00000000000E+00  0.00000000000E+00 -0.79835957648E+03  0.79835957650E+03  0.50400001928E-02 0.  1.
    10030    2    1    2    0    0  0.00000000000E+00  0.00000000000E+00  0.94411323934E+03  0.25408323923E+04  0.23589148855E+04 0.  0.
        2    1    3    3  502    0 -0.70846184967E+03  0.46082568232E+03 -0.41409327545E+03  0.94114384804E+03  0.25500000920E-02 0.  1.
       -2    1    3    3    0  502  0.70846184967E+03 -0.46082568232E+03  0.13582065148E+04  0.15996885443E+04  0.25500000920E-02 0. -1.
</event>
<event>
 5   0  0.5663790E-05  0.1995866E+04  0.7818609E-02  0.8608556E-01
        1   -1    0    0  501    0  0.00000000000E+00  0.00000000000E+00  0.14843237207E+04  0.14843237207E+04  0.50400001928E-02 0. -1.
       -1   -1    0    0    0  501  0.00000000000E+00  0.00000000000E+00 -0.67092504850E+03  0.67092504852E+03  0.50400001928E-02 0.  1.
    10030    2    1    2    0    0  0.00000000000E+00  0.00000000000E+00  0.81339867216E+03  0.21552487692E+04  0.19958656912E+04 0.  0.
        3    1    3    3  502    0 -0.61085246192E+03 -0.70514380297E+03  0.78925131176E+03  0.12220008823E+04  0.10100000352E+00 0. -1.
       -3    1    3    3    0  502  0.61085246192E+03  0.70514380297E+03  0.24147360393E+02  0.93324788685E+03  0.10100000352E+00 0.  1.
</event>
<event>
 5   0  0.1257524E-04  0.2221258E+04  0.7818609E-02  0.8509632E-01
       -2   -1    0    0    0  501  0.00000000000E+00  0.00000000000E+00  0.60058156620E+03  0.60058156620E+03  0.25500000920E-02 0. -1.
        2   -1    0    0  501    0  0.00000000000E+00  0.00000000000E+00 -0.20538363170E+04  0.20538363170E+04  0.25500000920E-02 0.  1.
    10030    2    1    2    0    0  0.00000000000E+00  0.00000000000E+00 -0.14532547508E+04  0.26544178832E+04  0.22212575105E+04 0.  0.
        3    1    3    3  502    0  0.98450098451E+03 -0.18713202293E+03 -0.15447533042E+03  0.10139641120E+04  0.10100000352E+00 0. -1.
       -3    1    3    3    0  502 -0.98450098451E+03  0.18713202293E+03 -0.12987794204E+04  0.16404537713E+04  0.10100000352E+00 0.  1.
</event>
<event>
 5   0  0.1234988E-04  0.2332854E+04  0.7818609E-02  0.8465079E-01
       -2   -1    0    0    0  501  0.00000000000E+00  0.00000000000E+00  0.85784392611E+03  0.85784392611E+03  0.25500000920E-02 0. -1.
        2   -1    0    0  501    0  0.00000000000E+00  0.00000000000E+00 -0.15860139562E+04  0.15860139562E+04  0.25500000920E-02 0.  1.
    10030    2    1    2    0    0  0.00000000000E+00  0.00000000000E+00 -0.72817003008E+03  0.24438578823E+04  0.23328544224E+04 0.  0.
        5    1    3    3  502    0  0.70446400565E+03  0.92662596411E+03 -0.44265466865E+03  0.12453394952E+04  0.46999998093E+01 0.  1.
       -5    1    3    3    0  502 -0.70446400565E+03 -0.92662596411E+03 -0.28551536143E+03  0.11985183871E+04  0.46999998093E+01 0. -1.
</event>
<event>
 5   0  0.1237296E-04  0.1999832E+04  0.7818609E-02  0.8606699E-01
       -2   -1    0    0    0  501  0.00000000000E+00  0.00000000000E+00  0.81968038222E+03  0.81968038222E+03  0.25500000920E-02 0.  1.
        2   -1    0    0  501    0  0.00000000000E+00  0.00000000000E+00 -0.12197823438E+04  0.12197823438E+04  0.25500000920E-02 0. -1.
    10030    2    1    2    0    0  0.00000000000E+00  0.00000000000E+00 -0.40010196163E+03  0.20394627261E+04  0.19998316507E+04 0.  0.
        1    1    3    3  502    0 -0.85972384140E+03  0.31532007916E+03  0.20950413259E+03  0.93938480795E+03  0.50400001928E-02 0.  1.
       -1    1    3    3    0  502  0.85972384140E+03 -0.31532007916E+03 -0.60960609422E+03  0.11000779181E+04  0.50400001928E-02 0. -1.
</event>
<event>
 5   0  0.5632156E-05  0.2248624E+04  0.7818609E-02  0.8498458E-01
        1   -1    0    0  501    0  0.00000000000E+00  0.00000000000E+00  0.14001361470E+04  0.14001361470E+04  0.50400001928E-02 0.  1.
       -1   -1    0    0    0  501  0.00000000000E+00  0.00000000000E+00 -0.90282453533E+03  0.90282453534E+03  0.50400001928E-02 0. -1.
    10030    2    1    2    0    0  0.00000000000E+00  0.00000000000E+00  0.49731161170E+03  0.23029606824E+04  0.22486238159E+04 0.  0.
        4    1    3    3  502    0 -0.10594513595E+04 -0.25500105901E+03 -0.34823104040E+02  0.10902646398E+04  0.12699999809E+01 0. -1.
       -4    1    3    3    0  502  0.10594513595E+04  0.25500105901E+03  0.53213471574E+03  0.12126960426E+04  0.12699999809E+01 0.  1.
</event>
<event>
 5   0  0.5663790E-05  0.2320943E+04  0.7818609E-02  0.8469709E-01
        1   -1    0    0  501    0  0.00000000000E+00  0.00000000000E+00  0.13874360908E+04  0.13874360908E+04  0.50400001928E-02 0. -1.
       -1   -1    0    0    0  501  0.00000000000E+00  0.00000000000E+00 -0.97063507874E+03  0.97063507876E+03  0.50400001928E-02 0.  1.
    10030    2    1    2    0    0  0.00000000000E+00  0.00000000000E+00  0.41680101208E+03  0.23580711696E+04  0.23209430319E+04 0.  0.
        3    1    3    3  502    0 -0.10539726635E+04 -0.22694385268E+03  0.64460795715E+03  0.12561374592E+04  0.10100000352E+00 0. -1.
       -3    1    3    3    0  502  0.10539726635E+04  0.22694385268E+03 -0.22780694507E+03  0.11019337104E+04  0.10100000352E+00 0.  1.
</event>
<event>
 5   0  0.5642466E-05  0.1739961E+04  0.7818609E-02  0.8738896E-01
        1   -1    0    0  501    0  0.00000000000E+00  0.00000000000E+00  0.66125582206E+03  0.66125582208E+03  0.50400001928E-02 0.  1.
       -1   -1    0    0    0  501  0.00000000000E+00  0.00000000000E+00 -0.11445887304E+04  0.11445887305E+04  0.50400001928E-02 0. -1.
    10030    2    1    2    0    0  0.00000000000E+00  0.00000000000E+00 -0.48333290838E+03  0.18058445525E+04  0.17399608753E+04 0.  0.
        1    1    3    3  502    0  0.47255050771E+03  0.84677163322E+02  0.51133431653E+03  0.70138219796E+03  0.50400001928E-02 0.  1.
       -1    1    3    3    0  502 -0.47255050771E+03 -0.84677163322E+02 -0.99466722491E+03  0.11044623546E+04  0.50400001928E-02 0. -1.
</event>
<event>
 5   0  0.1270613E-04  0.2305321E+04  0.7818609E-02  0.8475826E-01
       -2   -1    0    0    0  501  0.00000000000E+00  0.00000000000E+00  0.58006093580E+03  0.58006093581E+03  0.25500000920E-02 0.  1.
        2   -1    0    0  501    0  0.00000000000E+00  0.00000000000E+00 -0.22904942251E+04  0.22904942251E+04  0.25500000920E-02 0. -1.
    10030    2    1    2    0    0  0.00000000000E+00  0.00000000000E+00 -0.17104332893E+04  0.28705551609E+04  0.23053209960E+04 0.  0.
        2    1    3    3  502    0  0.18736551268E+03  0.10967862554E+04 -0.12299750343E+04  0.16585790637E+04  0.25500000920E-02 0.  1.
       -2    1    3    3    0  502 -0.18736551268E+03 -0.10967862554E+04 -0.48045825501E+03  0.12119760972E+04  0.25500000920E-02 0. -1.
</event>
<event>
 5   0  0.5642466E-05  0.2510378E+04  0.7818609E-02  0.8399297E-01
       -1   -1    0    0    0  501  0.00000000000E+00  0.00000000000E+00  0.11454009911E+04  0.11454009911E+04  0.50400001928E-02 0. -1.
        1   -1    0    0  501    0  0.00000000000E+00  0.00000000000E+00 -0.13755008102E+04  0.13755008102E+04  0.50400001928E-02 0.  1.
    10030    2    1    2    0    0  0.00000000000E+00  0.00000000000E+00 -0.23009981910E+03  0.25209018014E+04  0.25103784506E+04 0.  0.
        1    1    3    3  502    0  0.17578227288E+03 -0.16313032388E+03 -0.13522816534E+04  0.13733814402E+04  0.50400001928E-02 0.  1.
       -1    1    3    3    0  502 -0.17578227288E+03  0.16313032388E+03  0.11221818343E+04  0.11475203612E+04  0.50400001928E-02 0. -1.
</event>
<event>
 5   0  0.4489500E-05  0.2316950E+04  0.7818609E-02  0.8471268E-01
        4   -1    0    0  501    0  0.00000000000E+00  0.00000000000E+00  0.15859903768E+04  0.15859908853E+04  0.12699999809E+01 0.  1.
       -4   -1    0    0    0  501  0.00000000000E+00  0.00000000000E+00 -0.84619869749E+03  0.84619965051E+03  0.12699999809E+01 0. -1.
    10030    2    1    2    0    0  0.00000000000E+00  0.00000000000E+00  0.73979167932E+03  0.24321905358E+04  0.23169503822E+04 0.  0.
        2    1    3    3  502    0  0.88067492876E+03 -0.75145909146E+03  0.41425483694E+03  0.12295878034E+04  0.25500000920E-02 0.  1.
       -2    1    3    3    0  502 -0.88067492876E+03  0.75145909146E+03  0.32553684238E+03  0.12026027324E+04  0.25500000920E-02 0. -1.
</event>
<event>
 5   0  0.5632156E-05  0.2235763E+04  0.7818609E-02  0.8503689E-01
        1   -1    0    0  501    0  0.00000000000E+00  0.00000000000E+00  0.12152041862E+04  0.12152041862E+04  0.50400001928E-02 0. -1.
       -1   -1    0    0    0  501  0.00000000000E+00  0.00000000000E+00 -0.10283528029E+04  0.10283528029E+04  0.50400001928E-02 0.  1.
    10030    2    1    2    0    0  0.00000000000E+00  0.00000000000E+00  0.18685138325E+03  0.22435569891E+04  0.22357626269E+04 0.  0.
        4    1    3    3  502    0  0.96384421449E+01  0.89781534924E+03  0.76169908431E+03  0.11774346729E+04  0.12699999809E+01 0. -1.
       -4    1    3    3    0  502 -0.96384421449E+01 -0.89781534924E+03 -0.57484770106E+03  0.10661223163E+04  0.12699999809E+01 0.  1.
</event>
<event>
 5   0  0.1237296E-04  0.2345054E+04  0.7818609E-02  0.8460366E-01
        2   -1    0    0  501    0  0.00000000000E+00  0.00000000000E+00  0.14211356205E+04  0.14211356205E+04  0.25500000920E-02 0. -1.
       -2   -1    0    0    0  501  0.00000000000E+00  0.00000000000E+00 -0.96740932278E+03  0.96740932278E+03  0.25500000920E-02 0.  1.
    10030    2    1    2    0    0  0.00000000000E+00  0.00000000000E+00  0.45372629768E+03  0.23885449432E+04  0.23450542409E+04 0.  0.
        1    1    3    3  502    0  0.11257954166E+04  0.30776423106E+03  0.11214348934E+03  0.11724804067E+04  0.50400001928E-02 0.  1.
       -1    1    3    3    0  502 -0.11257954166E+04 -0.30776423106E+03  0.34158280833E+03  0.12160645365E+04  0.50400001928E-02 0. -1.
</event>
<event>
 5   0  0.1257524E-04  0.2174185E+04  0.7818609E-02  0.8529250E-01
        2   -1    0    0  501    0  0.00000000000E+00  0.00000000000E+00  0.19130981973E+04  0.19130981973E+04  0.25500000920E-02 0.  1.
       -2   -1    0    0    0  501  0.00000000000E+00  0.00000000000E+00 -0.61772593146E+03  0.61772593147E+03  0.25500000920E-02 0. -1.
    10030    2    1    2    0    0  0.00000000000E+00  0.00000000000E+00  0.12953722659E+04  0.25308241288E+04  0.21741852414E+04 0.  0.
        3    1    3    3  502    0 -0.62251859591E+03 -0.43350144557E+03  0.15540768664E+04  0.17293373940E+04  0.10100000352E+00 0.  1.
       -3    1    3    3    0  502  0.62251859591E+03  0.43350144557E+03 -0.25870460047E+03  0.80148673481E+03  0.10100000352E+00 0. -1.
</event>
<event>
 5   0  0.5843670E-05  0.2212430E+04  0.7818609E-02  0.8513272E-01
        1   -1    0    0  501    0  0.00000000000E+00  0.00000000000E+00  0.26601390793E+04  0.26601390793E+04  0.50400001928E-02 0.  1.
       -1   -1    0    0    0  501  0.00000000000E+00  0.00000000000E+00 -0.46001802482E+03  0.46001802485E+03  0.50400001928E-02 0. -1.
    10030    2    1    2    0    0  0.00000000000E+00  0.00000000000E+00  0.22001210544E+04  0.31201571041E+04  0.22124302701E+04 0.  0.
        2    1    3    3  502    0 -0.17768384450E+03 -0.25420094000E+03  0.25975694961E+04  0.26160192953E+04  0.25500000920E-02 0.  1.
       -2    1    3    3    0  502  0.17768384450E+03  0.25420094000E+03 -0.39744844164E+03  0.50413780880E+03  0.25500000920E-02 0. -1.
</event>
<event>
 5   0  0.4489500E-05  0.2287436E+04  0.7818609E-02  0.8482892E-01
        3   -1    0    0  501    0  0.00000000000E+00  0.00000000000E+00  0.96251632906E+03  0.96251633436E+03  0.10100000352E+00 0.  1.
       -3   -1    0    0    0  501  0.00000000000E+00  0.00000000000E+00 -0.13590321450E+04  0.13590321487E+04  0.10100000352E+00 0. -1.
    10030    2    1    2    0    0  0.00000000000E+00  0.00000000000E+00 -0.39651581591E+03  0.23215484831E+04  0.22874358061E+04 0.  0.
        3    1    3    3  502    0  0.57239531259E+03 -0.27018562239E+03  0.76855211627E+03  0.99564503215E+03  0.10100000352E+00 0.  1.
       -3    1    3    3    0  502 -0.57239531259E+03  0.27018562239E+03 -0.11650679322E+04  0.13259034509E+04  0.10100000352E+00 0. -1.
</event>
<event>
 5   0  0.5924654E-05  0.1759785E+04  0.7818609E-02  0.8727983E-01
       -1   -1    0    0    0  501  0.00000000000E+00  0.00000000000E+00  0.76950023298E+03  0.76950023299E+03  0.50400001928E-02 0.  1.
        1   -1    0    0  501    0  0.00000000000E+00  0.00000000000E+00 -0.10061211999E+04  0.10061211999E+04  0.50400001928E-02 0. -1.
    10030    2    1    2    0    0  0.00000000000E+00  0.00000000000E+00 -0.23662096695E+03  0.17756214329E+04  0.17597846434E+04 0.  0.
        5    1    3    3  502    0  0.35468039559E+03  0.79736257255E+03 -0.23158453991E+03  0.90290572279E+03  0.46999998093E+01 0.  1.
       -5    1    3    3    0  502 -0.35468039559E+03 -0.79736257255E+03 -0.50364270345E+01  0.87271571014E+03  0.46999998093E+01 0. -1.
</event>
<event>
 5   0  0.1234988E-04  0.2414885E+04  0.7818609E-02  0.8433952E-01
       -2   -1    0    0    0  501  0.00000000000E+00  0.00000000000E+00  0.13227401382E+04  0.13227401382E+04  0.25500000920E-02 0. -1.
        2   -1    0    0  501    0  0.00000000000E+00  0.00000000000E+00 -0.11021951864E+04  0.11021951864E+04  0.25500000920E-02 0.  1.
    10030    2    1    2    0    0  0.00000000000E+00  0.00000000000E+00  0.22054495177E+03  0.24249353247E+04  0.24148853499E+04 0.  0.
        5    1    3    3  502    0  0.35728799601E+03  0.71080196903E+03  0.10223484827E+04  0.12954198784E+04  0.46999998093E+01 0. -1.
       -5    1    3    3    0  502 -0.35728799601E+03 -0.71080196903E+03 -0.80180353090E+03  0.11295154463E+04  0.46999998093E+01 0.  1.
</event>
<event>
 5   0  0.1237296E-04  0.2268961E+04  0.7818609E-02  0.8490261E-01
       -2   -1    0    0    0  501  0.00000000000E+00  0.00000000000E+00  0.76551887701E+03  0.76551887702E+03  0.25500000920E-02 0. -1.
        2   -1    0    0  501    0  0.00000000000E+00  0.00000000000E+00 -0.16812727819E+04  0.16812727819E+04  0.25500000920E-02 0.  1.
    10030    2    1    2    0    0  0.00000000000E+00  0.00000000000E+00 -0.91575390488E+03  0.24467916589E+04  0.22689610415E+04 0.  0.
        1    1    3    3  502    0  0.64243174780E+03  0.21551294924E+03  0.52331524466E+03  0.85616775646E+03  0.50400001928E-02 0. -1.
       -1    1    3    3    0  502 -0.64243174780E+03 -0.21551294924E+03 -0.14390691495E+04  0.15906239025E+04  0.50400001928E-02 0.  1.
</event>
<event>
 5   0  0.5924654E-05  0.2264143E+04  0.7818609E-02  0.8492195E-01
       -1   -1    0    0    0  501  0.00000000000E+00  0.00000000000E+00  0.14857721034E+04  0.14857721034E+04  0.50400001928E-02 0.  1.
        1   -1    0    0  501    0  0.00000000000E+00  0.00000000000E+00 -0.86257216795E+03  0.86257216797E+03  0.50400001928E-02 0. -1.
    10030    2    1    2    0    0  0.00000000000E+00  0.00000000000E+00  0.62319993548E+03  0.23483442714E+04  0.22641428085E+04 0.  0.
        5    1    3    3  502    0  0.33279958169E+03  0.44308546668E+03  0.13354707407E+04  0.14458853625E+04  0.46999998093E+01 0.  1.
       -5    1    3    3    0  502 -0.33279958169E+03 -0.44308546668E+03 -0.71227080518E+03  0.90245890890E+03  0.46999998093E+01 0. -1.
</event>
<event>
 5   0  0.5632156E-05  0.2202748E+04  0.7818609E-02  0.8517285E-01
       -1   -1    0    0    0  501  0.00000000000E+00  0.00000000000E+00  0.90928100937E+03  0.90928100938E+03  0.50400001928E-02 0. -1.
        1   -1    0    0  501    0  0.00000000000E+00  0.00000000000E+00 -0.13340480374E+04  0.13340480374E+04  0.50400001928E-02 0.  1.
    10030    2    1    2    0    0  0.00000000000E+00  0.00000000000E+00 -0.42476702805E+03  0.22433290468E+04  0.22027478712E+04 0.  0.
        4    1    3    3  502    0 -0.52007950143E+03  0.26182402939E+03  0.73971311918E+03  0.94138813556E+03  0.12699999809E+01 0. -1.
       -4    1    3    3    0  502  0.52007950143E+03 -0.26182402939E+03 -0.11644801472E+04  0.13019409112E+04  0.12699999809E+01 0.  1.
</event>
<event>
 5   0  0.1281432E-04  0.2071532E+04  0.7818609E-02  0.8573889E-01
       -2   -1    0    0    0  501  0.00000000000E+00  0.00000000000E+00  0.12176501998E+04  0.12176501998E+04  0.25500000920E-02 0.  1.
        2   -1    0    0  501    0  0.00000000000E+00  0.00000000000E+00 -0.88105002058E+03  0.88105002058E+03  0.25500000920E-02 0. -1.
    10030    2    1    2    0    0  0.00000000000E+00  0.00000000000E+00  0.33660017926E+03  0.20987002204E+04  0.20715315432E+04 0.  0.
        4    1    3    3  502    0 -0.52303869327E+02 -0.40138604615E+03  0.11341994551E+04  0.12042659464E+04  0.12699999809E+01 0.  1.
       -4    1    3    3    0  502  0.52303869327E+02  0.40138604615E+03 -0.79759927586E+03  0.89443427402E+03  0.12699999809E+01 0. -1.
</event>
<event>
 5   0  0.1237296E-04  0.2280894E+04  0.7818609E-02  0.8485492E-01
        2   -1    0    0  501    0  0.00000000000E+00  0.00000000000E+00  0.22258440255E+04  0.22258440255E+04  0.25500000920E-02 0. -1.
       -2   -1    0    0    0  501  0.00000000000E+00  0.00000000000E+00 -0.58432661738E+03  0.58432661739E+03  0.25500000920E-02 0.  1.
    10030    2    1    2    0    0  0.00000000000E+00  0.00000000000E+00  0.16415174081E+04  0.28101706429E+04  0.22808944827E+04 0.  0.
        1    1    3    3  502    0  0.15168655369E+03  0.10210876302E+04  0.14180047075E+04  0.17539572713E+04  0.50400001928E-02 0.  1.
       -1    1    3    3    0  502 -0.15168655369E+03 -0.10210876302E+04  0.22351270066E+03  0.10562133716E+04  0.50400001928E-02 0. -1.
</event>
<event>
 5   0  0.1234988E-04  0.2304260E+04  0.7818609E-02  0.8476243E-01
       -2   -1    0    0    0  501  0.00000000000E+00  0.00000000000E+00  0.19696440328E+04  0.19696440328E+04  0.25500000920E-02 0. -1.
        2   -1    0    0  501    0  0.00000000000E+00  0.00000000000E+00 -0.67393077693E+03  0.67393077694E+03  0.25500000920E-02 0.  1.
    10030    2    1    2    0    0  0.00000000000E+00  0.00000000000E+00  0.12957132559E+04  0.26435748097E+04  0.23042601705E+04 0.  0.
        5    1    3    3  502    0 -0.97263521636E+03 -0.49697433033E+03  0.10684143613E+04  0.15279182198E+04  0.46999998093E+01 0. -1.
       -5    1    3    3    0  502  0.97263521636E+03  0.49697433033E+03  0.22729889458E+03  0.11156565899E+04  0.46999998093E+01 0.  1.
</event>
<event>
 5   0  0.1234988E-04  0.2313950E+04  0.7818609E-02  0.8472441E-01
        2   -1    0    0  501    0  0.00000000000E+00  0.00000000000E+00  0.12606212755E+04  0.12606212755E+04  0.25500000920E-02 0. -1.
       -2   -1    0    0    0  501  0.00000000000E+00  0.00000000000E+00 -0.10618503210E+04  0.10618503210E+04  0.25500000920E-02 0.  1.
    10030    2    1    2    0    0  0.00000000000E+00  0.00000000000E+00  0.19877095449E+03  0.23224715965E+04  0.23139499614E+04 0.  0.
        5    1    3    3  502    0 -0.17424862072E+03 -0.25136089178E+03  0.12193011785E+04  0.12570848554E+04  0.46999998093E+01 0. -1.
       -5    1    3    3    0  502  0.17424862072E+03  0.25136089178E+03 -0.10205302241E+04  0.10653867410E+04  0.46999998093E+01 0.  1.
</event>
<event>
 5   0  0.1234988E-04  0.2211100E+04  0.7818609E-02  0.8513822E-01
       -2   -1    0    0    0  501  0.00000000000E+00  0.00000000000E+00  0.59738492158E+03  0.59738492158E+03  0.25500000920E-02 0. -1.
        2   -1    0    0  501    0  0.00000000000E+00  0.00000000000E+00 -0.20459847530E+04  0.20459847530E+04  0.25500000920E-02 0.  1.
    10030    2    1    2    0    0  0.00000000000E+00  0.00000000000E+00 -0.14485998315E+04  0.26433696746E+04  0.22110996732E+04 0.  0.
        5    1    3    3  502    0 -0.67688127651E+03  0.34538807907E+03  0.23564800223E+03  0.79562130352E+03  0.46999998093E+01 0. -1.
       -5    1    3    3    0  502  0.67688127651E+03 -0.34538807907E+03 -0.16842478337E+04  0.18477483711E+04  0.46999998093E+01 0.  1.
</event>
<event>
 5   0  0.5924654E-05  0.2306596E+04  0.7818609E-02  0.8475325E-01
        1   -1    0    0  501    0  0.00000000000E+00  0.00000000000E+00  0.17422521489E+04  0.17422521489E+04  0.50400001928E-02 0.  1.
       -1   -1    0    0    0  501  0.00000000000E+00  0.00000000000E+00 -0.76343488349E+03  0.76343488351E+03  0.50400001928E-02 0. -1.
    10030    2    1    2    0    0  0.00000000000E+00  0.00000000000E+00  0.97881726543E+03  0.25056870324E+04  0.23065958175E+04 0.  0.
        5    1    3    3  502    0 -0.33298933278E+03  0.90471208648E+03 -0.19822729384E+03  0.98422660256E+03  0.46999998093E+01 0. -1.
       -5    1    3    3    0  502  0.33298933278E+03 -0.90471208648E+03  0.11770445593E+04  0.15214604299E+04  0.46999998093E+01 0.  1.
</event>
<event>
 5   0  0.1237296E-04  0.2301754E+04  0.7818609E-02  0.8477230E-01
        2   -1    0    0  501    0  0.00000000000E+00  0.00000000000E+00  0.51827296634E+03  0.51827296634E+03  0.25500000920E-02 0.  1.
       -2   -1    0    0    0  501  0.00000000000E+00  0.00000000000E+00 -0.25556382889E+04  0.25556382889E+04  0.25500000920E-02 0. -1.
    10030    2    1    2    0    0  0.00000000000E+00  0.00000000000E+00 -0.20373653225E+04  0.30739112552E+04  0.23017543195E+04 0.  0.
        1    1    3    3  502    0  0.65586353320E+03  0.28668479001E+03  0.18484660974E+03  0.73926545446E+03  0.50400001928E-02 0.  1.
       -1    1    3    3    0  502 -0.65586353320E+03 -0.28668479001E+03 -0.22222119323E+04  0.23346458007E+04  0.50400001928E-02 0. -1.
</event>
<event>
 5   0  0.5843670E-05  0.2280263E+04  0.7818609E-02  0.8485744E-01
        1   -1    0    0  501    0  0.00000000000E+00  0.00000000000E+00  0.21739539040E+04  0.21739539040E+04  0.50400001928E-02 0.  1.
       -1   -1    0    0    0  501  0.00000000000E+00  0.00000000000E+00 -0.59794272747E+03  0.59794272749E+03  0.50400001928E-02 0. -1.
    10030    2    1    2    0    0  0.00000000000E+00  0.00000000000E+00  0.15760111765E+04  0.27718966315E+04  0.22802630785E+04 0.  0.
        2    1    3    3  502    0 -0.29885375556E+03 -0.85321464123E+03 -0.56477087457E+02  0.90580265656E+03  0.25500000920E-02 0. -1.
       -2    1    3    3    0  502  0.29885375556E+03  0.85321464123E+03  0.16324882640E+04  0.18660939749E+04  0.25500000920E-02 0.  1.
</event>
<event>
 5   0  0.5843670E-05  0.2316267E+04  0.7818609E-02  0.8471535E-01
        1   -1    0    0  501    0  0.00000000000E+00  0.00000000000E+00  0.18345284798E+04  0.18345284798E+04  0.50400001928E-02 0.  1.
       -1   -1    0    0    0  501  0.00000000000E+00  0.00000000000E+00 -0.73112696142E+03  0.73112696144E+03  0.50400001928E-02 0. -1.
    10030    2    1    2    0    0  0.00000000000E+00  0.00000000000E+00  0.11034015184E+04  0.25656554412E+04  0.23162670253E+04 0.  0.
        2    1    3    3  502    0  0.21692008279E+03 -0.74788203968E+02 -0.70569818263E+03  0.74206301804E+03  0.25500000920E-02 0. -1.
       -2    1    3    3    0  502 -0.21692008279E+03  0.74788203968E+02  0.18090997010E+04  0.18235924232E+04  0.25500000920E-02 0.  1.
</event>
<event>
 5   0  0.5663790E-05  0.2169814E+04  0.7818609E-02  0.8531098E-01
        1   -1    0    0  501    0  0.00000000000E+00  0.00000000000E+00  0.14700809373E+04  0.14700809373E+04  0.50400001928E-02 0. -1.
       -1   -1    0    0    0  501  0.00000000000E+00  0.00000000000E+00 -0.80065191740E+03  0.80065191742E+03  0.50400001928E-02 0.  1.
    10030    2    1    2    0    0  0.00000000000E+00  0.00000000000E+00  0.66942901992E+03  0.22707328547E+04  0.21698139286E+04 0.  0.
        3    1    3    3  502    0  0.92042536189E+03 -0.78854998471E+02  0.93005123312E+03  0.13108761437E+04  0.10100000352E+00 0. -1.
       -3    1    3    3    0  502 -0.92042536189E+03  0.78854998471E+02 -0.26062221321E+03  0.95985671108E+03  0.10100000352E+00 0.  1.
</event>
<event>
 5   0  0.1237296E-04  0.2041122E+04  0.7818609E-02  0.8587632E-01
       -2   -1    0    0    0  501  0.00000000000E+00  0.00000000000E+00  0.56657676722E+03  0.56657676723E+03  0.25500000920E-02 0.  1.
        2   -1    0    0  501    0  0.00000000000E+00  0.00000000000E+00 -0.18383123341E+04  0.18383123341E+04  0.25500000920E-02 0. -1.
    10030    2    1    2    0    0  0.00000000000E+00  0.00000000000E+00 -0.12717355669E+04  0.24048891013E+04  0.20411222985E+04 0.  0.
        1    1    3    3  502    0  0.52706395083E+03 -0.63445797461E+03 -0.13439879278E+04  0.15769073784E+04  0.50400001928E-02 0. -1.
       -1    1    3    3    0  502 -0.52706395083E+03  0.63445797461E+03  0.72252360962E+02  0.82798172293E+03  0.50400001928E-02 0.  1.
</event>
<event>
 5   0  0.5632156E-05  0.1530334E+04  0.7818609E-02  0.8864528E-01
        1   -1    0    0  501    0  0.00000000000E+00  0.00000000000E+00  0.83761380498E+03  0.83761380500E+03  0.50400001928E-02 0.  1.
       -1   -1    0    0    0  501  0.00000000000E+00  0.00000000000E+00 -0.69898618719E+03  0.69898618721E+03  0.50400001928E-02 0. -1.
    10030    2    1    2    0    0  0.00000000000E+00  0.00000000000E+00  0.13862761779E+03  0.15365999922E+04  0.15303339242E+04 0.  0.
        4    1    3    3  502    0 -0.60652377720E+03 -0.28586073072E+03 -0.30083012392E+03  0.73490667845E+03  0.12699999809E+01 0. -1.
       -4    1    3    3    0  502  0.60652377720E+03  0.28586073072E+03  0.43945774172E+03  0.80169331376E+03  0.12699999809E+01 0.  1.
</event>
<event>
 5   0  0.5632156E-05  0.2391012E+04  0.7818609E-02  0.8442876E-01
        1   -1    0    0  501    0  0.00000000000E+00  0.00000000000E+00  0.14311074999E+04  0.14311074999E+04  0.50400001928E-02 0.  1.
       -1   -1    0    0    0  501  0.00000000000E+00  0.00000000000E+00 -0.99869157702E+03  0.99869157703E+03  0.50400001928E-02 0. -1.
    10030    2    1    2    0    0  0.00000000000E+00  0.00000000000E+00  0.43241592289E+03  0.24297990769E+04  0.23910123429E+04 0.  0.
        4    1    3    3  502    0  0.15020929831E+03  0.58523772785E+03 -0.83211117131E+03  0.10283368348E+04  0.12699999809E+01 0. -1.
       -4    1    3    3    0  502 -0.15020929831E+03 -0.58523772785E+03  0.12645270942E+04  0.14014622422E+04  0.12699999809E+01 0.  1.
</event>
<event>
 5   0  0.5924654E-05  0.2095533E+04  0.7818609E-02  0.8563214E-01
       -1   -1    0    0    0  501  0.00000000000E+00  0.00000000000E+00  0.14079236068E+04  0.14079236068E+04  0.50400001928E-02 0.  1.
        1   -1    0    0  501    0  0.00000000000E+00  0.00000000000E+00 -0.77974028990E+03  0.77974028991E+03  0.50400001928E-02 0. -1.
    10030    2    1    2    0    0  0.00000000000E+00  0.00000000000E+00  0.62818331691E+03  0.21876638967E+04  0.20955331172E+04 0.  0.
        5    1    3    3  502    0 -0.22980065845E+03 -0.41356225599E+03  0.12900460232E+04  0.13740752942E+04  0.46999998093E+01 0.  1.
       -5    1    3    3    0  502  0.22980065845E+03  0.41356225599E+03 -0.66186270628E+03  0.81358860253E+03  0.46999998093E+01 0. -1.
</event>
<event>
 5   0  0.1270613E-04  0.2284518E+04  0.7818609E-02  0.8484051E-01
        2   -1    0    0  501    0  0.00000000000E+00  0.00000000000E+00  0.66511343523E+03  0.66511343524E+03  0.25500000920E-02 0.  1.
       -2   -1    0    0    0  501  0.00000000000E+00  0.00000000000E+00 -0.19617040874E+04  0.19617040874E+04  0.25500000920E-02 0. -1.
    10030    2    1    2    0    0  0.00000000000E+00  0.00000000000E+00 -0.12965906522E+04  0.26268175227E+04  0.22845181063E+04 0.  0.
        2    1    3    3  502    0  0.64396236300E+03  0.37987927241E+03  0.34467170872E+03  0.82328268133E+03  0.25500000920E-02 0.  1.
       -2    1    3    3    0  502 -0.64396236300E+03 -0.37987927241E+03 -0.16412623609E+04  0.18035348413E+04  0.25500000920E-02 0. -1.
</event>
<event>
 5   0  0.1281432E-04  0.1231812E+04  0.7818609E-02  0.9085458E-01
        2   -1    0    0  501    0  0.00000000000E+00  0.00000000000E+00  0.71191922878E+03  0.71191922879E+03  0.25500000920E-02 0. -1.
       -2   -1    0    0    0  501  0.00000000000E+00  0.00000000000E+00 -0.53284177930E+03  0.53284177931E+03  0.25500000920E-02 0.  1.
    10030    2    1    2    0    0  0.00000000000E+00  0.00000000000E+00  0.17907744948E+03  0.12447610081E+04  0.12318121750E+04 0.  0.
        4    1    3    3  502    0  0.27271813270E+03 -0.10571867275E+03  0.63725775217E+03  0.70117806103E+03  0.12699999809E+01 0. -1.
       -4    1    3    3    0  502 -0.27271813270E+03  0.10571867275E+03 -0.45818030269E+03  0.54358294706E+03  0.12699999809E+01 0.  1.
</event>
<event>
 5   0  0.1234988E-04  0.2255297E+04  0.7818609E-02  0.8495758E-01
       -2   -1    0    0    0  501  0.00000000000E+00  0.00000000000E+00  0.87744951415E+03  0.87744951415E+03  0.25500000920E-02 0. -1.
        2   -1    0    0  501    0  0.00000000000E+00  0.00000000000E+00 -0.14491897700E+04  0.14491897700E+04  0.25500000920E-02 0.  1.
    10030    2    1    2    0    0  0.00000000000E+00  0.00000000000E+00 -0.57174025583E+03  0.23266392841E+04  0.22552967517E+04 0.  0.
        5    1    3    3  502    0 -0.46330075143E+03  0.89640299290E+02  0.77067843885E+03  0.90368706732E+03  0.46999998093E+01 0. -1.
       -5    1    3    3    0  502  0.46330075143E+03 -0.89640299290E+02 -0.13424186947E+04  0.14229522168E+04  0.46999998093E+01 0.  1.
</event>
<event>
 5   0  0.1257524E-04  0.1976350E+04  0.7818609E-02  0.8617758E-01
        2   -1    0    0  501    0  0.00000000000E+00  0.00000000000E+00  0.64763393287E+03  0.64763393287E+03  0.25500000920E-02 0.  1.
       -2   -1    0    0    0  501  0.00000000000E+00  0.00000000000E+00 -0.15077806944E+04  0.15077806944E+04  0.25500000920E-02 0. -1.
    10030    2    1    2    0    0  0.00000000000E+00  0.00000000000E+00 -0.86014676150E+03  0.21554146272E+04  0.19763501117E+04 0.  0.
        3    1    3    3  502    0 -0.62042850002E+03 -0.71989188708E+03 -0.72537146672E+03  0.11955499269E+04  0.10100000352E+00 0. -1.
       -3    1    3    3    0  502  0.62042850002E+03  0.71989188708E+03 -0.13477529478E+03  0.95986470036E+03  0.10100000352E+00 0.  1.
</event>
<event>
 5   0  0.1234988E-04  0.2315849E+04  0.7818609E-02  0.8471698E-01
        2   -1    0    0  501    0  0.00000000000E+00  0.00000000000E+00  0.18830898432E+04  0.18830898432E+04  0.25500000920E-02 0.  1.
       -2   -1    0    0    0  501  0.00000000000E+00  0.00000000000E+00 -0.71201539299E+03  0.71201539299E+03  0.25500000920E-02 0. -1.
    10030    2    1    2    0    0  0.00000000000E+00  0.00000000000E+00  0.11710744502E+04  0.25951052362E+04  0.23158488334E+04 0.  0.
        5    1    3    3  502    0 -0.11177950752E+04  0.66389673389E+02  0.25521463420E+03  0.11484903215E+04  0.46999998093E+01 0. -1.
       -5    1    3    3    0  502  0.11177950752E+04 -0.66389673389E+02  0.91585981601E+03  0.14466149147E+04  0.46999998093E+01 0.  1.
</event>
<event>
 5   0  0.1270613E-04  0.2338257E+04  0.7818609E-02  0.8462988E-01
       -2   -1    0    0    0  501  0.00000000000E+00  0.00000000000E+00  0.78102552306E+03  0.78102552307E+03  0.25500000920E-02 0.  1.
        2   -1    0    0  501    0  0.00000000000E+00  0.00000000000E+00 -0.17500857777E+04  0.17500857777E+04  0.25500000920E-02 0. -1.
    10030    2    1    2    0    0  0.00000000000E+00  0.00000000000E+00 -0.96906025464E+03  0.25311113008E+04  0.23382571800E+04 0.  0.
        2    1    3    3  502    0  0.13644481030E+03  0.82308672745E+02  0.76921543593E+03  0.78554712828E+03  0.25500000920E-02 0.  1.
       -2    1    3    3    0  502 -0.13644481030E+03 -0.82308672745E+02 -0.17382756906E+04  0.17455641725E+04  0.25500000920E-02 0. -1.
</event>
<event>
 5   0  0.5642466E-05  0.2310768E+04  0.7818609E-02  0.8473688E-01
        1   -1    0    0  501    0  0.00000000000E+00  0.00000000000E+00  0.14875287504E+04  0.14875287505E+04  0.50400001928E-02 0.  1.
       -1   -1    0    0    0  501  0.00000000000E+00  0.00000000000E+00 -0.89740258135E+03  0.89740258136E+03  0.50400001928E-02 0. -1.
    10030    2    1    2    0    0  0.00000000000E+00  0.00000000000E+00  0.59012616910E+03  0.23849313318E+04  0.23107679594E+04 0.  0.
        1    1    3    3  502    0 -0.39371369346E+03 -0.65690849734E+02 -0.82398001879E+03  0.91557022208E+03  0.50400001928E-02 0. -1.
       -1    1    3    3    0  502  0.39371369346E+03  0.65690849734E+02  0.14141061879E+04  0.14693611097E+04  0.50400001928E-02 0.  1.
</event>
<event>
 5   0  0.5632156E-05  0.2280227E+04  0.7818609E-02  0.8485758E-01
       -1   -1    0    0    0  501  0.00000000000E+00  0.00000000000E+00  0.11630628153E+04  0.11630628153E+04  0.50400001928E-02 0. -1.
        1   -1    0    0  501    0  0.00000000000E+00  0.00000000000E+00 -0.11176167024E+04  0.11176167024E+04  0.50400001928E-02 0.  1.
    10030    2    1    2    0    0  0.00000000000E+00  0.00000000000E+00  0.45446112879E+02  0.22806795177E+04  0.22802266802E+04 0.  0.
        4    1    3    3  502    0 -0.36038784033E+02 -0.64835327246E+03  0.96003031536E+03  0.11590170746E+04  0.12699999809E+01 0. -1.
       -4    1    3    3    0  502  0.36038784033E+02  0.64835327246E+03 -0.91458420248E+03  0.11216624431E+04  0.12699999809E+01 0.  1.
</event>
<event>
 5   0  0.1281432E-04  0.2285578E+04  0.7818609E-02  0.8483629E-01
       -2   -1    0    0    0  501  0.00000000000E+00  0.00000000000E+00  0.77909358214E+03  0.77909358215E+03  0.25500000920E-02 0.  1.
        2   -1    0    0  501    0  0.00000000000E+00  0.00000000000E+00 -0.16762637812E+04  0.16762637812E+04  0.25500000920E-02 0. -1.
    10030    2    1    2    0    0  0.00000000000E+00  0.00000000000E+00 -0.89717019903E+03  0.24553573633E+04  0.22855776984E+04 0.  0.
        4    1    3    3  502    0 -0.77423570088E+02 -0.78729869907E+03 -0.13345469760E+04  0.15514028796E+04  0.12699999809E+01 0. -1.
       -4    1    3    3    0  502  0.77423570088E+02  0.78729869907E+03  0.43737677695E+03  0.90395448374E+03  0.12699999809E+01 0.  1.
</event>
<event>
 5   0  0.1281432E-04  0.2571035E+04  0.7818609E-02  0.8378107E-01
        2   -1    0    0  501    0  0.00000000000E+00  0.00000000000E+00  0.16924249396E+04  0.16924249396E+04  0.25500000920E-02 0.  1.
       -2   -1    0    0    0  501  0.00000000000E+00  0.00000000000E+00 -0.97644222481E+03  0.97644222482E+03  0.25500000920E-02 0. -1.
    10030    2    1    2    0    0  0.00000000000E+00  0.00000000000E+00  0.71598271480E+03  0.26688671644E+04  0.25710349460E+04 0.  0.
        4    1    3    3  502    0  0.24575260644E+03 -0.10618414524E+04 -0.34960055336E+03  0.11446063836E+04  0.12699999809E+01 0. -1.
       -4    1    3    3    0  502 -0.24575260644E+03  0.10618414524E+04  0.10655832682E+04  0.15242607808E+04  0.12699999809E+01 0.  1.
</event>
<event>
 5   0  0.5843670E-05  0.2286156E+04  0.7818609E-02  0.8483400E-01
        1   -1    0    0  501    0  0.00000000000E+00  0.00000000000E+00  0.14192795946E+04  0.14192795946E+04  0.50400001928E-02 0.  1.
       -1   -1    0    0    0  501  0.00000000000E+00  0.00000000000E+00 -0.92062739792E+03  0.92062739794E+03  0.50400001928E-02 0. -1.
    10030    2    1    2    0    0  0.00000000000E+00  0.00000000000E+00  0.49865219668E+03  0.23399069925E+04  0.22861563202E+04 0.  0.
        2    1    3    3  502    0 -0.10121773680E+04  0.19834827393E+03 -0.25498841631E+03  0.10624801901E+04  0.25500000920E-02 0. -1.
       -2    1    3    3    0  502  0.10121773680E+04 -0.19834827393E+03  0.75364061299E+03  0.12774268024E+04  0.25500000920E-02 0.  1.
</event>
<event>
 5   0  0.5843670E-05  0.2307393E+04  0.7818609E-02  0.8475012E-01
       -1   -1    0    0    0  501  0.00000000000E+00  0.00000000000E+00  0.11873138540E+04  0.11873138540E+04  0.50400001928E-02 0. -1.
        1   -1    0    0  501    0  0.00000000000E+00  0.00000000000E+00 -0.11210313745E+04  0.11210313745E+04  0.50400001928E-02 0.  1.
    10030    2    1    2    0    0  0.00000000000E+00  0.00000000000E+00  0.66282479471E+02  0.23083452285E+04  0.23073934053E+04 0.  0.
        2    1    3    3  502    0 -0.62552233540E+03  0.87822990423E+03 -0.37745482497E+03  0.11423826424E+04  0.25500000920E-02 0. -1.
       -2    1    3    3    0  502  0.62552233540E+03 -0.87822990423E+03  0.44373730444E+03  0.11659625861E+04  0.25500000920E-02 0.  1.
</event>
<event>
 5   0  0.1270613E-04  0.2294720E+04  0.7818609E-02  0.8480006E-01
        2   -1    0    0  501    0  0.00000000000E+00  0.00000000000E+00  0.17396512780E+04  0.17396512780E+04  0.25500000920E-02 0. -1.
       -2   -1    0    0    0  501  0.00000000000E+00  0.00000000000E+00 -0.75672380932E+03  0.75672380932E+03  0.25500000920E-02 0.  1.
    10030    2    1    2    0    0  0.00000000000E+00  0.00000000000E+00  0.98292746865E+03  0.24963750873E+04  0.22947204988E+04 0.  0.
        2    1    3    3  502    0 -0.10944116790E+04 -0.34378611053E+03  0.51602494174E+03  0.12578583201E+04  0.25500000920E-02 0.  1.
       -2    1    3    3    0  502  0.10944116790E+04  0.34378611053E+03  0.46690252691E+03  0.12385167672E+04  0.25500000920E-02 0. -1.
</event>
<event>
 5   0  0.1257524E-04  0.2314321E+04  0.7818609E-02  0.8472296E-01
       -2   -1    0    0    0  501  0.00000000000E+00  0.00000000000E+00  0.20035752686E+04  0.20035752686E+04  0.25500000920E-02 0. -1.
        2   -1    0    0  501    0  0.00000000000E+00  0.00000000000E+00 -0.66831550980E+03  0.66831550981E+03  0.25500000920E-02 0.  1.
    10030    2    1    2    0    0  0.00000000000E+00  0.00000000000E+00  0.13352597588E+04  0.26718907784E+04  0.23143210037E+04 0.  0.
        3    1    3    3  502    0 -0.42566018429E+03 -0.48613143731E+03 -0.44063901020E+03  0.78209533584E+03  0.10100000352E+00 0.  1.
       -3    1    3    3    0  502  0.42566018429E+03  0.48613143731E+03  0.17758987690E+04  0.18897954426E+04  0.10100000352E+00 0. -1.
</event>
<event>
 5   0  0.1270613E-04  0.2247242E+04  0.7818609E-02  0.8499018E-01
        2   -1    0    0  501    0  0.00000000000E+00  0.00000000000E+00  0.22796102200E+04  0.22796102200E+04  0.25500000920E-02 0.  1.
       -2   -1    0    0    0  501  0.00000000000E+00  0.00000000000E+00 -0.55383356219E+03  0.55383356220E+03  0.25500000920E-02 0. -1.
    10030    2    1    2    0    0  0.00000000000E+00  0.00000000000E+00  0.17257766578E+04  0.28334437822E+04  0.22472424422E+04 0.  0.
        2    1    3    3  502    0  0.96526328407E+03 -0.55056071165E+03  0.65313766823E+03  0.12889682380E+04  0.25500000920E-02 0.  1.
       -2    1    3    3    0  502 -0.96526328407E+03  0.55056071165E+03  0.10726389896E+04  0.15444755442E+04  0.25500000920E-02 0. -1.
</event>
<event>
 5   0  0.1237296E-04  0.2283807E+04  0.7818609E-02  0.8484333E-01
        2   -1    0    0  501    0  0.00000000000E+00  0.00000000000E+00  0.17549926339E+04  0.17549926339E+04  0.25500000920E-02 0.  1.
       -2   -1    0    0    0  501  0.00000000000E+00  0.00000000000E+00 -0.74299116702E+03  0.74299116703E+03  0.25500000920E-02 0. -1.
    10030    2    1    2    0    0  0.00000000000E+00  0.00000000000E+00  0.10120014668E+04  0.24979838009E+04  0.22838073694E+04 0.  0.
        1    1    3    3  502    0 -0.81370947379E+03 -0.78814420383E+03  0.66317675772E+03  0.13126682009E+04  0.50400001928E-02 0.  1.
       -1    1    3    3    0  502  0.81370947379E+03  0.78814420383E+03  0.34882470912E+03  0.11853155999E+04  0.50400001928E-02 0. -1.
</event>
<event>
 5   0  0.5663790E-05  0.2688907E+04  0.7818609E-02  0.8338613E-01
       -1   -1    0    0    0  501  0.00000000000E+00  0.00000000000E+00  0.15785539813E+04  0.15785539813E+04  0.50400001928E-02 0. -1.
        1   -1    0    0  501    0  0.00000000000E+00  0.00000000000E+00 -0.11450698781E+04  0.11450698782E+04  0.50400001928E-02 0.  1.
    10030    2    1    2    0    0  0.00000000000E+00  0.00000000000E+00  0.43348410318E+03  0.27236238595E+04  0.26889065548E+04 0.  0.
        3    1    3    3  502    0  0.97112358845E+03  0.68580857208E+03  0.85265369559E+03  0.14630217894E+04  0.10100000352E+00 0. -1.
       -3    1    3    3    0  502 -0.97112358845E+03 -0.68580857208E+03 -0.41916959241E+03  0.12606020700E+04  0.10100000352E+00 0.  1.
</event>
<event>
 5   0  0.1234988E-04  0.2156077E+04  0.7818609E-02  0.8536935E-01
       -2   -1    0    0    0  501  0.00000000000E+00  0.00000000000E+00  0.96171874231E+03  0.96171874232E+03  0.25500000920E-02 0.  1.
        2   -1    0    0  501    0  0.00000000000E+00  0.00000000000E+00 -0.12084274261E+04  0.12084274261E+04  0.25500000920E-02 0. -1.
    10030    2    1    2    0    0  0.00000000000E+00  0.00000000000E+00 -0.24670868383E+03  0.21701461685E+04  0.21560772755E+04 0.  0.
        5    1    3    3  502    0  0.94534211284E+03  0.20472707739E+03 -0.60244377986E+03  0.11395373993E+04  0.46999998093E+01 0.  1.
       -5    1    3    3    0  502 -0.94534211284E+03 -0.20472707739E+03  0.35573509603E+03  0.10306087692E+04  0.46999998093E+01 0. -1.
</event>
<event>
 5   0  0.1281432E-04  0.2301583E+04  0.7818609E-02  0.8477297E-01
        2   -1    0    0  501    0  0.00000000000E+00  0.00000000000E+00  0.15352990090E+04  0.15352990090E+04  0.25500000920E-02 0. -1.
       -2   -1    0    0    0  501  0.00000000000E+00  0.00000000000E+00 -0.86258175217E+03  0.86258175218E+03  0.25500000920E-02 0.  1.
    10030    2    1    2    0    0  0.00000000000E+00  0.00000000000E+00  0.67271725688E+03  0.23978807612E+04  0.23015828548E+04 0.  0.
        4    1    3    3  502    0 -0.26766115721E+03  0.87417105491E+03 -0.39181347940E+03  0.99465418305E+03  0.12699999809E+01 0.  1.
       -4    1    3    3    0  502  0.26766115721E+03 -0.87417105491E+03  0.10645307363E+04  0.14032265782E+04  0.12699999809E+01 0. -1.
</event>
<event>
 5   0  0.1270613E-04  0.2210715E+04  0.7818609E-02  0.8513982E-01
       -2   -1    0    0    0  501  0.00000000000E+00  0.00000000000E+00  0.11547513809E+04  0.11547513809E+04  0.25500000920E-02 0.  1.
        2   -1    0    0  501    0  0.00000000000E+00  0.00000000000E+00 -0.10580762161E+04  0.10580762161E+04  0.25500000920E-02 0. -1.
    10030    2    1    2    0    0  0.00000000000E+00  0.00000000000E+00  0.96675164804E+02  0.22128275971E+04  0.22107147909E+04 0.  0.
        2    1    3    3  502    0  0.10781255288E+04  0.24031485648E+03  0.69569841129E+01  0.11046059414E+04  0.25500000920E-02 0. -1.
       -2    1    3    3    0  502 -0.10781255288E+04 -0.24031485648E+03  0.89718180692E+02  0.11082216557E+04  0.25500000920E-02 0.  1.
</event>
<event>
 5   0  0.5663790E-05  0.2304281E+04  0.7818609E-02  0.8476235E-01
       -1   -1    0    0    0  501  0.00000000000E+00  0.00000000000E+00  0.81345992711E+03  0.81345992712E+03  0.50400001928E-02 0.  1.
        1   -1    0    0  501    0  0.00000000000E+00  0.00000000000E+00 -0.16318294897E+04  0.16318294897E+04  0.50400001928E-02 0. -1.
    10030    2    1    2    0    0  0.00000000000E+00  0.00000000000E+00 -0.81836956255E+03  0.24452894168E+04  0.23042811441E+04 0.  0.
        3    1    3    3  502    0  0.10584177154E+04  0.40701574960E+03 -0.19295622412E+03  0.11502790945E+04  0.10100000352E+00 0.  1.
       -3    1    3    3    0  502 -0.10584177154E+04 -0.40701574960E+03 -0.62541333842E+03  0.12950103223E+04  0.10100000352E+00 0. -1.
</event>
<event>
 5   0  0.5924654E-05  0.2224760E+04  0.7818609E-02  0.8508192E-01
       -1   -1    0    0    0  501  0.00000000000E+00  0.00000000000E+00  0.10359580272E+04  0.10359580272E+04  0.50400001928E-02 0. -1.
        1   -1    0    0  501    0  0.00000000000E+00  0.00000000000E+00 -0.11944398775E+04  0.11944398775E+04  0.50400001928E-02 0.  1.
    10030    2    1    2    0    0  0.00000000000E+00  0.00000000000E+00 -0.15848185036E+03  0.22303979047E+04  0.22247602829E+04 0.  0.
        5    1    3    3  502    0 -0.57097351869E+03  0.27174573687E+03 -0.99671622611E+03  0.11803905413E+04  0.46999998093E+01 0.  1.
       -5    1    3    3    0  502  0.57097351869E+03 -0.27174573687E+03  0.83823437575E+03  0.10500073634E+04  0.46999998093E+01 0. -1.
</event>
<event>
 5   0  0.1237296E-04  0.2152519E+04  0.7818609E-02  0.8538455E-01
       -2   -1    0    0    0  501  0.00000000000E+00  0.00000000000E+00  0.73781146797E+03  0.73781146798E+03  0.25500000920E-02 0. -1.
        2   -1    0    0  501    0  0.00000000000E+00  0.00000000000E+00 -0.15699603051E+04  0.15699603051E+04  0.25500000920E-02 0.  1.
    10030    2    1    2    0    0  0.00000000000E+00  0.00000000000E+00 -0.83214883712E+03  0.23077717731E+04  0.21525191914E+04 0.  0.
        1    1    3    3  502    0  0.28918315694E+03 -0.72434912246E+03  0.37905441193E+03  0.86717402907E+03  0.50400001928E-02 0. -1.
       -1    1    3    3    0  502 -0.28918315694E+03  0.72434912246E+03 -0.12112032490E+04  0.14405977440E+04  0.50400001928E-02 0.  1.
</event>
<event>
 5   0  0.1234988E-04  0.2273963E+04  0.7818609E-02  0.8488259E-01
       -2   -1    0    0    0  501  0.00000000000E+00  0.00000000000E+00  0.81283271926E+03  0.81283271926E+03  0.25500000920E-02 0. -1.
        2   -1    0    0  501    0  0.00000000000E+00  0.00000000000E+00 -0.15903967185E+04  0.15903967185E+04  0.25500000920E-02 0.  1.
    10030    2    1    2    0    0  0.00000000000E+00  0.00000000000E+00 -0.77756399926E+03  0.24032294378E+04  0.22739626113E+04 0.  0.
        5    1    3    3  502    0 -0.86800260099E+01  0.10803891459E+04 -0.76301364518E+03  0.13226972299E+04  0.46999998093E+01 0.  1.
       -5    1    3    3    0  502  0.86800260099E+01 -0.10803891459E+04 -0.14550354083E+02  0.10805322078E+04  0.46999998093E+01 0. -1.
</event>
<event>
 5   0  0.1234988E-04  0.2323010E+04  0.7818609E-02  0.8468903E-01
        2   -1    0    0  501    0  0.00000000000E+00  0.00000000000E+00  0.19006670449E+04  0.19006670449E+04  0.25500000920E-02 0.  1.
       -2   -1    0    0    0  501  0.00000000000E+00  0.00000000000E+00 -0.70980039607E+03  0.70980039607E+03  0.25500000920E-02 0. -1.
    10030    2    1    2    0    0  0.00000000000E+00  0.00000000000E+00  0.11908666488E+04  0.26104674410E+04  0.23230103067E+04 0.  0.
        5    1    3    3  502    0 -0.91353958572E+03  0.52863258598E+03  0.11402636385E+04  0.15537793411E+04  0.46999998093E+01 0.  1.
       -5    1    3    3    0  502  0.91353958572E+03 -0.52863258598E+03  0.50603010297E+02  0.10566880998E+04  0.46999998093E+01 0. -1.
</event>
<event>
 5   0  0.5632156E-05  0.2302183E+04  0.7818609E-02  0.8477061E-01
       -1   -1    0    0    0  501  0.00000000000E+00  0.00000000000E+00  0.11012404089E+04  0.11012404089E+04  0.50400001928E-02 0. -1.
        1   -1    0    0  501    0  0.00000000000E+00  0.00000000000E+00 -0.12031996486E+04  0.12031996487E+04  0.50400001928E-02 0.  1.
    10030    2    1    2    0    0  0.00000000000E+00  0.00000000000E+00 -0.10195923972E+03  0.23044400576E+04  0.23021833751E+04 0.  0.
        4    1    3    3  502    0 -0.84900360488E+03  0.18360584981E+03  0.70507012254E+03  0.11187688411E+04  0.12699999809E+01 0. -1.
       -4    1    3    3    0  502  0.84900360488E+03 -0.18360584981E+03 -0.80702936227E+03  0.11856712165E+04  0.12699999809E+01 0.  1.
</event>
<event>
 5   0  0.5632156E-05  0.2292596E+04  0.7818609E-02  0.8480846E-01
        1   -1    0    0  501    0  0.00000000000E+00  0.00000000000E+00  0.39148841551E+03  0.39148841554E+03  0.50400001928E-02 0.  1.
       -1   -1    0    0    0  501  0.00000000000E+00  0.00000000000E+00 -0.33564190066E+04  0.33564190066E+04  0.50400001928E-02 0. -1.
    10030    2    1    2    0    0  0.00000000000E+00  0.00000000000E+00 -0.29649305911E+04  0.37479074222E+04  0.22925960471E+04 0.  0.
        4    1    3    3  502    0 -0.37874609344E+03 -0.71148275105E+03 -0.28149337039E+04  0.29280556140E+04  0.12699999809E+01 0. -1.
       -4    1    3    3    0  502  0.37874609344E+03  0.71148275105E+03 -0.14999688724E+03  0.81985180821E+03  0.12699999809E+01 0.  1.
</event>
<event>
 5   0  0.5843670E-05  0.1876591E+04  0.7818609E-02  0.8666597E-01
        1   -1    0    0  501    0  0.00000000000E+00  0.00000000000E+00  0.73287934545E+03  0.73287934547E+03  0.50400001928E-02 0. -1.
       -1   -1    0    0    0  501  0.00000000000E+00  0.00000000000E+00 -0.12012873958E+04  0.12012873958E+04  0.50400001928E-02 0.  1.
    10030    2    1    2    0    0  0.00000000000E+00  0.00000000000E+00 -0.46840805034E+03  0.19341667413E+04  0.18765912931E+04 0.  0.
        2    1    3    3  502    0  0.75941970670E+03  0.52592786612E+03 -0.40381385658E+03  0.10081587385E+04  0.25500000920E-02 0. -1.
       -2    1    3    3    0  502 -0.75941970670E+03 -0.52592786612E+03 -0.64594193753E+02  0.92600800275E+03  0.25500000920E-02 0.  1.
</event>
<event>
 5   0  0.1237296E-04  0.2325987E+04  0.7818609E-02  0.8467745E-01
        2   -1    0    0  501    0  0.00000000000E+00  0.00000000000E+00  0.17595512428E+04  0.17595512428E+04  0.25500000920E-02 0. -1.
       -2   -1    0    0    0  501  0.00000000000E+00  0.00000000000E+00 -0.76869233733E+03  0.76869233733E+03  0.25500000920E-02 0.  1.
    10030    2    1    2    0    0  0.00000000000E+00  0.00000000000E+00  0.99085890549E+03  0.25282435801E+04  0.23259867218E+04 0.  0.
        1    1    3    3  502    0 -0.12592676440E+03 -0.11057598306E+04  0.12844526418E+03  0.11202948447E+04  0.50400001928E-02 0. -1.
       -1    1    3    3    0  502  0.12592676440E+03  0.11057598306E+04  0.86241364131E+03  0.14079487355E+04  0.50400001928E-02 0.  1.
</event>
<event>
 5   0  0.1234988E-04  0.2306140E+04  0.7818609E-02  0.8475504E-01
       -2   -1    0    0    0  501  0.00000000000E+00  0.00000000000E+00  0.66786361439E+03  0.66786361439E+03  0.25500000920E-02 0.  1.
        2   -1    0    0  501    0  0.00000000000E+00  0.00000000000E+00 -0.19907815749E+04  0.19907815749E+04  0.25500000920E-02 0. -1.
    10030    2    1    2    0    0  0.00000000000E+00  0.00000000000E+00 -0.13229179605E+04  0.26586451893E+04  0.23061401329E+04 0.  0.
        5    1    3    3  502    0  0.38702837811E+03  0.10072988536E+04 -0.19301589824E+03  0.10962295256E+04  0.46999998093E+01 0.  1.
       -5    1    3    3    0  502 -0.38702837811E+03 -0.10072988536E+04 -0.11299020623E+04  0.15624156637E+04  0.46999998093E+01 0. -1.
</event>
<event>
 5   0  0.1257524E-04  0.2171297E+04  0.7818609E-02  0.8530471E-01
       -2   -1    0    0    0  501  0.00000000000E+00  0.00000000000E+00  0.10198451396E+04  0.10198451396E+04  0.25500000920E-02 0. -1.
        2   -1    0    0  501    0  0.00000000000E+00  0.00000000000E+00 -0.11556972744E+04  0.11556972744E+04  0.25500000920E-02 0.  1.
    10030    2    1    2    0    0  0.00000000000E+00  0.00000000000E+00 -0.13585213484E+03  0.21755424140E+04  0.21712966155E+04 0.  0.
        3    1    3    3  502    0  0.74950977342E+03  0.38806747590E+03  0.61624954333E+03  0.10450477387E+04  0.10100000352E+00 0. -1.
       -3    1    3    3    0  502 -0.74950977342E+03 -0.38806747590E+03 -0.75210167816E+03  0.11304946753E+04  0.10100000352E+00 0.  1.
</event>
<event>
 5   0  0.5632156E-05  0.1789819E+04  0.7818609E-02  0.8711732E-01
        1   -1    0    0  501    0  0.00000000000E+00  0.00000000000E+00  0.17578222157E+04  0.17578222157E+04  0.50400001928E-02 0.  1.
       -1   -1    0    0    0  501  0.00000000000E+00  0.00000000000E+00 -0.45559949790E+03  0.45559949793E+03  0.50400001928E-02 0. -1.
    10030    2    1    2    0    0  0.00000000000E+00  0.00000000000E+00  0.13022227178E+04  0.22134217136E+04  0.17898188946E+04 0.  0.
        4    1    3    3  502    0  0.57823038655E+03  0.68294807133E+03  0.66302829422E+03  0.11137219491E+04  0.12699999809E+01 0.  1.
       -4    1    3    3    0  502 -0.57823038655E+03 -0.68294807133E+03  0.63919442354E+03  0.10996997645E+04  0.12699999809E+01 0. -1.
</event>
<event>
 5   0  0.1237296E-04  0.2318278E+04  0.7818609E-02  0.8470749E-01
       -2   -1    0    0    0  501  0.00000000000E+00  0.00000000000E+00  0.82260160720E+03  0.82260160721E+03  0.25500000920E-02 0.  1.
        2   -1    0    0  501    0  0.00000000000E+00  0.00000000000E+00 -0.16333579817E+04  0.16333579817E+04  0.25500000920E-02 0. -1.
    10030    2    1    2    0    0  0.00000000000E+00  0.00000000000E+00 -0.81075637451E+03  0.24559595889E+04  0.23182777236E+04 0.  0.
        1    1    3    3  502    0 -0.46073747329E+03  0.97480299483E+03 -0.85618928460E+03  0.13768006352E+04  0.50400001928E-02 0. -1.
       -1    1    3    3    0  502  0.46073747329E+03 -0.97480299483E+03  0.45432910089E+02  0.10791589537E+04  0.50400001928E-02 0.  1.
</event>
<event>
 5   0  0.5632156E-05  0.2173487E+04  0.7818609E-02  0.8529545E-01
       -1   -1    0    0    0  501  0.00000000000E+00  0.00000000000E+00  0.64061777918E+03  0.64061777920E+03  0.50400001928E-02 0.  1.
        1   -1    0    0  501    0  0.00000000000E+00  0.00000000000E+00 -0.18435513729E+04  0.18435513729E+04  0.50400001928E-02 0. -1.
    10030    2    1    2    0    0  0.00000000000E+00  0.00000000000E+00 -0.12029335937E+04  0.24841691521E+04  0.21734873235E+04 0.  0.
        4    1    3    3  502    0  0.10741869396E+04  0.92550945902E+02 -0.75720455657E+03  0.13174989989E+04  0.12699999809E+01 0.  1.
       -4    1    3    3    0  502 -0.10741869396E+04 -0.92550945902E+02 -0.44572903716E+03  0.11666701532E+04  0.12699999809E+01 0. -1.
</event>
<event>
 5   0  0.1257524E-04  0.2308261E+04  0.7818609E-02  0.8474671E-01
        2   -1    0    0  501    0  0.00000000000E+00  0.00000000000E+00  0.23188626837E+04  0.23188626837E+04  0.25500000920E-02 0.  1.
       -2   -1    0    0    0  501  0.00000000000E+00  0.00000000000E+00 -0.57442692244E+03  0.57442692245E+03  0.25500000920E-02 0. -1.
    10030    2    1    2    0    0  0.00000000000E+00  0.00000000000E+00  0.17444357612E+04  0.28932896061E+04  0.23082609514E+04 0.  0.
        3    1    3    3  502    0  0.65816039696E+03 -0.76968786318E+03  0.17836496115E+03  0.10283037413E+04  0.10100000352E+00 0. -1.
       -3    1    3    3    0  502 -0.65816039696E+03  0.76968786318E+03  0.15660708001E+04  0.18649858648E+04  0.10100000352E+00 0.  1.
</event>
<event>
 5   0  0.1281432E-04  0.1138506E+04  0.7818609E-02  0.9168453E-01
        2   -1    0    0  501    0  0.00000000000E+00  0.00000000000E+00  0.19939373894E+04  0.19939373894E+04  0.25500000920E-02 0.  1.
       -2   -1    0    0    0  501  0.00000000000E+00  0.00000000000E+00 -0.16251714333E+03  0.16251714335E+03  0.25500000920E-02 0. -1.
    10030    2    1    2    0    0  0.00000000000E+00  0.00000000000E+00  0.18314202461E+04  0.21564545328E+04  0.11385060536E+04 0.  0.
        4    1    3    3  502    0 -0.55836140015E+03  0.91647414476E+01  0.70653367764E+03  0.90057920040E+03  0.12699999809E+01 0. -1.
       -4    1    3    3    0  502  0.55836140015E+03 -0.91647414476E+01  0.11248865685E+04  0.12558753324E+04  0.12699999809E+01 0.  1.
</event>
<event>
 5   0  0.5642466E-05  0.2224067E+04  0.7818609E-02  0.8508477E-01
       -1   -1    0    0    0  501  0.00000000000E+00  0.00000000000E+00  0.76602609723E+03  0.76602609725E+03  0.50400001928E-02 0.  1.
        1   -1    0    0  501    0  0.00000000000E+00  0.00000000000E+00 -0.16143290092E+04  0.16143290092E+04  0.50400001928E-02 0. -1.
    10030    2    1    2    0    0  0.00000000000E+00  0.00000000000E+00 -0.84830291199E+03  0.23803551065E+04  0.22240666812E+04 0.  0.
        1    1    3    3  502    0  0.85398143028E+02 -0.27394505958E+03 -0.15740232518E+04  0.15999649796E+04  0.50400001928E-02 0. -1.
       -1    1    3    3    0  502 -0.85398143028E+02  0.27394505958E+03  0.72572033984E+03  0.78039012691E+03  0.50400001928E-02 0.  1.
</event>
<event>
 5   0  0.1237296E-04  0.2324755E+04  0.7818609E-02  0.8468224E-01
        2   -1    0    0  501    0  0.00000000000E+00  0.00000000000E+00  0.10238723963E+04  0.10238723963E+04  0.25500000920E-02 0.  1.
       -2   -1    0    0    0  501  0.00000000000E+00  0.00000000000E+00 -0.13196187167E+04  0.13196187167E+04  0.25500000920E-02 0. -1.
    10030    2    1    2    0    0  0.00000000000E+00  0.00000000000E+00 -0.29574632038E+03  0.23434911131E+04  0.23247547636E+04 0.  0.
        1    1    3    3  502    0 -0.19619202571E+03 -0.72469259934E+03 -0.10424091065E+04  0.12846351310E+04  0.50400001928E-02 0. -1.
       -1    1    3    3    0  502  0.19619202571E+03  0.72469259934E+03  0.74666278613E+03  0.10588559820E+04  0.50400001928E-02 0.  1.
</event>
<event>
 5   0  0.5924654E-05  0.2314524E+04  0.7818609E-02  0.8472216E-01
        1   -1    0    0  501    0  0.00000000000E+00  0.00000000000E+00  0.20634746686E+04  0.20634746686E+04  0.50400001928E-02 0. -1.
       -1   -1    0    0    0  501  0.00000000000E+00  0.00000000000E+00 -0.64902944157E+03  0.64902944159E+03  0.50400001928E-02 0.  1.
    10030    2    1    2    0    0  0.00000000000E+00  0.00000000000E+00  0.14144452270E+04  0.27125041102E+04  0.23145244106E+04 0.  0.
        5    1    3    3  502    0 -0.10682117941E+04 -0.43917371955E+03  0.79241070702E+03  0.14006736992E+04  0.46999998093E+01 0. -1.
       -5    1    3    3    0  502  0.10682117941E+04  0.43917371955E+03  0.62203451998E+03  0.13118304110E+04  0.46999998093E+01 0.  1.
</event>
<event>
 5   0  0.5924654E-05  0.2356120E+04  0.7818609E-02  0.8456117E-01
        1   -1    0    0  501    0  0.00000000000E+00  0.00000000000E+00  0.20502213643E+04  0.20502213643E+04  0.50400001928E-02 0. -1.
       -1   -1    0    0    0  501  0.00000000000E+00  0.00000000000E+00 -0.67691463404E+03  0.67691463406E+03  0.50400001928E-02 0.  1.
    10030    2    1    2    0    0  0.00000000000E+00  0.00000000000E+00  0.13733067302E+04  0.27271359984E+04  0.23561195594E+04 0.  0.
        5    1    3    3  502    0 -0.85596116209E+03  0.95744878467E+02 -0.24362807349E+03  0.89510520105E+03  0.46999998093E+01 0.  1.
       -5    1    3    3    0  502  0.85596116209E+03 -0.95744878467E+02  0.16169348037E+04  0.18320307973E+04  0.46999998093E+01 0. -1.
</event>
<event>
 5   0  0.5632156E-05  0.2253790E+04  0.7818609E-02  0.8496367E-01
       -1   -1    0    0    0  501  0.00000000000E+00  0.00000000000E+00  0.15450580828E+04  0.15450580828E+04  0.50400001928E-02 0.  1.
        1   -1    0    0  501    0  0.00000000000E+00  0.00000000000E+00 -0.82190578979E+03  0.82190578981E+03  0.50400001928E-02 0. -1.
    10030    2    1    2    0    0  0.00000000000E+00  0.00000000000E+00  0.72315229301E+03  0.23669638726E+04  0.22537898605E+04 0.  0.
        4    1    3    3  502    0 -0.94908559936E+03  0.13212824234E+03 -0.26121924441E+03  0.99320614874E+03  0.12699999809E+01 0. -1.
       -4    1    3    3    0  502  0.94908559936E+03 -0.13212824234E+03  0.98437153742E+03  0.13737577239E+04  0.12699999809E+01 0.  1.
</event>
<event>
 5   0  0.5663790E-05  0.1960843E+04  0.7818609E-02  0.8625150E-01
       -1   -1    0    0    0  501  0.00000000000E+00  0.00000000000E+00  0.33207215500E+03  0.33207215504E+03  0.50400001928E-02 0.  1.
        1   -1    0    0  501    0  0.00000000000E+00  0.00000000000E+00 -0.28946323067E+04  0.28946323067E+04  0.50400001928E-02 0. -1.
    10030    2    1    2    0    0  0.00000000000E+00  0.00000000000E+00 -0.25625601517E+04  0.32267044617E+04  0.19608434798E+04 0.  0.
        3    1    3    3  502    0  0.44879041532E+03  0.38945402446E+02  0.15168625541E+03  0.47532968720E+03  0.10100000352E+00 0.  1.
       -3    1    3    3    0  502 -0.44879041532E+03 -0.38945402446E+02 -0.27142464071E+04  0.27513747745E+04  0.10100000352E+00 0. -1.
</event>
<event>
 5   0  0.5663790E-05  0.2044240E+04  0.7818609E-02  0.8586212E-01
       -1   -1    0    0    0  501  0.00000000000E+00  0.00000000000E+00  0.58728058808E+03  0.58728058810E+03  0.50400001928E-02 0. -1.
        1   -1    0    0  501    0  0.00000000000E+00  0.00000000000E+00 -0.17789271718E+04  0.17789271718E+04  0.50400001928E-02 0.  1.
    10030    2    1    2    0    0  0.00000000000E+00  0.00000000000E+00 -0.11916465837E+04  0.23662077599E+04  0.20442400990E+04 0.  0.
        3    1    3    3  502    0  0.37459810509E+03 -0.58774591804E+03 -0.14612125187E+04  0.16189228022E+04  0.10100000352E+00 0.  1.
       -3    1    3    3    0  502 -0.37459810509E+03  0.58774591804E+03  0.26956593497E+03  0.74728495770E+03  0.10100000352E+00 0. -1.
</event>
<event>
 5   0  0.5632156E-05  0.2244134E+04  0.7818609E-02  0.8500280E-01
       -1   -1    0    0    0  501  0.00000000000E+00  0.00000000000E+00  0.51819328988E+03  0.51819328990E+03  0.50400001928E-02 0.  1.
        1   -1    0    0  501    0  0.00000000000E+00  0.00000000000E+00 -0.24296620161E+04  0.24296620161E+04  0.50400001928E-02 0. -1.
    10030    2    1    2    0    0  0.00000000000E+00  0.00000000000E+00 -0.19114687262E+04  0.29478553060E+04  0.22441341791E+04 0.  0.
        4    1    3    3  502    0 -0.93848182605E+03 -0.53465810484E+03 -0.55638474017E+03  0.12149786084E+04  0.12699999809E+01 0.  1.
       -4    1    3    3    0  502  0.93848182605E+03  0.53465810484E+03 -0.13550839860E+04  0.17328766976E+04  0.12699999809E+01 0. -1.
</event>
<event>
 5   0  0.5663790E-05  0.1188756E+04  0.7818609E-02  0.9122756E-01
        1   -1    0    0  501    0  0.00000000000E+00  0.00000000000E+00  0.60463282516E+03  0.60463282518E+03  0.50400001928E-02 0.  1.
       -1   -1    0    0    0  501  0.00000000000E+00  0.00000000000E+00 -0.58429721197E+03  0.58429721199E+03  0.50400001928E-02 0. -1.
    10030    2    1    2    0    0  0.00000000000E+00  0.00000000000E+00  0.20335613188E+02  0.11889300372E+04  0.11887561130E+04 0.  0.
        3    1    3    3  502    0  0.30404576009E+03  0.44135457930E+03 -0.24686702157E+03  0.59006866163E+03  0.10100000352E+00 0. -1.
       -3    1    3    3    0  502 -0.30404576009E+03 -0.44135457930E+03  0.26720263476E+03  0.59886137554E+03  0.10100000352E+00 0.  1.
</event>
<event>
 5   0  0.5642466E-05  0.2137797E+04  0.7818609E-02  0.8544774E-01
       -1   -1    0    0    0  501  0.00000000000E+00  0.00000000000E+00  0.53091075010E+03  0.53091075012E+03  0.50400001928E-02 0.  1.
        1   -1    0    0  501    0  0.00000000000E+00  0.00000000000E+00 -0.21520454754E+04  0.21520454755E+04  0.50400001928E-02 0. -1.
    10030    2    1    2    0    0  0.00000000000E+00  0.00000000000E+00 -0.16211347254E+04  0.26829562256E+04  0.21377970696E+04 0.  0.
        1    1    3    3  502    0  0.56414562019E+03  0.85760690643E+03 -0.11845396207E+04  0.15674450548E+04  0.50400001928E-02 0.  1.
       -1    1    3    3    0  502 -0.56414562019E+03 -0.85760690643E+03 -0.43659510466E+03  0.11155111708E+04  0.50400001928E-02 0. -1.
</event>
<event>
 5   0  0.5924654E-05  0.2284069E+04  0.7818609E-02  0.8484229E-01
        1   -1    0    0  501    0  0.00000000000E+00  0.00000000000E+00  0.15797543447E+04  0.15797543447E+04  0.50400001928E-02 0.  1.
       -1   -1    0    0    0  501  0.00000000000E+00  0.00000000000E+00 -0.82559842169E+03  0.82559842171E+03  0.50400001928E-02 0. -1.
    10030    2    1    2    0    0  0.00000000000E+00  0.00000000000E+00  0.75415592300E+03  0.24053527664E+04  0.22840689076E+04 0.  0.
        5    1    3    3  502    0  0.56033762517E+03 -0.90258406899E+02  0.14207078221E+04  0.15298881135E+04  0.46999998093E+01 0.  1.
       -5    1    3    3    0  502 -0.56033762517E+03  0.90258406899E+02 -0.66655189910E+03  0.87546465285E+03  0.46999998093E+01 0. -1.
</event>
<event>
 5   0  0.1257524E-04  0.1794679E+04  0.7818609E-02  0.8709134E-01
        2   -1    0    0  501    0  0.00000000000E+00  0.00000000000E+00  0.88169857372E+03  0.88169857373E+03  0.25500000920E-02 0.  1.
       -2   -1    0    0    0  501  0.00000000000E+00  0.00000000000E+00 -0.91325824037E+03  0.91325824037E+03  0.25500000920E-02 0. -1.
    10030    2    1    2    0    0  0.00000000000E+00  0.00000000000E+00 -0.31559666641E+02  0.17949568141E+04  0.17946793452E+04 0.  0.
        3    1    3    3  502    0  0.78454360121E+03 -0.32731978812E+03  0.27161728923E+03  0.89242527301E+03  0.10100000352E+00 0.  1.
       -3    1    3    3    0  502 -0.78454360121E+03  0.32731978812E+03 -0.30317695587E+03  0.90253154109E+03  0.10100000352E+00 0. -1.
</event>
<event>
 5   0  0.1270613E-04  0.1817533E+04  0.7818609E-02  0.8697031E-01
       -2   -1    0    0    0  501  0.00000000000E+00  0.00000000000E+00  0.49705924588E+03  0.49705924588E+03  0.25500000920E-02 0.  1.
        2   -1    0    0  501    0  0.00000000000E+00  0.00000000000E+00 -0.16614849637E+04  0.16614849637E+04  0.25500000920E-02 0. -1.
    10030    2    1    2    0    0  0.00000000000E+00  0.00000000000E+00 -0.11644257178E+04  0.21585442096E+04  0.18175329027E+04 0.  0.
        2    1    3    3  502    0  0.27885240977E+03  0.49164436353E+03 -0.14273330727E+04  0.15351718298E+04  0.25500000920E-02 0. -1.
       -2    1    3    3    0  502 -0.27885240977E+03 -0.49164436353E+03  0.26290735487E+03  0.62337237978E+03  0.25500000920E-02 0.  1.
</event>
<event>
 5   0  0.5924654E-05  0.2421206E+04  0.7818609E-02  0.8431607E-01
       -1   -1    0    0    0  501  0.00000000000E+00  0.00000000000E+00  0.15212383824E+04  0.15212383824E+04  0.50400001928E-02 0.  1.
        1   -1    0    0  501    0  0.00000000000E+00  0.00000000000E+00 -0.96339916216E+03  0.96339916217E+03  0.50400001928E-02 0. -1.
    10030    2    1    2    0    0  0.00000000000E+00  0.00000000000E+00  0.55783922024E+03  0.24846375446E+04  0.24212061317E+04 0.  0.
        5    1    3    3  502    0 -0.17570812831E+03 -0.64131966591E+03 -0.75920227690E+03  0.10092444934E+04  0.46999998093E+01 0. -1.
       -5    1    3    3    0  502  0.17570812831E+03  0.64131966591E+03  0.13170414971E+04  0.14753930512E+04  0.46999998093E+01 0.  1.
</event>
<event>
 5   0  0.1257524E-04  0.2033050E+04  0.7818609E-02  0.8591323E-01
        2   -1    0    0  501    0  0.00000000000E+00  0.00000000000E+00  0.26074907363E+04  0.26074907363E+04  0.25500000920E-02 0. -1.
       -2   -1    0    0    0  501  0.00000000000E+00  0.00000000000E+00 -0.39629003714E+03  0.39629003715E+03  0.25500000920E-02 0.  1.
    10030    2    1    2    0    0  0.00000000000E+00  0.00000000000E+00  0.22112006991E+04  0.30037807734E+04  0.20330495328E+04 0.  0.
        3    1    3    3  502    0  0.99787363971E+03 -0.10658679677E+03  0.86640421771E+03  0.13258087436E+04  0.10100000352E+00 0.  1.
       -3    1    3    3    0  502 -0.99787363971E+03  0.10658679677E+03  0.13447964814E+04  0.16779720298E+04  0.10100000352E+00 0. -1.
</event>
<event>
 5   0  0.1237296E-04  0.2510152E+04  0.7818609E-02  0.8399378E-01
       -2   -1    0    0    0  501  0.00000000000E+00  0.00000000000E+00  0.91646496849E+03  0.91646496850E+03  0.25500000920E-02 0.  1.
        2   -1    0    0  501    0  0.00000000000E+00  0.00000000000E+00 -0.17187952903E+04  0.17187952903E+04  0.25500000920E-02 0. -1.
    10030    2    1    2    0    0  0.00000000000E+00  0.00000000000E+00 -0.80233032185E+03  0.26352602588E+04  0.25101519250E+04 0.  0.
        1    1    3    3  502    0 -0.23664388632E+03  0.69208166780E+03 -0.14719197061E+04  0.16436316452E+04  0.50400001928E-02 0. -1.
       -1    1    3    3    0  502  0.23664388632E+03 -0.69208166780E+03  0.66958938427E+03  0.99162861364E+03  0.50400001928E-02 0.  1.
</event>
<event>
 5   0  0.1281432E-04  0.1178730E+04  0.7818609E-02  0.9131681E-01
        2   -1    0    0  501    0  0.00000000000E+00  0.00000000000E+00  0.10421815901E+04  0.10421815902E+04  0.25500000920E-02 0. -1.
       -2   -1    0    0    0  501  0.00000000000E+00  0.00000000000E+00 -0.33329223090E+03  0.33329223091E+03  0.25500000920E-02 0.  1.
    10030    2    1    2    0    0  0.00000000000E+00  0.00000000000E+00  0.70888935925E+03  0.13754738211E+04  0.11787298710E+04 0.  0.
        4    1    3    3  502    0  0.42229494637E+03  0.19026724041E+03 -0.70821872880E+02  0.46856375776E+03  0.12699999809E+01 0.  1.
       -4    1    3    3    0  502 -0.42229494637E+03 -0.19026724041E+03  0.77971123213E+03  0.90691006330E+03  0.12699999809E+01 0. -1.
</event>
<event>
 5   0  0.1270613E-04  0.2276598E+04  0.7818609E-02  0.8487206E-01
       -2   -1    0    0    0  501  0.00000000000E+00  0.00000000000E+00  0.50774425070E+03  0.50774425071E+03  0.25500000920E-02 0. -1.
        2   -1    0    0  501    0  0.00000000000E+00  0.00000000000E+00 -0.25519230444E+04  0.25519230444E+04  0.25500000920E-02 0.  1.
    10030    2    1    2    0    0  0.00000000000E+00  0.00000000000E+00 -0.20441787937E+04  0.30596672951E+04  0.22765976843E+04 0.  0.
        2    1    3    3  502    0  0.36691095751E+03  0.35598046569E+03 -0.23889608059E+04  0.24430471700E+04  0.25500000920E-02 0.  1.
       -2    1    3    3    0  502 -0.36691095751E+03 -0.35598046569E+03  0.34478201223E+03  0.61662012509E+03  0.25500000920E-02 0. -1.
</event>
<event>
 5   0  0.5924654E-05  0.1143729E+04  0.7818609E-02  0.9163588E-01
       -1   -1    0    0    0  501  0.00000000000E+00  0.00000000000E+00  0.19203422385E+03  0.19203422391E+03  0.50400001928E-02 0. -1.
        1   -1    0    0  501    0  0.00000000000E+00  0.00000000000E+00 -0.17029738533E+04  0.17029738533E+04  0.50400001928E-02 0.  1.
    10030    2    1    2    0    0  0.00000000000E+00  0.00000000000E+00 -0.15109396295E+04  0.18950080773E+04  0.11437294474E+04 0.  0.
        5    1    3    3  502    0 -0.34790307164E+03  0.44072720285E+03 -0.93491825452E+03  0.10905829850E+04  0.46999998093E+01 0. -1.
       -5    1    3    3    0  502  0.34790307164E+03 -0.44072720285E+03 -0.57602137497E+03  0.80442509223E+03  0.46999998093E+01 0.  1.
</event>
<event>
 5   0  0.1270613E-04  0.2269183E+04  0.7818609E-02  0.8490172E-01
       -2   -1    0    0    0  501  0.00000000000E+00  0.00000000000E+00  0.86029753778E+03  0.86029753778E+03  0.25500000920E-02 0.  1.
        2   -1    0    0  501    0  0.00000000000E+00  0.00000000000E+00 -0.14963401782E+04  0.14963401782E+04  0.25500000920E-02 0. -1.
    10030    2    1    2    0    0  0.00000000000E+00  0.00000000000E+00 -0.63604264041E+03  0.23566377160E+04  0.22691829111E+04 0.  0.
        2    1    3    3  502    0 -0.62772293947E+03 -0.70164533052E+03 -0.97563587071E+03  0.13558051522E+04  0.25500000920E-02 0. -1.
       -2    1    3    3    0  502  0.62772293947E+03  0.70164533052E+03  0.33959323031E+03  0.10008325637E+04  0.25500000920E-02 0.  1.
</event>
<event>
 5   0  0.5924654E-05  0.2380503E+04  0.7818609E-02  0.8446839E-01
       -1   -1    0    0    0  501  0.00000000000E+00  0.00000000000E+00  0.97153231018E+03  0.97153231019E+03  0.50400001928E-02 0.  1.
        1   -1    0    0  501    0  0.00000000000E+00  0.00000000000E+00 -0.14582104732E+04  0.14582104732E+04  0.50400001928E-02 0. -1.
    10030    2    1    2    0    0  0.00000000000E+00  0.00000000000E+00 -0.48667816301E+03  0.24297427834E+04  0.23805029635E+04 0.  0.
        5    1    3    3  502    0 -0.18108280513E+03  0.30367790373E+03 -0.14033619797E+04  0.14472243045E+04  0.46999998093E+01 0. -1.
       -5    1    3    3    0  502  0.18108280513E+03 -0.30367790373E+03  0.91668381670E+03  0.98251847887E+03  0.46999998093E+01 0.  1.
</event>
<event>
 5   0  0.5843670E-05  0.2357372E+04  0.7818609E-02  0.8455638E-01
        1   -1    0    0  501    0  0.00000000000E+00  0.00000000000E+00  0.23692140992E+04  0.23692140992E+04  0.50400001928E-02 0. -1.
       -1   -1    0    0    0  501  0.00000000000E+00  0.00000000000E+00 -0.58639717486E+03  0.58639717489E+03  0.50400001928E-02 0.  1.
    10030    2    1    2    0    0  0.00000000000E+00  0.00000000000E+00  0.17828169243E+04  0.29556112741E+04  0.23573718030E+04 0.  0.
        2    1    3    3  502    0  0.70037889880E+03 -0.70283368288E+02 -0.29394184860E+03  0.76280545626E+03  0.25500000920E-02 0.  1.
       -2    1    3    3    0  502 -0.70037889880E+03  0.70283368288E+02  0.20767587729E+04  0.21928058178E+04  0.25500000920E-02 0. -1.
</event>
<event>
 5   0  0.5843670E-05  0.2258942E+04  0.7818609E-02  0.8494288E-01
        1   -1    0    0  501    0  0.00000000000E+00  0.00000000000E+00  0.10949243798E+04  0.10949243798E+04  0.50400001928E-02 0. -1.
       -1   -1    0    0    0  501  0.00000000000E+00  0.00000000000E+00 -0.11651079782E+04  0.11651079782E+04  0.50400001928E-02 0.  1.
    10030    2    1    2    0    0  0.00000000000E+00  0.00000000000E+00 -0.70183598412E+02  0.22600323579E+04  0.22589423458E+04 0.  0.
        2    1    3    3  502    0  0.79867297070E+03 -0.57470488038E+03 -0.58992311144E+03  0.11472460464E+04  0.25500000920E-02 0.  1.
       -2    1    3    3    0  502 -0.79867297070E+03  0.57470488038E+03  0.51973951303E+03  0.11127863115E+04  0.25500000920E-02 0. -1.
</event>
<event>
 5   0  0.5632156E-05  0.2304163E+04  0.7818609E-02  0.8476282E-01
        1   -1    0    0  501    0  0.00000000000E+00  0.00000000000E+00  0.11964621985E+04  0.11964621985E+04  0.50400001928E-02 0. -1.
       -1   -1    0    0    0  501  0.00000000000E+00  0.00000000000E+00 -0.11093466532E+04  0.11093466532E+04  0.50400001928E-02 0.  1.
    10030    2    1    2    0    0  0.00000000000E+00  0.00000000000E+00  0.87115545328E+02  0.23058088517E+04  0.23041626119E+04 0.  0.
        4    1    3    3  502    0 -0.57905830626E+03 -0.37215949902E+03  0.96805682717E+03  0.11878328368E+04  0.12699999809E+01 0. -1.
       -4    1    3    3    0  502  0.57905830626E+03  0.37215949902E+03 -0.88094128184E+03  0.11179760148E+04  0.12699999809E+01 0.  1.
</event>
<event>
 5   0  0.1237296E-04  0.1143935E+04  0.7818609E-02  0.9163397E-01
       -2   -1    0    0    0  501  0.00000000000E+00  0.00000000000E+00  0.87019196554E+03  0.87019196554E+03  0.25500000920E-02 0.  1.
        2   -1    0    0  501    0  0.00000000000E+00  0.00000000000E+00 -0.37594777552E+03  0.37594777553E+03  0.25500000920E-02 0. -1.
    10030    2    1    2    0    0  0.00000000000E+00  0.00000000000E+00  0.49424419002E+03  0.12461397411E+04  0.11439348473E+04 0.  0.
        1    1    3    3  502    0  0.96622774435E+01 -0.51639976483E+03  0.51481000587E+03  0.72924030257E+03  0.50400001928E-02 0.  1.
       -1    1    3    3    0  502 -0.96622774435E+01  0.51639976483E+03 -0.20565815848E+02  0.51689943850E+03  0.50400001928E-02 0. -1.
</event>
<event>
 5   0  0.1281432E-04  0.2221923E+04  0.7818609E-02  0.8509358E-01
       -2   -1    0    0    0  501  0.00000000000E+00  0.00000000000E+00  0.10632740739E+04  0.10632740739E+04  0.25500000920E-02 0.  1.
        2   -1    0    0  501    0  0.00000000000E+00  0.00000000000E+00 -0.11607875199E+04  0.11607875199E+04  0.25500000920E-02 0. -1.
    10030    2    1    2    0    0  0.00000000000E+00  0.00000000000E+00 -0.97513445991E+02  0.22240615938E+04  0.22219228386E+04 0.  0.
        4    1    3    3  502    0 -0.56880393304E+03  0.52665151312E+03 -0.84534555949E+03  0.11469570429E+04  0.12699999809E+01 0. -1.
       -4    1    3    3    0  502  0.56880393304E+03 -0.52665151312E+03  0.74783211349E+03  0.10771045508E+04  0.12699999809E+01 0.  1.
</event>
<event>
 5   0  0.5663790E-05  0.2462878E+04  0.7818609E-02  0.8416331E-01
        1   -1    0    0  501    0  0.00000000000E+00  0.00000000000E+00  0.10801049422E+04  0.10801049422E+04  0.50400001928E-02 0.  1.
       -1   -1    0    0    0  501  0.00000000000E+00  0.00000000000E+00 -0.14039763104E+04  0.14039763104E+04  0.50400001928E-02 0. -1.
    10030    2    1    2    0    0  0.00000000000E+00  0.00000000000E+00 -0.32387136821E+03  0.24840812527E+04  0.24628777897E+04 0.  0.
        3    1    3    3  502    0  0.43231508513E+03 -0.92058593340E+03  0.53835220054E+03  0.11507379787E+04  0.10100000352E+00 0.  1.
       -3    1    3    3    0  502 -0.43231508513E+03  0.92058593340E+03 -0.86222356874E+03  0.13333432740E+04  0.10100000352E+00 0. -1.
</event>
<event>
 5   0  0.1257524E-04  0.2316716E+04  0.7818609E-02  0.8471359E-01
       -2   -1    0    0    0  501  0.00000000000E+00  0.00000000000E+00  0.12504196427E+04  0.12504196427E+04  0.25500000920E-02 0. -1.
        2   -1    0    0  501    0  0.00000000000E+00  0.00000000000E+00 -0.10730739855E+04  0.10730739855E+04  0.25500000920E-02 0.  1.
    10030    2    1    2    0    0  0.00000000000E+00  0.00000000000E+00  0.17734565713E+03  0.23234936282E+04  0.23167155972E+04 0.  0.
        3    1    3    3  502    0 -0.19007776546E+03  0.11307274827E+04 -0.76486174856E+02  0.11491406973E+04  0.10100000352E+00 0.  1.
       -3    1    3    3    0  502  0.19007776546E+03 -0.11307274827E+04  0.25383183199E+03  0.11743529309E+04  0.10100000352E+00 0. -1.
</event>
<event>
 5   0  0.5663790E-05  0.2350617E+04  0.7818609E-02  0.8458227E-01
       -1   -1    0    0    0  501  0.00000000000E+00  0.00000000000E+00  0.16092183630E+04  0.16092183630E+04  0.50400001928E-02 0.  1.
        1   -1    0    0  501    0  0.00000000000E+00  0.00000000000E+00 -0.85839824332E+03  0.85839824333E+03  0.50400001928E-02 0. -1.
    10030    2    1    2    0    0  0.00000000000E+00  0.00000000000E+00  0.75082011972E+03  0.24676166064E+04  0.23506171241E+04 0.  0.
        3    1    3    3  502    0  0.82748865940E+03  0.52963380038E+03 -0.30175578379E+03  0.10277674869E+04  0.10100000352E+00 0. -1.
       -3    1    3    3    0  502 -0.82748865940E+03 -0.52963380038E+03  0.10525759035E+04  0.14398491194E+04  0.10100000352E+00 0.  1.
</event>
<event>
 5   0  0.5843670E-05  0.2333837E+04  0.7818609E-02  0.8464698E-01
        1   -1    0    0  501    0  0.00000000000E+00  0.00000000000E+00  0.10523630154E+04  0.10523630154E+04  0.50400001928E-02 0.  1.
       -1   -1    0    0    0  501  0.00000000000E+00  0.00000000000E+00 -0.12939442200E+04  0.12939442200E+04  0.50400001928E-02 0. -1.
    10030    2    1    2    0    0  0.00000000000E+00  0.00000000000E+00 -0.24158120458E+03  0.23463072354E+04  0.23338372189E+04 0.  0.
        2    1    3    3  502    0 -0.59304582121E+03  0.87519626722E+03  0.37583994250E+03  0.11220193914E+04  0.25500000920E-02 0.  1.
       -2    1    3    3    0  502  0.59304582121E+03 -0.87519626722E+03 -0.61742114708E+03  0.12242878440E+04  0.25500000920E-02 0. -1.
</event>
<event>
 5   0  0.1270613E-04  0.1589254E+04  0.7818609E-02  0.8827177E-01
        2   -1    0    0  501    0  0.00000000000E+00  0.00000000000E+00  0.93861607500E+03  0.93861607500E+03  0.25500000920E-02 0.  1.
       -2   -1    0    0    0  501  0.00000000000E+00  0.00000000000E+00 -0.67272676069E+03  0.67272676069E+03  0.25500000920E-02 0. -1.
    10030    2    1    2    0    0  0.00000000000E+00  0.00000000000E+00  0.26588931431E+03  0.16113428357E+04  0.15892541039E+04 0.  0.
        2    1    3    3  502    0  0.22787291230E+03 -0.57370285165E+02 -0.63669385602E+03  0.67867258681E+03  0.25500000920E-02 0. -1.
       -2    1    3    3    0  502 -0.22787291230E+03  0.57370285165E+02  0.90258317033E+03  0.93267024888E+03  0.25500000920E-02 0.  1.
</event>
<event>
 5   0  0.5924654E-05  0.2323255E+04  0.7818609E-02  0.8468808E-01
       -1   -1    0    0    0  501  0.00000000000E+00  0.00000000000E+00  0.16520710430E+04  0.16520710430E+04  0.50400001928E-02 0.  1.
        1   -1    0    0  501    0  0.00000000000E+00  0.00000000000E+00 -0.81677972262E+03  0.81677972263E+03  0.50400001928E-02 0. -1.
    10030    2    1    2    0    0  0.00000000000E+00  0.00000000000E+00  0.83529132041E+03  0.24688507657E+04  0.23232547241E+04 0.  0.
        5    1    3    3  502    0 -0.84311102809E+03 -0.17690375014E+03  0.12457266116E+04  0.15145917019E+04  0.46999998093E+01 0.  1.
       -5    1    3    3    0  502  0.84311102809E+03  0.17690375014E+03 -0.41043529123E+03  0.95425906377E+03  0.46999998093E+01 0. -1.
</event>
<event>
 5   0  0.5642466E-05  0.2005550E+04  0.7818609E-02  0.8604030E-01
        1   -1    0    0  501    0  0.00000000000E+00  0.00000000000E+00  0.17969651293E+04  0.17969651293E+04  0.50400001928E-02 0. -1.
       -1   -1    0    0    0  501  0.00000000000E+00  0.00000000000E+00 -0.55958686915E+03  0.55958686917E+03  0.50400001928E-02 0.  1.
    10030    2    1    2    0    0  0.00000000000E+00  0.00000000000E+00  0.12373782601E+04  0.23565519985E+04  0.20055503890E+04 0.  0.
        1    1    3    3  502    0 -0.33837968883E+03  0.75088551652E+03  0.12908431846E+04  0.15312106322E+04  0.50400001928E-02 0. -1.
       -1    1    3    3    0  502  0.33837968883E+03 -0.75088551652E+03 -0.53464924508E+02  0.82534136629E+03  0.50400001928E-02 0.  1.
</event>
<event>
 5   0  0.1281432E-04  0.2326639E+04  0.7818609E-02  0.8467491E-01
       -2   -1    0    0    0  501  0.00000000000E+00  0.00000000000E+00  0.95271647592E+03  0.95271647593E+03  0.25500000920E-02 0.  1.
        2   -1    0    0  501    0  0.00000000000E+00  0.00000000000E+00 -0.14204776865E+04  0.14204776865E+04  0.25500000920E-02 0. -1.
    10030    2    1    2    0    0  0.00000000000E+00  0.00000000000E+00 -0.46776121057E+03  0.23731941624E+04  0.23266392033E+04 0.  0.
        4    1    3    3  502    0  0.70814561445E+03 -0.65715927199E+03 -0.89490845336E+03  0.13168869628E+04  0.12699999809E+01 0. -1.
       -4    1    3    3    0  502 -0.70814561445E+03  0.65715927199E+03  0.42714724279E+03  0.10563071996E+04  0.12699999809E+01 0.  1.
</event>
<event>
 5   0  0.5642466E-05  0.2067685E+04  0.7818609E-02  0.8575613E-01
       -1   -1    0    0    0  501  0.00000000000E+00  0.00000000000E+00  0.51290948129E+03  0.51290948132E+03  0.50400001928E-02 0.  1.
        1   -1    0    0  501    0  0.00000000000E+00  0.00000000000E+00 -0.20838584353E+04  0.20838584353E+04  0.50400001928E-02 0. -1.
    10030    2    1    2    0    0  0.00000000000E+00  0.00000000000E+00 -0.15709489540E+04  0.25967679166E+04  0.20676854202E+04 0.  0.
        1    1    3    3  502    0 -0.38954329205E+02 -0.76953845463E+03  0.80194988481E+02  0.77468581316E+03  0.50400001928E-02 0.  1.
       -1    1    3    3    0  502  0.38954329205E+02  0.76953845463E+03 -0.16511439425E+04  0.18220821035E+04  0.50400001928E-02 0. -1.
</event>
<event>
 5   0  0.1281432E-04  0.2328185E+04  0.7818609E-02  0.8466890E-01
       -2   -1    0    0    0  501  0.00000000000E+00  0.00000000000E+00  0.16127234704E+04  0.16127234704E+04  0.25500000920E-02 0. -1.
        2   -1    0    0  501    0  0.00000000000E+00  0.00000000000E+00 -0.84026253640E+03  0.84026253640E+03  0.25500000920E-02 0.  1.
    10030    2    1    2    0    0  0.00000000000E+00  0.00000000000E+00  0.77246093403E+03  0.24529860068E+04  0.23281847983E+04 0.  0.
        4    1    3    3  502    0  0.94702417057E+02  0.10743093145E+03  0.16034057042E+04  0.16097892464E+04  0.12699999809E+01 0. -1.
       -4    1    3    3    0  502 -0.94702417057E+02 -0.10743093145E+03 -0.83094477015E+03  0.84319676041E+03  0.12699999809E+01 0.  1.
</event>
<event>
 5   0  0.1234988E-04  0.2259743E+04  0.7818609E-02  0.8493965E-01
        2   -1    0    0  501    0  0.00000000000E+00  0.00000000000E+00  0.23218962303E+04  0.23218962303E+04  0.25500000920E-02 0. -1.
       -2   -1    0    0    0  501  0.00000000000E+00  0.00000000000E+00 -0.54981315735E+03  0.54981315735E+03  0.25500000920E-02 0.  1.
    10030    2    1    2    0    0  0.00000000000E+00  0.00000000000E+00  0.17720830729E+04  0.28717093876E+04  0.22597425494E+04 0.  0.
        5    1    3    3  502    0 -0.40440841360E+03 -0.71116593625E+03  0.18763657366E+04  0.20469669322E+04  0.46999998093E+01 0. -1.
       -5    1    3    3    0  502  0.40440841360E+03  0.71116593625E+03 -0.10428266369E+03  0.82474245545E+03  0.46999998093E+01 0.  1.
</event>
<event>
 5   0  0.5632156E-05  0.2317172E+04  0.7818609E-02  0.8471181E-01
       -1   -1    0    0    0  501  0.00000000000E+00  0.00000000000E+00  0.10330419021E+04  0.10330419021E+04  0.50400001928E-02 0.  1.
        1   -1    0    0  501    0  0.00000000000E+00  0.00000000000E+00 -0.12993867801E+04  0.12993867801E+04  0.50400001928E-02 0. -1.
    10030    2    1    2    0    0  0.00000000000E+00  0.00000000000E+00 -0.26634487793E+03  0.23324286822E+04  0.23171715438E+04 0.  0.
        4    1    3    3  502    0  0.75765174422E+03 -0.14308622889E+03  0.73728128687E+03  0.10668154214E+04  0.12699999809E+01 0.  1.
       -4    1    3    3    0  502 -0.75765174422E+03  0.14308622889E+03 -0.10036261648E+04  0.12656132608E+04  0.12699999809E+01 0. -1.
</event>
<event>
 5   0  0.1234988E-04  0.2332918E+04  0.7818609E-02  0.8465054E-01
        2   -1    0    0  501    0  0.00000000000E+00  0.00000000000E+00  0.12549914366E+04  0.12549914366E+04  0.25500000920E-02 0.  1.
       -2   -1    0    0    0  501  0.00000000000E+00  0.00000000000E+00 -0.10841718798E+04  0.10841718798E+04  0.25500000920E-02 0. -1.
    10030    2    1    2    0    0  0.00000000000E+00  0.00000000000E+00  0.17081955681E+03  0.23391633164E+04  0.23329178511E+04 0.  0.
        5    1    3    3  502    0 -0.72050521415E+03  0.37551316487E+03  0.92458907896E+03  0.12308635000E+04  0.46999998093E+01 0.  1.
       -5    1    3    3    0  502  0.72050521415E+03 -0.37551316487E+03 -0.75376952215E+03  0.11082998164E+04  0.46999998093E+01 0. -1.
</event>
<event>
 5   0  0.4489500E-05  0.2310716E+04  0.7818609E-02  0.8473708E-01
        4   -1    0    0  501    0  0.00000000000E+00  0.00000000000E+00  0.12852105923E+04  0.12852112198E+04  0.12699999809E+01 0.  1.
       -4   -1    0    0    0  501  0.00000000000E+00  0.00000000000E+00 -0.10386238145E+04  0.10386245910E+04  0.12699999809E+01 0. -1.
    10030    2    1    2    0    0  0.00000000000E+00  0.00000000000E+00  0.24658677779E+03  0.23238358108E+04  0.23107158710E+04 0.  0.
        3    1    3    3  502    0 -0.57615658380E+03 -0.31618178326E+03 -0.83232531234E+03  0.10605153299E+04  0.10100000352E+00 0. -1.
       -3    1    3    3    0  502  0.57615658380E+03  0.31618178326E+03  0.10789120901E+04  0.12633204809E+04  0.10100000352E+00 0.  1.
</event>
<event>
 5   0  0.1270613E-04  0.2385339E+04  0.7818609E-02  0.8445013E-01
       -2   -1    0    0    0  501  0.00000000000E+00  0.00000000000E+00  0.13529766229E+04  0.13529766229E+04  0.25500000920E-02 0. -1.
        2   -1    0    0  501    0  0.00000000000E+00  0.00000000000E+00 -0.10513562467E+04  0.10513562468E+04  0.25500000920E-02 0.  1.
    10030    2    1    2    0    0  0.00000000000E+00  0.00000000000E+00  0.30162037613E+03  0.24043328696E+04  0.23853389060E+04 0.  0.
        2    1    3    3  502    0  0.10329763231E+04  0.20354308519E+03 -0.41400035189E+03  0.11313117002E+04  0.25500000920E-02 0. -1.
       -2    1    3    3    0  502 -0.10329763231E+04 -0.20354308519E+03  0.71562072801E+03  0.12730211695E+04  0.25500000920E-02 0.  1.
</event>
<event>
 5   0  0.5663790E-05  0.2266830E+04  0.7818609E-02  0.8491116E-01
        1   -1    0    0  501    0  0.00000000000E+00  0.00000000000E+00  0.83385126970E+03  0.83385126972E+03  0.50400001928E-02 0.  1.
       -1   -1    0    0    0  501  0.00000000000E+00  0.00000000000E+00 -0.15405974922E+04  0.15405974922E+04  0.50400001928E-02 0. -1.
    10030    2    1    2    0    0  0.00000000000E+00  0.00000000000E+00 -0.70674622250E+03  0.23744487619E+04  0.22668296584E+04 0.  0.
        3    1    3    3  502    0  0.23058659865E+03 -0.12497927866E+03 -0.15083731020E+04  0.15310060172E+04  0.10100000352E+00 0. -1.
       -3    1    3    3    0  502 -0.23058659865E+03  0.12497927866E+03  0.80162687950E+03  0.84344274477E+03  0.10100000352E+00 0.  1.
</event>
</LesHouchesEvents>
